GROningen MAchine for Chemical Simulation
57072
    1C5    HO5'    1   3.411   5.495   3.660
    1C5     O5'    2   3.461   5.441   3.627
    1C5     C5'    3   3.592   5.417   3.682
    1C5     H5'    4   3.665   5.440   3.623
    1C5    H5''    5   3.594   5.321   3.699
    1C5     C4'    6   3.608   5.492   3.812
    1C5     H4'    7   3.635   5.583   3.795
    1C5     O4'    8   3.482   5.493   3.881
    1C5     C1'    9   3.502   5.476   4.021
    1C5     H1'   10   3.461   5.549   4.070
    1C5      N1   11   3.438   5.349   4.061
    1C5      C6   12   3.392   5.261   3.966
    1C5      H6   13   3.403   5.282   3.876
    1C5      C5   14   3.333   5.145   3.999
    1C5      H5   15   3.301   5.087   3.934
    1C5      C4   16   3.320   5.115   4.137
    1C5      N4   17   3.262   5.000   4.175
    1C5     H41   18   3.234   4.945   4.115
    1C5     H42   19   3.253   4.981   4.258
    1C5      N3   20   3.364   5.200   4.231
    1C5      C2   21   3.424   5.317   4.196
    1C5      O2   22   3.468   5.398   4.277
    1C5     C3'   23   3.706   5.431   3.912
    1C5     H3'   24   3.699   5.334   3.910
    1C5     C2'   25   3.652   5.479   4.046
    1C5     H2'   26   3.678   5.419   4.117
    1C5     O2'   27   3.691   5.612   4.073
    1C5    HO2'   28   3.766   5.626   4.040
    1C5     O3'   29   3.841   5.468   3.884
    2U        P   30   3.960   5.364   3.904
    2U      OP1   31   4.086   5.433   3.865
    2U      OP2   32   3.924   5.233   3.846
    2U      O5'   33   3.967   5.341   4.063
    2U      C5'   34   3.988   5.450   4.151
    2U      H5'   35   3.926   5.521   4.129
    2U     H5''   36   4.079   5.483   4.139
    2U      C4'   37   3.969   5.411   4.297
    2U      H4'   38   4.000   5.484   4.352
    2U      O4'   39   3.828   5.388   4.327
    2U      C1'   40   3.815   5.282   4.419
    2U      H1'   41   3.762   5.311   4.495
    2U       N1   42   3.747   5.168   4.355
    2U       C6   43   3.739   5.155   4.217
    2U       H6   44   3.780   5.220   4.164
    2U       C5   45   3.676   5.053   4.157
    2U       H5   46   3.672   5.049   4.064
    2U       C4   47   3.616   4.950   4.237
    2U       O4   48   3.554   4.851   4.197
    2U       N3   49   3.628   4.969   4.375
    2U       H3   50   3.592   4.909   4.425
    2U       C2   51   3.692   5.073   4.438
    2U       O2   52   3.699   5.078   4.561
    2U      C3'   53   4.035   5.282   4.341
    2U      H3'   54   4.021   5.213   4.274
    2U      C2'   55   3.956   5.247   4.465
    2U      H2'   56   3.966   5.154   4.490
    2U      O2'   57   3.989   5.335   4.570
    2U     HO2'   58   4.072   5.335   4.581
    2U      O3'   59   4.175   5.296   4.362
    3G        P   60   4.274   5.172   4.338
    3G      OP1   61   4.411   5.224   4.358
    3G      OP2   62   4.240   5.100   4.212
    3G      O5'   63   4.244   5.071   4.457
    3G      C5'   64   4.272   5.108   4.592
    3G      H5'   65   4.228   5.192   4.611
    3G     H5''   66   4.367   5.119   4.602
    3G      C4'   67   4.223   5.004   4.689
    3G      H4'   68   4.253   5.029   4.777
    3G      O4'   69   4.077   4.997   4.686
    3G      C1'   70   4.035   4.864   4.712
    3G      H1'   71   3.976   4.865   4.789
    3G       N9   72   3.962   4.810   4.598
    3G       C8   73   3.967   4.856   4.468
    3G       H8   74   4.018   4.929   4.440
    3G       N7   75   3.892   4.787   4.389
    3G       C5   76   3.836   4.688   4.469
    3G       C6   77   3.748   4.582   4.436
    3G       O6   78   3.698   4.553   4.327
    3G       N1   79   3.717   4.504   4.545
    3G       H1   80   3.663   4.438   4.533
    3G       C2   81   3.767   4.524   4.671
    3G       N2   82   3.726   4.434   4.761
    3G      H21   83   3.672   4.372   4.738
    3G      H22   84   3.755   4.439   4.842
    3G       N3   85   3.850   4.621   4.703
    3G       C4   86   3.882   4.699   4.598
    3G      C3'   87   4.265   4.860   4.663
    3G      H3'   88   4.255   4.842   4.568
    3G      C2'   89   4.161   4.783   4.744
    3G      H2'   90   4.154   4.691   4.716
    3G      O2'   91   4.185   4.797   4.883
    3G     HO2'   92   4.255   4.754   4.903
    3G      O3'   93   4.398   4.827   4.700
    4G        P   94   4.480   4.720   4.611
    4G      OP1   95   4.617   4.722   4.667
    4G      OP2   96   4.453   4.739   4.466
    4G      O5'   97   4.412   4.579   4.642
    4G      C5'   98   4.423   4.523   4.771
    4G      H5'   99   4.410   4.594   4.837
    4G     H5''  100   4.511   4.485   4.782
    4G      C4'  101   4.321   4.416   4.796
    4G      H4'  102   4.324   4.394   4.890
    4G      O4'  103   4.187   4.462   4.762
    4G      C1'  104   4.110   4.352   4.717
    4G      H1'  105   4.030   4.345   4.772
    4G       N9  106   4.071   4.373   4.576
    4G       C8  107   4.115   4.466   4.485
    4G       H8  108   4.179   4.530   4.504
    4G       N7  109   4.056   4.454   4.368
    4G       C5  110   3.970   4.347   4.386
    4G       C6  111   3.879   4.285   4.296
    4G       O6  112   3.855   4.313   4.178
    4G       N1  113   3.813   4.179   4.356
    4G       H1  114   3.756   4.135   4.308
    4G       C2  115   3.829   4.139   4.486
    4G       N2  116   3.754   4.035   4.523
    4G      H21  117   3.699   3.999   4.467
    4G      H22  118   3.761   4.003   4.603
    4G       N3  119   3.913   4.195   4.571
    4G       C4  120   3.977   4.298   4.513
    4G      C3'  121   4.335   4.288   4.714
    4G      H3'  122   4.351   4.310   4.621
    4G      C2'  123   4.197   4.227   4.731
    4G      H2'  124   4.176   4.160   4.665
    4G      O2'  125   4.183   4.178   4.864
    4G     HO2'  126   4.144   4.236   4.911
    4G      O3'  127   4.441   4.204   4.757
    5G        P  128   4.508   4.102   4.654
    5G      OP1  129   4.620   4.038   4.723
    5G      OP2  130   4.527   4.170   4.522
    5G      O5'  131   4.398   3.989   4.633
    5G      C5'  132   4.351   3.913   4.742
    5G      H5'  133   4.314   3.973   4.809
    5G     H5''  134   4.425   3.864   4.782
    5G      C4'  135   4.244   3.816   4.698
    5G      H4'  136   4.217   3.763   4.775
    5G      O4'  137   4.130   3.889   4.647
    5G      C1'  138   4.068   3.816   4.543
    5G      H1'  139   3.976   3.798   4.566
    5G       N9  140   4.074   3.896   4.419
    5G       C8  141   4.161   3.998   4.391
    5G       H8  142   4.225   4.029   4.451
    5G       N7  143   4.144   4.047   4.270
    5G       C5  144   4.038   3.977   4.218
    5G       C6  145   3.974   3.988   4.092
    5G       O6  146   3.997   4.068   3.999
    5G       N1  147   3.873   3.894   4.079
    5G       H1  148   3.828   3.894   4.005
    5G       C2  149   3.838   3.803   4.174
    5G       N2  150   3.738   3.721   4.140
    5G      H21  151   3.701   3.729   4.063
    5G      H22  152   3.711   3.661   4.195
    5G       N3  153   3.896   3.792   4.293
    5G       C4  154   3.995   3.882   4.307
    5G      C3'  155   4.281   3.723   4.584
    5G      H3'  156   4.330   3.772   4.516
    5G      C2'  157   4.145   3.684   4.529
    5G      H2'  158   4.152   3.654   4.436
    5G      O2'  159   4.081   3.586   4.608
    5G     HO2'  160   4.132   3.521   4.618
    5G      O3'  161   4.360   3.613   4.626
    6U        P  162   4.438   3.525   4.518
    6U      OP1  163   4.579   3.505   4.557
    6U      OP2  164   4.409   3.585   4.383
    6U      O5'  165   4.365   3.384   4.529
    6U      C5'  166   4.354   3.319   4.655
    6U      H5'  167   4.330   3.384   4.722
    6U     H5''  168   4.439   3.279   4.678
    6U      C4'  169   4.249   3.211   4.651
    6U      H4'  170   4.244   3.168   4.738
    6U      O4'  171   4.119   3.270   4.622
    6U      C1'  172   4.043   3.181   4.542
    6U      H1'  173   3.960   3.161   4.588
    6U       N1  174   4.010   3.247   4.413
    6U       C6  175   4.078   3.357   4.367
    6U       H6  176   4.148   3.390   4.418
    6U       C5  177   4.048   3.419   4.251
    6U       H5  178   4.098   3.493   4.224
    6U       C4  179   3.941   3.371   4.171
    6U       O4  180   3.904   3.418   4.061
    6U       N3  181   3.877   3.260   4.223
    6U       H3  182   3.812   3.228   4.177
    6U       C2  183   3.905   3.195   4.341
    6U       O2  184   3.841   3.097   4.376
    6U      C3'  185   4.266   3.106   4.543
    6U      H3'  186   4.295   3.148   4.461
    6U      C2'  187   4.125   3.054   4.524
    6U      H2'  188   4.114   3.015   4.436
    6U      O2'  189   4.088   2.962   4.626
    6U     HO2'  190   4.136   2.894   4.620
    6U      O3'  191   4.361   3.006   4.578
    7C        P  192   4.465   2.952   4.468
    7C      OP1  193   4.530   2.832   4.524
    7C      OP2  194   4.550   3.063   4.419
    7C      O5'  195   4.371   2.920   4.343
    7C      C5'  196   4.276   2.816   4.348
    7C      H5'  197   4.218   2.828   4.424
    7C     H5''  198   4.322   2.731   4.356
    7C      C4'  199   4.194   2.817   4.222
    7C      H4'  200   4.130   2.744   4.223
    7C      O4'  201   4.122   2.943   4.213
    7C      C1'  202   4.115   2.986   4.078
    7C      H1'  203   4.021   2.997   4.056
    7C       N1  204   4.186   3.115   4.062
    7C       C6  205   4.286   3.156   4.146
    7C       H6  206   4.308   3.103   4.219
    7C       C5  207   4.353   3.270   4.124
    7C       H5  208   4.420   3.298   4.182
    7C       C4  209   4.316   3.346   4.009
    7C       N4  210   4.377   3.461   3.981
    7C      H41  211   4.440   3.490   4.033
    7C      H42  212   4.354   3.507   3.912
    7C       N3  213   4.220   3.307   3.926
    7C       C2  214   4.155   3.192   3.949
    7C       O2  215   4.066   3.153   3.874
    7C      C3'  216   4.276   2.812   4.093
    7C      H3'  217   4.354   2.868   4.102
    7C      C2'  218   4.181   2.877   3.992
    7C      H2'  219   4.229   2.915   3.917
    7C      O2'  220   4.082   2.787   3.946
    7C     HO2'  221   4.119   2.726   3.902
    7C      O3'  222   4.320   2.681   4.059
    8G        P  223   4.475   2.654   4.026
    8G      OP1  224   4.495   2.508   4.007
    8G      OP2  225   4.562   2.731   4.118
    8G      O5'  226   4.496   2.727   3.885
    8G      C5'  227   4.413   2.699   3.775
    8G      H5'  228   4.320   2.704   3.803
    8G     H5''  229   4.431   2.609   3.743
    8G      C4'  230   4.437   2.797   3.663
    8G      H4'  231   4.388   2.768   3.585
    8G      O4'  232   4.388   2.929   3.702
    8G      C1'  233   4.467   3.029   3.640
    8G      H1'  234   4.407   3.080   3.584
    8G       N9  235   4.530   3.118   3.741
    8G       C8  236   4.574   3.095   3.870
    8G       H8  237   4.559   3.015   3.915
    8G       N7  238   4.638   3.196   3.923
    8G       C5  239   4.641   3.290   3.823
    8G       C6  240   4.696   3.419   3.821
    8G       O6  241   4.755   3.476   3.914
    8G       N1  242   4.677   3.482   3.697
    8G       H1  243   4.710   3.560   3.687
    8G       C2  244   4.611   3.428   3.591
    8G       N2  245   4.603   3.504   3.480
    8G      H21  246   4.637   3.583   3.479
    8G      H22  247   4.564   3.474   3.409
    8G       N3  248   4.558   3.306   3.591
    8G       C4  249   4.576   3.244   3.710
    8G      C3'  250   4.583   2.820   3.627
    8G      H3'  251   4.636   2.826   3.708
    8G      C2'  252   4.578   2.957   3.559
    8G      H2'  253   4.661   3.006   3.568
    8G      O2'  254   4.542   2.943   3.422
    8G     HO2'  255   4.601   2.898   3.383
    8G      O3'  256   4.637   2.717   3.545
    9C        P  257   4.781   2.650   3.578
    9C      OP1  258   4.814   2.550   3.475
    9C      OP2  259   4.790   2.612   3.721
    9C      O5'  260   4.882   2.771   3.559
    9C      C5'  261   5.019   2.756   3.589
    9C      H5'  262   5.045   2.663   3.576
    9C     H5''  263   5.034   2.779   3.682
    9C      C4'  264   5.103   2.844   3.502
    9C      H4'  265   5.194   2.846   3.536
    9C      O4'  266   5.105   2.790   3.367
    9C      C1'  267   5.104   2.896   3.273
    9C      H1'  268   5.181   2.888   3.215
    9C       N1  269   4.981   2.886   3.192
    9C       C6  270   4.876   2.804   3.224
    9C       H6  271   4.879   2.752   3.302
    9C       C5  272   4.768   2.797   3.144
    9C       H5  273   4.696   2.742   3.164
    9C       C4  274   4.769   2.878   3.026
    9C       N4  275   4.667   2.877   2.939
    9C      H41  276   4.598   2.828   2.955
    9C      H42  277   4.670   2.926   2.869
    9C       N3  278   4.871   2.958   2.994
    9C       C2  279   4.979   2.962   3.075
    9C       O2  280   5.076   3.035   3.051
    9C      C3'  281   5.053   2.986   3.484
    9C      H3'  282   4.956   2.985   3.475
    9C      C2'  283   5.114   3.027   3.351
    9C      H2'  284   5.064   3.099   3.309
    9C      O2'  285   5.251   3.060   3.364
    9C     HO2'  286   5.258   3.136   3.401
    9C      O3'  287   5.088   3.071   3.592
   10A        P  288   4.986   3.181   3.646
   10A      OP1  289   5.058   3.254   3.754
   10A      OP2  290   4.854   3.119   3.679
   10A      O5'  291   4.968   3.280   3.523
   10A      C5'  292   5.072   3.369   3.485
   10A      H5'  293   5.156   3.320   3.483
   10A     H5''  294   5.079   3.440   3.551
   10A      C4'  295   5.047   3.428   3.349
   10A      H4'  296   5.127   3.472   3.318
   10A      O4'  297   5.012   3.323   3.256
   10A      C1'  298   4.915   3.368   3.165
   10A      H1'  299   4.948   3.361   3.074
   10A       N9  300   4.796   3.282   3.178
   10A       C8  301   4.756   3.206   3.286
   10A       H8  302   4.804   3.202   3.365
   10A       N7  303   4.646   3.139   3.265
   10A       C5  304   4.611   3.172   3.135
   10A       C6  305   4.504   3.133   3.053
   10A       N6  306   4.409   3.048   3.092
   10A      H61  307   4.345   3.028   3.038
   10A      H62  308   4.411   3.014   3.171
   10A       N1  309   4.499   3.185   2.928
   10A       C2  310   4.595   3.270   2.889
   10A       H2  311   4.586   3.304   2.803
   10A       N3  312   4.702   3.313   2.956
   10A       C4  313   4.703   3.260   3.081
   10A      C3'  314   4.931   3.526   3.341
   10A      H3'  315   4.859   3.494   3.397
   10A      C2'  316   4.889   3.516   3.195
   10A      H2'  317   4.795   3.538   3.184
   10A      O2'  318   4.974   3.595   3.113
   10A     HO2'  319   4.963   3.676   3.133
   10A      O3'  320   4.970   3.656   3.378
   11G        P  321   4.901   3.732   3.500
   11G      OP1  322   4.980   3.857   3.516
   11G      OP2  323   4.886   3.646   3.622
   11G      O5'  324   4.754   3.760   3.448
   11G      C5'  325   4.732   3.830   3.325
   11G      H5'  326   4.715   3.766   3.254
   11G     H5''  327   4.811   3.881   3.303
   11G      C4'  328   4.614   3.922   3.339
   11G      H4'  329   4.599   3.970   3.256
   11G      O4'  330   4.498   3.841   3.370
   11G      C1'  331   4.441   3.882   3.491
   11G      H1'  332   4.367   3.944   3.474
   11G       N9  333   4.389   3.763   3.559
   11G       C8  334   4.433   3.709   3.678
   11G       H8  335   4.503   3.745   3.728
   11G       N7  336   4.366   3.602   3.714
   11G       C5  337   4.273   3.584   3.614
   11G       C6  338   4.176   3.482   3.598
   11G       O6  339   4.153   3.387   3.674
   11G       N1  340   4.104   3.498   3.481
   11G       H1  341   4.043   3.440   3.463
   11G       C2  342   4.123   3.599   3.390
   11G       N2  343   4.042   3.595   3.284
   11G      H21  344   3.983   3.533   3.278
   11G      H22  345   4.049   3.654   3.222
   11G       N3  346   4.215   3.694   3.401
   11G       C4  347   4.286   3.681   3.516
   11G      C3'  348   4.625   4.025   3.452
   11G      H3'  349   4.718   4.042   3.475
   11G      C2'  350   4.551   3.957   3.567
   11G      H2'  351   4.609   3.894   3.610
   11G      O2'  352   4.497   4.046   3.663
   11G     HO2'  353   4.431   4.010   3.700
   11G      O3'  354   4.560   4.147   3.415
   12U        P  355   4.619   4.240   3.296
   12U      OP1  356   4.537   4.213   3.173
   12U      OP2  357   4.767   4.233   3.297
   12U      O5'  358   4.583   4.388   3.343
   12U      C5'  359   4.635   4.441   3.465
   12U      H5'  360   4.703   4.381   3.499
   12U     H5''  361   4.563   4.448   3.530
   12U      C4'  362   4.695   4.578   3.443
   12U      H4'  363   4.716   4.616   3.529
   12U      O4'  364   4.818   4.564   3.366
   12U      C1'  365   4.812   4.651   3.255
   12U      H1'  366   4.849   4.737   3.281
   12U       N1  367   4.895   4.602   3.145
   12U       C6  368   4.892   4.473   3.100
   12U       H6  369   4.836   4.412   3.143
   12U       C5  370   4.966   4.431   2.997
   12U       H5  371   4.962   4.343   2.969
   12U       C4  372   5.051   4.525   2.930
   12U       O4  373   5.125   4.500   2.835
   12U       N3  374   5.050   4.653   2.980
   12U       H3  375   5.100   4.711   2.941
   12U       C2  376   4.974   4.699   3.086
   12U       O2  377   4.979   4.815   3.124
   12U      C3'  378   4.608   4.677   3.364
   12U      H3'  379   4.514   4.653   3.371
   12U      C2'  380   4.663   4.663   3.223
   12U      H2'  381   4.631   4.582   3.181
   12U      O2'  382   4.636   4.771   3.137
   12U     HO2'  383   4.707   4.812   3.121
   12U      O3'  384   4.634   4.810   3.407
   13A        P  385   4.569   4.869   3.542
   13A      OP1  386   4.600   5.015   3.545
   13A      OP2  387   4.610   4.780   3.654
   13A      O5'  388   4.413   4.848   3.517
   13A      C5'  389   4.320   4.867   3.623
   13A      H5'  390   4.315   4.961   3.644
   13A     H5''  391   4.351   4.818   3.701
   13A      C4'  392   4.183   4.817   3.585
   13A      H4'  393   4.120   4.844   3.653
   13A      O4'  394   4.143   4.874   3.458
   13A      C1'  395   4.052   4.786   3.393
   13A      H1'  396   3.964   4.825   3.394
   13A       N9  397   4.091   4.770   3.251
   13A       C8  398   4.032   4.839   3.147
   13A       H8  399   3.963   4.900   3.159
   13A       N7  400   4.082   4.811   3.029
   13A       C5  401   4.181   4.717   3.056
   13A       C6  402   4.272   4.649   2.972
   13A       N6  403   4.273   4.667   2.839
   13A      H61  404   4.329   4.623   2.791
   13A      H62  405   4.218   4.721   2.803
   13A       N1  406   4.360   4.561   3.028
   13A       C2  407   4.355   4.545   3.162
   13A       H2  408   4.416   4.484   3.197
   13A       N3  409   4.275   4.605   3.252
   13A       C4  410   4.189   4.691   3.193
   13A      C3'  411   4.170   4.666   3.564
   13A      H3'  412   4.248   4.634   3.516
   13A      C2'  413   4.047   4.655   3.473
   13A      H2'  414   4.055   4.578   3.415
   13A      O2'  415   3.927   4.653   3.549
   13A     HO2'  416   3.907   4.732   3.570
   13A      O3'  417   4.156   4.596   3.687
   14A        P  418   4.252   4.473   3.728
   14A      OP1  419   4.209   4.443   3.868
   14A      OP2  420   4.395   4.499   3.699
   14A      O5'  421   4.203   4.350   3.640
   14A      C5'  422   4.231   4.343   3.501
   14A      H5'  423   4.323   4.316   3.488
   14A     H5''  424   4.218   4.431   3.461
   14A      C4'  425   4.139   4.244   3.434
   14A      H4'  426   4.139   4.260   3.338
   14A      O4'  427   4.186   4.110   3.460
   14A      C1'  428   4.077   4.022   3.473
   14A      H1'  429   4.080   3.955   3.403
   14A       N9  430   4.087   3.952   3.602
   14A       C8  431   4.176   3.974   3.704
   14A       H8  432   4.238   4.044   3.704
   14A       N7  433   4.166   3.889   3.804
   14A       C5  434   4.065   3.804   3.763
   14A       C6  435   4.005   3.692   3.822
   14A       N6  436   4.039   3.642   3.941
   14A      H61  437   3.998   3.573   3.972
   14A      H62  438   4.101   3.680   3.987
   14A       N1  439   3.907   3.628   3.754
   14A       C2  440   3.872   3.677   3.633
   14A       H2  441   3.805   3.630   3.590
   14A       N3  442   3.920   3.782   3.569
   14A       C4  443   4.018   3.841   3.638
   14A      C3'  444   3.995   4.244   3.484
   14A      H3'  445   3.993   4.254   3.580
   14A      C2'  446   3.949   4.103   3.451
   14A      H2'  447   3.877   4.077   3.510
   14A      O2'  448   3.914   4.087   3.313
   14A     HO2'  449   3.848   4.137   3.296
   14A      O3'  450   3.919   4.347   3.424
   15C        P  451   3.772   4.386   3.475
   15C      OP1  452   3.756   4.530   3.448
   15C      OP2  453   3.746   4.334   3.613
   15C      O5'  454   3.677   4.305   3.376
   15C      C5'  455   3.551   4.359   3.337
   15C      H5'  456   3.566   4.445   3.295
   15C     H5''  457   3.496   4.371   3.416
   15C      C4'  458   3.479   4.270   3.240
   15C      H4'  459   3.389   4.304   3.230
   15C      O4'  460   3.542   4.273   3.108
   15C      C1'  461   3.552   4.142   3.058
   15C      H1'  462   3.469   4.118   3.013
   15C       N1  463   3.657   4.133   2.954
   15C       C6  464   3.781   4.080   2.980
   15C       H6  465   3.801   4.051   3.066
   15C       C5  466   3.874   4.070   2.884
   15C       H5  467   3.958   4.035   2.903
   15C       C4  468   3.840   4.113   2.752
   15C       N4  469   3.930   4.105   2.652
   15C      H41  470   4.009   4.073   2.667
   15C      H42  471   3.910   4.132   2.573
   15C       N3  472   3.719   4.163   2.724
   15C       C2  473   3.625   4.174   2.822
   15C       O2  474   3.513   4.222   2.796
   15C      C3'  475   3.471   4.121   3.279
   15C      H3'  476   3.498   4.106   3.371
   15C      C2'  477   3.570   4.055   3.182
   15C      H2'  478   3.660   4.065   3.216
   15C      O2'  479   3.546   3.918   3.157
   15C     HO2'  480   3.562   3.874   3.227
   15C      O3'  481   3.339   4.075   3.255
   16C        P  482   3.226   4.093   3.368
   16C      OP1  483   3.097   4.062   3.303
   16C      OP2  484   3.246   4.220   3.440
   16C      O5'  485   3.257   3.973   3.468
   16C      C5'  486   3.225   3.839   3.431
   16C      H5'  487   3.271   3.817   3.349
   16C     H5''  488   3.129   3.833   3.416
   16C      C4'  489   3.265   3.741   3.538
   16C      H4'  490   3.220   3.657   3.521
   16C      O4'  491   3.409   3.718   3.534
   16C      C1'  492   3.458   3.703   3.666
   16C      H1'  493   3.508   3.620   3.673
   16C       N1  494   3.548   3.816   3.695
   16C       C6  495   3.555   3.924   3.614
   16C       H6  496   3.502   3.928   3.538
   16C       C5  497   3.638   4.026   3.642
   16C       H5  498   3.642   4.101   3.587
   16C       C4  499   3.719   4.015   3.759
   16C       N4  500   3.805   4.111   3.789
   16C      H41  501   3.810   4.181   3.740
   16C      H42  502   3.855   4.103   3.858
   16C       N3  503   3.713   3.909   3.836
   16C       C2  504   3.628   3.808   3.810
   16C       O2  505   3.618   3.708   3.882
   16C      C3'  506   3.239   3.784   3.682
   16C      H3'  507   3.261   3.878   3.693
   16C      C2'  508   3.338   3.700   3.759
   16C      H2'  509   3.357   3.738   3.846
   16C      O2'  510   3.295   3.565   3.769
   16C     HO2'  511   3.337   3.519   3.712
   16C      O3'  512   3.104   3.765   3.720
   17C        P  513   3.036   3.860   3.830
   17C      OP1  514   2.895   3.820   3.831
   17C      OP2  515   3.074   4.003   3.815
   17C      O5'  516   3.109   3.818   3.965
   17C      C5'  517   3.086   3.690   4.023
   17C      H5'  518   3.114   3.622   3.960
   17C     H5''  519   2.991   3.680   4.041
   17C      C4'  520   3.164   3.676   4.151
   17C      H4'  521   3.143   3.590   4.191
   17C      O4'  522   3.306   3.684   4.122
   17C      C1'  523   3.373   3.749   4.228
   17C      H1'  524   3.443   3.692   4.262
   17C       N1  525   3.435   3.873   4.176
   17C       C6  526   3.397   3.926   4.056
   17C       H6  527   3.330   3.885   4.006
   17C       C5  528   3.456   4.037   4.010
   17C       H5  529   3.432   4.074   3.929
   17C       C4  530   3.557   4.096   4.091
   17C       N4  531   3.619   4.208   4.048
   17C      H41  532   3.596   4.243   3.973
   17C      H42  533   3.681   4.244   4.095
   17C       N3  534   3.595   4.044   4.208
   17C       C2  535   3.534   3.933   4.253
   17C       O2  536   3.562   3.881   4.361
   17C      C3'  537   3.142   3.785   4.255
   17C      H3'  538   3.139   3.871   4.212
   17C      C2'  539   3.270   3.775   4.337
   17C      H2'  540   3.288   3.857   4.387
   17C      O2'  541   3.267   3.661   4.422
   17C     HO2'  542   3.306   3.598   4.383
   17C      O3'  543   3.023   3.769   4.331
   18C        P  544   2.949   3.897   4.394
   18C      OP1  545   2.820   3.851   4.448
   18C      OP2  546   2.960   4.015   4.307
   18C      O5'  547   3.043   3.937   4.517
   18C      C5'  548   3.068   3.847   4.623
   18C      H5'  549   3.101   3.763   4.586
   18C     H5''  550   2.986   3.830   4.671
   18C      C4'  551   3.171   3.902   4.720
   18C      H4'  552   3.173   3.843   4.797
   18C      O4'  553   3.302   3.906   4.657
   18C      C1'  554   3.374   4.017   4.705
   18C      H1'  555   3.459   3.988   4.741
   18C       N1  556   3.398   4.112   4.595
   18C       C6  557   3.326   4.102   4.479
   18C       H6  558   3.262   4.036   4.471
   18C       C5  559   3.347   4.188   4.378
   18C       H5  560   3.299   4.182   4.299
   18C       C4  561   3.447   4.288   4.395
   18C       N4  562   3.473   4.374   4.297
   18C      H41  563   3.429   4.370   4.224
   18C      H42  564   3.534   4.434   4.308
   18C       N3  565   3.519   4.298   4.508
   18C       C2  566   3.495   4.212   4.609
   18C       O2  567   3.557   4.221   4.716
   18C      C3'  568   3.151   4.044   4.769
   18C      H3'  569   3.124   4.099   4.693
   18C      C2'  570   3.290   4.079   4.816
   18C      H2'  571   3.303   4.175   4.824
   18C      O2'  572   3.319   4.009   4.936
   18C     HO2'  573   3.279   4.046   4.999
   18C      O3'  574   3.053   4.058   4.871
   19A        P  575   2.960   4.189   4.876
   19A      OP1  576   2.845   4.151   4.960
   19A      OP2  577   2.933   4.245   4.742
   19A      O5'  578   3.051   4.306   4.935
   19A      C5'  579   3.096   4.307   5.068
   19A      H5'  580   3.113   4.216   5.097
   19A     H5''  581   3.027   4.345   5.125
   19A      C4'  582   3.223   4.388   5.083
   19A      H4'  583   3.264   4.360   5.167
   19A      O4'  584   3.312   4.361   4.972
   19A      C1'  585   3.390   4.476   4.946
   19A      H1'  586   3.485   4.458   4.956
   19A       N9  587   3.366   4.517   4.807
   19A       C8  588   3.281   4.453   4.720
   19A       H8  589   3.227   4.382   4.746
   19A       N7  590   3.282   4.501   4.598
   19A       C5  591   3.377   4.602   4.606
   19A       C6  592   3.424   4.692   4.509
   19A       N6  593   3.381   4.693   4.382
   19A      H61  594   3.414   4.749   4.326
   19A      H62  595   3.321   4.637   4.357
   19A       N1  596   3.517   4.781   4.546
   19A       C2  597   3.559   4.782   4.675
   19A       H2  598   3.622   4.847   4.696
   19A       N3  599   3.523   4.702   4.776
   19A       C4  600   3.429   4.614   4.734
   19A      C3'  601   3.212   4.539   5.086
   19A      H3'  602   3.149   4.567   5.017
   19A      C2'  603   3.354   4.580   5.052
   19A      H2'  604   3.362   4.670   5.017
   19A      O2'  605   3.437   4.557   5.166
   19A     HO2'  606   3.473   4.481   5.159
   19A      O3'  607   3.173   4.592   5.212
   20G        P  608   3.097   4.734   5.221
   20G      OP1  609   3.066   4.749   5.367
   20G      OP2  610   2.996   4.745   5.115
   20G      O5'  611   3.208   4.844   5.190
   20G      C5'  612   3.327   4.850   5.266
   20G      H5'  613   3.377   4.768   5.254
   20G     H5''  614   3.305   4.861   5.360
   20G      C4'  615   3.413   4.967   5.222
   20G      H4'  616   3.496   4.965   5.272
   20G      O4'  617   3.440   4.952   5.079
   20G      C1'  618   3.382   5.062   5.009
   20G      H1'  619   3.451   5.128   4.990
   20G       N9  620   3.325   5.012   4.884
   20G       C8  621   3.245   4.901   4.866
   20G       H8  622   3.218   4.845   4.935
   20G       N7  623   3.212   4.882   4.740
   20G       C5  624   3.276   4.986   4.675
   20G       C6  625   3.277   5.018   4.537
   20G       O6  626   3.222   4.957   4.446
   20G       N1  627   3.353   5.131   4.510
   20G       H1  628   3.358   5.157   4.428
   20G       C2  629   3.420   5.205   4.604
   20G       N2  630   3.487   5.312   4.557
   20G      H21  631   3.487   5.329   4.473
   20G      H22  632   3.530   5.363   4.612
   20G       N3  633   3.420   5.177   4.733
   20G       C4  634   3.347   5.066   4.760
   20G      C3'  635   3.349   5.104   5.238
   20G      H3'  636   3.287   5.106   5.312
   20G      C2'  637   3.280   5.123   5.105
   20G      H2'  638   3.198   5.071   5.103
   20G      O2'  639   3.250   5.257   5.071
   20G     HO2'  640   3.308   5.286   5.018
   20G      O3'  641   3.452   5.203   5.254
   21U        P  642   3.477   5.283   5.392
   21U      OP1  643   3.456   5.185   5.500
   21U      OP2  644   3.402   5.410   5.391
   21U      O5'  645   3.630   5.323   5.382
   21U      C5'  646   3.732   5.223   5.379
   21U      H5'  647   3.708   5.154   5.316
   21U     H5''  648   3.741   5.183   5.467
   21U      C4'  649   3.865   5.282   5.339
   21U      H4'  650   3.937   5.223   5.365
   21U      O4'  651   3.866   5.298   5.194
   21U      C1'  652   3.890   5.433   5.161
   21U      H1'  653   3.984   5.448   5.144
   21U       N1  654   3.813   5.462   5.039
   21U       C6  655   3.681   5.428   5.032
   21U       H6  656   3.641   5.388   5.106
   21U       C5  657   3.606   5.448   4.923
   21U       H5  658   3.516   5.425   4.923
   21U       C4  659   3.667   5.506   4.807
   21U       O4  660   3.611   5.529   4.700
   21U       N3  661   3.800   5.537   4.821
   21U       H3  662   3.839   5.572   4.752
   21U       C2  663   3.879   5.517   4.932
   21U       O2  664   3.998   5.547   4.935
   21U      C3'  665   3.891   5.421   5.397
   21U      H3'  666   3.838   5.436   5.476
   21U      C2'  667   3.849   5.514   5.283
   21U      H2'  668   3.753   5.526   5.284
   21U      O2'  669   3.914   5.640   5.286
   21U     HO2'  670   3.899   5.677   5.360
   21U      O3'  671   4.030   5.437   5.426
   22U        P  672   4.075   5.455   5.579
   22U      OP1  673   3.971   5.540   5.641
   22U      OP2  674   4.219   5.482   5.588
   22U      O5'  675   4.051   5.310   5.639
   22U      C5'  676   4.152   5.209   5.631
   22U      H5'  677   4.233   5.242   5.674
   22U     H5''  678   4.171   5.190   5.538
   22U      C4'  679   4.108   5.083   5.701
   22U      H4'  680   4.179   5.018   5.697
   22U      O4'  681   4.078   5.113   5.841
   22U      C1'  682   3.943   5.080   5.870
   22U      H1'  683   3.934   4.992   5.910
   22U       N1  684   3.900   5.181   5.964
   22U       C6  685   3.918   5.312   5.931
   22U       H6  686   3.950   5.332   5.846
   22U       C5  687   3.891   5.413   6.015
   22U       H5  688   3.903   5.501   5.988
   22U       C4  689   3.845   5.382   6.148
   22U       O4  690   3.818   5.462   6.236
   22U       N3  691   3.831   5.248   6.175
   22U       H3  692   3.803   5.228   6.254
   22U       C2  693   3.857   5.144   6.093
   22U       O2  694   3.840   5.030   6.131
   22U      C3'  695   3.980   5.020   5.644
   22U      H3'  696   3.964   5.048   5.552
   22U      C2'  697   3.871   5.074   5.736
   22U      H2'  698   3.847   5.164   5.707
   22U      O2'  699   3.758   4.991   5.745
   22U     HO2'  700   3.721   4.987   5.670
   22U      O3'  701   3.989   4.877   5.653
   23A        P  702   4.047   4.793   5.529
   23A      OP1  703   4.065   4.652   5.569
   23A      OP2  704   4.157   4.871   5.474
   23A      O5'  705   3.937   4.810   5.415
   23A      C5'  706   3.804   4.760   5.431
   23A      H5'  707   3.754   4.820   5.488
   23A     H5''  708   3.808   4.673   5.473
   23A      C4'  709   3.732   4.747   5.298
   23A      H4'  710   3.643   4.712   5.313
   23A      O4'  711   3.718   4.877   5.238
   23A      C1'  712   3.741   4.870   5.099
   23A      H1'  713   3.666   4.905   5.049
   23A       N9  714   3.860   4.953   5.070
   23A       C8  715   3.984   4.954   5.130
   23A       H8  716   4.008   4.895   5.199
   23A       N7  717   4.066   5.045   5.082
   23A       C5  718   3.992   5.106   4.983
   23A       C6  719   4.020   5.210   4.894
   23A       N6  720   4.137   5.274   4.887
   23A      H61  721   4.148   5.338   4.830
   23A      H62  722   4.201   5.252   4.940
   23A       N1  723   3.925   5.250   4.810
   23A       C2  724   3.806   5.187   4.813
   23A       H2  725   3.742   5.219   4.753
   23A       N3  726   3.766   5.087   4.890
   23A       C4  727   3.865   5.051   4.975
   23A      C3'  728   3.800   4.661   5.193
   23A      H3'  729   3.897   4.669   5.200
   23A      C2'  730   3.756   4.723   5.061
   23A      H2'  731   3.822   4.712   4.991
   23A      O2'  732   3.629   4.672   5.024
   23A     HO2'  733   3.570   4.728   5.046
   23A      O3'  734   3.758   4.526   5.206
   24A        P  735   3.848   4.403   5.165
   24A      OP1  736   3.989   4.445   5.183
   24A      OP2  737   3.805   4.354   5.027
   24A      O5'  738   3.805   4.292   5.267
   24A      C5'  739   3.834   4.314   5.406
   24A      H5'  740   3.809   4.404   5.429
   24A     H5''  741   3.929   4.302   5.421
   24A      C4'  742   3.758   4.218   5.492
   24A      H4'  743   3.785   4.234   5.584
   24A      O4'  744   3.616   4.240   5.481
   24A      C1'  745   3.548   4.119   5.507
   24A      H1'  746   3.495   4.131   5.588
   24A       N9  747   3.457   4.087   5.398
   24A       C8  748   3.460   4.130   5.267
   24A       H8  749   3.524   4.188   5.233
   24A       N7  750   3.361   4.081   5.196
   24A       C5  751   3.293   3.999   5.284
   24A       C6  752   3.180   3.918   5.270
   24A       N6  753   3.115   3.908   5.155
   24A      H61  754   3.044   3.859   5.149
   24A      H62  755   3.143   3.951   5.086
   24A       N1  756   3.134   3.849   5.377
   24A       C2  757   3.202   3.862   5.493
   24A       H2  758   3.169   3.813   5.564
   24A       N3  759   3.311   3.935   5.519
   24A       C4  760   3.351   4.002   5.410
   24A      C3'  761   3.772   4.072   5.459
   24A      H3'  762   3.763   4.058   5.363
   24A      C2'  763   3.652   4.011   5.529
   24A      H2'  764   3.627   3.927   5.489
   24A      O2'  765   3.676   4.000   5.669
   24A     HO2'  766   3.642   3.929   5.696
   24A      O3'  767   3.896   4.021   5.501
   25C        P  768   3.966   3.907   5.415
   25C      OP1  769   4.100   3.897   5.476
   25C      OP2  770   3.951   3.932   5.269
   25C      O5'  771   3.880   3.778   5.447
   25C      C5'  772   3.855   3.743   5.582
   25C      H5'  773   3.815   3.819   5.628
   25C     H5''  774   3.939   3.721   5.625
   25C      C4'  775   3.762   3.626   5.593
   25C      H4'  776   3.768   3.589   5.682
   25C      O4'  777   3.625   3.667   5.570
   25C      C1'  778   3.554   3.563   5.506
   25C      H1'  779   3.479   3.538   5.561
   25C       N1  780   3.506   3.611   5.374
   25C       C6  781   3.574   3.705   5.301
   25C       H6  782   3.653   3.740   5.334
   25C       C5  783   3.527   3.745   5.181
   25C       H5  784   3.573   3.808   5.130
   25C       C4  785   3.405   3.687   5.134
   25C       N4  786   3.351   3.721   5.017
   25C      H41  787   3.390   3.779   4.966
   25C      H42  788   3.277   3.685   4.991
   25C       N3  789   3.338   3.597   5.206
   25C       C2  790   3.387   3.557   5.325
   25C       O2  791   3.327   3.473   5.392
   25C      C3'  792   3.785   3.517   5.490
   25C      H3'  793   3.801   3.557   5.403
   25C      C2'  794   3.651   3.445   5.489
   25C      H2'  795   3.635   3.398   5.406
   25C      O2'  796   3.639   3.359   5.601
   25C     HO2'  797   3.697   3.299   5.595
   25C      O3'  798   3.894   3.432   5.522
   26A        P  799   3.959   3.340   5.408
   26A      OP1  800   4.050   3.244   5.477
   26A      OP2  801   4.010   3.425   5.299
   26A      O5'  802   3.834   3.257   5.356
   26A      C5'  803   3.820   3.222   5.220
   26A      H5'  804   3.865   3.137   5.204
   26A     H5''  805   3.860   3.290   5.165
   26A      C4'  806   3.674   3.208   5.186
   26A      H4'  807   3.627   3.163   5.257
   26A      O4'  808   3.617   3.340   5.168
   26A      C1'  809   3.522   3.338   5.065
   26A      H1'  810   3.434   3.363   5.098
   26A       N9  811   3.563   3.437   4.964
   26A       C8  812   3.676   3.515   4.969
   26A       H8  813   3.738   3.509   5.038
   26A       N7  814   3.687   3.599   4.869
   26A       C5  815   3.574   3.574   4.794
   26A       C6  816   3.529   3.631   4.675
   26A       N6  817   3.598   3.728   4.616
   26A      H61  818   3.569   3.764   4.543
   26A      H62  819   3.672   3.756   4.650
   26A       N1  820   3.413   3.586   4.623
   26A       C2  821   3.347   3.490   4.689
   26A       H2  822   3.267   3.462   4.651
   26A       N3  823   3.380   3.426   4.803
   26A       C4  824   3.496   3.475   4.850
   26A      C3'  825   3.643   3.135   5.056
   26A      H3'  826   3.710   3.158   4.989
   26A      C2'  827   3.511   3.195   5.013
   26A      H2'  828   3.501   3.192   4.916
   26A      O2'  829   3.402   3.133   5.079
   26A     HO2'  830   3.413   3.050   5.078
   26A      O3'  831   3.639   2.995   5.075
   27A        P  832   3.702   2.893   4.968
   27A      OP1  833   3.675   2.757   5.019
   27A      OP2  834   3.841   2.935   4.936
   27A      O5'  835   3.611   2.915   4.839
   27A      C5'  836   3.474   2.881   4.840
   27A      H5'  837   3.430   2.927   4.914
   27A     H5''  838   3.465   2.785   4.853
   27A      C4'  839   3.408   2.920   4.711
   27A      H4'  840   3.317   2.886   4.709
   27A      O4'  841   3.403   3.065   4.701
   27A      C1'  842   3.423   3.105   4.567
   27A      H1'  843   3.347   3.154   4.533
   27A       N9  844   3.540   3.194   4.563
   27A       C8  845   3.648   3.198   4.648
   27A       H8  846   3.660   3.137   4.718
   27A       N7  847   3.733   3.294   4.622
   27A       C5  848   3.676   3.360   4.515
   27A       C6  849   3.716   3.472   4.440
   27A       N6  850   3.827   3.541   4.461
   27A      H61  851   3.846   3.608   4.411
   27A      H62  852   3.880   3.518   4.526
   27A       N1  853   3.637   3.512   4.337
   27A       C2  854   3.525   3.442   4.313
   27A       H2  855   3.474   3.473   4.242
   27A       N3  856   3.476   3.336   4.377
   27A       C4  857   3.557   3.300   4.478
   27A      C3'  858   3.479   2.875   4.584
   27A      H3'  859   3.575   2.884   4.596
   27A      C2'  860   3.434   2.979   4.482
   27A      H2'  861   3.500   2.987   4.411
   27A      O2'  862   3.304   2.950   4.432
   27A     HO2'  863   3.248   2.990   4.479
   27A      O3'  864   3.448   2.740   4.550
   28A        P  865   3.548   2.655   4.458
   28A      OP1  866   3.515   2.511   4.474
   28A      OP2  867   3.687   2.700   4.484
   28A      O5'  868   3.504   2.695   4.310
   28A      C5'  869   3.368   2.681   4.271
   28A      H5'  870   3.315   2.746   4.320
   28A     H5''  871   3.338   2.592   4.293
   28A      C4'  872   3.349   2.704   4.123
   28A      H4'  873   3.260   2.672   4.099
   28A      O4'  874   3.357   2.847   4.095
   28A      C1'  875   3.456   2.869   3.996
   28A      H1'  876   3.415   2.868   3.908
   28A       N9  877   3.515   3.001   4.015
   28A       C8  878   3.625   3.034   4.088
   28A       H8  879   3.674   2.972   4.138
   28A       N7  880   3.655   3.161   4.082
   28A       C5  881   3.559   3.215   3.999
   28A       C6  882   3.537   3.346   3.952
   28A       N6  883   3.614   3.449   3.985
   28A      H61  884   3.597   3.527   3.953
   28A      H62  885   3.681   3.438   4.038
   28A       N1  886   3.432   3.368   3.868
   28A       C2  887   3.356   3.262   3.836
   28A       H2  888   3.285   3.280   3.780
   28A       N3  889   3.368   3.134   3.873
   28A       C4  890   3.472   3.117   3.956
   28A      C3'  891   3.452   2.638   4.031
   28A      H3'  892   3.491   2.559   4.073
   28A      C2'  893   3.551   2.750   4.009
   28A      H2'  894   3.608   2.763   4.087
   28A      O2'  895   3.634   2.733   3.897
   28A     HO2'  896   3.686   2.798   3.891
   28A      O3'  897   3.390   2.608   3.906
   29A        P  898   3.418   2.472   3.826
   29A      OP1  899   3.306   2.383   3.864
   29A      OP2  900   3.559   2.425   3.834
   29A      O5'  901   3.398   2.515   3.674
   29A      C5'  902   3.489   2.603   3.610
   29A      H5'  903   3.542   2.553   3.547
   29A     H5''  904   3.548   2.642   3.677
   29A      C4'  905   3.418   2.715   3.538
   29A      H4'  906   3.333   2.682   3.505
   29A      O4'  907   3.394   2.825   3.629
   29A      C1'  908   3.409   2.948   3.561
   29A      H1'  909   3.329   3.002   3.572
   29A       N9  910   3.524   3.019   3.620
   29A       C8  911   3.624   2.963   3.695
   29A       H8  912   3.627   2.872   3.716
   29A       N7  913   3.715   3.048   3.735
   29A       C5  914   3.673   3.168   3.682
   29A       C6  915   3.727   3.297   3.689
   29A       N6  916   3.839   3.329   3.754
   29A      H61  917   3.867   3.411   3.754
   29A      H62  918   3.883   3.269   3.796
   29A       N1  919   3.662   3.395   3.625
   29A       C2  920   3.549   3.365   3.559
   29A       H2  921   3.507   3.436   3.515
   29A       N3  922   3.488   3.247   3.547
   29A       C4  923   3.556   3.151   3.610
   29A      C3'  924   3.494   2.778   3.423
   29A      H3'  925   3.587   2.787   3.447
   29A      C2'  926   3.431   2.916   3.414
   29A      H2'  927   3.491   2.980   3.371
   29A      O2'  928   3.305   2.912   3.350
   29A     HO2'  929   3.312   2.870   3.277
   29A      O3'  930   3.486   2.703   3.303
   30C        P  931   3.612   2.696   3.204
   30C      OP1  932   3.573   2.611   3.088
   30C      OP2  933   3.736   2.665   3.280
   30C      O5'  934   3.625   2.844   3.150
   30C      C5'  935   3.522   2.904   3.072
   30C      H5'  936   3.438   2.897   3.119
   30C     H5''  937   3.515   2.857   2.987
   30C      C4'  938   3.554   3.048   3.046
   30C      H4'  939   3.484   3.088   2.992
   30C      O4'  940   3.562   3.118   3.174
   30C      C1'  941   3.663   3.216   3.168
   30C      H1'  942   3.624   3.304   3.185
   30C       N1  943   3.763   3.188   3.273
   30C       C6  944   3.775   3.063   3.326
   30C       H6  945   3.721   2.994   3.295
   30C       C5  946   3.865   3.039   3.424
   30C       H5  947   3.875   2.954   3.461
   30C       C4  948   3.945   3.149   3.469
   30C       N4  949   4.036   3.134   3.564
   30C      H41  950   4.048   3.057   3.600
   30C      H42  951   4.083   3.201   3.589
   30C       N3  952   3.933   3.271   3.418
   30C       C2  953   3.843   3.293   3.319
   30C       O2  954   3.830   3.405   3.269
   30C      C3'  955   3.688   3.075   2.981
   30C      H3'  956   3.753   3.012   3.018
   30C      C2'  957   3.722   3.215   3.027
   30C      H2'  958   3.818   3.231   3.027
   30C      O2'  959   3.653   3.312   2.949
   30C     HO2'  960   3.671   3.300   2.868
   30C      O3'  961   3.686   3.062   2.840
   31A        P  962   3.816   3.012   2.763
   31A      OP1  963   3.773   2.986   2.624
   31A      OP2  964   3.884   2.908   2.843
   31A      O5'  965   3.913   3.138   2.760
   31A      C5'  966   3.883   3.253   2.679
   31A      H5'  967   3.818   3.308   2.726
   31A     H5''  968   3.845   3.223   2.595
   31A      C4'  969   4.007   3.334   2.651
   31A      H4'  970   3.988   3.406   2.589
   31A      O4'  971   4.051   3.392   2.778
   31A      C1'  972   4.178   3.342   2.812
   31A      H1'  973   4.242   3.411   2.789
   31A       N9  974   4.185   3.312   2.956
   31A       C8  975   4.119   3.213   3.024
   31A       H8  976   4.058   3.157   2.983
   31A       N7  977   4.149   3.203   3.152
   31A       C5  978   4.245   3.301   3.169
   31A       C6  979   4.319   3.338   3.281
   31A       N6  980   4.305   3.280   3.401
   31A      H61  981   4.353   3.307   3.467
   31A      H62  982   4.250   3.215   3.411
   31A       N1  983   4.407   3.439   3.265
   31A       C2  984   4.418   3.496   3.144
   31A       H2  985   4.480   3.566   3.139
   31A       N3  986   4.355   3.468   3.030
   31A       C4  987   4.269   3.368   3.049
   31A      C3'  988   4.125   3.252   2.598
   31A      H3'  989   4.092   3.173   2.551
   31A      C2'  990   4.198   3.216   2.727
   31A      H2'  991   4.153   3.142   2.771
   31A      O2'  992   4.334   3.181   2.710
   31A     HO2'  993   4.382   3.244   2.738
   31A      O3'  994   4.209   3.327   2.511
   32A        P  995   4.252   3.265   2.367
   32A      OP1  996   4.131   3.246   2.284
   32A      OP2  997   4.350   3.156   2.381
   32A      O5'  998   4.338   3.381   2.302
   32A      C5'  999   4.277   3.492   2.239
   32A      H5' 1000   4.206   3.526   2.295
   32A     H5'' 1001   4.240   3.465   2.153
   32A      C4' 1002   4.379   3.601   2.216
   32A      H4' 1003   4.345   3.665   2.152
   32A      O4' 1004   4.406   3.669   2.341
   32A      C1' 1005   4.543   3.706   2.348
   32A      H1' 1006   4.552   3.802   2.358
   32A       N9 1007   4.602   3.640   2.466
   32A       C8 1008   4.555   3.529   2.532
   32A       H8 1009   4.479   3.482   2.505
   32A       N7 1010   4.626   3.495   2.636
   32A       C5 1011   4.728   3.590   2.641
   32A       C6 1012   4.837   3.608   2.728
   32A       N6 1013   4.863   3.532   2.835
   32A      H61 1014   4.931   3.549   2.885
   32A      H62 1015   4.812   3.465   2.854
   32A       N1 1016   4.920   3.712   2.703
   32A       C2 1017   4.893   3.792   2.598
   32A       H2 1018   4.953   3.862   2.586
   32A       N3 1019   4.794   3.784   2.509
   32A       C4 1020   4.714   3.680   2.536
   32A      C3' 1021   4.516   3.552   2.170
   32A      H3' 1022   4.539   3.471   2.218
   32A      C2' 1023   4.608   3.665   2.216
   32A      H2' 1024   4.699   3.634   2.228
   32A      O2' 1025   4.600   3.775   2.127
   32A     HO2' 1026   4.635   3.754   2.053
   32A      O3' 1027   4.524   3.527   2.031
   33G3       P 1028   4.571   3.384   1.977
   33G3     OP1 1029   4.588   3.395   1.828
   33G3     OP2 1030   4.476   3.286   2.035
   33G3     O5' 1031   4.714   3.361   2.042
   33G3     C5' 1032   4.820   3.453   2.019
   33G3     H5' 1033   4.783   3.543   2.015
   33G3    H5'' 1034   4.863   3.432   1.935
   33G3     C4' 1035   4.923   3.448   2.130
   33G3     H4' 1036   4.988   3.518   2.114
   33G3     O4' 1037   4.861   3.470   2.259
   33G3     C1' 1038   4.928   3.396   2.358
   33G3     H1' 1039   4.959   3.456   2.427
   33G3      N9 1040   4.835   3.296   2.415
   33G3      C8 1041   4.723   3.239   2.359
   33G3      H8 1042   4.691   3.262   2.275
   33G3      N7 1043   4.667   3.151   2.436
   33G3      C5 1044   4.746   3.149   2.549
   33G3      C6 1045   4.735   3.073   2.667
   33G3      O6 1046   4.649   2.990   2.695
   33G3      N1 1047   4.837   3.102   2.757
   33G3      H1 1048   4.838   3.059   2.832
   33G3      C2 1049   4.937   3.192   2.733
   33G3      N2 1050   5.028   3.208   2.830
   33G3     H21 1051   5.022   3.162   2.902
   33G3     H22 1052   5.092   3.264   2.819
   33G3      N3 1053   4.949   3.265   2.623
   33G3      C4 1054   4.851   3.237   2.537
   33G3     C3' 1055   4.996   3.316   2.147
   33G3     H3' 1056   4.933   3.242   2.141
   33G3     C2' 1057   5.047   3.327   2.290
   33G3     H2' 1058   5.066   3.240   2.329
   33G3     O2' 1059   5.160   3.412   2.296
   33G3    HO2' 1060   5.225   3.375   2.258
   33G3     O3' 1061   5.098   3.294   2.050
   33G3    HO3' 1062   5.177   3.284   2.074
   34K+      K+ 1063   5.292   4.111   4.227
   35K+      K+ 1064   4.784   3.315   5.307
   36K+      K+ 1065   2.473   4.632   4.102
   37K+      K+ 1066   4.755   4.325   5.619
   38K+      K+ 1067   5.512   3.012   4.446
   39K+      K+ 1068   4.258   2.090   3.320
   40K+      K+ 1069   5.365   5.096   4.058
   41K+      K+ 1070   4.198   2.152   4.886
   42K+      K+ 1071   2.460   3.188   4.103
   43K+      K+ 1072   2.866   3.522   2.655
   44K+      K+ 1073   3.186   4.538   6.188
   45K+      K+ 1074   4.450   2.328   2.361
   46K+      K+ 1075   4.984   5.207   5.079
   47K+      K+ 1076   2.900   4.848   3.150
   48K+      K+ 1077   2.529   3.318   5.180
   49K+      K+ 1078   4.565   5.721   3.233
   50K+      K+ 1079   2.494   5.322   5.421
   51K+      K+ 1080   5.757   4.041   3.402
   52K+      K+ 1081   4.039   1.773   4.092
   53K+      K+ 1082   3.462   3.069   1.787
   54K+      K+ 1083   4.687   5.964   4.527
   55K+      K+ 1084   3.403   2.605   5.843
   56K+      K+ 1085   5.087   2.220   4.457
   57K+      K+ 1086   4.695   4.644   2.281
   58K+      K+ 1087   2.679   2.026   3.233
   59K+      K+ 1088   3.489   6.041   5.708
   60K+      K+ 1089   4.260   4.097   6.388
   61K+      K+ 1090   2.200   4.289   4.618
   62K+      K+ 1091   3.669   4.909   2.249
   63K+      K+ 1092   2.796   5.700   4.693
   64K+      K+ 1093   5.728   2.762   2.620
   65K+      K+ 1094   2.796   2.005   4.693
   66K+      K+ 1095   4.714   2.758   1.129
   67K+      K+ 1096   4.727   5.671   6.314
   68K+      K+ 1097   2.293   3.712   3.193
   69K+      K+ 1098   5.350   3.810   4.809
   70K+      K+ 1099   3.406   2.263   2.327
   71K+      K+ 1100   3.561   6.409   4.615
   72K+      K+ 1101   4.258   3.938   1.419
   73K+      K+ 1102   2.475   4.214   5.670
   74K+      K+ 1103   5.399   1.901   3.323
   75K+      K+ 1104   4.426   2.943   6.230
   76K+      K+ 1105   6.267   5.352   2.541
   77K+      K+ 1106   3.429   5.851   7.212
   78K+      K+ 1107   3.480   6.018   3.180
   79K+      K+ 1108   6.066   3.712   1.292
   80K+      K+ 1109   2.904   3.146   6.726
   81K+      K+ 1110   6.267   3.474   3.520
   82K+      K+ 1111   4.506   6.794   5.625
   83K+      K+ 1112   2.938   1.190   3.739
   84K+      K+ 1113   2.464   6.130   3.187
   85K+      K+ 1114   4.224   5.007   7.451
   86K+      K+ 1115   4.394   2.626   5.283
   87Cl-    Cl- 1116   6.091   3.851   4.117
   88Cl-    Cl- 1117   3.142   6.206   3.963
   89Cl-    Cl- 1118   3.785   3.339   6.614
   90Cl-    Cl- 1119   4.258   5.786   7.121
   91Cl-    Cl- 1120   5.364   2.591   5.190
   92Cl-    Cl- 1121   2.543   1.696   3.913
   93Cl-    Cl- 1122   3.130   5.645   2.533
   94Cl-    Cl- 1123   3.717   6.868   5.187
   95Cl-    Cl- 1124   3.956   2.495   1.692
   96Cl-    Cl- 1125   2.518   3.881   6.468
   97Cl-    Cl- 1126   6.100   3.322   1.977
   98Cl-    Cl- 1127   4.107   1.830   5.581
   99Cl-    Cl- 1128   1.898   5.186   4.713
  100Cl-    Cl- 1129   4.182   4.790   1.598
  101Cl-    Cl- 1130   5.052   6.290   5.331
  102Cl-    Cl- 1131   4.695   1.455   3.696
  103Cl-    Cl- 1132   4.859   3.640   6.095
  104Cl-    Cl- 1133   2.808   2.796   2.281
  105Cl-    Cl- 1134   3.454   4.801   7.230
  106Cl-    Cl- 1135   6.193   4.651   3.054
  107Cl-    Cl- 1136   5.628   1.752   2.640
  108WAT      O 1137   6.939   7.339   7.114
  108WAT     H1 1138   6.861   7.356   7.078
  108WAT     H2 1139   6.943   7.252   7.116
  108WAT    EPW 1140   6.928   7.329   7.109
  109WAT      O 1141   7.253   7.866   6.981
  109WAT     H1 1142   7.214   7.829   6.913
  109WAT     H2 1143   7.245   7.806   7.044
  109WAT    EPW 1144   7.246   7.851   6.981
  110WAT      O 1145   7.644   6.963   7.366
  110WAT     H1 1146   7.637   7.031   7.312
  110WAT     H2 1147   7.718   6.924   7.341
  110WAT    EPW 1148   7.654   6.968   7.355
  111WAT      O 1149   7.103   7.686   7.509
  111WAT     H1 1150   7.057   7.647   7.447
  111WAT     H2 1151   7.173   7.634   7.518
  111WAT    EPW 1152   7.107   7.672   7.501
  112WAT      O 1153   7.303   7.496   7.512
  112WAT     H1 1154   7.385   7.477   7.536
  112WAT     H2 1155   7.256   7.434   7.551
  112WAT    EPW 1156   7.308   7.484   7.521
  113WAT      O 1157   7.363   7.005   7.438
  113WAT     H1 1158   7.333   7.055   7.373
  113WAT     H2 1159   7.450   7.013   7.432
  113WAT    EPW 1160   7.371   7.014   7.428
  114WAT      O 1161   7.661   6.919   7.660
  114WAT     H1 1162   7.668   7.005   7.673
  114WAT     H2 1163   7.657   6.912   7.574
  114WAT    EPW 1164   7.661   6.931   7.650
  115WAT      O 1165   6.949   7.462   7.811
  115WAT     H1 1166   6.923   7.545   7.803
  115WAT     H2 1167   6.882   7.424   7.852
  115WAT    EPW 1168   6.935   7.468   7.816
  116WAT      O 1169   6.984   7.131   7.338
  116WAT     H1 1170   6.973   7.044   7.341
  116WAT     H2 1171   6.937   7.160   7.405
  116WAT    EPW 1172   6.975   7.122   7.348
  117WAT      O 1173   7.914   7.252   7.212
  117WAT     H1 1174   7.864   7.185   7.187
  117WAT     H2 1175   7.920   7.302   7.141
  117WAT    EPW 1176   7.908   7.249   7.198
  118WAT      O 1177   7.774   7.182   7.654
  118WAT     H1 1178   7.782   7.239   7.588
  118WAT     H2 1179   7.786   7.232   7.725
  118WAT    EPW 1180   7.777   7.198   7.655
  119WAT      O 1181   7.235   6.765   7.489
  119WAT     H1 1182   7.289   6.834   7.488
  119WAT     H2 1183   7.235   6.737   7.406
  119WAT    EPW 1184   7.243   6.771   7.476
  120WAT      O 1185   7.280   7.146   7.654
  120WAT     H1 1186   7.307   7.103   7.583
  120WAT     H2 1187   7.262   7.082   7.711
  120WAT    EPW 1188   7.281   7.130   7.652
  121WAT      O 1189   6.921   7.722   7.275
  121WAT     H1 1190   6.903   7.638   7.290
  121WAT     H2 1191   6.987   7.718   7.218
  121WAT    EPW 1192   6.928   7.709   7.268
  122WAT      O 1193   7.650   7.162   7.160
  122WAT     H1 1194   7.650   7.150   7.074
  122WAT     H2 1195   7.632   7.246   7.170
  122WAT    EPW 1196   7.647   7.172   7.149
  123WAT      O 1197   7.285   7.445   7.124
  123WAT     H1 1198   7.273   7.400   7.198
  123WAT     H2 1199   7.227   7.411   7.069
  123WAT    EPW 1200   7.275   7.433   7.127
  124WAT      O 1201   7.302   7.628   7.784
  124WAT     H1 1202   7.224   7.622   7.745
  124WAT     H2 1203   7.309   7.553   7.827
  124WAT    EPW 1204   7.292   7.616   7.785
  125WAT      O 1205   7.490   6.868   7.087
  125WAT     H1 1206   7.500   6.857   7.173
  125WAT     H2 1207   7.419   6.918   7.081
  125WAT    EPW 1208   7.481   6.874   7.099
  126WAT      O 1209   7.202   7.699   7.212
  126WAT     H1 1210   7.235   7.621   7.189
  126WAT     H2 1211   7.267   7.735   7.257
  126WAT    EPW 1212   7.217   7.692   7.215
  127WAT      O 1213   6.902   6.865   7.308
  127WAT     H1 1214   6.915   6.794   7.259
  127WAT     H2 1215   6.865   6.833   7.381
  127WAT    EPW 1216   6.899   6.849   7.312
  128WAT      O 1217   7.871   7.633   7.354
  128WAT     H1 1218   7.877   7.698   7.412
  128WAT     H2 1219   7.853   7.563   7.403
  128WAT    EPW 1220   7.870   7.632   7.370
  129WAT      O 1221   7.321   7.084   7.005
  129WAT     H1 1222   7.270   7.090   6.935
  129WAT     H2 1223   7.399   7.108   6.976
  129WAT    EPW 1224   7.325   7.089   6.990
  130WAT      O 1225   7.794   7.837   7.797
  130WAT     H1 1226   7.709   7.818   7.805
  130WAT     H2 1227   7.826   7.821   7.876
  130WAT    EPW 1228   7.786   7.832   7.810
  131WAT      O 1229   7.502   7.324   7.702
  131WAT     H1 1230   7.586   7.305   7.712
  131WAT     H2 1231   7.465   7.246   7.688
  131WAT    EPW 1232   7.509   7.310   7.702
  132WAT      O 1233   6.984   7.458   7.368
  132WAT     H1 1234   7.033   7.428   7.434
  132WAT     H2 1235   6.997   7.398   7.305
  132WAT    EPW 1236   6.993   7.445   7.368
  133WAT      O 1237   7.436   7.601   6.916
  133WAT     H1 1238   7.375   7.561   6.964
  133WAT     H2 1239   7.398   7.613   6.839
  133WAT    EPW 1240   7.421   7.597   6.912
  134WAT      O 1241   7.582   7.447   7.187
  134WAT     H1 1242   7.609   7.530   7.194
  134WAT     H2 1243   7.495   7.455   7.178
  134WAT    EPW 1244   7.573   7.460   7.187
  135WAT      O 1245   6.930   7.044   7.841
  135WAT     H1 1246   6.934   7.079   7.761
  135WAT     H2 1247   7.005   7.068   7.878
  135WAT    EPW 1248   6.941   7.053   7.835
  136WAT      O 1249   7.748   7.775   6.921
  136WAT     H1 1250   7.667   7.757   6.892
  136WAT     H2 1251   7.744   7.860   6.940
  136WAT    EPW 1252   7.735   7.785   6.919
  137WAT      O 1253   7.258   7.194   7.266
  137WAT     H1 1254   7.271   7.162   7.187
  137WAT     H2 1255   7.177   7.170   7.286
  137WAT    EPW 1256   7.248   7.186   7.258
  138WAT      O 1257   7.119   7.357   6.920
  138WAT     H1 1258   7.052   7.358   6.975
  138WAT     H2 1259   7.128   7.272   6.901
  138WAT    EPW 1260   7.110   7.344   6.925
  139WAT      O 1261   7.733   6.823   6.962
  139WAT     H1 1262   7.740   6.847   6.879
  139WAT     H2 1263   7.658   6.860   6.988
  139WAT    EPW 1264   7.723   6.832   6.953
  140WAT      O 1265   7.080   7.330   7.602
  140WAT     H1 1266   7.043   7.360   7.675
  140WAT     H2 1267   7.133   7.267   7.630
  140WAT    EPW 1268   7.082   7.325   7.617
  141WAT      O 1269   7.644   7.737   7.203
  141WAT     H1 1270   7.654   7.751   7.118
  141WAT     H2 1271   7.726   7.731   7.233
  141WAT    EPW 1272   7.657   7.738   7.195
  142WAT      O 1273   6.939   7.339   5.214
  142WAT     H1 1274   6.861   7.356   5.178
  142WAT     H2 1275   6.943   7.252   5.216
  142WAT    EPW 1276   6.928   7.329   5.209
  143WAT      O 1277   7.253   7.866   5.081
  143WAT     H1 1278   7.214   7.829   5.012
  143WAT     H2 1279   7.245   7.806   5.144
  143WAT    EPW 1280   7.246   7.851   5.080
  144WAT      O 1281   7.644   6.963   5.466
  144WAT     H1 1282   7.637   7.031   5.411
  144WAT     H2 1283   7.718   6.924   5.441
  144WAT    EPW 1284   7.654   6.968   5.454
  145WAT      O 1285   7.103   7.686   5.609
  145WAT     H1 1286   7.057   7.647   5.546
  145WAT     H2 1287   7.173   7.634   5.618
  145WAT    EPW 1288   7.107   7.672   5.601
  146WAT      O 1289   7.554   7.247   6.143
  146WAT     H1 1290   7.622   7.249   6.088
  146WAT     H2 1291   7.549   7.163   6.168
  146WAT    EPW 1292   7.563   7.235   6.139
  147WAT      O 1293   7.303   7.496   5.611
  147WAT     H1 1294   7.385   7.477   5.635
  147WAT     H2 1295   7.256   7.434   5.650
  147WAT    EPW 1296   7.308   7.484   5.620
  148WAT      O 1297   7.363   7.005   5.537
  148WAT     H1 1298   7.333   7.055   5.472
  148WAT     H2 1299   7.450   7.013   5.532
  148WAT    EPW 1300   7.371   7.014   5.527
  149WAT      O 1301   7.661   6.919   5.760
  149WAT     H1 1302   7.668   7.005   5.773
  149WAT     H2 1303   7.657   6.912   5.673
  149WAT    EPW 1304   7.661   6.931   5.749
  150WAT      O 1305   6.949   7.462   5.910
  150WAT     H1 1306   6.923   7.545   5.902
  150WAT     H2 1307   6.882   7.424   5.952
  150WAT    EPW 1308   6.935   7.468   5.915
  151WAT      O 1309   7.252   6.944   5.959
  151WAT     H1 1310   7.200   6.881   5.928
  151WAT     H2 1311   7.311   6.900   6.006
  151WAT    EPW 1312   7.253   6.928   5.961
  152WAT      O 1313   7.582   7.157   6.889
  152WAT     H1 1314   7.594   7.111   6.815
  152WAT     H2 1315   7.611   7.237   6.868
  152WAT    EPW 1316   7.588   7.162   6.875
  153WAT      O 1317   7.156   7.117   6.787
  153WAT     H1 1318   7.078   7.078   6.780
  153WAT     H2 1319   7.205   7.075   6.728
  153WAT    EPW 1320   7.151   7.105   6.777
  154WAT      O 1321   7.820   6.881   6.704
  154WAT     H1 1322   7.838   6.800   6.676
  154WAT     H2 1323   7.806   6.925   6.630
  154WAT    EPW 1324   7.821   6.875   6.689
  155WAT      O 1325   6.890   7.171   6.546
  155WAT     H1 1326   6.890   7.230   6.610
  155WAT     H2 1327   6.950   7.203   6.490
  155WAT    EPW 1328   6.899   7.185   6.547
  156WAT      O 1329   6.984   7.131   5.437
  156WAT     H1 1330   6.973   7.044   5.440
  156WAT     H2 1331   6.937   7.160   5.504
  156WAT    EPW 1332   6.975   7.122   5.448
  157WAT      O 1333   7.914   7.252   5.312
  157WAT     H1 1334   7.864   7.185   5.286
  157WAT     H2 1335   7.920   7.302   5.241
  157WAT    EPW 1336   7.908   7.249   5.298
  158WAT      O 1337   7.774   7.182   5.753
  158WAT     H1 1338   7.782   7.239   5.687
  158WAT     H2 1339   7.786   7.232   5.824
  158WAT    EPW 1340   7.777   7.198   5.754
  159WAT      O 1341   7.235   6.765   5.588
  159WAT     H1 1342   7.289   6.834   5.587
  159WAT     H2 1343   7.235   6.737   5.505
  159WAT    EPW 1344   7.243   6.771   5.575
  160WAT      O 1345   7.531   7.808   5.990
  160WAT     H1 1346   7.548   7.787   6.073
  160WAT     H2 1347   7.465   7.755   5.969
  160WAT    EPW 1348   7.524   7.797   5.999
  161WAT      O 1349   7.280   7.146   5.753
  161WAT     H1 1350   7.307   7.103   5.682
  161WAT     H2 1351   7.262   7.082   5.810
  161WAT    EPW 1352   7.281   7.130   5.751
  162WAT      O 1353   7.094   7.256   6.061
  162WAT     H1 1354   7.178   7.278   6.057
  162WAT     H2 1355   7.055   7.313   6.008
  162WAT    EPW 1356   7.101   7.268   6.053
  163WAT      O 1357   7.679   7.424   6.873
  163WAT     H1 1358   7.631   7.482   6.917
  163WAT     H2 1359   7.677   7.454   6.791
  163WAT    EPW 1360   7.672   7.437   6.868
  164WAT      O 1361   6.921   7.722   5.374
  164WAT     H1 1362   6.903   7.638   5.389
  164WAT     H2 1363   6.987   7.718   5.317
  164WAT    EPW 1364   6.928   7.709   5.368
  165WAT      O 1365   7.650   7.162   5.260
  165WAT     H1 1366   7.650   7.150   5.173
  165WAT     H2 1367   7.632   7.246   5.269
  165WAT    EPW 1368   7.647   7.172   5.248
  166WAT      O 1369   7.237   7.505   6.709
  166WAT     H1 1370   7.183   7.455   6.756
  166WAT     H2 1371   7.239   7.466   6.631
  166WAT    EPW 1372   7.229   7.492   6.705
  167WAT      O 1373   7.285   7.445   5.223
  167WAT     H1 1374   7.273   7.400   5.297
  167WAT     H2 1375   7.227   7.411   5.168
  167WAT    EPW 1376   7.275   7.433   5.226
  168WAT      O 1377   7.302   7.628   5.883
  168WAT     H1 1378   7.224   7.622   5.845
  168WAT     H2 1379   7.309   7.553   5.927
  168WAT    EPW 1380   7.292   7.616   5.884
  169WAT      O 1381   7.345   7.602   6.230
  169WAT     H1 1382   7.348   7.534   6.175
  169WAT     H2 1383   7.280   7.651   6.199
  169WAT    EPW 1384   7.336   7.599   6.217
  170WAT      O 1385   7.125   7.737   6.786
  170WAT     H1 1386   7.121   7.787   6.714
  170WAT     H2 1387   7.158   7.662   6.756
  170WAT    EPW 1388   7.129   7.733   6.771
  171WAT      O 1389   7.812   7.317   5.993
  171WAT     H1 1390   7.860   7.387   6.014
  171WAT     H2 1391   7.849   7.252   6.038
  171WAT    EPW 1392   7.825   7.318   6.003
  172WAT      O 1393   7.490   6.868   5.187
  172WAT     H1 1394   7.500   6.857   5.273
  172WAT     H2 1395   7.419   6.918   5.180
  172WAT    EPW 1396   7.481   6.874   5.198
  173WAT      O 1397   7.202   7.699   5.311
  173WAT     H1 1398   7.235   7.621   5.289
  173WAT     H2 1399   7.267   7.735   5.356
  173WAT    EPW 1400   7.217   7.692   5.314
  174WAT      O 1401   6.902   6.865   5.408
  174WAT     H1 1402   6.915   6.794   5.358
  174WAT     H2 1403   6.865   6.833   5.480
  174WAT    EPW 1404   6.899   6.849   5.411
  175WAT      O 1405   7.871   7.633   5.453
  175WAT     H1 1406   7.877   7.698   5.511
  175WAT     H2 1407   7.853   7.563   5.502
  175WAT    EPW 1408   7.870   7.632   5.469
  176WAT      O 1409   7.321   7.084   5.105
  176WAT     H1 1410   7.270   7.090   5.034
  176WAT     H2 1411   7.399   7.108   5.075
  176WAT    EPW 1412   7.325   7.089   5.090
  177WAT      O 1413   7.794   7.837   5.896
  177WAT     H1 1414   7.709   7.818   5.905
  177WAT     H2 1415   7.826   7.821   5.976
  177WAT    EPW 1416   7.786   7.832   5.909
  178WAT      O 1417   7.179   7.807   6.128
  178WAT     H1 1418   7.251   7.856   6.124
  178WAT     H2 1419   7.152   7.804   6.045
  178WAT    EPW 1420   7.185   7.814   6.115
  179WAT      O 1421   7.502   7.324   5.802
  179WAT     H1 1422   7.586   7.305   5.811
  179WAT     H2 1423   7.465   7.246   5.788
  179WAT    EPW 1424   7.509   7.310   5.801
  180WAT      O 1425   6.984   7.458   5.467
  180WAT     H1 1426   7.033   7.428   5.533
  180WAT     H2 1427   6.997   7.398   5.404
  180WAT    EPW 1428   6.993   7.445   5.468
  181WAT      O 1429   7.436   7.601   5.016
  181WAT     H1 1430   7.375   7.561   5.063
  181WAT     H2 1431   7.398   7.613   4.938
  181WAT    EPW 1432   7.421   7.597   5.011
  182WAT      O 1433   7.582   7.447   5.287
  182WAT     H1 1434   7.609   7.530   5.293
  182WAT     H2 1435   7.495   7.455   5.277
  182WAT    EPW 1436   7.573   7.460   5.286
  183WAT      O 1437   6.930   7.044   5.940
  183WAT     H1 1438   6.934   7.079   5.860
  183WAT     H2 1439   7.005   7.068   5.977
  183WAT    EPW 1440   6.941   7.053   5.934
  184WAT      O 1441   7.844   7.735   6.167
  184WAT     H1 1442   7.891   7.773   6.230
  184WAT     H2 1443   7.761   7.749   6.193
  184WAT    EPW 1444   7.838   7.743   6.180
  185WAT      O 1445   7.515   7.296   6.441
  185WAT     H1 1446   7.531   7.221   6.484
  185WAT     H2 1447   7.510   7.271   6.357
  185WAT    EPW 1448   7.516   7.281   6.435
  186WAT      O 1449   7.690   6.876   6.429
  186WAT     H1 1450   7.760   6.908   6.389
  186WAT     H2 1451   7.714   6.796   6.452
  186WAT    EPW 1452   7.704   6.869   6.426
  187WAT      O 1453   7.748   7.775   5.020
  187WAT     H1 1454   7.667   7.757   4.991
  187WAT     H2 1455   7.744   7.860   5.039
  187WAT    EPW 1456   7.735   7.785   5.019
  188WAT      O 1457   7.341   7.382   6.035
  188WAT     H1 1458   7.385   7.371   5.960
  188WAT     H2 1459   7.395   7.350   6.095
  188WAT    EPW 1460   7.355   7.376   6.033
  189WAT      O 1461   7.695   6.880   6.040
  189WAT     H1 1462   7.613   6.865   6.063
  189WAT     H2 1463   7.691   6.884   5.953
  189WAT    EPW 1464   7.683   6.879   6.030
  190WAT      O 1465   6.952   6.920   6.643
  190WAT     H1 1466   6.938   7.000   6.610
  190WAT     H2 1467   6.873   6.896   6.672
  190WAT    EPW 1468   6.938   6.928   6.643
  191WAT      O 1469   7.258   7.194   5.366
  191WAT     H1 1470   7.271   7.162   5.286
  191WAT     H2 1471   7.177   7.170   5.386
  191WAT    EPW 1472   7.248   7.186   5.357
  192WAT      O 1473   7.256   7.396   6.407
  192WAT     H1 1474   7.293   7.457   6.359
  192WAT     H2 1475   7.323   7.348   6.436
  192WAT    EPW 1476   7.271   7.398   6.404
  193WAT      O 1477   7.033   7.240   6.335
  193WAT     H1 1478   7.041   7.223   6.249
  193WAT     H2 1479   7.108   7.281   6.354
  193WAT    EPW 1480   7.046   7.244   6.325
  194WAT      O 1481   7.289   6.981   6.576
  194WAT     H1 1482   7.281   6.897   6.596
  194WAT     H2 1483   7.257   6.986   6.495
  194WAT    EPW 1484   7.283   6.970   6.567
  195WAT      O 1485   6.973   7.763   6.357
  195WAT     H1 1486   7.005   7.785   6.279
  195WAT     H2 1487   6.963   7.676   6.352
  195WAT    EPW 1488   6.976   7.753   6.345
  196WAT      O 1489   7.119   7.357   5.019
  196WAT     H1 1490   7.052   7.358   5.075
  196WAT     H2 1491   7.128   7.272   5.001
  196WAT    EPW 1492   7.110   7.344   5.024
  197WAT      O 1493   7.449   7.692   6.496
  197WAT     H1 1494   7.410   7.770   6.503
  197WAT     H2 1495   7.409   7.655   6.428
  197WAT    EPW 1496   7.438   7.698   6.487
  198WAT      O 1497   7.492   6.990   6.241
  198WAT     H1 1498   7.406   6.998   6.249
  198WAT     H2 1499   7.514   6.938   6.308
  198WAT    EPW 1500   7.483   6.984   6.252
  199WAT      O 1501   7.653   7.498   6.598
  199WAT     H1 1502   7.621   7.440   6.541
  199WAT     H2 1503   7.617   7.573   6.574
  199WAT    EPW 1504   7.643   7.500   6.586
  200WAT      O 1505   7.733   6.823   5.061
  200WAT     H1 1506   7.740   6.847   4.978
  200WAT     H2 1507   7.658   6.860   5.087
  200WAT    EPW 1508   7.723   6.832   5.053
  201WAT      O 1509   7.214   6.998   6.305
  201WAT     H1 1510   7.180   6.921   6.282
  201WAT     H2 1511   7.145   7.051   6.312
  201WAT    EPW 1512   7.199   6.995   6.303
  202WAT      O 1513   7.080   7.330   5.701
  202WAT     H1 1514   7.043   7.360   5.774
  202WAT     H2 1515   7.133   7.267   5.729
  202WAT    EPW 1516   7.082   7.325   5.716
  203WAT      O 1517   7.644   7.737   5.302
  203WAT     H1 1518   7.654   7.751   5.217
  203WAT     H2 1519   7.726   7.731   5.332
  203WAT    EPW 1520   7.657   7.738   5.294
  204WAT      O 1521   7.558   7.034   6.614
  204WAT     H1 1522   7.581   6.977   6.553
  204WAT     H2 1523   7.473   7.016   6.628
  204WAT    EPW 1524   7.549   7.023   6.607
  205WAT      O 1525   6.939   7.339   3.313
  205WAT     H1 1526   6.861   7.356   3.277
  205WAT     H2 1527   6.943   7.252   3.315
  205WAT    EPW 1528   6.928   7.329   3.308
  206WAT      O 1529   7.253   7.866   3.180
  206WAT     H1 1530   7.214   7.829   3.112
  206WAT     H2 1531   7.245   7.806   3.243
  206WAT    EPW 1532   7.246   7.851   3.179
  207WAT      O 1533   7.644   6.963   3.565
  207WAT     H1 1534   7.637   7.031   3.510
  207WAT     H2 1535   7.718   6.924   3.540
  207WAT    EPW 1536   7.654   6.968   3.553
  208WAT      O 1537   7.103   7.686   3.708
  208WAT     H1 1538   7.057   7.647   3.645
  208WAT     H2 1539   7.173   7.634   3.717
  208WAT    EPW 1540   7.107   7.672   3.700
  209WAT      O 1541   7.554   7.247   4.243
  209WAT     H1 1542   7.622   7.249   4.188
  209WAT     H2 1543   7.549   7.163   4.267
  209WAT    EPW 1544   7.563   7.235   4.238
  210WAT      O 1545   7.303   7.496   3.710
  210WAT     H1 1546   7.385   7.477   3.735
  210WAT     H2 1547   7.256   7.434   3.750
  210WAT    EPW 1548   7.308   7.484   3.720
  211WAT      O 1549   7.363   7.005   3.637
  211WAT     H1 1550   7.333   7.055   3.572
  211WAT     H2 1551   7.450   7.013   3.631
  211WAT    EPW 1552   7.371   7.014   3.626
  212WAT      O 1553   7.661   6.919   3.859
  212WAT     H1 1554   7.668   7.005   3.872
  212WAT     H2 1555   7.657   6.912   3.772
  212WAT    EPW 1556   7.661   6.931   3.848
  213WAT      O 1557   6.949   7.462   4.009
  213WAT     H1 1558   6.923   7.545   4.002
  213WAT     H2 1559   6.882   7.424   4.051
  213WAT    EPW 1560   6.935   7.468   4.014
  214WAT      O 1561   7.252   6.944   4.058
  214WAT     H1 1562   7.200   6.881   4.028
  214WAT     H2 1563   7.311   6.900   4.105
  214WAT    EPW 1564   7.253   6.928   4.061
  215WAT      O 1565   7.582   7.157   4.988
  215WAT     H1 1566   7.594   7.111   4.915
  215WAT     H2 1567   7.611   7.237   4.968
  215WAT    EPW 1568   7.588   7.162   4.974
  216WAT      O 1569   7.156   7.117   4.887
  216WAT     H1 1570   7.078   7.078   4.879
  216WAT     H2 1571   7.205   7.075   4.827
  216WAT    EPW 1572   7.151   7.105   4.877
  217WAT      O 1573   7.820   6.881   4.803
  217WAT     H1 1574   7.838   6.800   4.776
  217WAT     H2 1575   7.806   6.925   4.729
  217WAT    EPW 1576   7.821   6.875   4.788
  218WAT      O 1577   6.890   7.171   4.645
  218WAT     H1 1578   6.890   7.230   4.710
  218WAT     H2 1579   6.950   7.203   4.589
  218WAT    EPW 1580   6.899   7.185   4.646
  219WAT      O 1581   6.984   7.131   3.537
  219WAT     H1 1582   6.973   7.044   3.540
  219WAT     H2 1583   6.937   7.160   3.604
  219WAT    EPW 1584   6.975   7.122   3.547
  220WAT      O 1585   7.914   7.252   3.411
  220WAT     H1 1586   7.864   7.185   3.386
  220WAT     H2 1587   7.920   7.302   3.340
  220WAT    EPW 1588   7.908   7.249   3.397
  221WAT      O 1589   7.774   7.182   3.852
  221WAT     H1 1590   7.782   7.239   3.787
  221WAT     H2 1591   7.786   7.232   3.923
  221WAT    EPW 1592   7.777   7.198   3.853
  222WAT      O 1593   7.235   6.765   3.687
  222WAT     H1 1594   7.289   6.834   3.686
  222WAT     H2 1595   7.235   6.737   3.604
  222WAT    EPW 1596   7.243   6.771   3.675
  223WAT      O 1597   7.531   7.808   4.090
  223WAT     H1 1598   7.548   7.787   4.173
  223WAT     H2 1599   7.465   7.755   4.068
  223WAT    EPW 1600   7.524   7.797   4.099
  224WAT      O 1601   7.280   7.146   3.853
  224WAT     H1 1602   7.307   7.103   3.782
  224WAT     H2 1603   7.262   7.082   3.910
  224WAT    EPW 1604   7.281   7.130   3.851
  225WAT      O 1605   7.094   7.256   4.161
  225WAT     H1 1606   7.178   7.278   4.157
  225WAT     H2 1607   7.055   7.313   4.108
  225WAT    EPW 1608   7.101   7.268   4.152
  226WAT      O 1609   7.679   7.424   4.973
  226WAT     H1 1610   7.631   7.482   5.017
  226WAT     H2 1611   7.677   7.454   4.891
  226WAT    EPW 1612   7.672   7.437   4.967
  227WAT      O 1613   6.921   7.722   3.473
  227WAT     H1 1614   6.903   7.638   3.489
  227WAT     H2 1615   6.987   7.718   3.416
  227WAT    EPW 1616   6.928   7.709   3.467
  228WAT      O 1617   7.650   7.162   3.359
  228WAT     H1 1618   7.650   7.150   3.273
  228WAT     H2 1619   7.632   7.246   3.368
  228WAT    EPW 1620   7.647   7.172   3.348
  229WAT      O 1621   7.237   7.505   4.809
  229WAT     H1 1622   7.183   7.455   4.855
  229WAT     H2 1623   7.239   7.466   4.731
  229WAT    EPW 1624   7.229   7.492   4.804
  230WAT      O 1625   7.285   7.445   3.323
  230WAT     H1 1626   7.273   7.400   3.396
  230WAT     H2 1627   7.227   7.411   3.267
  230WAT    EPW 1628   7.275   7.433   3.325
  231WAT      O 1629   7.302   7.628   3.982
  231WAT     H1 1630   7.224   7.622   3.944
  231WAT     H2 1631   7.309   7.553   4.026
  231WAT    EPW 1632   7.292   7.616   3.983
  232WAT      O 1633   7.345   7.602   4.329
  232WAT     H1 1634   7.348   7.534   4.274
  232WAT     H2 1635   7.280   7.651   4.298
  232WAT    EPW 1636   7.336   7.599   4.317
  233WAT      O 1637   7.125   7.737   4.885
  233WAT     H1 1638   7.121   7.787   4.814
  233WAT     H2 1639   7.158   7.662   4.856
  233WAT    EPW 1640   7.129   7.733   4.870
  234WAT      O 1641   7.812   7.317   4.092
  234WAT     H1 1642   7.860   7.387   4.113
  234WAT     H2 1643   7.849   7.252   4.138
  234WAT    EPW 1644   7.825   7.318   4.102
  235WAT      O 1645   7.490   6.868   3.286
  235WAT     H1 1646   7.500   6.857   3.372
  235WAT     H2 1647   7.419   6.918   3.279
  235WAT    EPW 1648   7.481   6.874   3.298
  236WAT      O 1649   7.202   7.699   3.410
  236WAT     H1 1650   7.235   7.621   3.388
  236WAT     H2 1651   7.267   7.735   3.456
  236WAT    EPW 1652   7.217   7.692   3.414
  237WAT      O 1653   6.902   6.865   3.507
  237WAT     H1 1654   6.915   6.794   3.458
  237WAT     H2 1655   6.865   6.833   3.580
  237WAT    EPW 1656   6.899   6.849   3.511
  238WAT      O 1657   7.871   7.633   3.553
  238WAT     H1 1658   7.877   7.698   3.611
  238WAT     H2 1659   7.853   7.563   3.602
  238WAT    EPW 1660   7.870   7.632   3.569
  239WAT      O 1661   7.321   7.084   3.204
  239WAT     H1 1662   7.270   7.090   3.133
  239WAT     H2 1663   7.399   7.108   3.174
  239WAT    EPW 1664   7.325   7.089   3.189
  240WAT      O 1665   7.794   7.837   3.996
  240WAT     H1 1666   7.709   7.818   4.004
  240WAT     H2 1667   7.826   7.821   4.075
  240WAT    EPW 1668   7.786   7.832   4.009
  241WAT      O 1669   7.179   7.807   4.227
  241WAT     H1 1670   7.251   7.856   4.224
  241WAT     H2 1671   7.152   7.804   4.145
  241WAT    EPW 1672   7.185   7.814   4.215
  242WAT      O 1673   7.502   7.324   3.901
  242WAT     H1 1674   7.586   7.305   3.911
  242WAT     H2 1675   7.465   7.246   3.887
  242WAT    EPW 1676   7.509   7.310   3.900
  243WAT      O 1677   6.984   7.458   3.566
  243WAT     H1 1678   7.033   7.428   3.633
  243WAT     H2 1679   6.997   7.398   3.504
  243WAT    EPW 1680   6.993   7.445   3.567
  244WAT      O 1681   7.436   7.601   3.115
  244WAT     H1 1682   7.375   7.561   3.162
  244WAT     H2 1683   7.398   7.613   3.038
  244WAT    EPW 1684   7.421   7.597   3.111
  245WAT      O 1685   7.582   7.447   3.386
  245WAT     H1 1686   7.609   7.530   3.393
  245WAT     H2 1687   7.495   7.455   3.376
  245WAT    EPW 1688   7.573   7.460   3.386
  246WAT      O 1689   6.930   7.044   4.040
  246WAT     H1 1690   6.934   7.079   3.960
  246WAT     H2 1691   7.005   7.068   4.076
  246WAT    EPW 1692   6.941   7.053   4.033
  247WAT      O 1693   7.844   7.735   4.266
  247WAT     H1 1694   7.891   7.773   4.329
  247WAT     H2 1695   7.761   7.749   4.292
  247WAT    EPW 1696   7.838   7.743   4.279
  248WAT      O 1697   7.515   7.296   4.540
  248WAT     H1 1698   7.531   7.221   4.583
  248WAT     H2 1699   7.510   7.271   4.457
  248WAT    EPW 1700   7.516   7.281   4.534
  249WAT      O 1701   7.690   6.876   4.528
  249WAT     H1 1702   7.760   6.908   4.488
  249WAT     H2 1703   7.714   6.796   4.551
  249WAT    EPW 1704   7.704   6.869   4.526
  250WAT      O 1705   7.748   7.775   3.119
  250WAT     H1 1706   7.667   7.757   3.091
  250WAT     H2 1707   7.744   7.860   3.139
  250WAT    EPW 1708   7.735   7.785   3.118
  251WAT      O 1709   7.341   7.382   4.134
  251WAT     H1 1710   7.385   7.371   4.060
  251WAT     H2 1711   7.395   7.350   4.195
  251WAT    EPW 1712   7.355   7.376   4.132
  252WAT      O 1713   7.695   6.880   4.139
  252WAT     H1 1714   7.613   6.865   4.163
  252WAT     H2 1715   7.691   6.884   4.052
  252WAT    EPW 1716   7.683   6.879   4.130
  253WAT      O 1717   6.952   6.920   4.743
  253WAT     H1 1718   6.938   7.000   4.709
  253WAT     H2 1719   6.873   6.896   4.771
  253WAT    EPW 1720   6.938   6.928   4.742
  254WAT      O 1721   7.258   7.194   3.465
  254WAT     H1 1722   7.271   7.162   3.385
  254WAT     H2 1723   7.177   7.170   3.485
  254WAT    EPW 1724   7.248   7.186   3.456
  255WAT      O 1725   7.256   7.396   4.507
  255WAT     H1 1726   7.293   7.457   4.458
  255WAT     H2 1727   7.323   7.348   4.535
  255WAT    EPW 1728   7.271   7.398   4.504
  256WAT      O 1729   7.033   7.240   4.434
  256WAT     H1 1730   7.041   7.223   4.349
  256WAT     H2 1731   7.108   7.281   4.454
  256WAT    EPW 1732   7.046   7.244   4.424
  257WAT      O 1733   7.289   6.981   4.675
  257WAT     H1 1734   7.281   6.897   4.696
  257WAT     H2 1735   7.257   6.986   4.594
  257WAT    EPW 1736   7.283   6.970   4.666
  258WAT      O 1737   6.973   7.763   4.457
  258WAT     H1 1738   7.005   7.785   4.378
  258WAT     H2 1739   6.963   7.676   4.451
  258WAT    EPW 1740   6.976   7.753   4.444
  259WAT      O 1741   7.119   7.357   3.118
  259WAT     H1 1742   7.052   7.358   3.174
  259WAT     H2 1743   7.128   7.272   3.100
  259WAT    EPW 1744   7.110   7.344   3.124
  260WAT      O 1745   7.449   7.692   4.595
  260WAT     H1 1746   7.410   7.770   4.603
  260WAT     H2 1747   7.409   7.655   4.527
  260WAT    EPW 1748   7.438   7.698   4.586
  261WAT      O 1749   7.492   6.990   4.340
  261WAT     H1 1750   7.406   6.998   4.348
  261WAT     H2 1751   7.514   6.938   4.407
  261WAT    EPW 1752   7.483   6.984   4.351
  262WAT      O 1753   7.653   7.498   4.698
  262WAT     H1 1754   7.621   7.440   4.641
  262WAT     H2 1755   7.617   7.573   4.673
  262WAT    EPW 1756   7.643   7.500   4.686
  263WAT      O 1757   7.733   6.823   3.161
  263WAT     H1 1758   7.740   6.847   3.077
  263WAT     H2 1759   7.658   6.860   3.186
  263WAT    EPW 1760   7.723   6.832   3.152
  264WAT      O 1761   7.214   6.998   4.405
  264WAT     H1 1762   7.180   6.921   4.381
  264WAT     H2 1763   7.145   7.051   4.411
  264WAT    EPW 1764   7.199   6.995   4.402
  265WAT      O 1765   7.080   7.330   3.800
  265WAT     H1 1766   7.043   7.360   3.874
  265WAT     H2 1767   7.133   7.267   3.829
  265WAT    EPW 1768   7.082   7.325   3.815
  266WAT      O 1769   7.644   7.737   3.402
  266WAT     H1 1770   7.654   7.751   3.316
  266WAT     H2 1771   7.726   7.731   3.431
  266WAT    EPW 1772   7.657   7.738   3.394
  267WAT      O 1773   7.558   7.034   4.713
  267WAT     H1 1774   7.581   6.977   4.652
  267WAT     H2 1775   7.473   7.016   4.728
  267WAT    EPW 1776   7.549   7.023   4.706
  268WAT      O 1777   6.939   7.339   1.412
  268WAT     H1 1778   6.861   7.356   1.376
  268WAT     H2 1779   6.943   7.252   1.415
  268WAT    EPW 1780   6.928   7.329   1.407
  269WAT      O 1781   7.253   7.866   1.280
  269WAT     H1 1782   7.214   7.829   1.211
  269WAT     H2 1783   7.245   7.806   1.342
  269WAT    EPW 1784   7.246   7.851   1.279
  270WAT      O 1785   7.644   6.963   1.664
  270WAT     H1 1786   7.637   7.031   1.610
  270WAT     H2 1787   7.718   6.924   1.640
  270WAT    EPW 1788   7.654   6.968   1.653
  271WAT      O 1789   7.103   7.686   1.807
  271WAT     H1 1790   7.057   7.647   1.745
  271WAT     H2 1791   7.173   7.634   1.817
  271WAT    EPW 1792   7.107   7.672   1.799
  272WAT      O 1793   7.554   7.247   2.342
  272WAT     H1 1794   7.622   7.249   2.287
  272WAT     H2 1795   7.549   7.163   2.367
  272WAT    EPW 1796   7.563   7.235   2.338
  273WAT      O 1797   7.303   7.496   1.810
  273WAT     H1 1798   7.385   7.477   1.834
  273WAT     H2 1799   7.256   7.434   1.849
  273WAT    EPW 1800   7.308   7.484   1.819
  274WAT      O 1801   7.363   7.005   1.736
  274WAT     H1 1802   7.333   7.055   1.671
  274WAT     H2 1803   7.450   7.013   1.731
  274WAT    EPW 1804   7.371   7.014   1.726
  275WAT      O 1805   7.661   6.919   1.959
  275WAT     H1 1806   7.668   7.005   1.971
  275WAT     H2 1807   7.657   6.912   1.872
  275WAT    EPW 1808   7.661   6.931   1.948
  276WAT      O 1809   6.949   7.462   2.109
  276WAT     H1 1810   6.923   7.545   2.101
  276WAT     H2 1811   6.882   7.424   2.150
  276WAT    EPW 1812   6.935   7.468   2.114
  277WAT      O 1813   7.252   6.944   2.158
  277WAT     H1 1814   7.200   6.881   2.127
  277WAT     H2 1815   7.311   6.900   2.205
  277WAT    EPW 1816   7.253   6.928   2.160
  278WAT      O 1817   7.582   7.157   3.088
  278WAT     H1 1818   7.594   7.111   3.014
  278WAT     H2 1819   7.611   7.237   3.067
  278WAT    EPW 1820   7.588   7.162   3.074
  279WAT      O 1821   7.156   7.117   2.986
  279WAT     H1 1822   7.078   7.078   2.979
  279WAT     H2 1823   7.205   7.075   2.927
  279WAT    EPW 1824   7.151   7.105   2.976
  280WAT      O 1825   7.820   6.881   2.903
  280WAT     H1 1826   7.838   6.800   2.875
  280WAT     H2 1827   7.806   6.925   2.829
  280WAT    EPW 1828   7.821   6.875   2.888
  281WAT      O 1829   6.890   7.171   2.745
  281WAT     H1 1830   6.890   7.230   2.809
  281WAT     H2 1831   6.950   7.203   2.689
  281WAT    EPW 1832   6.899   7.185   2.746
  282WAT      O 1833   6.984   7.131   1.636
  282WAT     H1 1834   6.973   7.044   1.639
  282WAT     H2 1835   6.937   7.160   1.703
  282WAT    EPW 1836   6.975   7.122   1.646
  283WAT      O 1837   7.914   7.252   1.511
  283WAT     H1 1838   7.864   7.185   1.485
  283WAT     H2 1839   7.920   7.302   1.440
  283WAT    EPW 1840   7.908   7.249   1.496
  284WAT      O 1841   7.774   7.182   1.952
  284WAT     H1 1842   7.782   7.239   1.886
  284WAT     H2 1843   7.786   7.232   2.023
  284WAT    EPW 1844   7.777   7.198   1.953
  285WAT      O 1845   7.235   6.765   1.787
  285WAT     H1 1846   7.289   6.834   1.786
  285WAT     H2 1847   7.235   6.737   1.704
  285WAT    EPW 1848   7.243   6.771   1.774
  286WAT      O 1849   7.531   7.808   2.189
  286WAT     H1 1850   7.548   7.787   2.272
  286WAT     H2 1851   7.465   7.755   2.168
  286WAT    EPW 1852   7.524   7.797   2.198
  287WAT      O 1853   7.280   7.146   1.952
  287WAT     H1 1854   7.307   7.103   1.881
  287WAT     H2 1855   7.262   7.082   2.009
  287WAT    EPW 1856   7.281   7.130   1.950
  288WAT      O 1857   7.094   7.256   2.260
  288WAT     H1 1858   7.178   7.278   2.256
  288WAT     H2 1859   7.055   7.313   2.207
  288WAT    EPW 1860   7.101   7.268   2.252
  289WAT      O 1861   7.679   7.424   3.072
  289WAT     H1 1862   7.631   7.482   3.116
  289WAT     H2 1863   7.677   7.454   2.990
  289WAT    EPW 1864   7.672   7.437   3.066
  290WAT      O 1865   6.921   7.722   1.573
  290WAT     H1 1866   6.903   7.638   1.588
  290WAT     H2 1867   6.987   7.718   1.516
  290WAT    EPW 1868   6.928   7.709   1.567
  291WAT      O 1869   7.650   7.162   1.459
  291WAT     H1 1870   7.650   7.150   1.372
  291WAT     H2 1871   7.632   7.246   1.468
  291WAT    EPW 1872   7.647   7.172   1.447
  292WAT      O 1873   7.237   7.505   2.908
  292WAT     H1 1874   7.183   7.455   2.955
  292WAT     H2 1875   7.239   7.466   2.830
  292WAT    EPW 1876   7.229   7.492   2.903
  293WAT      O 1877   7.285   7.445   1.422
  293WAT     H1 1878   7.273   7.400   1.496
  293WAT     H2 1879   7.227   7.411   1.367
  293WAT    EPW 1880   7.275   7.433   1.425
  294WAT      O 1881   7.302   7.628   2.082
  294WAT     H1 1882   7.224   7.622   2.044
  294WAT     H2 1883   7.309   7.553   2.126
  294WAT    EPW 1884   7.292   7.616   2.083
  295WAT      O 1885   7.345   7.602   2.429
  295WAT     H1 1886   7.348   7.534   2.374
  295WAT     H2 1887   7.280   7.651   2.397
  295WAT    EPW 1888   7.336   7.599   2.416
  296WAT      O 1889   7.125   7.737   2.985
  296WAT     H1 1890   7.121   7.787   2.913
  296WAT     H2 1891   7.158   7.662   2.955
  296WAT    EPW 1892   7.129   7.733   2.970
  297WAT      O 1893   7.812   7.317   2.192
  297WAT     H1 1894   7.860   7.387   2.213
  297WAT     H2 1895   7.849   7.252   2.237
  297WAT    EPW 1896   7.825   7.318   2.202
  298WAT      O 1897   7.490   6.868   1.385
  298WAT     H1 1898   7.500   6.857   1.471
  298WAT     H2 1899   7.419   6.918   1.379
  298WAT    EPW 1900   7.481   6.874   1.397
  299WAT      O 1901   7.202   7.699   1.510
  299WAT     H1 1902   7.235   7.621   1.487
  299WAT     H2 1903   7.267   7.735   1.555
  299WAT    EPW 1904   7.217   7.692   1.513
  300WAT      O 1905   6.902   6.865   1.606
  300WAT     H1 1906   6.915   6.794   1.557
  300WAT     H2 1907   6.865   6.833   1.679
  300WAT    EPW 1908   6.899   6.849   1.610
  301WAT      O 1909   7.871   7.633   1.652
  301WAT     H1 1910   7.877   7.698   1.710
  301WAT     H2 1911   7.853   7.563   1.701
  301WAT    EPW 1912   7.870   7.632   1.668
  302WAT      O 1913   7.321   7.084   1.303
  302WAT     H1 1914   7.270   7.090   1.233
  302WAT     H2 1915   7.399   7.108   1.274
  302WAT    EPW 1916   7.325   7.089   1.289
  303WAT      O 1917   7.794   7.837   2.095
  303WAT     H1 1918   7.709   7.818   2.103
  303WAT     H2 1919   7.826   7.821   2.175
  303WAT    EPW 1920   7.786   7.832   2.108
  304WAT      O 1921   7.179   7.807   2.327
  304WAT     H1 1922   7.251   7.856   2.323
  304WAT     H2 1923   7.152   7.804   2.244
  304WAT    EPW 1924   7.185   7.814   2.314
  305WAT      O 1925   7.502   7.324   2.000
  305WAT     H1 1926   7.586   7.305   2.010
  305WAT     H2 1927   7.465   7.246   1.987
  305WAT    EPW 1928   7.509   7.310   2.000
  306WAT      O 1929   6.984   7.458   1.666
  306WAT     H1 1930   7.033   7.428   1.732
  306WAT     H2 1931   6.997   7.398   1.603
  306WAT    EPW 1932   6.993   7.445   1.666
  307WAT      O 1933   7.436   7.601   1.214
  307WAT     H1 1934   7.375   7.561   1.262
  307WAT     H2 1935   7.398   7.613   1.137
  307WAT    EPW 1936   7.421   7.597   1.210
  308WAT      O 1937   7.582   7.447   1.485
  308WAT     H1 1938   7.609   7.530   1.492
  308WAT     H2 1939   7.495   7.455   1.476
  308WAT    EPW 1940   7.573   7.460   1.485
  309WAT      O 1941   6.930   7.044   2.139
  309WAT     H1 1942   6.934   7.079   2.059
  309WAT     H2 1943   7.005   7.068   2.176
  309WAT    EPW 1944   6.941   7.053   2.133
  310WAT      O 1945   7.844   7.735   2.366
  310WAT     H1 1946   7.891   7.773   2.428
  310WAT     H2 1947   7.761   7.749   2.391
  310WAT    EPW 1948   7.838   7.743   2.379
  311WAT      O 1949   7.515   7.296   2.640
  311WAT     H1 1950   7.531   7.221   2.682
  311WAT     H2 1951   7.510   7.271   2.556
  311WAT    EPW 1952   7.516   7.281   2.634
  312WAT      O 1953   7.690   6.876   2.628
  312WAT     H1 1954   7.760   6.908   2.587
  312WAT     H2 1955   7.714   6.796   2.650
  312WAT    EPW 1956   7.704   6.869   2.625
  313WAT      O 1957   7.748   7.775   1.219
  313WAT     H1 1958   7.667   7.757   1.190
  313WAT     H2 1959   7.744   7.860   1.238
  313WAT    EPW 1960   7.735   7.785   1.217
  314WAT      O 1961   7.341   7.382   2.234
  314WAT     H1 1962   7.385   7.371   2.159
  314WAT     H2 1963   7.395   7.350   2.294
  314WAT    EPW 1964   7.355   7.376   2.232
  315WAT      O 1965   7.695   6.880   2.238
  315WAT     H1 1966   7.613   6.865   2.262
  315WAT     H2 1967   7.691   6.884   2.151
  315WAT    EPW 1968   7.683   6.879   2.229
  316WAT      O 1969   6.952   6.920   2.842
  316WAT     H1 1970   6.938   7.000   2.809
  316WAT     H2 1971   6.873   6.896   2.871
  316WAT    EPW 1972   6.938   6.928   2.841
  317WAT      O 1973   7.258   7.194   1.564
  317WAT     H1 1974   7.271   7.162   1.485
  317WAT     H2 1975   7.177   7.170   1.584
  317WAT    EPW 1976   7.248   7.186   1.556
  318WAT      O 1977   7.256   7.396   2.606
  318WAT     H1 1978   7.293   7.457   2.557
  318WAT     H2 1979   7.323   7.348   2.635
  318WAT    EPW 1980   7.271   7.398   2.603
  319WAT      O 1981   7.033   7.240   2.534
  319WAT     H1 1982   7.041   7.223   2.448
  319WAT     H2 1983   7.108   7.281   2.553
  319WAT    EPW 1984   7.046   7.244   2.524
  320WAT      O 1985   7.289   6.981   2.775
  320WAT     H1 1986   7.281   6.897   2.795
  320WAT     H2 1987   7.257   6.986   2.693
  320WAT    EPW 1988   7.283   6.970   2.766
  321WAT      O 1989   6.973   7.763   2.556
  321WAT     H1 1990   7.005   7.785   2.478
  321WAT     H2 1991   6.963   7.676   2.550
  321WAT    EPW 1992   6.976   7.753   2.544
  322WAT      O 1993   7.119   7.357   1.218
  322WAT     H1 1994   7.052   7.358   1.273
  322WAT     H2 1995   7.128   7.272   1.199
  322WAT    EPW 1996   7.110   7.344   1.223
  323WAT      O 1997   7.449   7.692   2.694
  323WAT     H1 1998   7.410   7.770   2.702
  323WAT     H2 1999   7.409   7.655   2.627
  323WAT    EPW 2000   7.438   7.698   2.686
  324WAT      O 2001   7.492   6.990   2.439
  324WAT     H1 2002   7.406   6.998   2.447
  324WAT     H2 2003   7.514   6.938   2.506
  324WAT    EPW 2004   7.483   6.984   2.451
  325WAT      O 2005   7.653   7.498   2.797
  325WAT     H1 2006   7.621   7.440   2.740
  325WAT     H2 2007   7.617   7.573   2.773
  325WAT    EPW 2008   7.643   7.500   2.785
  326WAT      O 2009   7.733   6.823   1.260
  326WAT     H1 2010   7.740   6.847   1.177
  326WAT     H2 2011   7.658   6.860   1.286
  326WAT    EPW 2012   7.723   6.832   1.251
  327WAT      O 2013   7.214   6.998   2.504
  327WAT     H1 2014   7.180   6.921   2.481
  327WAT     H2 2015   7.145   7.051   2.511
  327WAT    EPW 2016   7.199   6.995   2.502
  328WAT      O 2017   7.080   7.330   1.900
  328WAT     H1 2018   7.043   7.360   1.973
  328WAT     H2 2019   7.133   7.267   1.928
  328WAT    EPW 2020   7.082   7.325   1.915
  329WAT      O 2021   7.644   7.737   1.501
  329WAT     H1 2022   7.654   7.751   1.416
  329WAT     H2 2023   7.726   7.731   1.531
  329WAT    EPW 2024   7.657   7.738   1.493
  330WAT      O 2025   7.558   7.034   2.813
  330WAT     H1 2026   7.581   6.977   2.752
  330WAT     H2 2027   7.473   7.016   2.827
  330WAT    EPW 2028   7.549   7.023   2.806
  331WAT      O 2029   7.554   7.247   0.441
  331WAT     H1 2030   7.622   7.249   0.387
  331WAT     H2 2031   7.549   7.163   0.466
  331WAT    EPW 2032   7.563   7.235   0.437
  332WAT      O 2033   6.949   7.462   0.208
  332WAT     H1 2034   6.923   7.545   0.201
  332WAT     H2 2035   6.882   7.424   0.250
  332WAT    EPW 2036   6.935   7.468   0.213
  333WAT      O 2037   7.252   6.944   0.257
  333WAT     H1 2038   7.200   6.881   0.226
  333WAT     H2 2039   7.311   6.900   0.304
  333WAT    EPW 2040   7.253   6.928   0.260
  334WAT      O 2041   7.582   7.157   1.187
  334WAT     H1 2042   7.594   7.111   1.113
  334WAT     H2 2043   7.611   7.237   1.167
  334WAT    EPW 2044   7.588   7.162   1.173
  335WAT      O 2045   7.156   7.117   1.085
  335WAT     H1 2046   7.078   7.078   1.078
  335WAT     H2 2047   7.205   7.075   1.026
  335WAT    EPW 2048   7.151   7.105   1.076
  336WAT      O 2049   7.820   6.881   1.002
  336WAT     H1 2050   7.838   6.800   0.975
  336WAT     H2 2051   7.806   6.925   0.928
  336WAT    EPW 2052   7.821   6.875   0.987
  337WAT      O 2053   6.890   7.171   0.844
  337WAT     H1 2054   6.890   7.230   0.909
  337WAT     H2 2055   6.950   7.203   0.788
  337WAT    EPW 2056   6.899   7.185   0.845
  338WAT      O 2057   7.531   7.808   0.289
  338WAT     H1 2058   7.548   7.787   0.371
  338WAT     H2 2059   7.465   7.755   0.267
  338WAT    EPW 2060   7.524   7.797   0.298
  339WAT      O 2061   7.094   7.256   0.360
  339WAT     H1 2062   7.178   7.278   0.355
  339WAT     H2 2063   7.055   7.313   0.307
  339WAT    EPW 2064   7.101   7.268   0.351
  340WAT      O 2065   7.679   7.424   1.171
  340WAT     H1 2066   7.631   7.482   1.216
  340WAT     H2 2067   7.677   7.454   1.089
  340WAT    EPW 2068   7.672   7.437   1.166
  341WAT      O 2069   7.237   7.505   1.007
  341WAT     H1 2070   7.183   7.455   1.054
  341WAT     H2 2071   7.239   7.466   0.929
  341WAT    EPW 2072   7.229   7.492   1.003
  342WAT      O 2073   7.345   7.602   0.528
  342WAT     H1 2074   7.348   7.534   0.473
  342WAT     H2 2075   7.280   7.651   0.497
  342WAT    EPW 2076   7.336   7.599   0.515
  343WAT      O 2077   7.125   7.737   1.084
  343WAT     H1 2078   7.121   7.787   1.013
  343WAT     H2 2079   7.158   7.662   1.054
  343WAT    EPW 2080   7.129   7.733   1.069
  344WAT      O 2081   7.812   7.317   0.291
  344WAT     H1 2082   7.860   7.387   0.312
  344WAT     H2 2083   7.849   7.252   0.336
  344WAT    EPW 2084   7.825   7.318   0.301
  345WAT      O 2085   7.794   7.837   0.195
  345WAT     H1 2086   7.709   7.818   0.203
  345WAT     H2 2087   7.826   7.821   0.274
  345WAT    EPW 2088   7.786   7.832   0.208
  346WAT      O 2089   7.179   7.807   0.426
  346WAT     H1 2090   7.251   7.856   0.423
  346WAT     H2 2091   7.152   7.804   0.343
  346WAT    EPW 2092   7.185   7.814   0.413
  347WAT      O 2093   7.844   7.735   0.465
  347WAT     H1 2094   7.891   7.773   0.528
  347WAT     H2 2095   7.761   7.749   0.491
  347WAT    EPW 2096   7.838   7.743   0.478
  348WAT      O 2097   7.515   7.296   0.739
  348WAT     H1 2098   7.531   7.221   0.782
  348WAT     H2 2099   7.510   7.271   0.656
  348WAT    EPW 2100   7.516   7.281   0.733
  349WAT      O 2101   7.690   6.876   0.727
  349WAT     H1 2102   7.760   6.908   0.687
  349WAT     H2 2103   7.714   6.796   0.750
  349WAT    EPW 2104   7.704   6.869   0.724
  350WAT      O 2105   7.341   7.382   0.333
  350WAT     H1 2106   7.385   7.371   0.259
  350WAT     H2 2107   7.395   7.350   0.394
  350WAT    EPW 2108   7.355   7.376   0.331
  351WAT      O 2109   7.695   6.880   0.338
  351WAT     H1 2110   7.613   6.865   0.362
  351WAT     H2 2111   7.691   6.884   0.251
  351WAT    EPW 2112   7.683   6.879   0.328
  352WAT      O 2113   6.952   6.920   0.941
  352WAT     H1 2114   6.938   7.000   0.908
  352WAT     H2 2115   6.873   6.896   0.970
  352WAT    EPW 2116   6.938   6.928   0.941
  353WAT      O 2117   7.256   7.396   0.705
  353WAT     H1 2118   7.293   7.457   0.657
  353WAT     H2 2119   7.323   7.348   0.734
  353WAT    EPW 2120   7.271   7.398   0.702
  354WAT      O 2121   7.033   7.240   0.633
  354WAT     H1 2122   7.041   7.223   0.548
  354WAT     H2 2123   7.108   7.281   0.653
  354WAT    EPW 2124   7.046   7.244   0.623
  355WAT      O 2125   7.289   6.981   0.874
  355WAT     H1 2126   7.281   6.897   0.895
  355WAT     H2 2127   7.257   6.986   0.793
  355WAT    EPW 2128   7.283   6.970   0.865
  356WAT      O 2129   6.973   7.763   0.655
  356WAT     H1 2130   7.005   7.785   0.577
  356WAT     H2 2131   6.963   7.676   0.650
  356WAT    EPW 2132   6.976   7.753   0.643
  357WAT      O 2133   7.449   7.692   0.794
  357WAT     H1 2134   7.410   7.770   0.801
  357WAT     H2 2135   7.409   7.655   0.726
  357WAT    EPW 2136   7.438   7.698   0.785
  358WAT      O 2137   7.492   6.990   0.539
  358WAT     H1 2138   7.406   6.998   0.547
  358WAT     H2 2139   7.514   6.938   0.606
  358WAT    EPW 2140   7.483   6.984   0.550
  359WAT      O 2141   7.653   7.498   0.897
  359WAT     H1 2142   7.621   7.440   0.840
  359WAT     H2 2143   7.617   7.573   0.872
  359WAT    EPW 2144   7.643   7.500   0.885
  360WAT      O 2145   7.214   6.998   0.604
  360WAT     H1 2146   7.180   6.921   0.580
  360WAT     H2 2147   7.145   7.051   0.610
  360WAT    EPW 2148   7.199   6.995   0.601
  361WAT      O 2149   7.558   7.034   0.912
  361WAT     H1 2150   7.581   6.977   0.851
  361WAT     H2 2151   7.473   7.016   0.926
  361WAT    EPW 2152   7.549   7.023   0.905
  362WAT      O 2153   6.965   6.112   7.464
  362WAT     H1 2154   6.920   6.124   7.538
  362WAT     H2 2155   6.936   6.035   7.435
  362WAT    EPW 2156   6.954   6.103   7.470
  363WAT      O 2157   6.939   5.492   7.114
  363WAT     H1 2158   6.861   5.508   7.078
  363WAT     H2 2159   6.943   5.404   7.116
  363WAT    EPW 2160   6.928   5.481   7.109
  364WAT      O 2161   7.253   6.018   6.981
  364WAT     H1 2162   7.214   5.981   6.913
  364WAT     H2 2163   7.245   5.958   7.044
  364WAT    EPW 2164   7.246   6.004   6.981
  365WAT      O 2165   7.215   6.182   7.371
  365WAT     H1 2166   7.276   6.165   7.432
  365WAT     H2 2167   7.140   6.168   7.414
  365WAT    EPW 2168   7.213   6.177   7.387
  366WAT      O 2169   7.644   5.115   7.366
  366WAT     H1 2170   7.637   5.183   7.312
  366WAT     H2 2171   7.718   5.077   7.341
  366WAT    EPW 2172   7.654   5.120   7.355
  367WAT      O 2173   7.105   6.491   6.979
  367WAT     H1 2174   7.151   6.499   6.906
  367WAT     H2 2175   7.150   6.433   7.026
  367WAT    EPW 2176   7.118   6.484   6.975
  368WAT      O 2177   7.103   5.838   7.509
  368WAT     H1 2178   7.057   5.799   7.447
  368WAT     H2 2179   7.173   5.787   7.518
  368WAT    EPW 2180   7.107   5.825   7.501
  369WAT      O 2181   7.303   5.648   7.512
  369WAT     H1 2182   7.385   5.629   7.536
  369WAT     H2 2183   7.256   5.587   7.551
  369WAT    EPW 2184   7.308   5.636   7.521
  370WAT      O 2185   7.724   6.246   7.773
  370WAT     H1 2186   7.758   6.166   7.776
  370WAT     H2 2187   7.790   6.296   7.747
  370WAT    EPW 2188   7.739   6.242   7.769
  371WAT      O 2189   7.729   6.191   7.394
  371WAT     H1 2190   7.762   6.127   7.442
  371WAT     H2 2191   7.753   6.170   7.313
  371WAT    EPW 2192   7.738   6.178   7.389
  372WAT      O 2193   7.363   5.157   7.438
  372WAT     H1 2194   7.333   5.207   7.373
  372WAT     H2 2195   7.450   5.165   7.432
  372WAT    EPW 2196   7.371   5.166   7.428
  373WAT      O 2197   7.661   5.072   7.660
  373WAT     H1 2198   7.668   5.158   7.673
  373WAT     H2 2199   7.657   5.064   7.574
  373WAT    EPW 2200   7.661   5.083   7.650
  374WAT      O 2201   6.949   5.614   7.811
  374WAT     H1 2202   6.923   5.697   7.803
  374WAT     H2 2203   6.882   5.576   7.852
  374WAT    EPW 2204   6.935   5.621   7.816
  375WAT      O 2205   6.940   6.585   7.601
  375WAT     H1 2206   6.881   6.641   7.569
  375WAT     H2 2207   6.982   6.558   7.529
  375WAT    EPW 2208   6.937   6.589   7.585
  376WAT      O 2209   7.524   6.369   7.349
  376WAT     H1 2210   7.466   6.342   7.408
  376WAT     H2 2211   7.586   6.309   7.351
  376WAT    EPW 2212   7.524   6.356   7.358
  377WAT      O 2213   7.094   6.452   7.394
  377WAT     H1 2214   7.160   6.395   7.395
  377WAT     H2 2215   7.133   6.527   7.372
  377WAT    EPW 2216   7.110   6.455   7.391
  378WAT      O 2217   7.176   6.301   7.744
  378WAT     H1 2218   7.218   6.265   7.676
  378WAT     H2 2219   7.208   6.259   7.813
  378WAT    EPW 2220   7.187   6.289   7.744
  379WAT      O 2221   7.499   6.586   7.673
  379WAT     H1 2222   7.584   6.596   7.654
  379WAT     H2 2223   7.469   6.668   7.680
  379WAT    EPW 2224   7.507   6.600   7.671
  380WAT      O 2225   7.838   6.377   6.976
  380WAT     H1 2226   7.820   6.431   7.041
  380WAT     H2 2227   7.915   6.406   6.946
  380WAT    EPW 2228   7.847   6.389   6.981
  381WAT      O 2229   6.984   5.283   7.338
  381WAT     H1 2230   6.973   5.197   7.341
  381WAT     H2 2231   6.937   5.312   7.405
  381WAT    EPW 2232   6.975   5.275   7.348
  382WAT      O 2233   7.914   5.404   7.212
  382WAT     H1 2234   7.864   5.338   7.187
  382WAT     H2 2235   7.920   5.454   7.141
  382WAT    EPW 2236   7.908   5.402   7.198
  383WAT      O 2237   7.774   5.335   7.654
  383WAT     H1 2238   7.782   5.391   7.588
  383WAT     H2 2239   7.786   5.384   7.725
  383WAT    EPW 2240   7.777   5.350   7.655
  384WAT      O 2241   7.235   4.917   7.489
  384WAT     H1 2242   7.289   4.986   7.488
  384WAT     H2 2243   7.235   4.890   7.406
  384WAT    EPW 2244   7.243   4.923   7.476
  385WAT      O 2245   7.280   5.298   7.654
  385WAT     H1 2246   7.307   5.255   7.583
  385WAT     H2 2247   7.262   5.234   7.711
  385WAT    EPW 2248   7.281   5.282   7.652
  386WAT      O 2249   7.262   6.041   7.609
  386WAT     H1 2250   7.347   6.033   7.592
  386WAT     H2 2251   7.227   5.972   7.568
  386WAT    EPW 2252   7.270   6.029   7.600
  387WAT      O 2253   7.139   6.713   7.733
  387WAT     H1 2254   7.072   6.663   7.708
  387WAT     H2 2255   7.179   6.732   7.657
  387WAT    EPW 2256   7.135   6.709   7.718
  388WAT      O 2257   7.499   6.041   7.432
  388WAT     H1 2258   7.570   6.091   7.441
  388WAT     H2 2259   7.521   5.985   7.370
  388WAT    EPW 2260   7.513   6.040   7.424
  389WAT      O 2261   6.915   6.206   7.764
  389WAT     H1 2262   6.848   6.254   7.792
  389WAT     H2 2263   6.983   6.260   7.767
  389WAT    EPW 2264   6.915   6.221   7.769
  390WAT      O 2265   6.921   5.874   7.275
  390WAT     H1 2266   6.903   5.790   7.290
  390WAT     H2 2267   6.987   5.870   7.218
  390WAT    EPW 2268   6.928   5.861   7.268
  391WAT      O 2269   6.938   6.290   7.232
  391WAT     H1 2270   6.994   6.347   7.269
  391WAT     H2 2271   6.915   6.239   7.299
  391WAT    EPW 2272   6.943   6.291   7.247
  392WAT      O 2273   6.921   6.135   6.995
  392WAT     H1 2274   6.997   6.092   7.001
  392WAT     H2 2275   6.923   6.189   7.064
  392WAT    EPW 2276   6.933   6.137   7.006
  393WAT      O 2277   7.015   5.957   7.795
  393WAT     H1 2278   7.059   5.945   7.721
  393WAT     H2 2279   6.995   6.042   7.793
  393WAT    EPW 2280   7.019   5.968   7.784
  394WAT      O 2281   7.650   5.314   7.160
  394WAT     H1 2282   7.650   5.302   7.074
  394WAT     H2 2283   7.632   5.399   7.170
  394WAT    EPW 2284   7.647   5.325   7.149
  395WAT      O 2285   7.424   6.309   7.624
  395WAT     H1 2286   7.436   6.393   7.642
  395WAT     H2 2287   7.491   6.269   7.663
  395WAT    EPW 2288   7.436   6.316   7.632
  396WAT      O 2289   7.285   5.597   7.124
  396WAT     H1 2290   7.273   5.552   7.198
  396WAT     H2 2291   7.227   5.563   7.069
  396WAT    EPW 2292   7.275   5.585   7.127
  397WAT      O 2293   7.302   5.780   7.784
  397WAT     H1 2294   7.224   5.774   7.745
  397WAT     H2 2295   7.309   5.705   7.827
  397WAT    EPW 2296   7.292   5.768   7.785
  398WAT      O 2297   7.523   6.646   7.288
  398WAT     H1 2298   7.508   6.568   7.326
  398WAT     H2 2299   7.592   6.631   7.237
  398WAT    EPW 2300   7.531   6.632   7.286
  399WAT      O 2301   7.490   5.020   7.087
  399WAT     H1 2302   7.500   5.009   7.173
  399WAT     H2 2303   7.419   5.071   7.081
  399WAT    EPW 2304   7.481   5.026   7.099
  400WAT      O 2305   7.752   6.597   7.129
  400WAT     H1 2306   7.815   6.614   7.188
  400WAT     H2 2307   7.756   6.666   7.075
  400WAT    EPW 2308   7.762   6.610   7.130
  401WAT      O 2309   7.202   5.851   7.212
  401WAT     H1 2310   7.235   5.773   7.189
  401WAT     H2 2311   7.267   5.888   7.257
  401WAT    EPW 2312   7.217   5.845   7.215
  402WAT      O 2313   6.902   5.017   7.308
  402WAT     H1 2314   6.915   4.946   7.259
  402WAT     H2 2315   6.865   4.985   7.381
  402WAT    EPW 2316   6.899   5.002   7.312
  403WAT      O 2317   7.871   5.785   7.354
  403WAT     H1 2318   7.877   5.850   7.412
  403WAT     H2 2319   7.853   5.715   7.403
  403WAT    EPW 2320   7.870   5.784   7.370
  404WAT      O 2321   7.321   5.237   7.005
  404WAT     H1 2322   7.270   5.242   6.935
  404WAT     H2 2323   7.399   5.261   6.976
  404WAT    EPW 2324   7.325   5.241   6.990
  405WAT      O 2325   7.794   5.990   7.797
  405WAT     H1 2326   7.709   5.970   7.805
  405WAT     H2 2327   7.826   5.973   7.876
  405WAT    EPW 2328   7.786   5.984   7.810
  406WAT      O 2329   7.469   6.663   6.886
  406WAT     H1 2330   7.513   6.593   6.915
  406WAT     H2 2331   7.490   6.725   6.943
  406WAT    EPW 2332   7.479   6.662   6.898
  407WAT      O 2333   7.502   5.476   7.702
  407WAT     H1 2334   7.586   5.457   7.712
  407WAT     H2 2335   7.465   5.398   7.688
  407WAT    EPW 2336   7.509   5.462   7.702
  408WAT      O 2337   6.984   5.610   7.368
  408WAT     H1 2338   7.033   5.581   7.434
  408WAT     H2 2339   6.997   5.551   7.305
  408WAT    EPW 2340   6.993   5.597   7.368
  409WAT      O 2341   7.436   5.753   6.916
  409WAT     H1 2342   7.375   5.713   6.964
  409WAT     H2 2343   7.398   5.765   6.839
  409WAT    EPW 2344   7.421   5.749   6.912
  410WAT      O 2345   7.582   5.599   7.187
  410WAT     H1 2346   7.609   5.682   7.194
  410WAT     H2 2347   7.495   5.607   7.178
  410WAT    EPW 2348   7.573   5.613   7.187
  411WAT      O 2349   6.930   5.196   7.841
  411WAT     H1 2350   6.934   5.231   7.761
  411WAT     H2 2351   7.005   5.220   7.878
  411WAT    EPW 2352   6.941   5.205   7.835
  412WAT      O 2353   7.770   6.627   7.590
  412WAT     H1 2354   7.825   6.695   7.596
  412WAT     H2 2355   7.735   6.635   7.511
  412WAT    EPW 2356   7.773   6.638   7.579
  413WAT      O 2357   7.748   5.927   6.921
  413WAT     H1 2358   7.667   5.910   6.892
  413WAT     H2 2359   7.744   6.012   6.940
  413WAT    EPW 2360   7.735   5.937   6.919
  414WAT      O 2361   7.258   5.347   7.266
  414WAT     H1 2362   7.271   5.314   7.187
  414WAT     H2 2363   7.177   5.322   7.286
  414WAT    EPW 2364   7.248   5.338   7.258
  415WAT      O 2365   7.119   5.509   6.920
  415WAT     H1 2366   7.052   5.510   6.975
  415WAT     H2 2367   7.128   5.424   6.901
  415WAT    EPW 2368   7.110   5.496   6.925
  416WAT      O 2369   7.518   6.379   7.031
  416WAT     H1 2370   7.562   6.387   7.106
  416WAT     H2 2371   7.437   6.358   7.057
  416WAT    EPW 2372   7.512   6.377   7.046
  417WAT      O 2373   7.250   6.286   7.091
  417WAT     H1 2374   7.226   6.256   7.169
  417WAT     H2 2375   7.247   6.216   7.040
  417WAT    EPW 2376   7.246   6.271   7.095
  418WAT      O 2377   7.532   6.111   6.965
  418WAT     H1 2378   7.451   6.084   6.979
  418WAT     H2 2379   7.530   6.196   6.984
  418WAT    EPW 2380   7.520   6.119   6.970
  419WAT      O 2381   7.733   4.975   6.962
  419WAT     H1 2382   7.740   5.000   6.879
  419WAT     H2 2383   7.658   5.013   6.988
  419WAT    EPW 2384   7.723   4.984   6.953
  420WAT      O 2385   7.080   5.482   7.602
  420WAT     H1 2386   7.043   5.512   7.675
  420WAT     H2 2387   7.133   5.419   7.630
  420WAT    EPW 2388   7.082   5.477   7.617
  421WAT      O 2389   7.227   6.649   7.230
  421WAT     H1 2390   7.213   6.665   7.146
  421WAT     H2 2391   7.314   6.657   7.238
  421WAT    EPW 2392   7.238   6.653   7.219
  422WAT      O 2393   7.644   5.889   7.203
  422WAT     H1 2394   7.654   5.903   7.118
  422WAT     H2 2395   7.726   5.883   7.233
  422WAT    EPW 2396   7.657   5.890   7.195
  423WAT      O 2397   7.296   6.531   7.878
  423WAT     H1 2398   7.288   6.450   7.846
  423WAT     H2 2399   7.251   6.579   7.821
  423WAT    EPW 2400   7.288   6.526   7.865
  424WAT      O 2401   6.965   6.112   5.563
  424WAT     H1 2402   6.920   6.124   5.637
  424WAT     H2 2403   6.936   6.035   5.534
  424WAT    EPW 2404   6.954   6.103   5.570
  425WAT      O 2405   6.939   5.492   5.214
  425WAT     H1 2406   6.861   5.508   5.178
  425WAT     H2 2407   6.943   5.404   5.216
  425WAT    EPW 2408   6.928   5.481   5.209
  426WAT      O 2409   7.253   6.018   5.081
  426WAT     H1 2410   7.214   5.981   5.012
  426WAT     H2 2411   7.245   5.958   5.144
  426WAT    EPW 2412   7.246   6.004   5.080
  427WAT      O 2413   7.215   6.182   5.471
  427WAT     H1 2414   7.276   6.165   5.531
  427WAT     H2 2415   7.140   6.168   5.513
  427WAT    EPW 2416   7.213   6.177   5.486
  428WAT      O 2417   7.644   5.115   5.466
  428WAT     H1 2418   7.637   5.183   5.411
  428WAT     H2 2419   7.718   5.077   5.441
  428WAT    EPW 2420   7.654   5.120   5.454
  429WAT      O 2421   7.105   6.491   5.078
  429WAT     H1 2422   7.151   6.499   5.005
  429WAT     H2 2423   7.150   6.433   5.125
  429WAT    EPW 2424   7.118   6.484   5.075
  430WAT      O 2425   6.959   6.386   6.188
  430WAT     H1 2426   6.971   6.358   6.270
  430WAT     H2 2427   6.898   6.332   6.157
  430WAT    EPW 2428   6.951   6.374   6.196
  431WAT      O 2429   7.616   6.138   6.695
  431WAT     H1 2430   7.592   6.138   6.779
  431WAT     H2 2431   7.541   6.124   6.653
  431WAT    EPW 2432   7.601   6.136   6.701
  432WAT      O 2433   7.103   5.838   5.609
  432WAT     H1 2434   7.057   5.799   5.546
  432WAT     H2 2435   7.173   5.787   5.618
  432WAT    EPW 2436   7.107   5.825   5.601
  433WAT      O 2437   7.554   5.399   6.143
  433WAT     H1 2438   7.622   5.401   6.088
  433WAT     H2 2439   7.549   5.315   6.168
  433WAT    EPW 2440   7.563   5.387   6.139
  434WAT      O 2441   7.614   6.458   6.421
  434WAT     H1 2442   7.628   6.534   6.381
  434WAT     H2 2443   7.693   6.421   6.424
  434WAT    EPW 2444   7.628   6.463   6.416
  435WAT      O 2445   7.303   5.648   5.611
  435WAT     H1 2446   7.385   5.629   5.635
  435WAT     H2 2447   7.256   5.587   5.650
  435WAT    EPW 2448   7.308   5.636   5.620
  436WAT      O 2449   7.724   6.246   5.872
  436WAT     H1 2450   7.758   6.166   5.875
  436WAT     H2 2451   7.790   6.296   5.846
  436WAT    EPW 2452   7.739   6.242   5.869
  437WAT      O 2453   7.729   6.191   5.493
  437WAT     H1 2454   7.762   6.127   5.542
  437WAT     H2 2455   7.753   6.170   5.412
  437WAT    EPW 2456   7.738   6.178   5.488
  438WAT      O 2457   7.363   5.157   5.537
  438WAT     H1 2458   7.333   5.207   5.472
  438WAT     H2 2459   7.450   5.165   5.532
  438WAT    EPW 2460   7.371   5.166   5.527
  439WAT      O 2461   7.661   5.072   5.760
  439WAT     H1 2462   7.668   5.158   5.773
  439WAT     H2 2463   7.657   5.064   5.673
  439WAT    EPW 2464   7.661   5.083   5.749
  440WAT      O 2465   6.949   5.614   5.910
  440WAT     H1 2466   6.923   5.697   5.902
  440WAT     H2 2467   6.882   5.576   5.952
  440WAT    EPW 2468   6.935   5.621   5.915
  441WAT      O 2469   6.940   6.585   5.700
  441WAT     H1 2470   6.881   6.641   5.669
  441WAT     H2 2471   6.982   6.558   5.629
  441WAT    EPW 2472   6.937   6.589   5.685
  442WAT      O 2473   7.524   6.369   5.448
  442WAT     H1 2474   7.466   6.342   5.507
  442WAT     H2 2475   7.586   6.309   5.450
  442WAT    EPW 2476   7.524   6.356   5.457
  443WAT      O 2477   7.252   5.096   5.959
  443WAT     H1 2478   7.200   5.033   5.928
  443WAT     H2 2479   7.311   5.052   6.006
  443WAT    EPW 2480   7.253   5.080   5.961
  444WAT      O 2481   7.582   5.309   6.889
  444WAT     H1 2482   7.594   5.264   6.815
  444WAT     H2 2483   7.611   5.389   6.868
  444WAT    EPW 2484   7.588   5.314   6.875
  445WAT      O 2485   7.094   6.452   5.493
  445WAT     H1 2486   7.160   6.395   5.494
  445WAT     H2 2487   7.133   6.527   5.471
  445WAT    EPW 2488   7.110   6.455   5.490
  446WAT      O 2489   7.156   5.269   6.787
  446WAT     H1 2490   7.078   5.230   6.780
  446WAT     H2 2491   7.205   5.228   6.728
  446WAT    EPW 2492   7.151   5.257   6.777
  447WAT      O 2493   7.176   6.301   5.843
  447WAT     H1 2494   7.218   6.265   5.776
  447WAT     H2 2495   7.208   6.259   5.912
  447WAT    EPW 2496   7.187   6.289   5.843
  448WAT      O 2497   7.499   6.586   5.773
  448WAT     H1 2498   7.584   6.596   5.753
  448WAT     H2 2499   7.469   6.668   5.779
  448WAT    EPW 2500   7.507   6.600   5.771
  449WAT      O 2501   7.820   5.033   6.704
  449WAT     H1 2502   7.838   4.952   6.676
  449WAT     H2 2503   7.806   5.077   6.630
  449WAT    EPW 2504   7.821   5.028   6.689
  450WAT      O 2505   7.399   6.708   6.347
  450WAT     H1 2506   7.428   6.701   6.429
  450WAT     H2 2507   7.336   6.647   6.342
  450WAT    EPW 2508   7.394   6.698   6.358
  451WAT      O 2509   6.890   5.324   6.546
  451WAT     H1 2510   6.890   5.382   6.610
  451WAT     H2 2511   6.950   5.355   6.490
  451WAT    EPW 2512   6.899   5.337   6.547
  452WAT      O 2513   7.838   6.377   5.075
  452WAT     H1 2514   7.820   6.431   5.141
  452WAT     H2 2515   7.915   6.406   5.045
  452WAT    EPW 2516   7.847   6.389   5.080
  453WAT      O 2517   6.984   5.283   5.437
  453WAT     H1 2518   6.973   5.197   5.440
  453WAT     H2 2519   6.937   5.312   5.504
  453WAT    EPW 2520   6.975   5.275   5.448
  454WAT      O 2521   7.198   6.524   6.259
  454WAT     H1 2522   7.128   6.473   6.271
  454WAT     H2 2523   7.224   6.504   6.178
  454WAT    EPW 2524   7.192   6.514   6.249
  455WAT      O 2525   7.914   5.404   5.312
  455WAT     H1 2526   7.864   5.338   5.286
  455WAT     H2 2527   7.920   5.454   5.241
  455WAT    EPW 2528   7.908   5.402   5.298
  456WAT      O 2529   7.774   5.335   5.753
  456WAT     H1 2530   7.782   5.391   5.687
  456WAT     H2 2531   7.786   5.384   5.824
  456WAT    EPW 2532   7.777   5.350   5.754
  457WAT      O 2533   7.334   6.409   6.515
  457WAT     H1 2534   7.418   6.415   6.493
  457WAT     H2 2535   7.331   6.449   6.593
  457WAT    EPW 2536   7.346   6.416   6.524
  458WAT      O 2537   7.235   4.917   5.588
  458WAT     H1 2538   7.289   4.986   5.587
  458WAT     H2 2539   7.235   4.890   5.505
  458WAT    EPW 2540   7.243   4.923   5.575
  459WAT      O 2541   7.531   5.960   5.990
  459WAT     H1 2542   7.548   5.939   6.073
  459WAT     H2 2543   7.465   5.907   5.969
  459WAT    EPW 2544   7.524   5.949   5.999
  460WAT      O 2545   7.606   5.954   6.249
  460WAT     H1 2546   7.611   6.039   6.270
  460WAT     H2 2547   7.577   5.917   6.323
  460WAT    EPW 2548   7.602   5.961   6.263
  461WAT      O 2549   6.888   6.391   6.870
  461WAT     H1 2550   6.963   6.426   6.896
  461WAT     H2 2551   6.905   6.306   6.865
  461WAT    EPW 2552   6.902   6.384   6.873
  462WAT      O 2553   7.280   5.298   5.753
  462WAT     H1 2554   7.307   5.255   5.682
  462WAT     H2 2555   7.262   5.234   5.810
  462WAT    EPW 2556   7.281   5.282   5.751
  463WAT      O 2557   7.262   6.041   5.708
  463WAT     H1 2558   7.347   6.033   5.691
  463WAT     H2 2559   7.227   5.972   5.667
  463WAT    EPW 2560   7.270   6.029   5.699
  464WAT      O 2561   7.139   6.713   5.832
  464WAT     H1 2562   7.072   6.663   5.807
  464WAT     H2 2563   7.179   6.732   5.757
  464WAT    EPW 2564   7.135   6.709   5.817
  465WAT      O 2565   7.094   5.408   6.061
  465WAT     H1 2566   7.178   5.430   6.057
  465WAT     H2 2567   7.055   5.465   6.008
  465WAT    EPW 2568   7.101   5.420   6.053
  466WAT      O 2569   7.499   6.041   5.532
  466WAT     H1 2570   7.570   6.091   5.541
  466WAT     H2 2571   7.521   5.985   5.469
  466WAT    EPW 2572   7.513   6.040   5.524
  467WAT      O 2573   6.915   6.206   5.864
  467WAT     H1 2574   6.848   6.254   5.891
  467WAT     H2 2575   6.983   6.260   5.867
  467WAT    EPW 2576   6.915   6.221   5.868
  468WAT      O 2577   7.679   5.577   6.873
  468WAT     H1 2578   7.631   5.634   6.917
  468WAT     H2 2579   7.677   5.606   6.791
  468WAT    EPW 2580   7.672   5.590   6.868
  469WAT      O 2581   6.921   5.874   5.374
  469WAT     H1 2582   6.903   5.790   5.389
  469WAT     H2 2583   6.987   5.870   5.317
  469WAT    EPW 2584   6.928   5.861   5.368
  470WAT      O 2585   6.938   6.290   5.331
  470WAT     H1 2586   6.994   6.347   5.368
  470WAT     H2 2587   6.915   6.239   5.398
  470WAT    EPW 2588   6.943   6.291   5.347
  471WAT      O 2589   7.359   6.190   6.040
  471WAT     H1 2590   7.406   6.219   6.108
  471WAT     H2 2591   7.416   6.143   5.995
  471WAT    EPW 2592   7.374   6.188   6.044
  472WAT      O 2593   6.921   6.135   5.094
  472WAT     H1 2594   6.997   6.092   5.100
  472WAT     H2 2595   6.923   6.189   5.163
  472WAT    EPW 2596   6.933   6.137   5.105
  473WAT      O 2597   7.015   5.957   5.895
  473WAT     H1 2598   7.059   5.945   5.820
  473WAT     H2 2599   6.995   6.042   5.892
  473WAT    EPW 2600   7.019   5.968   5.883
  474WAT      O 2601   7.650   5.314   5.260
  474WAT     H1 2602   7.650   5.302   5.173
  474WAT     H2 2603   7.632   5.399   5.269
  474WAT    EPW 2604   7.647   5.325   5.248
  475WAT      O 2605   7.424   6.309   5.723
  475WAT     H1 2606   7.436   6.393   5.742
  475WAT     H2 2607   7.491   6.269   5.763
  475WAT    EPW 2608   7.436   6.316   5.732
  476WAT      O 2609   7.237   5.657   6.709
  476WAT     H1 2610   7.183   5.607   6.756
  476WAT     H2 2611   7.239   5.618   6.631
  476WAT    EPW 2612   7.229   5.644   6.705
  477WAT      O 2613   7.285   5.597   5.223
  477WAT     H1 2614   7.273   5.552   5.297
  477WAT     H2 2615   7.227   5.563   5.168
  477WAT    EPW 2616   7.275   5.585   5.226
  478WAT      O 2617   7.302   5.780   5.883
  478WAT     H1 2618   7.224   5.774   5.845
  478WAT     H2 2619   7.309   5.705   5.927
  478WAT    EPW 2620   7.292   5.768   5.884
  479WAT      O 2621   7.345   5.754   6.230
  479WAT     H1 2622   7.348   5.686   6.175
  479WAT     H2 2623   7.280   5.803   6.199
  479WAT    EPW 2624   7.336   5.751   6.217
  480WAT      O 2625   7.755   6.631   6.169
  480WAT     H1 2626   7.727   6.567   6.117
  480WAT     H2 2627   7.734   6.704   6.125
  480WAT    EPW 2628   7.748   6.633   6.155
  481WAT      O 2629   7.125   5.889   6.786
  481WAT     H1 2630   7.121   5.939   6.714
  481WAT     H2 2631   7.158   5.814   6.756
  481WAT    EPW 2632   7.129   5.885   6.771
  482WAT      O 2633   7.715   6.394   6.729
  482WAT     H1 2634   7.750   6.376   6.807
  482WAT     H2 2635   7.671   6.321   6.709
  482WAT    EPW 2636   7.714   6.381   6.738
  483WAT      O 2637   7.812   5.469   5.993
  483WAT     H1 2638   7.860   5.539   6.014
  483WAT     H2 2639   7.849   5.404   6.038
  483WAT    EPW 2640   7.825   5.470   6.003
  484WAT      O 2641   7.523   6.646   5.388
  484WAT     H1 2642   7.508   6.568   5.425
  484WAT     H2 2643   7.592   6.631   5.336
  484WAT    EPW 2644   7.531   6.632   5.386
  485WAT      O 2645   7.490   5.020   5.187
  485WAT     H1 2646   7.500   5.009   5.273
  485WAT     H2 2647   7.419   5.071   5.180
  485WAT    EPW 2648   7.481   5.026   5.198
  486WAT      O 2649   7.752   6.597   5.228
  486WAT     H1 2650   7.815   6.614   5.287
  486WAT     H2 2651   7.756   6.666   5.175
  486WAT    EPW 2652   7.762   6.610   5.229
  487WAT      O 2653   7.202   5.851   5.311
  487WAT     H1 2654   7.235   5.773   5.289
  487WAT     H2 2655   7.267   5.888   5.356
  487WAT    EPW 2656   7.217   5.845   5.314
  488WAT      O 2657   6.902   5.017   5.408
  488WAT     H1 2658   6.915   4.946   5.358
  488WAT     H2 2659   6.865   4.985   5.480
  488WAT    EPW 2660   6.899   5.002   5.411
  489WAT      O 2661   7.871   5.785   5.453
  489WAT     H1 2662   7.877   5.850   5.511
  489WAT     H2 2663   7.853   5.715   5.502
  489WAT    EPW 2664   7.870   5.784   5.469
  490WAT      O 2665   7.321   5.237   5.105
  490WAT     H1 2666   7.270   5.242   5.034
  490WAT     H2 2667   7.399   5.261   5.075
  490WAT    EPW 2668   7.325   5.241   5.090
  491WAT      O 2669   7.794   5.990   5.896
  491WAT     H1 2670   7.709   5.970   5.905
  491WAT     H2 2671   7.826   5.973   5.976
  491WAT    EPW 2672   7.786   5.984   5.909
  492WAT      O 2673   7.469   6.663   4.985
  492WAT     H1 2674   7.513   6.593   5.014
  492WAT     H2 2675   7.490   6.725   5.042
  492WAT    EPW 2676   7.479   6.662   4.998
  493WAT      O 2677   7.179   5.959   6.128
  493WAT     H1 2678   7.251   6.008   6.124
  493WAT     H2 2679   7.152   5.956   6.045
  493WAT    EPW 2680   7.185   5.966   6.115
  494WAT      O 2681   7.502   5.476   5.802
  494WAT     H1 2682   7.586   5.457   5.811
  494WAT     H2 2683   7.465   5.398   5.788
  494WAT    EPW 2684   7.509   5.462   5.801
  495WAT      O 2685   6.984   5.610   5.467
  495WAT     H1 2686   7.033   5.581   5.533
  495WAT     H2 2687   6.997   5.551   5.404
  495WAT    EPW 2688   6.993   5.597   5.468
  496WAT      O 2689   7.436   5.753   5.016
  496WAT     H1 2690   7.375   5.713   5.063
  496WAT     H2 2691   7.398   5.765   4.938
  496WAT    EPW 2692   7.421   5.749   5.011
  497WAT      O 2693   7.118   6.064   6.556
  497WAT     H1 2694   7.076   6.012   6.500
  497WAT     H2 2695   7.083   6.143   6.542
  497WAT    EPW 2696   7.107   6.068   6.545
  498WAT      O 2697   7.582   5.599   5.287
  498WAT     H1 2698   7.609   5.682   5.293
  498WAT     H2 2699   7.495   5.607   5.277
  498WAT    EPW 2700   7.573   5.613   5.286
  499WAT      O 2701   6.930   5.196   5.940
  499WAT     H1 2702   6.934   5.231   5.860
  499WAT     H2 2703   7.005   5.220   5.977
  499WAT    EPW 2704   6.941   5.205   5.934
  500WAT      O 2705   7.592   6.245   6.218
  500WAT     H1 2706   7.562   6.304   6.274
  500WAT     H2 2707   7.597   6.289   6.143
  500WAT    EPW 2708   7.588   6.261   6.215
  501WAT      O 2709   7.390   6.140   6.557
  501WAT     H1 2710   7.309   6.111   6.574
  501WAT     H2 2711   7.381   6.227   6.558
  501WAT    EPW 2712   7.377   6.149   6.560
  502WAT      O 2713   7.844   5.888   6.167
  502WAT     H1 2714   7.891   5.925   6.230
  502WAT     H2 2715   7.761   5.901   6.193
  502WAT    EPW 2716   7.838   5.895   6.180
  503WAT      O 2717   7.515   5.448   6.441
  503WAT     H1 2718   7.531   5.373   6.484
  503WAT     H2 2719   7.510   5.423   6.357
  503WAT    EPW 2720   7.516   5.433   6.435
  504WAT      O 2721   7.770   6.627   5.690
  504WAT     H1 2722   7.825   6.695   5.695
  504WAT     H2 2723   7.735   6.635   5.610
  504WAT    EPW 2724   7.773   6.638   5.679
  505WAT      O 2725   7.690   5.029   6.429
  505WAT     H1 2726   7.760   5.061   6.389
  505WAT     H2 2727   7.714   4.948   6.452
  505WAT    EPW 2728   7.704   5.021   6.426
  506WAT      O 2729   7.588   6.450   6.028
  506WAT     H1 2730   7.526   6.508   6.010
  506WAT     H2 2731   7.613   6.421   5.950
  506WAT    EPW 2732   7.583   6.454   6.014
  507WAT      O 2733   7.748   5.927   5.020
  507WAT     H1 2734   7.667   5.910   4.991
  507WAT     H2 2735   7.744   6.012   5.039
  507WAT    EPW 2736   7.735   5.937   5.019
  508WAT      O 2737   7.341   5.534   6.035
  508WAT     H1 2738   7.385   5.524   5.960
  508WAT     H2 2739   7.395   5.503   6.095
  508WAT    EPW 2740   7.355   5.528   6.033
  509WAT      O 2741   7.854   6.615   6.616
  509WAT     H1 2742   7.901   6.555   6.575
  509WAT     H2 2743   7.818   6.570   6.683
  509WAT    EPW 2744   7.855   6.599   6.620
  510WAT      O 2745   7.695   5.032   6.040
  510WAT     H1 2746   7.613   5.018   6.063
  510WAT     H2 2747   7.691   5.036   5.953
  510WAT    EPW 2748   7.683   5.031   6.030
  511WAT      O 2749   7.859   6.136   6.518
  511WAT     H1 2750   7.780   6.130   6.554
  511WAT     H2 2751   7.867   6.221   6.499
  511WAT    EPW 2752   7.849   6.148   6.521
  512WAT      O 2753   6.952   5.072   6.643
  512WAT     H1 2754   6.938   5.152   6.610
  512WAT     H2 2755   6.873   5.048   6.672
  512WAT    EPW 2756   6.938   5.080   6.643
  513WAT      O 2757   7.442   6.757   6.050
  513WAT     H1 2758   7.444   6.763   6.137
  513WAT     H2 2759   7.400   6.682   6.035
  513WAT    EPW 2760   7.436   6.747   6.061
  514WAT      O 2761   7.258   5.347   5.366
  514WAT     H1 2762   7.271   5.314   5.286
  514WAT     H2 2763   7.177   5.322   5.386
  514WAT    EPW 2764   7.248   5.338   5.357
  515WAT      O 2765   7.119   6.707   6.594
  515WAT     H1 2766   7.053   6.650   6.604
  515WAT     H2 2767   7.081   6.784   6.609
  515WAT    EPW 2768   7.104   6.710   6.598
  516WAT      O 2769   7.256   5.548   6.407
  516WAT     H1 2770   7.293   5.610   6.359
  516WAT     H2 2771   7.323   5.500   6.436
  516WAT    EPW 2772   7.271   5.550   6.404
  517WAT      O 2773   7.033   5.393   6.335
  517WAT     H1 2774   7.041   5.376   6.249
  517WAT     H2 2775   7.108   5.433   6.354
  517WAT    EPW 2776   7.046   5.396   6.325
  518WAT      O 2777   7.289   5.134   6.576
  518WAT     H1 2778   7.281   5.049   6.596
  518WAT     H2 2779   7.257   5.138   6.495
  518WAT    EPW 2780   7.283   5.122   6.567
  519WAT      O 2781   6.973   5.915   6.357
  519WAT     H1 2782   7.005   5.937   6.279
  519WAT     H2 2783   6.963   5.829   6.352
  519WAT    EPW 2784   6.976   5.906   6.345
  520WAT      O 2785   7.119   5.509   5.019
  520WAT     H1 2786   7.052   5.510   5.075
  520WAT     H2 2787   7.128   5.424   5.001
  520WAT    EPW 2788   7.110   5.496   5.024
  521WAT      O 2789   7.518   6.379   5.130
  521WAT     H1 2790   7.562   6.387   5.205
  521WAT     H2 2791   7.437   6.358   5.156
  521WAT    EPW 2792   7.512   6.377   5.145
  522WAT      O 2793   7.449   5.844   6.496
  522WAT     H1 2794   7.410   5.922   6.503
  522WAT     H2 2795   7.409   5.807   6.428
  522WAT    EPW 2796   7.438   5.850   6.487
  523WAT      O 2797   7.250   6.286   5.190
  523WAT     H1 2798   7.226   6.256   5.268
  523WAT     H2 2799   7.247   6.216   5.139
  523WAT    EPW 2800   7.246   6.271   5.194
  524WAT      O 2801   7.532   6.111   5.065
  524WAT     H1 2802   7.451   6.084   5.079
  524WAT     H2 2803   7.530   6.196   5.083
  524WAT    EPW 2804   7.520   6.119   5.070
  525WAT      O 2805   7.492   5.142   6.241
  525WAT     H1 2806   7.406   5.150   6.249
  525WAT     H2 2807   7.514   5.091   6.308
  525WAT    EPW 2808   7.483   5.136   6.252
  526WAT      O 2809   7.653   5.650   6.598
  526WAT     H1 2810   7.621   5.592   6.541
  526WAT     H2 2811   7.617   5.725   6.574
  526WAT    EPW 2812   7.643   5.652   6.586
  527WAT      O 2813   7.733   4.975   5.061
  527WAT     H1 2814   7.740   5.000   4.978
  527WAT     H2 2815   7.658   5.013   5.087
  527WAT    EPW 2816   7.723   4.984   5.053
  528WAT      O 2817   7.496   6.685   6.623
  528WAT     H1 2818   7.501   6.698   6.710
  528WAT     H2 2819   7.562   6.629   6.608
  528WAT    EPW 2820   7.507   6.679   6.634
  529WAT      O 2821   7.214   5.150   6.305
  529WAT     H1 2822   7.180   5.074   6.282
  529WAT     H2 2823   7.145   5.203   6.312
  529WAT    EPW 2824   7.199   5.147   6.303
  530WAT      O 2825   7.256   6.524   6.759
  530WAT     H1 2826   7.315   6.567   6.806
  530WAT     H2 2827   7.219   6.586   6.710
  530WAT    EPW 2828   7.259   6.539   6.759
  531WAT      O 2829   7.080   5.482   5.701
  531WAT     H1 2830   7.043   5.512   5.774
  531WAT     H2 2831   7.133   5.419   5.729
  531WAT    EPW 2832   7.082   5.477   5.716
  532WAT      O 2833   7.048   6.323   6.452
  532WAT     H1 2834   6.991   6.364   6.503
  532WAT     H2 2835   7.122   6.369   6.462
  532WAT    EPW 2836   7.051   6.336   6.461
  533WAT      O 2837   7.227   6.649   5.330
  533WAT     H1 2838   7.213   6.665   5.245
  533WAT     H2 2839   7.314   6.657   5.337
  533WAT    EPW 2840   7.238   6.653   5.318
  534WAT      O 2841   7.644   5.889   5.302
  534WAT     H1 2842   7.654   5.903   5.217
  534WAT     H2 2843   7.726   5.883   5.332
  534WAT    EPW 2844   7.657   5.890   5.294
  535WAT      O 2845   7.558   5.186   6.614
  535WAT     H1 2846   7.581   5.129   6.553
  535WAT     H2 2847   7.473   5.168   6.628
  535WAT    EPW 2848   7.549   5.175   6.607
  536WAT      O 2849   7.296   6.531   5.977
  536WAT     H1 2850   7.288   6.450   5.946
  536WAT     H2 2851   7.251   6.579   5.920
  536WAT    EPW 2852   7.288   6.526   5.964
  537WAT      O 2853   7.053   6.755   6.335
  537WAT     H1 2854   7.102   6.750   6.407
  537WAT     H2 2855   7.072   6.682   6.292
  537WAT    EPW 2856   7.063   6.743   6.340
  538WAT      O 2857   6.965   6.112   3.662
  538WAT     H1 2858   6.920   6.124   3.737
  538WAT     H2 2859   6.936   6.035   3.634
  538WAT    EPW 2860   6.954   6.103   3.669
  539WAT      O 2861   6.939   5.492   3.313
  539WAT     H1 2862   6.861   5.508   3.277
  539WAT     H2 2863   6.943   5.404   3.315
  539WAT    EPW 2864   6.928   5.481   3.308
  540WAT      O 2865   7.253   6.018   3.180
  540WAT     H1 2866   7.214   5.981   3.112
  540WAT     H2 2867   7.245   5.958   3.243
  540WAT    EPW 2868   7.246   6.004   3.179
  541WAT      O 2869   7.215   6.182   3.570
  541WAT     H1 2870   7.276   6.165   3.630
  541WAT     H2 2871   7.140   6.168   3.612
  541WAT    EPW 2872   7.213   6.177   3.585
  542WAT      O 2873   7.644   5.115   3.565
  542WAT     H1 2874   7.637   5.183   3.510
  542WAT     H2 2875   7.718   5.077   3.540
  542WAT    EPW 2876   7.654   5.120   3.553
  543WAT      O 2877   7.105   6.491   3.178
  543WAT     H1 2878   7.151   6.499   3.105
  543WAT     H2 2879   7.150   6.433   3.225
  543WAT    EPW 2880   7.118   6.484   3.174
  544WAT      O 2881   6.959   6.386   4.288
  544WAT     H1 2882   6.971   6.358   4.369
  544WAT     H2 2883   6.898   6.332   4.257
  544WAT    EPW 2884   6.951   6.374   4.295
  545WAT      O 2885   7.616   6.138   4.794
  545WAT     H1 2886   7.592   6.138   4.878
  545WAT     H2 2887   7.541   6.124   4.752
  545WAT    EPW 2888   7.601   6.136   4.801
  546WAT      O 2889   7.103   5.838   3.708
  546WAT     H1 2890   7.057   5.799   3.645
  546WAT     H2 2891   7.173   5.787   3.717
  546WAT    EPW 2892   7.107   5.825   3.700
  547WAT      O 2893   7.554   5.399   4.243
  547WAT     H1 2894   7.622   5.401   4.188
  547WAT     H2 2895   7.549   5.315   4.267
  547WAT    EPW 2896   7.563   5.387   4.238
  548WAT      O 2897   7.614   6.458   4.521
  548WAT     H1 2898   7.628   6.534   4.480
  548WAT     H2 2899   7.693   6.421   4.523
  548WAT    EPW 2900   7.628   6.463   4.515
  549WAT      O 2901   7.303   5.648   3.710
  549WAT     H1 2902   7.385   5.629   3.735
  549WAT     H2 2903   7.256   5.587   3.750
  549WAT    EPW 2904   7.308   5.636   3.720
  550WAT      O 2905   7.724   6.246   3.971
  550WAT     H1 2906   7.758   6.166   3.974
  550WAT     H2 2907   7.790   6.296   3.946
  550WAT    EPW 2908   7.739   6.242   3.968
  551WAT      O 2909   7.729   6.191   3.592
  551WAT     H1 2910   7.762   6.127   3.641
  551WAT     H2 2911   7.753   6.170   3.511
  551WAT    EPW 2912   7.738   6.178   3.588
  552WAT      O 2913   7.363   5.157   3.637
  552WAT     H1 2914   7.333   5.207   3.572
  552WAT     H2 2915   7.450   5.165   3.631
  552WAT    EPW 2916   7.371   5.166   3.626
  553WAT      O 2917   7.661   5.072   3.859
  553WAT     H1 2918   7.668   5.158   3.872
  553WAT     H2 2919   7.657   5.064   3.772
  553WAT    EPW 2920   7.661   5.083   3.848
  554WAT      O 2921   6.949   5.614   4.009
  554WAT     H1 2922   6.923   5.697   4.002
  554WAT     H2 2923   6.882   5.576   4.051
  554WAT    EPW 2924   6.935   5.621   4.014
  555WAT      O 2925   6.940   6.585   3.799
  555WAT     H1 2926   6.881   6.641   3.768
  555WAT     H2 2927   6.982   6.558   3.728
  555WAT    EPW 2928   6.937   6.589   3.784
  556WAT      O 2929   7.524   6.369   3.547
  556WAT     H1 2930   7.466   6.342   3.606
  556WAT     H2 2931   7.586   6.309   3.550
  556WAT    EPW 2932   7.524   6.356   3.556
  557WAT      O 2933   7.252   5.096   4.058
  557WAT     H1 2934   7.200   5.033   4.028
  557WAT     H2 2935   7.311   5.052   4.105
  557WAT    EPW 2936   7.253   5.080   4.061
  558WAT      O 2937   7.582   5.309   4.988
  558WAT     H1 2938   7.594   5.264   4.915
  558WAT     H2 2939   7.611   5.389   4.968
  558WAT    EPW 2940   7.588   5.314   4.974
  559WAT      O 2941   7.094   6.452   3.592
  559WAT     H1 2942   7.160   6.395   3.594
  559WAT     H2 2943   7.133   6.527   3.570
  559WAT    EPW 2944   7.110   6.455   3.589
  560WAT      O 2945   7.156   5.269   4.887
  560WAT     H1 2946   7.078   5.230   4.879
  560WAT     H2 2947   7.205   5.228   4.827
  560WAT    EPW 2948   7.151   5.257   4.877
  561WAT      O 2949   7.176   6.301   3.942
  561WAT     H1 2950   7.218   6.265   3.875
  561WAT     H2 2951   7.208   6.259   4.012
  561WAT    EPW 2952   7.187   6.289   3.943
  562WAT      O 2953   7.499   6.586   3.872
  562WAT     H1 2954   7.584   6.596   3.852
  562WAT     H2 2955   7.469   6.668   3.879
  562WAT    EPW 2956   7.507   6.600   3.870
  563WAT      O 2957   7.820   5.033   4.803
  563WAT     H1 2958   7.838   4.952   4.776
  563WAT     H2 2959   7.806   5.077   4.729
  563WAT    EPW 2960   7.821   5.028   4.788
  564WAT      O 2961   7.399   6.708   4.446
  564WAT     H1 2962   7.428   6.701   4.528
  564WAT     H2 2963   7.336   6.647   4.441
  564WAT    EPW 2964   7.394   6.698   4.457
  565WAT      O 2965   6.890   5.324   4.645
  565WAT     H1 2966   6.890   5.382   4.710
  565WAT     H2 2967   6.950   5.355   4.589
  565WAT    EPW 2968   6.899   5.337   4.646
  566WAT      O 2969   7.838   6.377   3.174
  566WAT     H1 2970   7.820   6.431   3.240
  566WAT     H2 2971   7.915   6.406   3.144
  566WAT    EPW 2972   7.847   6.389   3.180
  567WAT      O 2973   6.984   5.283   3.537
  567WAT     H1 2974   6.973   5.197   3.540
  567WAT     H2 2975   6.937   5.312   3.604
  567WAT    EPW 2976   6.975   5.275   3.547
  568WAT      O 2977   7.198   6.524   4.358
  568WAT     H1 2978   7.128   6.473   4.371
  568WAT     H2 2979   7.224   6.504   4.277
  568WAT    EPW 2980   7.192   6.514   4.348
  569WAT      O 2981   7.914   5.404   3.411
  569WAT     H1 2982   7.864   5.338   3.386
  569WAT     H2 2983   7.920   5.454   3.340
  569WAT    EPW 2984   7.908   5.402   3.397
  570WAT      O 2985   7.774   5.335   3.852
  570WAT     H1 2986   7.782   5.391   3.787
  570WAT     H2 2987   7.786   5.384   3.923
  570WAT    EPW 2988   7.777   5.350   3.853
  571WAT      O 2989   7.334   6.409   4.615
  571WAT     H1 2990   7.418   6.415   4.593
  571WAT     H2 2991   7.331   6.449   4.692
  571WAT    EPW 2992   7.346   6.416   4.623
  572WAT      O 2993   7.235   4.917   3.687
  572WAT     H1 2994   7.289   4.986   3.686
  572WAT     H2 2995   7.235   4.890   3.604
  572WAT    EPW 2996   7.243   4.923   3.675
  573WAT      O 2997   7.531   5.960   4.090
  573WAT     H1 2998   7.548   5.939   4.173
  573WAT     H2 2999   7.465   5.907   4.068
  573WAT    EPW 3000   7.524   5.949   4.099
  574WAT      O 3001   7.606   5.954   4.349
  574WAT     H1 3002   7.611   6.039   4.369
  574WAT     H2 3003   7.577   5.917   4.422
  574WAT    EPW 3004   7.602   5.961   4.363
  575WAT      O 3005   6.888   6.391   4.970
  575WAT     H1 3006   6.963   6.426   4.996
  575WAT     H2 3007   6.905   6.306   4.964
  575WAT    EPW 3008   6.902   6.384   4.973
  576WAT      O 3009   7.280   5.298   3.853
  576WAT     H1 3010   7.307   5.255   3.782
  576WAT     H2 3011   7.262   5.234   3.910
  576WAT    EPW 3012   7.281   5.282   3.851
  577WAT      O 3013   7.262   6.041   3.808
  577WAT     H1 3014   7.347   6.033   3.790
  577WAT     H2 3015   7.227   5.972   3.766
  577WAT    EPW 3016   7.270   6.029   3.799
  578WAT      O 3017   7.139   6.713   3.931
  578WAT     H1 3018   7.072   6.663   3.907
  578WAT     H2 3019   7.179   6.732   3.856
  578WAT    EPW 3020   7.135   6.709   3.917
  579WAT      O 3021   7.094   5.408   4.161
  579WAT     H1 3022   7.178   5.430   4.157
  579WAT     H2 3023   7.055   5.465   4.108
  579WAT    EPW 3024   7.101   5.420   4.152
  580WAT      O 3025   7.499   6.041   3.631
  580WAT     H1 3026   7.570   6.091   3.640
  580WAT     H2 3027   7.521   5.985   3.568
  580WAT    EPW 3028   7.513   6.040   3.623
  581WAT      O 3029   6.915   6.206   3.963
  581WAT     H1 3030   6.848   6.254   3.991
  581WAT     H2 3031   6.983   6.260   3.966
  581WAT    EPW 3032   6.915   6.221   3.968
  582WAT      O 3033   7.679   5.577   4.973
  582WAT     H1 3034   7.631   5.634   5.017
  582WAT     H2 3035   7.677   5.606   4.891
  582WAT    EPW 3036   7.672   5.590   4.967
  583WAT      O 3037   6.921   5.874   3.473
  583WAT     H1 3038   6.903   5.790   3.489
  583WAT     H2 3039   6.987   5.870   3.416
  583WAT    EPW 3040   6.928   5.861   3.467
  584WAT      O 3041   6.938   6.290   3.431
  584WAT     H1 3042   6.994   6.347   3.467
  584WAT     H2 3043   6.915   6.239   3.497
  584WAT    EPW 3044   6.943   6.291   3.446
  585WAT      O 3045   7.359   6.190   4.140
  585WAT     H1 3046   7.406   6.219   4.208
  585WAT     H2 3047   7.416   6.143   4.094
  585WAT    EPW 3048   7.374   6.188   4.143
  586WAT      O 3049   6.921   6.135   3.194
  586WAT     H1 3050   6.997   6.092   3.199
  586WAT     H2 3051   6.923   6.189   3.263
  586WAT    EPW 3052   6.933   6.137   3.205
  587WAT      O 3053   7.015   5.957   3.994
  587WAT     H1 3054   7.059   5.945   3.919
  587WAT     H2 3055   6.995   6.042   3.992
  587WAT    EPW 3056   7.019   5.968   3.983
  588WAT      O 3057   7.650   5.314   3.359
  588WAT     H1 3058   7.650   5.302   3.273
  588WAT     H2 3059   7.632   5.399   3.368
  588WAT    EPW 3060   7.647   5.325   3.348
  589WAT      O 3061   7.424   6.309   3.822
  589WAT     H1 3062   7.436   6.393   3.841
  589WAT     H2 3063   7.491   6.269   3.862
  589WAT    EPW 3064   7.436   6.316   3.831
  590WAT      O 3065   7.237   5.657   4.809
  590WAT     H1 3066   7.183   5.607   4.855
  590WAT     H2 3067   7.239   5.618   4.731
  590WAT    EPW 3068   7.229   5.644   4.804
  591WAT      O 3069   7.285   5.597   3.323
  591WAT     H1 3070   7.273   5.552   3.396
  591WAT     H2 3071   7.227   5.563   3.267
  591WAT    EPW 3072   7.275   5.585   3.325
  592WAT      O 3073   7.302   5.780   3.982
  592WAT     H1 3074   7.224   5.774   3.944
  592WAT     H2 3075   7.309   5.705   4.026
  592WAT    EPW 3076   7.292   5.768   3.983
  593WAT      O 3077   7.345   5.754   4.329
  593WAT     H1 3078   7.348   5.686   4.274
  593WAT     H2 3079   7.280   5.803   4.298
  593WAT    EPW 3080   7.336   5.751   4.317
  594WAT      O 3081   7.755   6.631   4.268
  594WAT     H1 3082   7.727   6.567   4.216
  594WAT     H2 3083   7.734   6.704   4.225
  594WAT    EPW 3084   7.748   6.633   4.254
  595WAT      O 3085   7.125   5.889   4.885
  595WAT     H1 3086   7.121   5.939   4.814
  595WAT     H2 3087   7.158   5.814   4.856
  595WAT    EPW 3088   7.129   5.885   4.870
  596WAT      O 3089   7.715   6.394   4.829
  596WAT     H1 3090   7.750   6.376   4.906
  596WAT     H2 3091   7.671   6.321   4.809
  596WAT    EPW 3092   7.714   6.381   4.837
  597WAT      O 3093   7.812   5.469   4.092
  597WAT     H1 3094   7.860   5.539   4.113
  597WAT     H2 3095   7.849   5.404   4.138
  597WAT    EPW 3096   7.825   5.470   4.102
  598WAT      O 3097   7.523   6.646   3.487
  598WAT     H1 3098   7.508   6.568   3.524
  598WAT     H2 3099   7.592   6.631   3.436
  598WAT    EPW 3100   7.531   6.632   3.485
  599WAT      O 3101   7.490   5.020   3.286
  599WAT     H1 3102   7.500   5.009   3.372
  599WAT     H2 3103   7.419   5.071   3.279
  599WAT    EPW 3104   7.481   5.026   3.298
  600WAT      O 3105   7.752   6.597   3.327
  600WAT     H1 3106   7.815   6.614   3.386
  600WAT     H2 3107   7.756   6.666   3.274
  600WAT    EPW 3108   7.762   6.610   3.328
  601WAT      O 3109   7.202   5.851   3.410
  601WAT     H1 3110   7.235   5.773   3.388
  601WAT     H2 3111   7.267   5.888   3.456
  601WAT    EPW 3112   7.217   5.845   3.414
  602WAT      O 3113   6.902   5.017   3.507
  602WAT     H1 3114   6.915   4.946   3.458
  602WAT     H2 3115   6.865   4.985   3.580
  602WAT    EPW 3116   6.899   5.002   3.511
  603WAT      O 3117   7.871   5.785   3.553
  603WAT     H1 3118   7.877   5.850   3.611
  603WAT     H2 3119   7.853   5.715   3.602
  603WAT    EPW 3120   7.870   5.784   3.569
  604WAT      O 3121   7.321   5.237   3.204
  604WAT     H1 3122   7.270   5.242   3.133
  604WAT     H2 3123   7.399   5.261   3.174
  604WAT    EPW 3124   7.325   5.241   3.189
  605WAT      O 3125   7.794   5.990   3.996
  605WAT     H1 3126   7.709   5.970   4.004
  605WAT     H2 3127   7.826   5.973   4.075
  605WAT    EPW 3128   7.786   5.984   4.009
  606WAT      O 3129   7.469   6.663   3.084
  606WAT     H1 3130   7.513   6.593   3.113
  606WAT     H2 3131   7.490   6.725   3.142
  606WAT    EPW 3132   7.479   6.662   3.097
  607WAT      O 3133   7.179   5.959   4.227
  607WAT     H1 3134   7.251   6.008   4.224
  607WAT     H2 3135   7.152   5.956   4.145
  607WAT    EPW 3136   7.185   5.966   4.215
  608WAT      O 3137   7.502   5.476   3.901
  608WAT     H1 3138   7.586   5.457   3.911
  608WAT     H2 3139   7.465   5.398   3.887
  608WAT    EPW 3140   7.509   5.462   3.900
  609WAT      O 3141   6.984   5.610   3.566
  609WAT     H1 3142   7.033   5.581   3.633
  609WAT     H2 3143   6.997   5.551   3.504
  609WAT    EPW 3144   6.993   5.597   3.567
  610WAT      O 3145   7.436   5.753   3.115
  610WAT     H1 3146   7.375   5.713   3.162
  610WAT     H2 3147   7.398   5.765   3.038
  610WAT    EPW 3148   7.421   5.749   3.111
  611WAT      O 3149   7.118   6.064   4.655
  611WAT     H1 3150   7.076   6.012   4.599
  611WAT     H2 3151   7.083   6.143   4.641
  611WAT    EPW 3152   7.107   6.068   4.645
  612WAT      O 3153   7.582   5.599   3.386
  612WAT     H1 3154   7.609   5.682   3.393
  612WAT     H2 3155   7.495   5.607   3.376
  612WAT    EPW 3156   7.573   5.613   3.386
  613WAT      O 3157   6.930   5.196   4.040
  613WAT     H1 3158   6.934   5.231   3.960
  613WAT     H2 3159   7.005   5.220   4.076
  613WAT    EPW 3160   6.941   5.205   4.033
  614WAT      O 3161   7.592   6.245   4.317
  614WAT     H1 3162   7.562   6.304   4.374
  614WAT     H2 3163   7.597   6.289   4.242
  614WAT    EPW 3164   7.588   6.261   4.314
  615WAT      O 3165   7.390   6.140   4.657
  615WAT     H1 3166   7.309   6.111   4.674
  615WAT     H2 3167   7.381   6.227   4.657
  615WAT    EPW 3168   7.377   6.149   4.659
  616WAT      O 3169   7.844   5.888   4.266
  616WAT     H1 3170   7.891   5.925   4.329
  616WAT     H2 3171   7.761   5.901   4.292
  616WAT    EPW 3172   7.838   5.895   4.279
  617WAT      O 3173   7.515   5.448   4.540
  617WAT     H1 3174   7.531   5.373   4.583
  617WAT     H2 3175   7.510   5.423   4.457
  617WAT    EPW 3176   7.516   5.433   4.534
  618WAT      O 3177   7.770   6.627   3.789
  618WAT     H1 3178   7.825   6.695   3.794
  618WAT     H2 3179   7.735   6.635   3.709
  618WAT    EPW 3180   7.773   6.638   3.778
  619WAT      O 3181   7.690   5.029   4.528
  619WAT     H1 3182   7.760   5.061   4.488
  619WAT     H2 3183   7.714   4.948   4.551
  619WAT    EPW 3184   7.704   5.021   4.526
  620WAT      O 3185   7.588   6.450   4.128
  620WAT     H1 3186   7.526   6.508   4.110
  620WAT     H2 3187   7.613   6.421   4.049
  620WAT    EPW 3188   7.583   6.454   4.114
  621WAT      O 3189   7.748   5.927   3.119
  621WAT     H1 3190   7.667   5.910   3.091
  621WAT     H2 3191   7.744   6.012   3.139
  621WAT    EPW 3192   7.735   5.937   3.118
  622WAT      O 3193   7.341   5.534   4.134
  622WAT     H1 3194   7.385   5.524   4.060
  622WAT     H2 3195   7.395   5.503   4.195
  622WAT    EPW 3196   7.355   5.528   4.132
  623WAT      O 3197   7.854   6.615   4.716
  623WAT     H1 3198   7.901   6.555   4.674
  623WAT     H2 3199   7.818   6.570   4.782
  623WAT    EPW 3200   7.855   6.599   4.720
  624WAT      O 3201   7.695   5.032   4.139
  624WAT     H1 3202   7.613   5.018   4.163
  624WAT     H2 3203   7.691   5.036   4.052
  624WAT    EPW 3204   7.683   5.031   4.130
  625WAT      O 3205   7.859   6.136   4.618
  625WAT     H1 3206   7.780   6.130   4.653
  625WAT     H2 3207   7.867   6.221   4.598
  625WAT    EPW 3208   7.849   6.148   4.620
  626WAT      O 3209   6.952   5.072   4.743
  626WAT     H1 3210   6.938   5.152   4.709
  626WAT     H2 3211   6.873   5.048   4.771
  626WAT    EPW 3212   6.938   5.080   4.742
  627WAT      O 3213   7.442   6.757   4.150
  627WAT     H1 3214   7.444   6.763   4.237
  627WAT     H2 3215   7.400   6.682   4.135
  627WAT    EPW 3216   7.436   6.747   4.160
  628WAT      O 3217   7.258   5.347   3.465
  628WAT     H1 3218   7.271   5.314   3.385
  628WAT     H2 3219   7.177   5.322   3.485
  628WAT    EPW 3220   7.248   5.338   3.456
  629WAT      O 3221   7.119   6.707   4.694
  629WAT     H1 3222   7.053   6.650   4.704
  629WAT     H2 3223   7.081   6.784   4.709
  629WAT    EPW 3224   7.104   6.710   4.697
  630WAT      O 3225   7.256   5.548   4.507
  630WAT     H1 3226   7.293   5.610   4.458
  630WAT     H2 3227   7.323   5.500   4.535
  630WAT    EPW 3228   7.271   5.550   4.504
  631WAT      O 3229   7.033   5.393   4.434
  631WAT     H1 3230   7.041   5.376   4.349
  631WAT     H2 3231   7.108   5.433   4.454
  631WAT    EPW 3232   7.046   5.396   4.424
  632WAT      O 3233   7.289   5.134   4.675
  632WAT     H1 3234   7.281   5.049   4.696
  632WAT     H2 3235   7.257   5.138   4.594
  632WAT    EPW 3236   7.283   5.122   4.666
  633WAT      O 3237   6.973   5.915   4.457
  633WAT     H1 3238   7.005   5.937   4.378
  633WAT     H2 3239   6.963   5.829   4.451
  633WAT    EPW 3240   6.976   5.906   4.444
  634WAT      O 3241   7.119   5.509   3.118
  634WAT     H1 3242   7.052   5.510   3.174
  634WAT     H2 3243   7.128   5.424   3.100
  634WAT    EPW 3244   7.110   5.496   3.124
  635WAT      O 3245   7.518   6.379   3.230
  635WAT     H1 3246   7.562   6.387   3.305
  635WAT     H2 3247   7.437   6.358   3.256
  635WAT    EPW 3248   7.512   6.377   3.245
  636WAT      O 3249   7.449   5.844   4.595
  636WAT     H1 3250   7.410   5.922   4.603
  636WAT     H2 3251   7.409   5.807   4.527
  636WAT    EPW 3252   7.438   5.850   4.586
  637WAT      O 3253   7.250   6.286   3.290
  637WAT     H1 3254   7.226   6.256   3.368
  637WAT     H2 3255   7.247   6.216   3.238
  637WAT    EPW 3256   7.246   6.271   3.294
  638WAT      O 3257   7.532   6.111   3.164
  638WAT     H1 3258   7.451   6.084   3.178
  638WAT     H2 3259   7.530   6.196   3.183
  638WAT    EPW 3260   7.520   6.119   3.169
  639WAT      O 3261   7.492   5.142   4.340
  639WAT     H1 3262   7.406   5.150   4.348
  639WAT     H2 3263   7.514   5.091   4.407
  639WAT    EPW 3264   7.483   5.136   4.351
  640WAT      O 3265   7.653   5.650   4.698
  640WAT     H1 3266   7.621   5.592   4.641
  640WAT     H2 3267   7.617   5.725   4.673
  640WAT    EPW 3268   7.643   5.652   4.686
  641WAT      O 3269   7.733   4.975   3.161
  641WAT     H1 3270   7.740   5.000   3.077
  641WAT     H2 3271   7.658   5.013   3.186
  641WAT    EPW 3272   7.723   4.984   3.152
  642WAT      O 3273   7.496   6.685   4.723
  642WAT     H1 3274   7.501   6.698   4.809
  642WAT     H2 3275   7.562   6.629   4.707
  642WAT    EPW 3276   7.507   6.679   4.733
  643WAT      O 3277   7.214   5.150   4.405
  643WAT     H1 3278   7.180   5.074   4.381
  643WAT     H2 3279   7.145   5.203   4.411
  643WAT    EPW 3280   7.199   5.147   4.402
  644WAT      O 3281   7.256   6.524   4.859
  644WAT     H1 3282   7.315   6.567   4.906
  644WAT     H2 3283   7.219   6.586   4.810
  644WAT    EPW 3284   7.259   6.539   4.858
  645WAT      O 3285   7.080   5.482   3.800
  645WAT     H1 3286   7.043   5.512   3.874
  645WAT     H2 3287   7.133   5.419   3.829
  645WAT    EPW 3288   7.082   5.477   3.815
  646WAT      O 3289   7.048   6.323   4.552
  646WAT     H1 3290   6.991   6.364   4.602
  646WAT     H2 3291   7.122   6.369   4.561
  646WAT    EPW 3292   7.051   6.336   4.560
  647WAT      O 3293   7.227   6.649   3.429
  647WAT     H1 3294   7.213   6.665   3.344
  647WAT     H2 3295   7.314   6.657   3.437
  647WAT    EPW 3296   7.238   6.653   3.418
  648WAT      O 3297   7.644   5.889   3.402
  648WAT     H1 3298   7.654   5.903   3.316
  648WAT     H2 3299   7.726   5.883   3.431
  648WAT    EPW 3300   7.657   5.890   3.394
  649WAT      O 3301   7.558   5.186   4.713
  649WAT     H1 3302   7.581   5.129   4.652
  649WAT     H2 3303   7.473   5.168   4.728
  649WAT    EPW 3304   7.549   5.175   4.706
  650WAT      O 3305   7.296   6.531   4.077
  650WAT     H1 3306   7.288   6.450   4.045
  650WAT     H2 3307   7.251   6.579   4.020
  650WAT    EPW 3308   7.288   6.526   4.064
  651WAT      O 3309   7.053   6.755   4.435
  651WAT     H1 3310   7.102   6.750   4.507
  651WAT     H2 3311   7.072   6.682   4.391
  651WAT    EPW 3312   7.063   6.743   4.439
  652WAT      O 3313   6.965   6.112   1.762
  652WAT     H1 3314   6.920   6.124   1.836
  652WAT     H2 3315   6.936   6.035   1.733
  652WAT    EPW 3316   6.954   6.103   1.768
  653WAT      O 3317   6.939   5.492   1.412
  653WAT     H1 3318   6.861   5.508   1.376
  653WAT     H2 3319   6.943   5.404   1.415
  653WAT    EPW 3320   6.928   5.481   1.407
  654WAT      O 3321   7.253   6.018   1.280
  654WAT     H1 3322   7.214   5.981   1.211
  654WAT     H2 3323   7.245   5.958   1.342
  654WAT    EPW 3324   7.246   6.004   1.279
  655WAT      O 3325   7.215   6.182   1.670
  655WAT     H1 3326   7.276   6.165   1.730
  655WAT     H2 3327   7.140   6.168   1.712
  655WAT    EPW 3328   7.213   6.177   1.685
  656WAT      O 3329   7.644   5.115   1.664
  656WAT     H1 3330   7.637   5.183   1.610
  656WAT     H2 3331   7.718   5.077   1.640
  656WAT    EPW 3332   7.654   5.120   1.653
  657WAT      O 3333   7.105   6.491   1.277
  657WAT     H1 3334   7.151   6.499   1.204
  657WAT     H2 3335   7.150   6.433   1.324
  657WAT    EPW 3336   7.118   6.484   1.273
  658WAT      O 3337   6.959   6.386   2.387
  658WAT     H1 3338   6.971   6.358   2.469
  658WAT     H2 3339   6.898   6.332   2.356
  658WAT    EPW 3340   6.951   6.374   2.395
  659WAT      O 3341   7.616   6.138   2.894
  659WAT     H1 3342   7.592   6.138   2.978
  659WAT     H2 3343   7.541   6.124   2.851
  659WAT    EPW 3344   7.601   6.136   2.900
  660WAT      O 3345   7.103   5.838   1.807
  660WAT     H1 3346   7.057   5.799   1.745
  660WAT     H2 3347   7.173   5.787   1.817
  660WAT    EPW 3348   7.107   5.825   1.799
  661WAT      O 3349   7.554   5.399   2.342
  661WAT     H1 3350   7.622   5.401   2.287
  661WAT     H2 3351   7.549   5.315   2.367
  661WAT    EPW 3352   7.563   5.387   2.338
  662WAT      O 3353   7.614   6.458   2.620
  662WAT     H1 3354   7.628   6.534   2.579
  662WAT     H2 3355   7.693   6.421   2.623
  662WAT    EPW 3356   7.628   6.463   2.615
  663WAT      O 3357   7.303   5.648   1.810
  663WAT     H1 3358   7.385   5.629   1.834
  663WAT     H2 3359   7.256   5.587   1.849
  663WAT    EPW 3360   7.308   5.636   1.819
  664WAT      O 3361   7.724   6.246   2.071
  664WAT     H1 3362   7.758   6.166   2.074
  664WAT     H2 3363   7.790   6.296   2.045
  664WAT    EPW 3364   7.739   6.242   2.067
  665WAT      O 3365   7.729   6.191   1.692
  665WAT     H1 3366   7.762   6.127   1.740
  665WAT     H2 3367   7.753   6.170   1.611
  665WAT    EPW 3368   7.738   6.178   1.687
  666WAT      O 3369   7.363   5.157   1.736
  666WAT     H1 3370   7.333   5.207   1.671
  666WAT     H2 3371   7.450   5.165   1.731
  666WAT    EPW 3372   7.371   5.166   1.726
  667WAT      O 3373   7.661   5.072   1.959
  667WAT     H1 3374   7.668   5.158   1.971
  667WAT     H2 3375   7.657   5.064   1.872
  667WAT    EPW 3376   7.661   5.083   1.948
  668WAT      O 3377   6.949   5.614   2.109
  668WAT     H1 3378   6.923   5.697   2.101
  668WAT     H2 3379   6.882   5.576   2.150
  668WAT    EPW 3380   6.935   5.621   2.114
  669WAT      O 3381   6.940   6.585   1.899
  669WAT     H1 3382   6.881   6.641   1.867
  669WAT     H2 3383   6.982   6.558   1.827
  669WAT    EPW 3384   6.937   6.589   1.884
  670WAT      O 3385   7.524   6.369   1.647
  670WAT     H1 3386   7.466   6.342   1.706
  670WAT     H2 3387   7.586   6.309   1.649
  670WAT    EPW 3388   7.524   6.356   1.656
  671WAT      O 3389   7.252   5.096   2.158
  671WAT     H1 3390   7.200   5.033   2.127
  671WAT     H2 3391   7.311   5.052   2.205
  671WAT    EPW 3392   7.253   5.080   2.160
  672WAT      O 3393   7.582   5.309   3.088
  672WAT     H1 3394   7.594   5.264   3.014
  672WAT     H2 3395   7.611   5.389   3.067
  672WAT    EPW 3396   7.588   5.314   3.074
  673WAT      O 3397   7.094   6.452   1.692
  673WAT     H1 3398   7.160   6.395   1.693
  673WAT     H2 3399   7.133   6.527   1.670
  673WAT    EPW 3400   7.110   6.455   1.689
  674WAT      O 3401   7.156   5.269   2.986
  674WAT     H1 3402   7.078   5.230   2.979
  674WAT     H2 3403   7.205   5.228   2.927
  674WAT    EPW 3404   7.151   5.257   2.976
  675WAT      O 3405   7.176   6.301   2.042
  675WAT     H1 3406   7.218   6.265   1.974
  675WAT     H2 3407   7.208   6.259   2.111
  675WAT    EPW 3408   7.187   6.289   2.042
  676WAT      O 3409   7.499   6.586   1.971
  676WAT     H1 3410   7.584   6.596   1.952
  676WAT     H2 3411   7.469   6.668   1.978
  676WAT    EPW 3412   7.507   6.600   1.969
  677WAT      O 3413   7.820   5.033   2.903
  677WAT     H1 3414   7.838   4.952   2.875
  677WAT     H2 3415   7.806   5.077   2.829
  677WAT    EPW 3416   7.821   5.028   2.888
  678WAT      O 3417   7.399   6.708   2.545
  678WAT     H1 3418   7.428   6.701   2.627
  678WAT     H2 3419   7.336   6.647   2.541
  678WAT    EPW 3420   7.394   6.698   2.557
  679WAT      O 3421   6.890   5.324   2.745
  679WAT     H1 3422   6.890   5.382   2.809
  679WAT     H2 3423   6.950   5.355   2.689
  679WAT    EPW 3424   6.899   5.337   2.746
  680WAT      O 3425   7.838   6.377   1.274
  680WAT     H1 3426   7.820   6.431   1.339
  680WAT     H2 3427   7.915   6.406   1.244
  680WAT    EPW 3428   7.847   6.389   1.279
  681WAT      O 3429   6.984   5.283   1.636
  681WAT     H1 3430   6.973   5.197   1.639
  681WAT     H2 3431   6.937   5.312   1.703
  681WAT    EPW 3432   6.975   5.275   1.646
  682WAT      O 3433   7.198   6.524   2.458
  682WAT     H1 3434   7.128   6.473   2.470
  682WAT     H2 3435   7.224   6.504   2.377
  682WAT    EPW 3436   7.192   6.514   2.447
  683WAT      O 3437   7.914   5.404   1.511
  683WAT     H1 3438   7.864   5.338   1.485
  683WAT     H2 3439   7.920   5.454   1.440
  683WAT    EPW 3440   7.908   5.402   1.496
  684WAT      O 3441   7.774   5.335   1.952
  684WAT     H1 3442   7.782   5.391   1.886
  684WAT     H2 3443   7.786   5.384   2.023
  684WAT    EPW 3444   7.777   5.350   1.953
  685WAT      O 3445   7.334   6.409   2.714
  685WAT     H1 3446   7.418   6.415   2.692
  685WAT     H2 3447   7.331   6.449   2.792
  685WAT    EPW 3448   7.346   6.416   2.722
  686WAT      O 3449   7.235   4.917   1.787
  686WAT     H1 3450   7.289   4.986   1.786
  686WAT     H2 3451   7.235   4.890   1.704
  686WAT    EPW 3452   7.243   4.923   1.774
  687WAT      O 3453   7.531   5.960   2.189
  687WAT     H1 3454   7.548   5.939   2.272
  687WAT     H2 3455   7.465   5.907   2.168
  687WAT    EPW 3456   7.524   5.949   2.198
  688WAT      O 3457   7.606   5.954   2.448
  688WAT     H1 3458   7.611   6.039   2.468
  688WAT     H2 3459   7.577   5.917   2.522
  688WAT    EPW 3460   7.602   5.961   2.462
  689WAT      O 3461   6.888   6.391   3.069
  689WAT     H1 3462   6.963   6.426   3.095
  689WAT     H2 3463   6.905   6.306   3.064
  689WAT    EPW 3464   6.902   6.384   3.072
  690WAT      O 3465   7.280   5.298   1.952
  690WAT     H1 3466   7.307   5.255   1.881
  690WAT     H2 3467   7.262   5.234   2.009
  690WAT    EPW 3468   7.281   5.282   1.950
  691WAT      O 3469   7.262   6.041   1.907
  691WAT     H1 3470   7.347   6.033   1.890
  691WAT     H2 3471   7.227   5.972   1.866
  691WAT    EPW 3472   7.270   6.029   1.898
  692WAT      O 3473   7.139   6.713   2.031
  692WAT     H1 3474   7.072   6.663   2.006
  692WAT     H2 3475   7.179   6.732   1.956
  692WAT    EPW 3476   7.135   6.709   2.016
  693WAT      O 3477   7.094   5.408   2.260
  693WAT     H1 3478   7.178   5.430   2.256
  693WAT     H2 3479   7.055   5.465   2.207
  693WAT    EPW 3480   7.101   5.420   2.252
  694WAT      O 3481   7.499   6.041   1.730
  694WAT     H1 3482   7.570   6.091   1.739
  694WAT     H2 3483   7.521   5.985   1.668
  694WAT    EPW 3484   7.513   6.040   1.723
  695WAT      O 3485   6.915   6.206   2.062
  695WAT     H1 3486   6.848   6.254   2.090
  695WAT     H2 3487   6.983   6.260   2.065
  695WAT    EPW 3488   6.915   6.221   2.067
  696WAT      O 3489   7.679   5.577   3.072
  696WAT     H1 3490   7.631   5.634   3.116
  696WAT     H2 3491   7.677   5.606   2.990
  696WAT    EPW 3492   7.672   5.590   3.066
  697WAT      O 3493   6.921   5.874   1.573
  697WAT     H1 3494   6.903   5.790   1.588
  697WAT     H2 3495   6.987   5.870   1.516
  697WAT    EPW 3496   6.928   5.861   1.567
  698WAT      O 3497   6.938   6.290   1.530
  698WAT     H1 3498   6.994   6.347   1.567
  698WAT     H2 3499   6.915   6.239   1.597
  698WAT    EPW 3500   6.943   6.291   1.545
  699WAT      O 3501   7.359   6.190   2.239
  699WAT     H1 3502   7.406   6.219   2.307
  699WAT     H2 3503   7.416   6.143   2.194
  699WAT    EPW 3504   7.374   6.188   2.242
  700WAT      O 3505   6.921   6.135   1.293
  700WAT     H1 3506   6.997   6.092   1.299
  700WAT     H2 3507   6.923   6.189   1.362
  700WAT    EPW 3508   6.933   6.137   1.304
  701WAT      O 3509   7.015   5.957   2.094
  701WAT     H1 3510   7.059   5.945   2.019
  701WAT     H2 3511   6.995   6.042   2.091
  701WAT    EPW 3512   7.019   5.968   2.082
  702WAT      O 3513   7.650   5.314   1.459
  702WAT     H1 3514   7.650   5.302   1.372
  702WAT     H2 3515   7.632   5.399   1.468
  702WAT    EPW 3516   7.647   5.325   1.447
  703WAT      O 3517   7.424   6.309   1.922
  703WAT     H1 3518   7.436   6.393   1.940
  703WAT     H2 3519   7.491   6.269   1.961
  703WAT    EPW 3520   7.436   6.316   1.930
  704WAT      O 3521   7.237   5.657   2.908
  704WAT     H1 3522   7.183   5.607   2.955
  704WAT     H2 3523   7.239   5.618   2.830
  704WAT    EPW 3524   7.229   5.644   2.903
  705WAT      O 3525   7.285   5.597   1.422
  705WAT     H1 3526   7.273   5.552   1.496
  705WAT     H2 3527   7.227   5.563   1.367
  705WAT    EPW 3528   7.275   5.585   1.425
  706WAT      O 3529   7.302   5.780   2.082
  706WAT     H1 3530   7.224   5.774   2.044
  706WAT     H2 3531   7.309   5.705   2.126
  706WAT    EPW 3532   7.292   5.768   2.083
  707WAT      O 3533   7.345   5.754   2.429
  707WAT     H1 3534   7.348   5.686   2.374
  707WAT     H2 3535   7.280   5.803   2.397
  707WAT    EPW 3536   7.336   5.751   2.416
  708WAT      O 3537   7.755   6.631   2.368
  708WAT     H1 3538   7.727   6.567   2.316
  708WAT     H2 3539   7.734   6.704   2.324
  708WAT    EPW 3540   7.748   6.633   2.354
  709WAT      O 3541   7.125   5.889   2.985
  709WAT     H1 3542   7.121   5.939   2.913
  709WAT     H2 3543   7.158   5.814   2.955
  709WAT    EPW 3544   7.129   5.885   2.970
  710WAT      O 3545   7.715   6.394   2.928
  710WAT     H1 3546   7.750   6.376   3.006
  710WAT     H2 3547   7.671   6.321   2.908
  710WAT    EPW 3548   7.714   6.381   2.937
  711WAT      O 3549   7.812   5.469   2.192
  711WAT     H1 3550   7.860   5.539   2.213
  711WAT     H2 3551   7.849   5.404   2.237
  711WAT    EPW 3552   7.825   5.470   2.202
  712WAT      O 3553   7.523   6.646   1.587
  712WAT     H1 3554   7.508   6.568   1.624
  712WAT     H2 3555   7.592   6.631   1.535
  712WAT    EPW 3556   7.531   6.632   1.584
  713WAT      O 3557   7.490   5.020   1.385
  713WAT     H1 3558   7.500   5.009   1.471
  713WAT     H2 3559   7.419   5.071   1.379
  713WAT    EPW 3560   7.481   5.026   1.397
  714WAT      O 3561   7.752   6.597   1.427
  714WAT     H1 3562   7.815   6.614   1.486
  714WAT     H2 3563   7.756   6.666   1.374
  714WAT    EPW 3564   7.762   6.610   1.428
  715WAT      O 3565   7.202   5.851   1.510
  715WAT     H1 3566   7.235   5.773   1.487
  715WAT     H2 3567   7.267   5.888   1.555
  715WAT    EPW 3568   7.217   5.845   1.513
  716WAT      O 3569   6.902   5.017   1.606
  716WAT     H1 3570   6.915   4.946   1.557
  716WAT     H2 3571   6.865   4.985   1.679
  716WAT    EPW 3572   6.899   5.002   1.610
  717WAT      O 3573   7.871   5.785   1.652
  717WAT     H1 3574   7.877   5.850   1.710
  717WAT     H2 3575   7.853   5.715   1.701
  717WAT    EPW 3576   7.870   5.784   1.668
  718WAT      O 3577   7.321   5.237   1.303
  718WAT     H1 3578   7.270   5.242   1.233
  718WAT     H2 3579   7.399   5.261   1.274
  718WAT    EPW 3580   7.325   5.241   1.289
  719WAT      O 3581   7.794   5.990   2.095
  719WAT     H1 3582   7.709   5.970   2.103
  719WAT     H2 3583   7.826   5.973   2.175
  719WAT    EPW 3584   7.786   5.984   2.108
  720WAT      O 3585   7.469   6.663   1.184
  720WAT     H1 3586   7.513   6.593   1.213
  720WAT     H2 3587   7.490   6.725   1.241
  720WAT    EPW 3588   7.479   6.662   1.197
  721WAT      O 3589   7.179   5.959   2.327
  721WAT     H1 3590   7.251   6.008   2.323
  721WAT     H2 3591   7.152   5.956   2.244
  721WAT    EPW 3592   7.185   5.966   2.314
  722WAT      O 3593   7.502   5.476   2.000
  722WAT     H1 3594   7.586   5.457   2.010
  722WAT     H2 3595   7.465   5.398   1.987
  722WAT    EPW 3596   7.509   5.462   2.000
  723WAT      O 3597   6.984   5.610   1.666
  723WAT     H1 3598   7.033   5.581   1.732
  723WAT     H2 3599   6.997   5.551   1.603
  723WAT    EPW 3600   6.993   5.597   1.666
  724WAT      O 3601   7.436   5.753   1.214
  724WAT     H1 3602   7.375   5.713   1.262
  724WAT     H2 3603   7.398   5.765   1.137
  724WAT    EPW 3604   7.421   5.749   1.210
  725WAT      O 3605   7.118   6.064   2.755
  725WAT     H1 3606   7.076   6.012   2.699
  725WAT     H2 3607   7.083   6.143   2.740
  725WAT    EPW 3608   7.107   6.068   2.744
  726WAT      O 3609   7.582   5.599   1.485
  726WAT     H1 3610   7.609   5.682   1.492
  726WAT     H2 3611   7.495   5.607   1.476
  726WAT    EPW 3612   7.573   5.613   1.485
  727WAT      O 3613   6.930   5.196   2.139
  727WAT     H1 3614   6.934   5.231   2.059
  727WAT     H2 3615   7.005   5.220   2.176
  727WAT    EPW 3616   6.941   5.205   2.133
  728WAT      O 3617   7.592   6.245   2.416
  728WAT     H1 3618   7.562   6.304   2.473
  728WAT     H2 3619   7.597   6.289   2.342
  728WAT    EPW 3620   7.588   6.261   2.414
  729WAT      O 3621   7.390   6.140   2.756
  729WAT     H1 3622   7.309   6.111   2.773
  729WAT     H2 3623   7.381   6.227   2.757
  729WAT    EPW 3624   7.377   6.149   2.759
  730WAT      O 3625   7.844   5.888   2.366
  730WAT     H1 3626   7.891   5.925   2.428
  730WAT     H2 3627   7.761   5.901   2.391
  730WAT    EPW 3628   7.838   5.895   2.379
  731WAT      O 3629   7.515   5.448   2.640
  731WAT     H1 3630   7.531   5.373   2.682
  731WAT     H2 3631   7.510   5.423   2.556
  731WAT    EPW 3632   7.516   5.433   2.634
  732WAT      O 3633   7.770   6.627   1.888
  732WAT     H1 3634   7.825   6.695   1.894
  732WAT     H2 3635   7.735   6.635   1.809
  732WAT    EPW 3636   7.773   6.638   1.877
  733WAT      O 3637   7.690   5.029   2.628
  733WAT     H1 3638   7.760   5.061   2.587
  733WAT     H2 3639   7.714   4.948   2.650
  733WAT    EPW 3640   7.704   5.021   2.625
  734WAT      O 3641   7.588   6.450   2.227
  734WAT     H1 3642   7.526   6.508   2.209
  734WAT     H2 3643   7.613   6.421   2.149
  734WAT    EPW 3644   7.583   6.454   2.213
  735WAT      O 3645   7.748   5.927   1.219
  735WAT     H1 3646   7.667   5.910   1.190
  735WAT     H2 3647   7.744   6.012   1.238
  735WAT    EPW 3648   7.735   5.937   1.217
  736WAT      O 3649   7.341   5.534   2.234
  736WAT     H1 3650   7.385   5.524   2.159
  736WAT     H2 3651   7.395   5.503   2.294
  736WAT    EPW 3652   7.355   5.528   2.232
  737WAT      O 3653   7.854   6.615   2.815
  737WAT     H1 3654   7.901   6.555   2.774
  737WAT     H2 3655   7.818   6.570   2.882
  737WAT    EPW 3656   7.855   6.599   2.819
  738WAT      O 3657   7.695   5.032   2.238
  738WAT     H1 3658   7.613   5.018   2.262
  738WAT     H2 3659   7.691   5.036   2.151
  738WAT    EPW 3660   7.683   5.031   2.229
  739WAT      O 3661   7.859   6.136   2.717
  739WAT     H1 3662   7.780   6.130   2.752
  739WAT     H2 3663   7.867   6.221   2.698
  739WAT    EPW 3664   7.849   6.148   2.720
  740WAT      O 3665   6.952   5.072   2.842
  740WAT     H1 3666   6.938   5.152   2.809
  740WAT     H2 3667   6.873   5.048   2.871
  740WAT    EPW 3668   6.938   5.080   2.841
  741WAT      O 3669   7.442   6.757   2.249
  741WAT     H1 3670   7.444   6.763   2.336
  741WAT     H2 3671   7.400   6.682   2.234
  741WAT    EPW 3672   7.436   6.747   2.260
  742WAT      O 3673   7.258   5.347   1.564
  742WAT     H1 3674   7.271   5.314   1.485
  742WAT     H2 3675   7.177   5.322   1.584
  742WAT    EPW 3676   7.248   5.338   1.556
  743WAT      O 3677   7.119   6.707   2.793
  743WAT     H1 3678   7.053   6.650   2.803
  743WAT     H2 3679   7.081   6.784   2.808
  743WAT    EPW 3680   7.104   6.710   2.797
  744WAT      O 3681   7.256   5.548   2.606
  744WAT     H1 3682   7.293   5.610   2.557
  744WAT     H2 3683   7.323   5.500   2.635
  744WAT    EPW 3684   7.271   5.550   2.603
  745WAT      O 3685   7.033   5.393   2.534
  745WAT     H1 3686   7.041   5.376   2.448
  745WAT     H2 3687   7.108   5.433   2.553
  745WAT    EPW 3688   7.046   5.396   2.524
  746WAT      O 3689   7.289   5.134   2.775
  746WAT     H1 3690   7.281   5.049   2.795
  746WAT     H2 3691   7.257   5.138   2.693
  746WAT    EPW 3692   7.283   5.122   2.766
  747WAT      O 3693   6.973   5.915   2.556
  747WAT     H1 3694   7.005   5.937   2.478
  747WAT     H2 3695   6.963   5.829   2.550
  747WAT    EPW 3696   6.976   5.906   2.544
  748WAT      O 3697   7.119   5.509   1.218
  748WAT     H1 3698   7.052   5.510   1.273
  748WAT     H2 3699   7.128   5.424   1.199
  748WAT    EPW 3700   7.110   5.496   1.223
  749WAT      O 3701   7.518   6.379   1.329
  749WAT     H1 3702   7.562   6.387   1.404
  749WAT     H2 3703   7.437   6.358   1.355
  749WAT    EPW 3704   7.512   6.377   1.344
  750WAT      O 3705   7.449   5.844   2.694
  750WAT     H1 3706   7.410   5.922   2.702
  750WAT     H2 3707   7.409   5.807   2.627
  750WAT    EPW 3708   7.438   5.850   2.686
  751WAT      O 3709   7.250   6.286   1.389
  751WAT     H1 3710   7.226   6.256   1.467
  751WAT     H2 3711   7.247   6.216   1.338
  751WAT    EPW 3712   7.246   6.271   1.393
  752WAT      O 3713   7.532   6.111   1.264
  752WAT     H1 3714   7.451   6.084   1.278
  752WAT     H2 3715   7.530   6.196   1.282
  752WAT    EPW 3716   7.520   6.119   1.268
  753WAT      O 3717   7.492   5.142   2.439
  753WAT     H1 3718   7.406   5.150   2.447
  753WAT     H2 3719   7.514   5.091   2.506
  753WAT    EPW 3720   7.483   5.136   2.451
  754WAT      O 3721   7.653   5.650   2.797
  754WAT     H1 3722   7.621   5.592   2.740
  754WAT     H2 3723   7.617   5.725   2.773
  754WAT    EPW 3724   7.643   5.652   2.785
  755WAT      O 3725   7.733   4.975   1.260
  755WAT     H1 3726   7.740   5.000   1.177
  755WAT     H2 3727   7.658   5.013   1.286
  755WAT    EPW 3728   7.723   4.984   1.251
  756WAT      O 3729   7.496   6.685   2.822
  756WAT     H1 3730   7.501   6.698   2.908
  756WAT     H2 3731   7.562   6.629   2.806
  756WAT    EPW 3732   7.507   6.679   2.833
  757WAT      O 3733   7.214   5.150   2.504
  757WAT     H1 3734   7.180   5.074   2.481
  757WAT     H2 3735   7.145   5.203   2.511
  757WAT    EPW 3736   7.199   5.147   2.502
  758WAT      O 3737   7.256   6.524   2.958
  758WAT     H1 3738   7.315   6.567   3.005
  758WAT     H2 3739   7.219   6.586   2.909
  758WAT    EPW 3740   7.259   6.539   2.958
  759WAT      O 3741   7.080   5.482   1.900
  759WAT     H1 3742   7.043   5.512   1.973
  759WAT     H2 3743   7.133   5.419   1.928
  759WAT    EPW 3744   7.082   5.477   1.915
  760WAT      O 3745   7.048   6.323   2.651
  760WAT     H1 3746   6.991   6.364   2.702
  760WAT     H2 3747   7.122   6.369   2.660
  760WAT    EPW 3748   7.051   6.336   2.660
  761WAT      O 3749   7.227   6.649   1.528
  761WAT     H1 3750   7.213   6.665   1.444
  761WAT     H2 3751   7.314   6.657   1.536
  761WAT    EPW 3752   7.238   6.653   1.517
  762WAT      O 3753   7.644   5.889   1.501
  762WAT     H1 3754   7.654   5.903   1.416
  762WAT     H2 3755   7.726   5.883   1.531
  762WAT    EPW 3756   7.657   5.890   1.493
  763WAT      O 3757   7.558   5.186   2.813
  763WAT     H1 3758   7.581   5.129   2.752
  763WAT     H2 3759   7.473   5.168   2.827
  763WAT    EPW 3760   7.549   5.175   2.806
  764WAT      O 3761   7.296   6.531   2.176
  764WAT     H1 3762   7.288   6.450   2.145
  764WAT     H2 3763   7.251   6.579   2.119
  764WAT    EPW 3764   7.288   6.526   2.163
  765WAT      O 3765   7.053   6.755   2.534
  765WAT     H1 3766   7.102   6.750   2.606
  765WAT     H2 3767   7.072   6.682   2.491
  765WAT    EPW 3768   7.063   6.743   2.538
  766WAT      O 3769   6.959   6.386   0.487
  766WAT     H1 3770   6.971   6.358   0.568
  766WAT     H2 3771   6.898   6.332   0.456
  766WAT    EPW 3772   6.951   6.374   0.494
  767WAT      O 3773   7.616   6.138   0.993
  767WAT     H1 3774   7.592   6.138   1.077
  767WAT     H2 3775   7.541   6.124   0.951
  767WAT    EPW 3776   7.601   6.136   0.999
  768WAT      O 3777   7.554   5.399   0.441
  768WAT     H1 3778   7.622   5.401   0.387
  768WAT     H2 3779   7.549   5.315   0.466
  768WAT    EPW 3780   7.563   5.387   0.437
  769WAT      O 3781   7.614   6.458   0.720
  769WAT     H1 3782   7.628   6.534   0.679
  769WAT     H2 3783   7.693   6.421   0.722
  769WAT    EPW 3784   7.628   6.463   0.714
  770WAT      O 3785   6.949   5.614   0.208
  770WAT     H1 3786   6.923   5.697   0.201
  770WAT     H2 3787   6.882   5.576   0.250
  770WAT    EPW 3788   6.935   5.621   0.213
  771WAT      O 3789   7.252   5.096   0.257
  771WAT     H1 3790   7.200   5.033   0.226
  771WAT     H2 3791   7.311   5.052   0.304
  771WAT    EPW 3792   7.253   5.080   0.260
  772WAT      O 3793   7.582   5.309   1.187
  772WAT     H1 3794   7.594   5.264   1.113
  772WAT     H2 3795   7.611   5.389   1.167
  772WAT    EPW 3796   7.588   5.314   1.173
  773WAT      O 3797   7.156   5.269   1.085
  773WAT     H1 3798   7.078   5.230   1.078
  773WAT     H2 3799   7.205   5.228   1.026
  773WAT    EPW 3800   7.151   5.257   1.076
  774WAT      O 3801   7.820   5.033   1.002
  774WAT     H1 3802   7.838   4.952   0.975
  774WAT     H2 3803   7.806   5.077   0.928
  774WAT    EPW 3804   7.821   5.028   0.987
  775WAT      O 3805   7.399   6.708   0.645
  775WAT     H1 3806   7.428   6.701   0.727
  775WAT     H2 3807   7.336   6.647   0.640
  775WAT    EPW 3808   7.394   6.698   0.656
  776WAT      O 3809   6.890   5.324   0.844
  776WAT     H1 3810   6.890   5.382   0.909
  776WAT     H2 3811   6.950   5.355   0.788
  776WAT    EPW 3812   6.899   5.337   0.845
  777WAT      O 3813   7.198   6.524   0.557
  777WAT     H1 3814   7.128   6.473   0.570
  777WAT     H2 3815   7.224   6.504   0.476
  777WAT    EPW 3816   7.192   6.514   0.547
  778WAT      O 3817   7.334   6.409   0.814
  778WAT     H1 3818   7.418   6.415   0.791
  778WAT     H2 3819   7.331   6.449   0.891
  778WAT    EPW 3820   7.346   6.416   0.822
  779WAT      O 3821   7.531   5.960   0.289
  779WAT     H1 3822   7.548   5.939   0.371
  779WAT     H2 3823   7.465   5.907   0.267
  779WAT    EPW 3824   7.524   5.949   0.298
  780WAT      O 3825   7.606   5.954   0.548
  780WAT     H1 3826   7.611   6.039   0.568
  780WAT     H2 3827   7.577   5.917   0.621
  780WAT    EPW 3828   7.602   5.961   0.561
  781WAT      O 3829   6.888   6.391   1.169
  781WAT     H1 3830   6.963   6.426   1.194
  781WAT     H2 3831   6.905   6.306   1.163
  781WAT    EPW 3832   6.902   6.384   1.172
  782WAT      O 3833   7.094   5.408   0.360
  782WAT     H1 3834   7.178   5.430   0.355
  782WAT     H2 3835   7.055   5.465   0.307
  782WAT    EPW 3836   7.101   5.420   0.351
  783WAT      O 3837   7.679   5.577   1.171
  783WAT     H1 3838   7.631   5.634   1.216
  783WAT     H2 3839   7.677   5.606   1.089
  783WAT    EPW 3840   7.672   5.590   1.166
  784WAT      O 3841   7.359   6.190   0.339
  784WAT     H1 3842   7.406   6.219   0.406
  784WAT     H2 3843   7.416   6.143   0.293
  784WAT    EPW 3844   7.374   6.188   0.342
  785WAT      O 3845   7.237   5.657   1.007
  785WAT     H1 3846   7.183   5.607   1.054
  785WAT     H2 3847   7.239   5.618   0.929
  785WAT    EPW 3848   7.229   5.644   1.003
  786WAT      O 3849   7.345   5.754   0.528
  786WAT     H1 3850   7.348   5.686   0.473
  786WAT     H2 3851   7.280   5.803   0.497
  786WAT    EPW 3852   7.336   5.751   0.515
  787WAT      O 3853   7.755   6.631   0.467
  787WAT     H1 3854   7.727   6.567   0.415
  787WAT     H2 3855   7.734   6.704   0.423
  787WAT    EPW 3856   7.748   6.633   0.453
  788WAT      O 3857   7.125   5.889   1.084
  788WAT     H1 3858   7.121   5.939   1.013
  788WAT     H2 3859   7.158   5.814   1.054
  788WAT    EPW 3860   7.129   5.885   1.069
  789WAT      O 3861   7.715   6.394   1.027
  789WAT     H1 3862   7.750   6.376   1.105
  789WAT     H2 3863   7.671   6.321   1.008
  789WAT    EPW 3864   7.714   6.381   1.036
  790WAT      O 3865   7.812   5.469   0.291
  790WAT     H1 3866   7.860   5.539   0.312
  790WAT     H2 3867   7.849   5.404   0.336
  790WAT    EPW 3868   7.825   5.470   0.301
  791WAT      O 3869   7.794   5.990   0.195
  791WAT     H1 3870   7.709   5.970   0.203
  791WAT     H2 3871   7.826   5.973   0.274
  791WAT    EPW 3872   7.786   5.984   0.208
  792WAT      O 3873   7.179   5.959   0.426
  792WAT     H1 3874   7.251   6.008   0.423
  792WAT     H2 3875   7.152   5.956   0.343
  792WAT    EPW 3876   7.185   5.966   0.413
  793WAT      O 3877   7.118   6.064   0.854
  793WAT     H1 3878   7.076   6.012   0.798
  793WAT     H2 3879   7.083   6.143   0.840
  793WAT    EPW 3880   7.107   6.068   0.844
  794WAT      O 3881   7.592   6.245   0.516
  794WAT     H1 3882   7.562   6.304   0.573
  794WAT     H2 3883   7.597   6.289   0.441
  794WAT    EPW 3884   7.588   6.261   0.513
  795WAT      O 3885   7.390   6.140   0.856
  795WAT     H1 3886   7.309   6.111   0.872
  795WAT     H2 3887   7.381   6.227   0.856
  795WAT    EPW 3888   7.377   6.149   0.858
  796WAT      O 3889   7.844   5.888   0.465
  796WAT     H1 3890   7.891   5.925   0.528
  796WAT     H2 3891   7.761   5.901   0.491
  796WAT    EPW 3892   7.838   5.895   0.478
  797WAT      O 3893   7.515   5.448   0.739
  797WAT     H1 3894   7.531   5.373   0.782
  797WAT     H2 3895   7.510   5.423   0.656
  797WAT    EPW 3896   7.516   5.433   0.733
  798WAT      O 3897   7.690   5.029   0.727
  798WAT     H1 3898   7.760   5.061   0.687
  798WAT     H2 3899   7.714   4.948   0.750
  798WAT    EPW 3900   7.704   5.021   0.724
  799WAT      O 3901   7.588   6.450   0.327
  799WAT     H1 3902   7.526   6.508   0.308
  799WAT     H2 3903   7.613   6.421   0.248
  799WAT    EPW 3904   7.583   6.454   0.312
  800WAT      O 3905   7.341   5.534   0.333
  800WAT     H1 3906   7.385   5.524   0.259
  800WAT     H2 3907   7.395   5.503   0.394
  800WAT    EPW 3908   7.355   5.528   0.331
  801WAT      O 3909   7.854   6.615   0.915
  801WAT     H1 3910   7.901   6.555   0.873
  801WAT     H2 3911   7.818   6.570   0.981
  801WAT    EPW 3912   7.855   6.599   0.918
  802WAT      O 3913   7.695   5.032   0.338
  802WAT     H1 3914   7.613   5.018   0.362
  802WAT     H2 3915   7.691   5.036   0.251
  802WAT    EPW 3916   7.683   5.031   0.328
  803WAT      O 3917   7.859   6.136   0.817
  803WAT     H1 3918   7.780   6.130   0.852
  803WAT     H2 3919   7.867   6.221   0.797
  803WAT    EPW 3920   7.849   6.148   0.819
  804WAT      O 3921   6.952   5.072   0.941
  804WAT     H1 3922   6.938   5.152   0.908
  804WAT     H2 3923   6.873   5.048   0.970
  804WAT    EPW 3924   6.938   5.080   0.941
  805WAT      O 3925   7.442   6.757   0.348
  805WAT     H1 3926   7.444   6.763   0.435
  805WAT     H2 3927   7.400   6.682   0.333
  805WAT    EPW 3928   7.436   6.747   0.359
  806WAT      O 3929   7.119   6.707   0.893
  806WAT     H1 3930   7.053   6.650   0.902
  806WAT     H2 3931   7.081   6.784   0.908
  806WAT    EPW 3932   7.104   6.710   0.896
  807WAT      O 3933   7.256   5.548   0.705
  807WAT     H1 3934   7.293   5.610   0.657
  807WAT     H2 3935   7.323   5.500   0.734
  807WAT    EPW 3936   7.271   5.550   0.702
  808WAT      O 3937   7.033   5.393   0.633
  808WAT     H1 3938   7.041   5.376   0.548
  808WAT     H2 3939   7.108   5.433   0.653
  808WAT    EPW 3940   7.046   5.396   0.623
  809WAT      O 3941   7.289   5.134   0.874
  809WAT     H1 3942   7.281   5.049   0.895
  809WAT     H2 3943   7.257   5.138   0.793
  809WAT    EPW 3944   7.283   5.122   0.865
  810WAT      O 3945   6.973   5.915   0.655
  810WAT     H1 3946   7.005   5.937   0.577
  810WAT     H2 3947   6.963   5.829   0.650
  810WAT    EPW 3948   6.976   5.906   0.643
  811WAT      O 3949   7.449   5.844   0.794
  811WAT     H1 3950   7.410   5.922   0.801
  811WAT     H2 3951   7.409   5.807   0.726
  811WAT    EPW 3952   7.438   5.850   0.785
  812WAT      O 3953   7.492   5.142   0.539
  812WAT     H1 3954   7.406   5.150   0.547
  812WAT     H2 3955   7.514   5.091   0.606
  812WAT    EPW 3956   7.483   5.136   0.550
  813WAT      O 3957   7.653   5.650   0.897
  813WAT     H1 3958   7.621   5.592   0.840
  813WAT     H2 3959   7.617   5.725   0.872
  813WAT    EPW 3960   7.643   5.652   0.885
  814WAT      O 3961   7.496   6.685   0.921
  814WAT     H1 3962   7.501   6.698   1.008
  814WAT     H2 3963   7.562   6.629   0.906
  814WAT    EPW 3964   7.507   6.679   0.932
  815WAT      O 3965   7.214   5.150   0.604
  815WAT     H1 3966   7.180   5.074   0.580
  815WAT     H2 3967   7.145   5.203   0.610
  815WAT    EPW 3968   7.199   5.147   0.601
  816WAT      O 3969   7.256   6.524   1.057
  816WAT     H1 3970   7.315   6.567   1.105
  816WAT     H2 3971   7.219   6.586   1.009
  816WAT    EPW 3972   7.259   6.539   1.057
  817WAT      O 3973   7.048   6.323   0.750
  817WAT     H1 3974   6.991   6.364   0.801
  817WAT     H2 3975   7.122   6.369   0.760
  817WAT    EPW 3976   7.051   6.336   0.759
  818WAT      O 3977   7.558   5.186   0.912
  818WAT     H1 3978   7.581   5.129   0.851
  818WAT     H2 3979   7.473   5.168   0.926
  818WAT    EPW 3980   7.549   5.175   0.905
  819WAT      O 3981   7.296   6.531   0.276
  819WAT     H1 3982   7.288   6.450   0.244
  819WAT     H2 3983   7.251   6.579   0.218
  819WAT    EPW 3984   7.288   6.526   0.262
  820WAT      O 3985   7.053   6.755   0.634
  820WAT     H1 3986   7.102   6.750   0.705
  820WAT     H2 3987   7.072   6.682   0.590
  820WAT    EPW 3988   7.063   6.743   0.638
  821WAT      O 3989   6.965   4.265   7.464
  821WAT     H1 3990   6.920   4.276   7.538
  821WAT     H2 3991   6.936   4.187   7.435
  821WAT    EPW 3992   6.954   4.255   7.470
  822WAT      O 3993   6.939   3.644   7.114
  822WAT     H1 3994   6.861   3.660   7.078
  822WAT     H2 3995   6.943   3.557   7.116
  822WAT    EPW 3996   6.928   3.633   7.109
  823WAT      O 3997   7.253   4.170   6.981
  823WAT     H1 3998   7.214   4.133   6.913
  823WAT     H2 3999   7.245   4.110   7.044
  823WAT    EPW 4000   7.246   4.156   6.981
  824WAT      O 4001   7.215   4.334   7.371
  824WAT     H1 4002   7.276   4.317   7.432
  824WAT     H2 4003   7.140   4.320   7.414
  824WAT    EPW 4004   7.213   4.330   7.387
  825WAT      O 4005   7.644   3.268   7.366
  825WAT     H1 4006   7.637   3.335   7.312
  825WAT     H2 4007   7.718   3.229   7.341
  825WAT    EPW 4008   7.654   3.272   7.355
  826WAT      O 4009   7.105   4.643   6.979
  826WAT     H1 4010   7.151   4.652   6.906
  826WAT     H2 4011   7.150   4.585   7.026
  826WAT    EPW 4012   7.118   4.636   6.975
  827WAT      O 4013   7.103   3.990   7.509
  827WAT     H1 4014   7.057   3.951   7.447
  827WAT     H2 4015   7.173   3.939   7.518
  827WAT    EPW 4016   7.107   3.977   7.501
  828WAT      O 4017   7.303   3.800   7.512
  828WAT     H1 4018   7.385   3.781   7.536
  828WAT     H2 4019   7.256   3.739   7.551
  828WAT    EPW 4020   7.308   3.788   7.521
  829WAT      O 4021   7.724   4.398   7.773
  829WAT     H1 4022   7.758   4.318   7.776
  829WAT     H2 4023   7.790   4.449   7.747
  829WAT    EPW 4024   7.739   4.394   7.769
  830WAT      O 4025   7.729   4.343   7.394
  830WAT     H1 4026   7.762   4.279   7.442
  830WAT     H2 4027   7.753   4.322   7.313
  830WAT    EPW 4028   7.738   4.331   7.389
  831WAT      O 4029   7.363   3.310   7.438
  831WAT     H1 4030   7.333   3.360   7.373
  831WAT     H2 4031   7.450   3.317   7.432
  831WAT    EPW 4032   7.371   3.318   7.428
  832WAT      O 4033   7.661   3.224   7.660
  832WAT     H1 4034   7.668   3.310   7.673
  832WAT     H2 4035   7.657   3.216   7.574
  832WAT    EPW 4036   7.661   3.235   7.650
  833WAT      O 4037   6.949   3.766   7.811
  833WAT     H1 4038   6.923   3.849   7.803
  833WAT     H2 4039   6.882   3.728   7.852
  833WAT    EPW 4040   6.935   3.773   7.816
  834WAT      O 4041   6.940   4.737   7.601
  834WAT     H1 4042   6.881   4.793   7.569
  834WAT     H2 4043   6.982   4.710   7.529
  834WAT    EPW 4044   6.937   4.741   7.585
  835WAT      O 4045   7.524   4.522   7.349
  835WAT     H1 4046   7.466   4.494   7.408
  835WAT     H2 4047   7.586   4.461   7.351
  835WAT    EPW 4048   7.524   4.509   7.358
  836WAT      O 4049   7.094   4.604   7.394
  836WAT     H1 4050   7.160   4.547   7.395
  836WAT     H2 4051   7.133   4.679   7.372
  836WAT    EPW 4052   7.110   4.607   7.391
  837WAT      O 4053   7.176   4.453   7.744
  837WAT     H1 4054   7.218   4.417   7.676
  837WAT     H2 4055   7.208   4.411   7.813
  837WAT    EPW 4056   7.187   4.441   7.744
  838WAT      O 4057   7.499   4.738   7.673
  838WAT     H1 4058   7.584   4.749   7.654
  838WAT     H2 4059   7.469   4.820   7.680
  838WAT    EPW 4060   7.507   4.752   7.671
  839WAT      O 4061   7.838   4.529   6.976
  839WAT     H1 4062   7.820   4.583   7.041
  839WAT     H2 4063   7.915   4.558   6.946
  839WAT    EPW 4064   7.847   4.541   6.981
  840WAT      O 4065   6.984   3.435   7.338
  840WAT     H1 4066   6.973   3.349   7.341
  840WAT     H2 4067   6.937   3.465   7.405
  840WAT    EPW 4068   6.975   3.427   7.348
  841WAT      O 4069   7.914   3.556   7.212
  841WAT     H1 4070   7.864   3.490   7.187
  841WAT     H2 4071   7.920   3.606   7.141
  841WAT    EPW 4072   7.908   3.554   7.198
  842WAT      O 4073   7.774   3.487   7.654
  842WAT     H1 4074   7.782   3.544   7.588
  842WAT     H2 4075   7.786   3.536   7.725
  842WAT    EPW 4076   7.777   3.503   7.655
  843WAT      O 4077   7.235   3.069   7.489
  843WAT     H1 4078   7.289   3.138   7.488
  843WAT     H2 4079   7.235   3.042   7.406
  843WAT    EPW 4080   7.243   3.075   7.476
  844WAT      O 4081   7.280   3.450   7.654
  844WAT     H1 4082   7.307   3.407   7.583
  844WAT     H2 4083   7.262   3.387   7.711
  844WAT    EPW 4084   7.281   3.434   7.652
  845WAT      O 4085   7.262   4.193   7.609
  845WAT     H1 4086   7.347   4.185   7.592
  845WAT     H2 4087   7.227   4.125   7.568
  845WAT    EPW 4088   7.270   4.182   7.600
  846WAT      O 4089   7.139   4.865   7.733
  846WAT     H1 4090   7.072   4.816   7.708
  846WAT     H2 4091   7.179   4.884   7.657
  846WAT    EPW 4092   7.135   4.861   7.718
  847WAT      O 4093   7.499   4.194   7.432
  847WAT     H1 4094   7.570   4.243   7.441
  847WAT     H2 4095   7.521   4.137   7.370
  847WAT    EPW 4096   7.513   4.192   7.424
  848WAT      O 4097   6.915   4.358   7.764
  848WAT     H1 4098   6.848   4.407   7.792
  848WAT     H2 4099   6.983   4.412   7.767
  848WAT    EPW 4100   6.915   4.373   7.769
  849WAT      O 4101   6.921   4.026   7.275
  849WAT     H1 4102   6.903   3.942   7.290
  849WAT     H2 4103   6.987   4.023   7.218
  849WAT    EPW 4104   6.928   4.013   7.268
  850WAT      O 4105   6.938   4.443   7.232
  850WAT     H1 4106   6.994   4.500   7.269
  850WAT     H2 4107   6.915   4.391   7.299
  850WAT    EPW 4108   6.943   4.443   7.247
  851WAT      O 4109   6.921   4.288   6.995
  851WAT     H1 4110   6.997   4.244   7.001
  851WAT     H2 4111   6.923   4.341   7.064
  851WAT    EPW 4112   6.933   4.289   7.006
  852WAT      O 4113   7.015   4.110   7.795
  852WAT     H1 4114   7.059   4.097   7.721
  852WAT     H2 4115   6.995   4.194   7.793
  852WAT    EPW 4116   7.019   4.120   7.784
  853WAT      O 4117   7.650   3.466   7.160
  853WAT     H1 4118   7.650   3.454   7.074
  853WAT     H2 4119   7.632   3.551   7.170
  853WAT    EPW 4120   7.647   3.477   7.149
  854WAT      O 4121   7.424   4.461   7.624
  854WAT     H1 4122   7.436   4.546   7.642
  854WAT     H2 4123   7.491   4.421   7.663
  854WAT    EPW 4124   7.436   4.468   7.632
  855WAT      O 4125   7.285   3.749   7.124
  855WAT     H1 4126   7.273   3.704   7.198
  855WAT     H2 4127   7.227   3.715   7.069
  855WAT    EPW 4128   7.275   3.738   7.127
  856WAT      O 4129   7.302   3.932   7.784
  856WAT     H1 4130   7.224   3.926   7.745
  856WAT     H2 4131   7.309   3.857   7.827
  856WAT    EPW 4132   7.292   3.920   7.785
  857WAT      O 4133   7.523   4.798   7.288
  857WAT     H1 4134   7.508   4.720   7.326
  857WAT     H2 4135   7.592   4.783   7.237
  857WAT    EPW 4136   7.531   4.784   7.286
  858WAT      O 4137   7.490   3.172   7.087
  858WAT     H1 4138   7.500   3.162   7.173
  858WAT     H2 4139   7.419   3.223   7.081
  858WAT    EPW 4140   7.481   3.178   7.099
  859WAT      O 4141   7.752   4.750   7.129
  859WAT     H1 4142   7.815   4.766   7.188
  859WAT     H2 4143   7.756   4.819   7.075
  859WAT    EPW 4144   7.762   4.762   7.130
  860WAT      O 4145   7.202   4.003   7.212
  860WAT     H1 4146   7.235   3.925   7.189
  860WAT     H2 4147   7.267   4.040   7.257
  860WAT    EPW 4148   7.217   3.997   7.215
  861WAT      O 4149   6.902   3.169   7.308
  861WAT     H1 4150   6.915   3.098   7.259
  861WAT     H2 4151   6.865   3.137   7.381
  861WAT    EPW 4152   6.899   3.154   7.312
  862WAT      O 4153   7.871   3.937   7.354
  862WAT     H1 4154   7.877   4.002   7.412
  862WAT     H2 4155   7.853   3.868   7.403
  862WAT    EPW 4156   7.870   3.936   7.370
  863WAT      O 4157   7.321   3.389   7.005
  863WAT     H1 4158   7.270   3.394   6.935
  863WAT     H2 4159   7.399   3.413   6.976
  863WAT    EPW 4160   7.325   3.393   6.990
  864WAT      O 4161   7.794   4.142   7.797
  864WAT     H1 4162   7.709   4.122   7.805
  864WAT     H2 4163   7.826   4.125   7.876
  864WAT    EPW 4164   7.786   4.137   7.810
  865WAT      O 4165   7.469   4.815   6.886
  865WAT     H1 4166   7.513   4.745   6.915
  865WAT     H2 4167   7.490   4.877   6.943
  865WAT    EPW 4168   7.479   4.814   6.898
  866WAT      O 4169   7.502   3.628   7.702
  866WAT     H1 4170   7.586   3.609   7.712
  866WAT     H2 4171   7.465   3.551   7.688
  866WAT    EPW 4172   7.509   3.614   7.702
  867WAT      O 4173   6.984   3.762   7.368
  867WAT     H1 4174   7.033   3.733   7.434
  867WAT     H2 4175   6.997   3.703   7.305
  867WAT    EPW 4176   6.993   3.749   7.368
  868WAT      O 4177   7.436   3.905   6.916
  868WAT     H1 4178   7.375   3.865   6.964
  868WAT     H2 4179   7.398   3.917   6.839
  868WAT    EPW 4180   7.421   3.901   6.912
  869WAT      O 4181   7.582   3.752   7.187
  869WAT     H1 4182   7.609   3.834   7.194
  869WAT     H2 4183   7.495   3.759   7.178
  869WAT    EPW 4184   7.573   3.765   7.187
  870WAT      O 4185   6.930   3.349   7.841
  870WAT     H1 4186   6.934   3.383   7.761
  870WAT     H2 4187   7.005   3.372   7.878
  870WAT    EPW 4188   6.941   3.357   7.835
  871WAT      O 4189   7.770   4.779   7.590
  871WAT     H1 4190   7.825   4.847   7.596
  871WAT     H2 4191   7.735   4.787   7.511
  871WAT    EPW 4192   7.773   4.790   7.579
  872WAT      O 4193   7.748   4.079   6.921
  872WAT     H1 4194   7.667   4.062   6.892
  872WAT     H2 4195   7.744   4.165   6.940
  872WAT    EPW 4196   7.735   4.089   6.919
  873WAT      O 4197   7.258   3.499   7.266
  873WAT     H1 4198   7.271   3.466   7.187
  873WAT     H2 4199   7.177   3.474   7.286
  873WAT    EPW 4200   7.248   3.490   7.258
  874WAT      O 4201   7.119   3.661   6.920
  874WAT     H1 4202   7.052   3.662   6.975
  874WAT     H2 4203   7.128   3.576   6.901
  874WAT    EPW 4204   7.110   3.649   6.925
  875WAT      O 4205   7.518   4.531   7.031
  875WAT     H1 4206   7.562   4.539   7.106
  875WAT     H2 4207   7.437   4.510   7.057
  875WAT    EPW 4208   7.512   4.529   7.046
  876WAT      O 4209   7.250   4.438   7.091
  876WAT     H1 4210   7.226   4.408   7.169
  876WAT     H2 4211   7.247   4.368   7.040
  876WAT    EPW 4212   7.246   4.424   7.095
  877WAT      O 4213   7.532   4.263   6.965
  877WAT     H1 4214   7.451   4.236   6.979
  877WAT     H2 4215   7.530   4.348   6.984
  877WAT    EPW 4216   7.520   4.272   6.970
  878WAT      O 4217   7.733   3.127   6.962
  878WAT     H1 4218   7.740   3.152   6.879
  878WAT     H2 4219   7.658   3.165   6.988
  878WAT    EPW 4220   7.723   3.136   6.953
  879WAT      O 4221   7.080   3.634   7.602
  879WAT     H1 4222   7.043   3.664   7.675
  879WAT     H2 4223   7.133   3.571   7.630
  879WAT    EPW 4224   7.082   3.629   7.617
  880WAT      O 4225   7.227   4.801   7.230
  880WAT     H1 4226   7.213   4.817   7.146
  880WAT     H2 4227   7.314   4.809   7.238
  880WAT    EPW 4228   7.238   4.805   7.219
  881WAT      O 4229   7.644   4.041   7.203
  881WAT     H1 4230   7.654   4.055   7.118
  881WAT     H2 4231   7.726   4.035   7.233
  881WAT    EPW 4232   7.657   4.042   7.195
  882WAT      O 4233   7.296   4.683   7.878
  882WAT     H1 4234   7.288   4.602   7.846
  882WAT     H2 4235   7.251   4.732   7.821
  882WAT    EPW 4236   7.288   4.678   7.865
  883WAT      O 4237   6.965   4.265   5.563
  883WAT     H1 4238   6.920   4.276   5.637
  883WAT     H2 4239   6.936   4.187   5.534
  883WAT    EPW 4240   6.954   4.255   5.570
  884WAT      O 4241   6.939   3.644   5.214
  884WAT     H1 4242   6.861   3.660   5.178
  884WAT     H2 4243   6.943   3.557   5.216
  884WAT    EPW 4244   6.928   3.633   5.209
  885WAT      O 4245   7.253   4.170   5.081
  885WAT     H1 4246   7.214   4.133   5.012
  885WAT     H2 4247   7.245   4.110   5.144
  885WAT    EPW 4248   7.246   4.156   5.080
  886WAT      O 4249   7.215   4.334   5.471
  886WAT     H1 4250   7.276   4.317   5.531
  886WAT     H2 4251   7.140   4.320   5.513
  886WAT    EPW 4252   7.213   4.330   5.486
  887WAT      O 4253   7.644   3.268   5.466
  887WAT     H1 4254   7.637   3.335   5.411
  887WAT     H2 4255   7.718   3.229   5.441
  887WAT    EPW 4256   7.654   3.272   5.454
  888WAT      O 4257   7.105   4.643   5.078
  888WAT     H1 4258   7.151   4.652   5.005
  888WAT     H2 4259   7.150   4.585   5.125
  888WAT    EPW 4260   7.118   4.636   5.075
  889WAT      O 4261   6.959   4.538   6.188
  889WAT     H1 4262   6.971   4.510   6.270
  889WAT     H2 4263   6.898   4.484   6.157
  889WAT    EPW 4264   6.951   4.526   6.196
  890WAT      O 4265   7.616   4.291   6.695
  890WAT     H1 4266   7.592   4.290   6.779
  890WAT     H2 4267   7.541   4.276   6.653
  890WAT    EPW 4268   7.601   4.288   6.701
  891WAT      O 4269   7.103   3.990   5.609
  891WAT     H1 4270   7.057   3.951   5.546
  891WAT     H2 4271   7.173   3.939   5.618
  891WAT    EPW 4272   7.107   3.977   5.601
  892WAT      O 4273   7.554   3.551   6.143
  892WAT     H1 4274   7.622   3.553   6.088
  892WAT     H2 4275   7.549   3.468   6.168
  892WAT    EPW 4276   7.563   3.539   6.139
  893WAT      O 4277   7.614   4.610   6.421
  893WAT     H1 4278   7.628   4.686   6.381
  893WAT     H2 4279   7.693   4.573   6.424
  893WAT    EPW 4280   7.628   4.616   6.416
  894WAT      O 4281   7.303   3.800   5.611
  894WAT     H1 4282   7.385   3.781   5.635
  894WAT     H2 4283   7.256   3.739   5.650
  894WAT    EPW 4284   7.308   3.788   5.620
  895WAT      O 4285   7.724   4.398   5.872
  895WAT     H1 4286   7.758   4.318   5.875
  895WAT     H2 4287   7.790   4.449   5.846
  895WAT    EPW 4288   7.739   4.394   5.869
  896WAT      O 4289   7.729   4.343   5.493
  896WAT     H1 4290   7.762   4.279   5.542
  896WAT     H2 4291   7.753   4.322   5.412
  896WAT    EPW 4292   7.738   4.331   5.488
  897WAT      O 4293   7.363   3.310   5.537
  897WAT     H1 4294   7.333   3.360   5.472
  897WAT     H2 4295   7.450   3.317   5.532
  897WAT    EPW 4296   7.371   3.318   5.527
  898WAT      O 4297   7.661   3.224   5.760
  898WAT     H1 4298   7.668   3.310   5.773
  898WAT     H2 4299   7.657   3.216   5.673
  898WAT    EPW 4300   7.661   3.235   5.749
  899WAT      O 4301   6.949   3.766   5.910
  899WAT     H1 4302   6.923   3.849   5.902
  899WAT     H2 4303   6.882   3.728   5.952
  899WAT    EPW 4304   6.935   3.773   5.915
  900WAT      O 4305   6.940   4.737   5.700
  900WAT     H1 4306   6.881   4.793   5.669
  900WAT     H2 4307   6.982   4.710   5.629
  900WAT    EPW 4308   6.937   4.741   5.685
  901WAT      O 4309   7.524   4.522   5.448
  901WAT     H1 4310   7.466   4.494   5.507
  901WAT     H2 4311   7.586   4.461   5.450
  901WAT    EPW 4312   7.524   4.509   5.457
  902WAT      O 4313   7.252   3.248   5.959
  902WAT     H1 4314   7.200   3.185   5.928
  902WAT     H2 4315   7.311   3.204   6.006
  902WAT    EPW 4316   7.253   3.232   5.961
  903WAT      O 4317   7.582   3.461   6.889
  903WAT     H1 4318   7.594   3.416   6.815
  903WAT     H2 4319   7.611   3.541   6.868
  903WAT    EPW 4320   7.588   3.466   6.875
  904WAT      O 4321   7.094   4.604   5.493
  904WAT     H1 4322   7.160   4.547   5.494
  904WAT     H2 4323   7.133   4.679   5.471
  904WAT    EPW 4324   7.110   4.607   5.490
  905WAT      O 4325   7.156   3.421   6.787
  905WAT     H1 4326   7.078   3.382   6.780
  905WAT     H2 4327   7.205   3.380   6.728
  905WAT    EPW 4328   7.151   3.409   6.777
  906WAT      O 4329   7.176   4.453   5.843
  906WAT     H1 4330   7.218   4.417   5.776
  906WAT     H2 4331   7.208   4.411   5.912
  906WAT    EPW 4332   7.187   4.441   5.843
  907WAT      O 4333   7.499   4.738   5.773
  907WAT     H1 4334   7.584   4.749   5.753
  907WAT     H2 4335   7.469   4.820   5.779
  907WAT    EPW 4336   7.507   4.752   5.771
  908WAT      O 4337   7.820   3.185   6.704
  908WAT     H1 4338   7.838   3.104   6.676
  908WAT     H2 4339   7.806   3.229   6.630
  908WAT    EPW 4340   7.821   3.180   6.689
  909WAT      O 4341   7.399   4.860   6.347
  909WAT     H1 4342   7.428   4.853   6.429
  909WAT     H2 4343   7.336   4.800   6.342
  909WAT    EPW 4344   7.394   4.850   6.358
  910WAT      O 4345   6.890   3.476   6.546
  910WAT     H1 4346   6.890   3.534   6.610
  910WAT     H2 4347   6.950   3.507   6.490
  910WAT    EPW 4348   6.899   3.489   6.547
  911WAT      O 4349   7.838   4.529   5.075
  911WAT     H1 4350   7.820   4.583   5.141
  911WAT     H2 4351   7.915   4.558   5.045
  911WAT    EPW 4352   7.847   4.541   5.080
  912WAT      O 4353   6.984   3.435   5.437
  912WAT     H1 4354   6.973   3.349   5.440
  912WAT     H2 4355   6.937   3.465   5.504
  912WAT    EPW 4356   6.975   3.427   5.448
  913WAT      O 4357   7.198   4.676   6.259
  913WAT     H1 4358   7.128   4.625   6.271
  913WAT     H2 4359   7.224   4.656   6.178
  913WAT    EPW 4360   7.192   4.666   6.249
  914WAT      O 4361   7.914   3.556   5.312
  914WAT     H1 4362   7.864   3.490   5.286
  914WAT     H2 4363   7.920   3.606   5.241
  914WAT    EPW 4364   7.908   3.554   5.298
  915WAT      O 4365   7.774   3.487   5.753
  915WAT     H1 4366   7.782   3.544   5.687
  915WAT     H2 4367   7.786   3.536   5.824
  915WAT    EPW 4368   7.777   3.503   5.754
  916WAT      O 4369   7.334   4.561   6.515
  916WAT     H1 4370   7.418   4.568   6.493
  916WAT     H2 4371   7.331   4.601   6.593
  916WAT    EPW 4372   7.346   4.568   6.524
  917WAT      O 4373   7.235   3.069   5.588
  917WAT     H1 4374   7.289   3.138   5.587
  917WAT     H2 4375   7.235   3.042   5.505
  917WAT    EPW 4376   7.243   3.075   5.575
  918WAT      O 4377   7.531   4.112   5.990
  918WAT     H1 4378   7.548   4.091   6.073
  918WAT     H2 4379   7.465   4.059   5.969
  918WAT    EPW 4380   7.524   4.101   5.999
  919WAT      O 4381   7.606   4.106   6.249
  919WAT     H1 4382   7.611   4.191   6.270
  919WAT     H2 4383   7.577   4.069   6.323
  919WAT    EPW 4384   7.602   4.113   6.263
  920WAT      O 4385   6.888   4.543   6.870
  920WAT     H1 4386   6.963   4.578   6.896
  920WAT     H2 4387   6.905   4.458   6.865
  920WAT    EPW 4388   6.902   4.536   6.873
  921WAT      O 4389   7.280   3.450   5.753
  921WAT     H1 4390   7.307   3.407   5.682
  921WAT     H2 4391   7.262   3.387   5.810
  921WAT    EPW 4392   7.281   3.434   5.751
  922WAT      O 4393   7.262   4.193   5.708
  922WAT     H1 4394   7.347   4.185   5.691
  922WAT     H2 4395   7.227   4.125   5.667
  922WAT    EPW 4396   7.270   4.182   5.699
  923WAT      O 4397   7.139   4.865   5.832
  923WAT     H1 4398   7.072   4.816   5.807
  923WAT     H2 4399   7.179   4.884   5.757
  923WAT    EPW 4400   7.135   4.861   5.817
  924WAT      O 4401   7.094   3.560   6.061
  924WAT     H1 4402   7.178   3.582   6.057
  924WAT     H2 4403   7.055   3.618   6.008
  924WAT    EPW 4404   7.101   3.572   6.053
  925WAT      O 4405   7.499   4.194   5.532
  925WAT     H1 4406   7.570   4.243   5.541
  925WAT     H2 4407   7.521   4.137   5.469
  925WAT    EPW 4408   7.513   4.192   5.524
  926WAT      O 4409   6.915   4.358   5.864
  926WAT     H1 4410   6.848   4.407   5.891
  926WAT     H2 4411   6.983   4.412   5.867
  926WAT    EPW 4412   6.915   4.373   5.868
  927WAT      O 4413   7.679   3.729   6.873
  927WAT     H1 4414   7.631   3.787   6.917
  927WAT     H2 4415   7.677   3.758   6.791
  927WAT    EPW 4416   7.672   3.742   6.868
  928WAT      O 4417   6.921   4.026   5.374
  928WAT     H1 4418   6.903   3.942   5.389
  928WAT     H2 4419   6.987   4.023   5.317
  928WAT    EPW 4420   6.928   4.013   5.368
  929WAT      O 4421   6.938   4.443   5.331
  929WAT     H1 4422   6.994   4.500   5.368
  929WAT     H2 4423   6.915   4.391   5.398
  929WAT    EPW 4424   6.943   4.443   5.347
  930WAT      O 4425   7.359   4.343   6.040
  930WAT     H1 4426   7.406   4.372   6.108
  930WAT     H2 4427   7.416   4.295   5.995
  930WAT    EPW 4428   7.374   4.340   6.044
  931WAT      O 4429   6.921   4.288   5.094
  931WAT     H1 4430   6.997   4.244   5.100
  931WAT     H2 4431   6.923   4.341   5.163
  931WAT    EPW 4432   6.933   4.289   5.105
  932WAT      O 4433   7.015   4.110   5.895
  932WAT     H1 4434   7.059   4.097   5.820
  932WAT     H2 4435   6.995   4.194   5.892
  932WAT    EPW 4436   7.019   4.120   5.883
  933WAT      O 4437   7.650   3.466   5.260
  933WAT     H1 4438   7.650   3.454   5.173
  933WAT     H2 4439   7.632   3.551   5.269
  933WAT    EPW 4440   7.647   3.477   5.248
  934WAT      O 4441   7.424   4.461   5.723
  934WAT     H1 4442   7.436   4.546   5.742
  934WAT     H2 4443   7.491   4.421   5.763
  934WAT    EPW 4444   7.436   4.468   5.732
  935WAT      O 4445   7.237   3.810   6.709
  935WAT     H1 4446   7.183   3.759   6.756
  935WAT     H2 4447   7.239   3.771   6.631
  935WAT    EPW 4448   7.229   3.796   6.705
  936WAT      O 4449   7.285   3.749   5.223
  936WAT     H1 4450   7.273   3.704   5.297
  936WAT     H2 4451   7.227   3.715   5.168
  936WAT    EPW 4452   7.275   3.738   5.226
  937WAT      O 4453   7.302   3.932   5.883
  937WAT     H1 4454   7.224   3.926   5.845
  937WAT     H2 4455   7.309   3.857   5.927
  937WAT    EPW 4456   7.292   3.920   5.884
  938WAT      O 4457   7.345   3.906   6.230
  938WAT     H1 4458   7.348   3.838   6.175
  938WAT     H2 4459   7.280   3.956   6.199
  938WAT    EPW 4460   7.336   3.903   6.217
  939WAT      O 4461   7.755   4.784   6.169
  939WAT     H1 4462   7.727   4.720   6.117
  939WAT     H2 4463   7.734   4.856   6.125
  939WAT    EPW 4464   7.748   4.785   6.155
  940WAT      O 4465   7.125   4.041   6.786
  940WAT     H1 4466   7.121   4.092   6.714
  940WAT     H2 4467   7.158   3.966   6.756
  940WAT    EPW 4468   7.129   4.038   6.771
  941WAT      O 4469   7.715   4.546   6.729
  941WAT     H1 4470   7.750   4.529   6.807
  941WAT     H2 4471   7.671   4.474   6.709
  941WAT    EPW 4472   7.714   4.533   6.738
  942WAT      O 4473   7.812   3.621   5.993
  942WAT     H1 4474   7.860   3.691   6.014
  942WAT     H2 4475   7.849   3.556   6.038
  942WAT    EPW 4476   7.825   3.622   6.003
  943WAT      O 4477   7.523   4.798   5.388
  943WAT     H1 4478   7.508   4.720   5.425
  943WAT     H2 4479   7.592   4.783   5.336
  943WAT    EPW 4480   7.531   4.784   5.386
  944WAT      O 4481   7.490   3.172   5.187
  944WAT     H1 4482   7.500   3.162   5.273
  944WAT     H2 4483   7.419   3.223   5.180
  944WAT    EPW 4484   7.481   3.178   5.198
  945WAT      O 4485   7.752   4.750   5.228
  945WAT     H1 4486   7.815   4.766   5.287
  945WAT     H2 4487   7.756   4.819   5.175
  945WAT    EPW 4488   7.762   4.762   5.229
  946WAT      O 4489   7.202   4.003   5.311
  946WAT     H1 4490   7.235   3.925   5.289
  946WAT     H2 4491   7.267   4.040   5.356
  946WAT    EPW 4492   7.217   3.997   5.314
  947WAT      O 4493   6.902   3.169   5.408
  947WAT     H1 4494   6.915   3.098   5.358
  947WAT     H2 4495   6.865   3.137   5.480
  947WAT    EPW 4496   6.899   3.154   5.411
  948WAT      O 4497   7.871   3.937   5.453
  948WAT     H1 4498   7.877   4.002   5.511
  948WAT     H2 4499   7.853   3.868   5.502
  948WAT    EPW 4500   7.870   3.936   5.469
  949WAT      O 4501   7.321   3.389   5.105
  949WAT     H1 4502   7.270   3.394   5.034
  949WAT     H2 4503   7.399   3.413   5.075
  949WAT    EPW 4504   7.325   3.393   5.090
  950WAT      O 4505   7.794   4.142   5.896
  950WAT     H1 4506   7.709   4.122   5.905
  950WAT     H2 4507   7.826   4.125   5.976
  950WAT    EPW 4508   7.786   4.137   5.909
  951WAT      O 4509   7.469   4.815   4.985
  951WAT     H1 4510   7.513   4.745   5.014
  951WAT     H2 4511   7.490   4.877   5.042
  951WAT    EPW 4512   7.479   4.814   4.998
  952WAT      O 4513   7.179   4.111   6.128
  952WAT     H1 4514   7.251   4.160   6.124
  952WAT     H2 4515   7.152   4.108   6.045
  952WAT    EPW 4516   7.185   4.118   6.115
  953WAT      O 4517   7.502   3.628   5.802
  953WAT     H1 4518   7.586   3.609   5.811
  953WAT     H2 4519   7.465   3.551   5.788
  953WAT    EPW 4520   7.509   3.614   5.801
  954WAT      O 4521   6.984   3.762   5.467
  954WAT     H1 4522   7.033   3.733   5.533
  954WAT     H2 4523   6.997   3.703   5.404
  954WAT    EPW 4524   6.993   3.749   5.468
  955WAT      O 4525   7.436   3.905   5.016
  955WAT     H1 4526   7.375   3.865   5.063
  955WAT     H2 4527   7.398   3.917   4.938
  955WAT    EPW 4528   7.421   3.901   5.011
  956WAT      O 4529   7.118   4.216   6.556
  956WAT     H1 4530   7.076   4.165   6.500
  956WAT     H2 4531   7.083   4.295   6.542
  956WAT    EPW 4532   7.107   4.220   6.545
  957WAT      O 4533   7.582   3.752   5.287
  957WAT     H1 4534   7.609   3.834   5.293
  957WAT     H2 4535   7.495   3.759   5.277
  957WAT    EPW 4536   7.573   3.765   5.286
  958WAT      O 4537   6.930   3.349   5.940
  958WAT     H1 4538   6.934   3.383   5.860
  958WAT     H2 4539   7.005   3.372   5.977
  958WAT    EPW 4540   6.941   3.357   5.934
  959WAT      O 4541   7.592   4.397   6.218
  959WAT     H1 4542   7.562   4.457   6.274
  959WAT     H2 4543   7.597   4.442   6.143
  959WAT    EPW 4544   7.588   4.413   6.215
  960WAT      O 4545   7.390   4.292   6.557
  960WAT     H1 4546   7.309   4.263   6.574
  960WAT     H2 4547   7.381   4.379   6.558
  960WAT    EPW 4548   7.377   4.301   6.560
  961WAT      O 4549   7.844   4.040   6.167
  961WAT     H1 4550   7.891   4.077   6.230
  961WAT     H2 4551   7.761   4.053   6.193
  961WAT    EPW 4552   7.838   4.047   6.180
  962WAT      O 4553   7.515   3.600   6.441
  962WAT     H1 4554   7.531   3.526   6.484
  962WAT     H2 4555   7.510   3.575   6.357
  962WAT    EPW 4556   7.516   3.585   6.435
  963WAT      O 4557   7.770   4.779   5.690
  963WAT     H1 4558   7.825   4.847   5.695
  963WAT     H2 4559   7.735   4.787   5.610
  963WAT    EPW 4560   7.773   4.790   5.679
  964WAT      O 4561   7.690   3.181   6.429
  964WAT     H1 4562   7.760   3.213   6.389
  964WAT     H2 4563   7.714   3.100   6.452
  964WAT    EPW 4564   7.704   3.174   6.426
  965WAT      O 4565   7.588   4.602   6.028
  965WAT     H1 4566   7.526   4.660   6.010
  965WAT     H2 4567   7.613   4.573   5.950
  965WAT    EPW 4568   7.583   4.606   6.014
  966WAT      O 4569   7.748   4.079   5.020
  966WAT     H1 4570   7.667   4.062   4.991
  966WAT     H2 4571   7.744   4.165   5.039
  966WAT    EPW 4572   7.735   4.089   5.019
  967WAT      O 4573   7.341   3.686   6.035
  967WAT     H1 4574   7.385   3.676   5.960
  967WAT     H2 4575   7.395   3.655   6.095
  967WAT    EPW 4576   7.355   3.680   6.033
  968WAT      O 4577   7.854   4.767   6.616
  968WAT     H1 4578   7.901   4.707   6.575
  968WAT     H2 4579   7.818   4.722   6.683
  968WAT    EPW 4580   7.855   4.751   6.620
  969WAT      O 4581   7.695   3.185   6.040
  969WAT     H1 4582   7.613   3.170   6.063
  969WAT     H2 4583   7.691   3.188   5.953
  969WAT    EPW 4584   7.683   3.183   6.030
  970WAT      O 4585   7.859   4.289   6.518
  970WAT     H1 4586   7.780   4.282   6.554
  970WAT     H2 4587   7.867   4.373   6.499
  970WAT    EPW 4588   7.849   4.300   6.521
  971WAT      O 4589   6.952   3.224   6.643
  971WAT     H1 4590   6.938   3.304   6.610
  971WAT     H2 4591   6.873   3.200   6.672
  971WAT    EPW 4592   6.938   3.233   6.643
  972WAT      O 4593   7.442   4.909   6.050
  972WAT     H1 4594   7.444   4.915   6.137
  972WAT     H2 4595   7.400   4.835   6.035
  972WAT    EPW 4596   7.436   4.899   6.061
  973WAT      O 4597   7.258   3.499   5.366
  973WAT     H1 4598   7.271   3.466   5.286
  973WAT     H2 4599   7.177   3.474   5.386
  973WAT    EPW 4600   7.248   3.490   5.357
  974WAT      O 4601   7.119   4.859   6.594
  974WAT     H1 4602   7.053   4.802   6.604
  974WAT     H2 4603   7.081   4.936   6.609
  974WAT    EPW 4604   7.104   4.862   6.598
  975WAT      O 4605   7.256   3.700   6.407
  975WAT     H1 4606   7.293   3.762   6.359
  975WAT     H2 4607   7.323   3.653   6.436
  975WAT    EPW 4608   7.271   3.702   6.404
  976WAT      O 4609   7.033   3.545   6.335
  976WAT     H1 4610   7.041   3.528   6.249
  976WAT     H2 4611   7.108   3.585   6.354
  976WAT    EPW 4612   7.046   3.548   6.325
  977WAT      O 4613   7.289   3.286   6.576
  977WAT     H1 4614   7.281   3.201   6.596
  977WAT     H2 4615   7.257   3.290   6.495
  977WAT    EPW 4616   7.283   3.274   6.567
  978WAT      O 4617   6.973   4.067   6.357
  978WAT     H1 4618   7.005   4.089   6.279
  978WAT     H2 4619   6.963   3.981   6.352
  978WAT    EPW 4620   6.976   4.058   6.345
  979WAT      O 4621   7.119   3.661   5.019
  979WAT     H1 4622   7.052   3.662   5.075
  979WAT     H2 4623   7.128   3.576   5.001
  979WAT    EPW 4624   7.110   3.649   5.024
  980WAT      O 4625   7.518   4.531   5.130
  980WAT     H1 4626   7.562   4.539   5.205
  980WAT     H2 4627   7.437   4.510   5.156
  980WAT    EPW 4628   7.512   4.529   5.145
  981WAT      O 4629   7.449   3.997   6.496
  981WAT     H1 4630   7.410   4.074   6.503
  981WAT     H2 4631   7.409   3.959   6.428
  981WAT    EPW 4632   7.438   4.002   6.487
  982WAT      O 4633   7.250   4.438   5.190
  982WAT     H1 4634   7.226   4.408   5.268
  982WAT     H2 4635   7.247   4.368   5.139
  982WAT    EPW 4636   7.246   4.424   5.194
  983WAT      O 4637   7.532   4.263   5.065
  983WAT     H1 4638   7.451   4.236   5.079
  983WAT     H2 4639   7.530   4.348   5.083
  983WAT    EPW 4640   7.520   4.272   5.070
  984WAT      O 4641   7.492   3.294   6.241
  984WAT     H1 4642   7.406   3.303   6.249
  984WAT     H2 4643   7.514   3.243   6.308
  984WAT    EPW 4644   7.483   3.288   6.252
  985WAT      O 4645   7.653   3.802   6.598
  985WAT     H1 4646   7.621   3.744   6.541
  985WAT     H2 4647   7.617   3.877   6.574
  985WAT    EPW 4648   7.643   3.805   6.586
  986WAT      O 4649   7.733   3.127   5.061
  986WAT     H1 4650   7.740   3.152   4.978
  986WAT     H2 4651   7.658   3.165   5.087
  986WAT    EPW 4652   7.723   3.136   5.053
  987WAT      O 4653   7.496   4.838   6.623
  987WAT     H1 4654   7.501   4.850   6.710
  987WAT     H2 4655   7.562   4.782   6.608
  987WAT    EPW 4656   7.507   4.831   6.634
  988WAT      O 4657   7.214   3.303   6.305
  988WAT     H1 4658   7.180   3.226   6.282
  988WAT     H2 4659   7.145   3.355   6.312
  988WAT    EPW 4660   7.199   3.299   6.303
  989WAT      O 4661   7.256   4.676   6.759
  989WAT     H1 4662   7.315   4.719   6.806
  989WAT     H2 4663   7.219   4.738   6.710
  989WAT    EPW 4664   7.259   4.691   6.759
  990WAT      O 4665   7.080   3.634   5.701
  990WAT     H1 4666   7.043   3.664   5.774
  990WAT     H2 4667   7.133   3.571   5.729
  990WAT    EPW 4668   7.082   3.629   5.716
  991WAT      O 4669   7.048   4.475   6.452
  991WAT     H1 4670   6.991   4.516   6.503
  991WAT     H2 4671   7.122   4.521   6.462
  991WAT    EPW 4672   7.051   4.488   6.461
  992WAT      O 4673   7.227   4.801   5.330
  992WAT     H1 4674   7.213   4.817   5.245
  992WAT     H2 4675   7.314   4.809   5.337
  992WAT    EPW 4676   7.238   4.805   5.318
  993WAT      O 4677   7.644   4.041   5.302
  993WAT     H1 4678   7.654   4.055   5.217
  993WAT     H2 4679   7.726   4.035   5.332
  993WAT    EPW 4680   7.657   4.042   5.294
  994WAT      O 4681   7.558   3.339   6.614
  994WAT     H1 4682   7.581   3.281   6.553
  994WAT     H2 4683   7.473   3.321   6.628
  994WAT    EPW 4684   7.549   3.327   6.607
  995WAT      O 4685   7.296   4.683   5.977
  995WAT     H1 4686   7.288   4.602   5.946
  995WAT     H2 4687   7.251   4.732   5.920
  995WAT    EPW 4688   7.288   4.678   5.964
  996WAT      O 4689   7.053   4.907   6.335
  996WAT     H1 4690   7.102   4.902   6.407
  996WAT     H2 4691   7.072   4.834   6.292
  996WAT    EPW 4692   7.063   4.896   6.340
  997WAT      O 4693   6.965   4.265   3.662
  997WAT     H1 4694   6.920   4.276   3.737
  997WAT     H2 4695   6.936   4.187   3.634
  997WAT    EPW 4696   6.954   4.255   3.669
  998WAT      O 4697   6.939   3.644   3.313
  998WAT     H1 4698   6.861   3.660   3.277
  998WAT     H2 4699   6.943   3.557   3.315
  998WAT    EPW 4700   6.928   3.633   3.308
  999WAT      O 4701   7.253   4.170   3.180
  999WAT     H1 4702   7.214   4.133   3.112
  999WAT     H2 4703   7.245   4.110   3.243
  999WAT    EPW 4704   7.246   4.156   3.179
 1000WAT      O 4705   7.215   4.334   3.570
 1000WAT     H1 4706   7.276   4.317   3.630
 1000WAT     H2 4707   7.140   4.320   3.612
 1000WAT    EPW 4708   7.213   4.330   3.585
 1001WAT      O 4709   7.644   3.268   3.565
 1001WAT     H1 4710   7.637   3.335   3.510
 1001WAT     H2 4711   7.718   3.229   3.540
 1001WAT    EPW 4712   7.654   3.272   3.553
 1002WAT      O 4713   7.105   4.643   3.178
 1002WAT     H1 4714   7.151   4.652   3.105
 1002WAT     H2 4715   7.150   4.585   3.225
 1002WAT    EPW 4716   7.118   4.636   3.174
 1003WAT      O 4717   6.959   4.538   4.288
 1003WAT     H1 4718   6.971   4.510   4.369
 1003WAT     H2 4719   6.898   4.484   4.257
 1003WAT    EPW 4720   6.951   4.526   4.295
 1004WAT      O 4721   7.616   4.291   4.794
 1004WAT     H1 4722   7.592   4.290   4.878
 1004WAT     H2 4723   7.541   4.276   4.752
 1004WAT    EPW 4724   7.601   4.288   4.801
 1005WAT      O 4725   7.103   3.990   3.708
 1005WAT     H1 4726   7.057   3.951   3.645
 1005WAT     H2 4727   7.173   3.939   3.717
 1005WAT    EPW 4728   7.107   3.977   3.700
 1006WAT      O 4729   7.554   3.551   4.243
 1006WAT     H1 4730   7.622   3.553   4.188
 1006WAT     H2 4731   7.549   3.468   4.267
 1006WAT    EPW 4732   7.563   3.539   4.238
 1007WAT      O 4733   7.614   4.610   4.521
 1007WAT     H1 4734   7.628   4.686   4.480
 1007WAT     H2 4735   7.693   4.573   4.523
 1007WAT    EPW 4736   7.628   4.616   4.515
 1008WAT      O 4737   7.303   3.800   3.710
 1008WAT     H1 4738   7.385   3.781   3.735
 1008WAT     H2 4739   7.256   3.739   3.750
 1008WAT    EPW 4740   7.308   3.788   3.720
 1009WAT      O 4741   7.724   4.398   3.971
 1009WAT     H1 4742   7.758   4.318   3.974
 1009WAT     H2 4743   7.790   4.449   3.946
 1009WAT    EPW 4744   7.739   4.394   3.968
 1010WAT      O 4745   7.729   4.343   3.592
 1010WAT     H1 4746   7.762   4.279   3.641
 1010WAT     H2 4747   7.753   4.322   3.511
 1010WAT    EPW 4748   7.738   4.331   3.588
 1011WAT      O 4749   7.363   3.310   3.637
 1011WAT     H1 4750   7.333   3.360   3.572
 1011WAT     H2 4751   7.450   3.317   3.631
 1011WAT    EPW 4752   7.371   3.318   3.626
 1012WAT      O 4753   7.661   3.224   3.859
 1012WAT     H1 4754   7.668   3.310   3.872
 1012WAT     H2 4755   7.657   3.216   3.772
 1012WAT    EPW 4756   7.661   3.235   3.848
 1013WAT      O 4757   6.949   3.766   4.009
 1013WAT     H1 4758   6.923   3.849   4.002
 1013WAT     H2 4759   6.882   3.728   4.051
 1013WAT    EPW 4760   6.935   3.773   4.014
 1014WAT      O 4761   6.940   4.737   3.799
 1014WAT     H1 4762   6.881   4.793   3.768
 1014WAT     H2 4763   6.982   4.710   3.728
 1014WAT    EPW 4764   6.937   4.741   3.784
 1015WAT      O 4765   7.524   4.522   3.547
 1015WAT     H1 4766   7.466   4.494   3.606
 1015WAT     H2 4767   7.586   4.461   3.550
 1015WAT    EPW 4768   7.524   4.509   3.556
 1016WAT      O 4769   7.252   3.248   4.058
 1016WAT     H1 4770   7.200   3.185   4.028
 1016WAT     H2 4771   7.311   3.204   4.105
 1016WAT    EPW 4772   7.253   3.232   4.061
 1017WAT      O 4773   7.582   3.461   4.988
 1017WAT     H1 4774   7.594   3.416   4.915
 1017WAT     H2 4775   7.611   3.541   4.968
 1017WAT    EPW 4776   7.588   3.466   4.974
 1018WAT      O 4777   7.094   4.604   3.592
 1018WAT     H1 4778   7.160   4.547   3.594
 1018WAT     H2 4779   7.133   4.679   3.570
 1018WAT    EPW 4780   7.110   4.607   3.589
 1019WAT      O 4781   7.156   3.421   4.887
 1019WAT     H1 4782   7.078   3.382   4.879
 1019WAT     H2 4783   7.205   3.380   4.827
 1019WAT    EPW 4784   7.151   3.409   4.877
 1020WAT      O 4785   7.176   4.453   3.942
 1020WAT     H1 4786   7.218   4.417   3.875
 1020WAT     H2 4787   7.208   4.411   4.012
 1020WAT    EPW 4788   7.187   4.441   3.943
 1021WAT      O 4789   7.499   4.738   3.872
 1021WAT     H1 4790   7.584   4.749   3.852
 1021WAT     H2 4791   7.469   4.820   3.879
 1021WAT    EPW 4792   7.507   4.752   3.870
 1022WAT      O 4793   7.820   3.185   4.803
 1022WAT     H1 4794   7.838   3.104   4.776
 1022WAT     H2 4795   7.806   3.229   4.729
 1022WAT    EPW 4796   7.821   3.180   4.788
 1023WAT      O 4797   7.399   4.860   4.446
 1023WAT     H1 4798   7.428   4.853   4.528
 1023WAT     H2 4799   7.336   4.800   4.441
 1023WAT    EPW 4800   7.394   4.850   4.457
 1024WAT      O 4801   6.890   3.476   4.645
 1024WAT     H1 4802   6.890   3.534   4.710
 1024WAT     H2 4803   6.950   3.507   4.589
 1024WAT    EPW 4804   6.899   3.489   4.646
 1025WAT      O 4805   7.838   4.529   3.174
 1025WAT     H1 4806   7.820   4.583   3.240
 1025WAT     H2 4807   7.915   4.558   3.144
 1025WAT    EPW 4808   7.847   4.541   3.180
 1026WAT      O 4809   6.984   3.435   3.537
 1026WAT     H1 4810   6.973   3.349   3.540
 1026WAT     H2 4811   6.937   3.465   3.604
 1026WAT    EPW 4812   6.975   3.427   3.547
 1027WAT      O 4813   7.198   4.676   4.358
 1027WAT     H1 4814   7.128   4.625   4.371
 1027WAT     H2 4815   7.224   4.656   4.277
 1027WAT    EPW 4816   7.192   4.666   4.348
 1028WAT      O 4817   7.914   3.556   3.411
 1028WAT     H1 4818   7.864   3.490   3.386
 1028WAT     H2 4819   7.920   3.606   3.340
 1028WAT    EPW 4820   7.908   3.554   3.397
 1029WAT      O 4821   7.774   3.487   3.852
 1029WAT     H1 4822   7.782   3.544   3.787
 1029WAT     H2 4823   7.786   3.536   3.923
 1029WAT    EPW 4824   7.777   3.503   3.853
 1030WAT      O 4825   7.334   4.561   4.615
 1030WAT     H1 4826   7.418   4.568   4.593
 1030WAT     H2 4827   7.331   4.601   4.692
 1030WAT    EPW 4828   7.346   4.568   4.623
 1031WAT      O 4829   7.235   3.069   3.687
 1031WAT     H1 4830   7.289   3.138   3.686
 1031WAT     H2 4831   7.235   3.042   3.604
 1031WAT    EPW 4832   7.243   3.075   3.675
 1032WAT      O 4833   7.531   4.112   4.090
 1032WAT     H1 4834   7.548   4.091   4.173
 1032WAT     H2 4835   7.465   4.059   4.068
 1032WAT    EPW 4836   7.524   4.101   4.099
 1033WAT      O 4837   7.606   4.106   4.349
 1033WAT     H1 4838   7.611   4.191   4.369
 1033WAT     H2 4839   7.577   4.069   4.422
 1033WAT    EPW 4840   7.602   4.113   4.363
 1034WAT      O 4841   6.888   4.543   4.970
 1034WAT     H1 4842   6.963   4.578   4.996
 1034WAT     H2 4843   6.905   4.458   4.964
 1034WAT    EPW 4844   6.902   4.536   4.973
 1035WAT      O 4845   7.280   3.450   3.853
 1035WAT     H1 4846   7.307   3.407   3.782
 1035WAT     H2 4847   7.262   3.387   3.910
 1035WAT    EPW 4848   7.281   3.434   3.851
 1036WAT      O 4849   7.262   4.193   3.808
 1036WAT     H1 4850   7.347   4.185   3.790
 1036WAT     H2 4851   7.227   4.125   3.766
 1036WAT    EPW 4852   7.270   4.182   3.799
 1037WAT      O 4853   7.139   4.865   3.931
 1037WAT     H1 4854   7.072   4.816   3.907
 1037WAT     H2 4855   7.179   4.884   3.856
 1037WAT    EPW 4856   7.135   4.861   3.917
 1038WAT      O 4857   7.094   3.560   4.161
 1038WAT     H1 4858   7.178   3.582   4.157
 1038WAT     H2 4859   7.055   3.618   4.108
 1038WAT    EPW 4860   7.101   3.572   4.152
 1039WAT      O 4861   7.499   4.194   3.631
 1039WAT     H1 4862   7.570   4.243   3.640
 1039WAT     H2 4863   7.521   4.137   3.568
 1039WAT    EPW 4864   7.513   4.192   3.623
 1040WAT      O 4865   6.915   4.358   3.963
 1040WAT     H1 4866   6.848   4.407   3.991
 1040WAT     H2 4867   6.983   4.412   3.966
 1040WAT    EPW 4868   6.915   4.373   3.968
 1041WAT      O 4869   7.679   3.729   4.973
 1041WAT     H1 4870   7.631   3.787   5.017
 1041WAT     H2 4871   7.677   3.758   4.891
 1041WAT    EPW 4872   7.672   3.742   4.967
 1042WAT      O 4873   6.921   4.026   3.473
 1042WAT     H1 4874   6.903   3.942   3.489
 1042WAT     H2 4875   6.987   4.023   3.416
 1042WAT    EPW 4876   6.928   4.013   3.467
 1043WAT      O 4877   6.938   4.443   3.431
 1043WAT     H1 4878   6.994   4.500   3.467
 1043WAT     H2 4879   6.915   4.391   3.497
 1043WAT    EPW 4880   6.943   4.443   3.446
 1044WAT      O 4881   7.359   4.343   4.140
 1044WAT     H1 4882   7.406   4.372   4.208
 1044WAT     H2 4883   7.416   4.295   4.094
 1044WAT    EPW 4884   7.374   4.340   4.143
 1045WAT      O 4885   6.921   4.288   3.194
 1045WAT     H1 4886   6.997   4.244   3.199
 1045WAT     H2 4887   6.923   4.341   3.263
 1045WAT    EPW 4888   6.933   4.289   3.205
 1046WAT      O 4889   7.015   4.110   3.994
 1046WAT     H1 4890   7.059   4.097   3.919
 1046WAT     H2 4891   6.995   4.194   3.992
 1046WAT    EPW 4892   7.019   4.120   3.983
 1047WAT      O 4893   7.650   3.466   3.359
 1047WAT     H1 4894   7.650   3.454   3.273
 1047WAT     H2 4895   7.632   3.551   3.368
 1047WAT    EPW 4896   7.647   3.477   3.348
 1048WAT      O 4897   7.424   4.461   3.822
 1048WAT     H1 4898   7.436   4.546   3.841
 1048WAT     H2 4899   7.491   4.421   3.862
 1048WAT    EPW 4900   7.436   4.468   3.831
 1049WAT      O 4901   7.237   3.810   4.809
 1049WAT     H1 4902   7.183   3.759   4.855
 1049WAT     H2 4903   7.239   3.771   4.731
 1049WAT    EPW 4904   7.229   3.796   4.804
 1050WAT      O 4905   7.285   3.749   3.323
 1050WAT     H1 4906   7.273   3.704   3.396
 1050WAT     H2 4907   7.227   3.715   3.267
 1050WAT    EPW 4908   7.275   3.738   3.325
 1051WAT      O 4909   7.302   3.932   3.982
 1051WAT     H1 4910   7.224   3.926   3.944
 1051WAT     H2 4911   7.309   3.857   4.026
 1051WAT    EPW 4912   7.292   3.920   3.983
 1052WAT      O 4913   7.345   3.906   4.329
 1052WAT     H1 4914   7.348   3.838   4.274
 1052WAT     H2 4915   7.280   3.956   4.298
 1052WAT    EPW 4916   7.336   3.903   4.317
 1053WAT      O 4917   7.755   4.784   4.268
 1053WAT     H1 4918   7.727   4.720   4.216
 1053WAT     H2 4919   7.734   4.856   4.225
 1053WAT    EPW 4920   7.748   4.785   4.254
 1054WAT      O 4921   7.125   4.041   4.885
 1054WAT     H1 4922   7.121   4.092   4.814
 1054WAT     H2 4923   7.158   3.966   4.856
 1054WAT    EPW 4924   7.129   4.038   4.870
 1055WAT      O 4925   7.715   4.546   4.829
 1055WAT     H1 4926   7.750   4.529   4.906
 1055WAT     H2 4927   7.671   4.474   4.809
 1055WAT    EPW 4928   7.714   4.533   4.837
 1056WAT      O 4929   7.812   3.621   4.092
 1056WAT     H1 4930   7.860   3.691   4.113
 1056WAT     H2 4931   7.849   3.556   4.138
 1056WAT    EPW 4932   7.825   3.622   4.102
 1057WAT      O 4933   7.523   4.798   3.487
 1057WAT     H1 4934   7.508   4.720   3.524
 1057WAT     H2 4935   7.592   4.783   3.436
 1057WAT    EPW 4936   7.531   4.784   3.485
 1058WAT      O 4937   7.490   3.172   3.286
 1058WAT     H1 4938   7.500   3.162   3.372
 1058WAT     H2 4939   7.419   3.223   3.279
 1058WAT    EPW 4940   7.481   3.178   3.298
 1059WAT      O 4941   7.752   4.750   3.327
 1059WAT     H1 4942   7.815   4.766   3.386
 1059WAT     H2 4943   7.756   4.819   3.274
 1059WAT    EPW 4944   7.762   4.762   3.328
 1060WAT      O 4945   7.202   4.003   3.410
 1060WAT     H1 4946   7.235   3.925   3.388
 1060WAT     H2 4947   7.267   4.040   3.456
 1060WAT    EPW 4948   7.217   3.997   3.414
 1061WAT      O 4949   6.902   3.169   3.507
 1061WAT     H1 4950   6.915   3.098   3.458
 1061WAT     H2 4951   6.865   3.137   3.580
 1061WAT    EPW 4952   6.899   3.154   3.511
 1062WAT      O 4953   7.871   3.937   3.553
 1062WAT     H1 4954   7.877   4.002   3.611
 1062WAT     H2 4955   7.853   3.868   3.602
 1062WAT    EPW 4956   7.870   3.936   3.569
 1063WAT      O 4957   7.321   3.389   3.204
 1063WAT     H1 4958   7.270   3.394   3.133
 1063WAT     H2 4959   7.399   3.413   3.174
 1063WAT    EPW 4960   7.325   3.393   3.189
 1064WAT      O 4961   7.794   4.142   3.996
 1064WAT     H1 4962   7.709   4.122   4.004
 1064WAT     H2 4963   7.826   4.125   4.075
 1064WAT    EPW 4964   7.786   4.137   4.009
 1065WAT      O 4965   7.469   4.815   3.084
 1065WAT     H1 4966   7.513   4.745   3.113
 1065WAT     H2 4967   7.490   4.877   3.142
 1065WAT    EPW 4968   7.479   4.814   3.097
 1066WAT      O 4969   7.179   4.111   4.227
 1066WAT     H1 4970   7.251   4.160   4.224
 1066WAT     H2 4971   7.152   4.108   4.145
 1066WAT    EPW 4972   7.185   4.118   4.215
 1067WAT      O 4973   7.502   3.628   3.901
 1067WAT     H1 4974   7.586   3.609   3.911
 1067WAT     H2 4975   7.465   3.551   3.887
 1067WAT    EPW 4976   7.509   3.614   3.900
 1068WAT      O 4977   6.984   3.762   3.566
 1068WAT     H1 4978   7.033   3.733   3.633
 1068WAT     H2 4979   6.997   3.703   3.504
 1068WAT    EPW 4980   6.993   3.749   3.567
 1069WAT      O 4981   7.436   3.905   3.115
 1069WAT     H1 4982   7.375   3.865   3.162
 1069WAT     H2 4983   7.398   3.917   3.038
 1069WAT    EPW 4984   7.421   3.901   3.111
 1070WAT      O 4985   7.118   4.216   4.655
 1070WAT     H1 4986   7.076   4.165   4.599
 1070WAT     H2 4987   7.083   4.295   4.641
 1070WAT    EPW 4988   7.107   4.220   4.645
 1071WAT      O 4989   7.582   3.752   3.386
 1071WAT     H1 4990   7.609   3.834   3.393
 1071WAT     H2 4991   7.495   3.759   3.376
 1071WAT    EPW 4992   7.573   3.765   3.386
 1072WAT      O 4993   6.930   3.349   4.040
 1072WAT     H1 4994   6.934   3.383   3.960
 1072WAT     H2 4995   7.005   3.372   4.076
 1072WAT    EPW 4996   6.941   3.357   4.033
 1073WAT      O 4997   7.592   4.397   4.317
 1073WAT     H1 4998   7.562   4.457   4.374
 1073WAT     H2 4999   7.597   4.442   4.242
 1073WAT    EPW 5000   7.588   4.413   4.314
 1074WAT      O 5001   7.390   4.292   4.657
 1074WAT     H1 5002   7.309   4.263   4.674
 1074WAT     H2 5003   7.381   4.379   4.657
 1074WAT    EPW 5004   7.377   4.301   4.659
 1075WAT      O 5005   7.844   4.040   4.266
 1075WAT     H1 5006   7.891   4.077   4.329
 1075WAT     H2 5007   7.761   4.053   4.292
 1075WAT    EPW 5008   7.838   4.047   4.279
 1076WAT      O 5009   7.515   3.600   4.540
 1076WAT     H1 5010   7.531   3.526   4.583
 1076WAT     H2 5011   7.510   3.575   4.457
 1076WAT    EPW 5012   7.516   3.585   4.534
 1077WAT      O 5013   7.770   4.779   3.789
 1077WAT     H1 5014   7.825   4.847   3.794
 1077WAT     H2 5015   7.735   4.787   3.709
 1077WAT    EPW 5016   7.773   4.790   3.778
 1078WAT      O 5017   7.690   3.181   4.528
 1078WAT     H1 5018   7.760   3.213   4.488
 1078WAT     H2 5019   7.714   3.100   4.551
 1078WAT    EPW 5020   7.704   3.174   4.526
 1079WAT      O 5021   7.588   4.602   4.128
 1079WAT     H1 5022   7.526   4.660   4.110
 1079WAT     H2 5023   7.613   4.573   4.049
 1079WAT    EPW 5024   7.583   4.606   4.114
 1080WAT      O 5025   7.748   4.079   3.119
 1080WAT     H1 5026   7.667   4.062   3.091
 1080WAT     H2 5027   7.744   4.165   3.139
 1080WAT    EPW 5028   7.735   4.089   3.118
 1081WAT      O 5029   7.341   3.686   4.134
 1081WAT     H1 5030   7.385   3.676   4.060
 1081WAT     H2 5031   7.395   3.655   4.195
 1081WAT    EPW 5032   7.355   3.680   4.132
 1082WAT      O 5033   7.854   4.767   4.716
 1082WAT     H1 5034   7.901   4.707   4.674
 1082WAT     H2 5035   7.818   4.722   4.782
 1082WAT    EPW 5036   7.855   4.751   4.720
 1083WAT      O 5037   7.695   3.185   4.139
 1083WAT     H1 5038   7.613   3.170   4.163
 1083WAT     H2 5039   7.691   3.188   4.052
 1083WAT    EPW 5040   7.683   3.183   4.130
 1084WAT      O 5041   7.859   4.289   4.618
 1084WAT     H1 5042   7.780   4.282   4.653
 1084WAT     H2 5043   7.867   4.373   4.598
 1084WAT    EPW 5044   7.849   4.300   4.620
 1085WAT      O 5045   6.952   3.224   4.743
 1085WAT     H1 5046   6.938   3.304   4.709
 1085WAT     H2 5047   6.873   3.200   4.771
 1085WAT    EPW 5048   6.938   3.233   4.742
 1086WAT      O 5049   7.442   4.909   4.150
 1086WAT     H1 5050   7.444   4.915   4.237
 1086WAT     H2 5051   7.400   4.835   4.135
 1086WAT    EPW 5052   7.436   4.899   4.160
 1087WAT      O 5053   7.258   3.499   3.465
 1087WAT     H1 5054   7.271   3.466   3.385
 1087WAT     H2 5055   7.177   3.474   3.485
 1087WAT    EPW 5056   7.248   3.490   3.456
 1088WAT      O 5057   7.119   4.859   4.694
 1088WAT     H1 5058   7.053   4.802   4.704
 1088WAT     H2 5059   7.081   4.936   4.709
 1088WAT    EPW 5060   7.104   4.862   4.697
 1089WAT      O 5061   7.256   3.700   4.507
 1089WAT     H1 5062   7.293   3.762   4.458
 1089WAT     H2 5063   7.323   3.653   4.535
 1089WAT    EPW 5064   7.271   3.702   4.504
 1090WAT      O 5065   7.033   3.545   4.434
 1090WAT     H1 5066   7.041   3.528   4.349
 1090WAT     H2 5067   7.108   3.585   4.454
 1090WAT    EPW 5068   7.046   3.548   4.424
 1091WAT      O 5069   7.289   3.286   4.675
 1091WAT     H1 5070   7.281   3.201   4.696
 1091WAT     H2 5071   7.257   3.290   4.594
 1091WAT    EPW 5072   7.283   3.274   4.666
 1092WAT      O 5073   6.973   4.067   4.457
 1092WAT     H1 5074   7.005   4.089   4.378
 1092WAT     H2 5075   6.963   3.981   4.451
 1092WAT    EPW 5076   6.976   4.058   4.444
 1093WAT      O 5077   7.119   3.661   3.118
 1093WAT     H1 5078   7.052   3.662   3.174
 1093WAT     H2 5079   7.128   3.576   3.100
 1093WAT    EPW 5080   7.110   3.649   3.124
 1094WAT      O 5081   7.518   4.531   3.230
 1094WAT     H1 5082   7.562   4.539   3.305
 1094WAT     H2 5083   7.437   4.510   3.256
 1094WAT    EPW 5084   7.512   4.529   3.245
 1095WAT      O 5085   7.449   3.997   4.595
 1095WAT     H1 5086   7.410   4.074   4.603
 1095WAT     H2 5087   7.409   3.959   4.527
 1095WAT    EPW 5088   7.438   4.002   4.586
 1096WAT      O 5089   7.250   4.438   3.290
 1096WAT     H1 5090   7.226   4.408   3.368
 1096WAT     H2 5091   7.247   4.368   3.238
 1096WAT    EPW 5092   7.246   4.424   3.294
 1097WAT      O 5093   7.532   4.263   3.164
 1097WAT     H1 5094   7.451   4.236   3.178
 1097WAT     H2 5095   7.530   4.348   3.183
 1097WAT    EPW 5096   7.520   4.272   3.169
 1098WAT      O 5097   7.492   3.294   4.340
 1098WAT     H1 5098   7.406   3.303   4.348
 1098WAT     H2 5099   7.514   3.243   4.407
 1098WAT    EPW 5100   7.483   3.288   4.351
 1099WAT      O 5101   7.653   3.802   4.698
 1099WAT     H1 5102   7.621   3.744   4.641
 1099WAT     H2 5103   7.617   3.877   4.673
 1099WAT    EPW 5104   7.643   3.805   4.686
 1100WAT      O 5105   7.733   3.127   3.161
 1100WAT     H1 5106   7.740   3.152   3.077
 1100WAT     H2 5107   7.658   3.165   3.186
 1100WAT    EPW 5108   7.723   3.136   3.152
 1101WAT      O 5109   7.496   4.838   4.723
 1101WAT     H1 5110   7.501   4.850   4.809
 1101WAT     H2 5111   7.562   4.782   4.707
 1101WAT    EPW 5112   7.507   4.831   4.733
 1102WAT      O 5113   7.214   3.303   4.405
 1102WAT     H1 5114   7.180   3.226   4.381
 1102WAT     H2 5115   7.145   3.355   4.411
 1102WAT    EPW 5116   7.199   3.299   4.402
 1103WAT      O 5117   7.256   4.676   4.859
 1103WAT     H1 5118   7.315   4.719   4.906
 1103WAT     H2 5119   7.219   4.738   4.810
 1103WAT    EPW 5120   7.259   4.691   4.858
 1104WAT      O 5121   7.080   3.634   3.800
 1104WAT     H1 5122   7.043   3.664   3.874
 1104WAT     H2 5123   7.133   3.571   3.829
 1104WAT    EPW 5124   7.082   3.629   3.815
 1105WAT      O 5125   7.048   4.475   4.552
 1105WAT     H1 5126   6.991   4.516   4.602
 1105WAT     H2 5127   7.122   4.521   4.561
 1105WAT    EPW 5128   7.051   4.488   4.560
 1106WAT      O 5129   7.227   4.801   3.429
 1106WAT     H1 5130   7.213   4.817   3.344
 1106WAT     H2 5131   7.314   4.809   3.437
 1106WAT    EPW 5132   7.238   4.805   3.418
 1107WAT      O 5133   7.644   4.041   3.402
 1107WAT     H1 5134   7.654   4.055   3.316
 1107WAT     H2 5135   7.726   4.035   3.431
 1107WAT    EPW 5136   7.657   4.042   3.394
 1108WAT      O 5137   7.558   3.339   4.713
 1108WAT     H1 5138   7.581   3.281   4.652
 1108WAT     H2 5139   7.473   3.321   4.728
 1108WAT    EPW 5140   7.549   3.327   4.706
 1109WAT      O 5141   7.296   4.683   4.077
 1109WAT     H1 5142   7.288   4.602   4.045
 1109WAT     H2 5143   7.251   4.732   4.020
 1109WAT    EPW 5144   7.288   4.678   4.064
 1110WAT      O 5145   7.053   4.907   4.435
 1110WAT     H1 5146   7.102   4.902   4.507
 1110WAT     H2 5147   7.072   4.834   4.391
 1110WAT    EPW 5148   7.063   4.896   4.439
 1111WAT      O 5149   6.965   4.265   1.762
 1111WAT     H1 5150   6.920   4.276   1.836
 1111WAT     H2 5151   6.936   4.187   1.733
 1111WAT    EPW 5152   6.954   4.255   1.768
 1112WAT      O 5153   6.939   3.644   1.412
 1112WAT     H1 5154   6.861   3.660   1.376
 1112WAT     H2 5155   6.943   3.557   1.415
 1112WAT    EPW 5156   6.928   3.633   1.407
 1113WAT      O 5157   7.253   4.170   1.280
 1113WAT     H1 5158   7.214   4.133   1.211
 1113WAT     H2 5159   7.245   4.110   1.342
 1113WAT    EPW 5160   7.246   4.156   1.279
 1114WAT      O 5161   7.215   4.334   1.670
 1114WAT     H1 5162   7.276   4.317   1.730
 1114WAT     H2 5163   7.140   4.320   1.712
 1114WAT    EPW 5164   7.213   4.330   1.685
 1115WAT      O 5165   7.644   3.268   1.664
 1115WAT     H1 5166   7.637   3.335   1.610
 1115WAT     H2 5167   7.718   3.229   1.640
 1115WAT    EPW 5168   7.654   3.272   1.653
 1116WAT      O 5169   7.105   4.643   1.277
 1116WAT     H1 5170   7.151   4.652   1.204
 1116WAT     H2 5171   7.150   4.585   1.324
 1116WAT    EPW 5172   7.118   4.636   1.273
 1117WAT      O 5173   6.959   4.538   2.387
 1117WAT     H1 5174   6.971   4.510   2.469
 1117WAT     H2 5175   6.898   4.484   2.356
 1117WAT    EPW 5176   6.951   4.526   2.395
 1118WAT      O 5177   7.616   4.291   2.894
 1118WAT     H1 5178   7.592   4.290   2.978
 1118WAT     H2 5179   7.541   4.276   2.851
 1118WAT    EPW 5180   7.601   4.288   2.900
 1119WAT      O 5181   7.103   3.990   1.807
 1119WAT     H1 5182   7.057   3.951   1.745
 1119WAT     H2 5183   7.173   3.939   1.817
 1119WAT    EPW 5184   7.107   3.977   1.799
 1120WAT      O 5185   7.554   3.551   2.342
 1120WAT     H1 5186   7.622   3.553   2.287
 1120WAT     H2 5187   7.549   3.468   2.367
 1120WAT    EPW 5188   7.563   3.539   2.338
 1121WAT      O 5189   7.614   4.610   2.620
 1121WAT     H1 5190   7.628   4.686   2.579
 1121WAT     H2 5191   7.693   4.573   2.623
 1121WAT    EPW 5192   7.628   4.616   2.615
 1122WAT      O 5193   7.303   3.800   1.810
 1122WAT     H1 5194   7.385   3.781   1.834
 1122WAT     H2 5195   7.256   3.739   1.849
 1122WAT    EPW 5196   7.308   3.788   1.819
 1123WAT      O 5197   7.724   4.398   2.071
 1123WAT     H1 5198   7.758   4.318   2.074
 1123WAT     H2 5199   7.790   4.449   2.045
 1123WAT    EPW 5200   7.739   4.394   2.067
 1124WAT      O 5201   7.729   4.343   1.692
 1124WAT     H1 5202   7.762   4.279   1.740
 1124WAT     H2 5203   7.753   4.322   1.611
 1124WAT    EPW 5204   7.738   4.331   1.687
 1125WAT      O 5205   7.363   3.310   1.736
 1125WAT     H1 5206   7.333   3.360   1.671
 1125WAT     H2 5207   7.450   3.317   1.731
 1125WAT    EPW 5208   7.371   3.318   1.726
 1126WAT      O 5209   7.661   3.224   1.959
 1126WAT     H1 5210   7.668   3.310   1.971
 1126WAT     H2 5211   7.657   3.216   1.872
 1126WAT    EPW 5212   7.661   3.235   1.948
 1127WAT      O 5213   6.949   3.766   2.109
 1127WAT     H1 5214   6.923   3.849   2.101
 1127WAT     H2 5215   6.882   3.728   2.150
 1127WAT    EPW 5216   6.935   3.773   2.114
 1128WAT      O 5217   6.940   4.737   1.899
 1128WAT     H1 5218   6.881   4.793   1.867
 1128WAT     H2 5219   6.982   4.710   1.827
 1128WAT    EPW 5220   6.937   4.741   1.884
 1129WAT      O 5221   7.524   4.522   1.647
 1129WAT     H1 5222   7.466   4.494   1.706
 1129WAT     H2 5223   7.586   4.461   1.649
 1129WAT    EPW 5224   7.524   4.509   1.656
 1130WAT      O 5225   7.252   3.248   2.158
 1130WAT     H1 5226   7.200   3.185   2.127
 1130WAT     H2 5227   7.311   3.204   2.205
 1130WAT    EPW 5228   7.253   3.232   2.160
 1131WAT      O 5229   7.582   3.461   3.088
 1131WAT     H1 5230   7.594   3.416   3.014
 1131WAT     H2 5231   7.611   3.541   3.067
 1131WAT    EPW 5232   7.588   3.466   3.074
 1132WAT      O 5233   7.094   4.604   1.692
 1132WAT     H1 5234   7.160   4.547   1.693
 1132WAT     H2 5235   7.133   4.679   1.670
 1132WAT    EPW 5236   7.110   4.607   1.689
 1133WAT      O 5237   7.156   3.421   2.986
 1133WAT     H1 5238   7.078   3.382   2.979
 1133WAT     H2 5239   7.205   3.380   2.927
 1133WAT    EPW 5240   7.151   3.409   2.976
 1134WAT      O 5241   7.176   4.453   2.042
 1134WAT     H1 5242   7.218   4.417   1.974
 1134WAT     H2 5243   7.208   4.411   2.111
 1134WAT    EPW 5244   7.187   4.441   2.042
 1135WAT      O 5245   7.499   4.738   1.971
 1135WAT     H1 5246   7.584   4.749   1.952
 1135WAT     H2 5247   7.469   4.820   1.978
 1135WAT    EPW 5248   7.507   4.752   1.969
 1136WAT      O 5249   7.820   3.185   2.903
 1136WAT     H1 5250   7.838   3.104   2.875
 1136WAT     H2 5251   7.806   3.229   2.829
 1136WAT    EPW 5252   7.821   3.180   2.888
 1137WAT      O 5253   7.399   4.860   2.545
 1137WAT     H1 5254   7.428   4.853   2.627
 1137WAT     H2 5255   7.336   4.800   2.541
 1137WAT    EPW 5256   7.394   4.850   2.557
 1138WAT      O 5257   6.890   3.476   2.745
 1138WAT     H1 5258   6.890   3.534   2.809
 1138WAT     H2 5259   6.950   3.507   2.689
 1138WAT    EPW 5260   6.899   3.489   2.746
 1139WAT      O 5261   7.838   4.529   1.274
 1139WAT     H1 5262   7.820   4.583   1.339
 1139WAT     H2 5263   7.915   4.558   1.244
 1139WAT    EPW 5264   7.847   4.541   1.279
 1140WAT      O 5265   6.984   3.435   1.636
 1140WAT     H1 5266   6.973   3.349   1.639
 1140WAT     H2 5267   6.937   3.465   1.703
 1140WAT    EPW 5268   6.975   3.427   1.646
 1141WAT      O 5269   7.198   4.676   2.458
 1141WAT     H1 5270   7.128   4.625   2.470
 1141WAT     H2 5271   7.224   4.656   2.377
 1141WAT    EPW 5272   7.192   4.666   2.447
 1142WAT      O 5273   7.914   3.556   1.511
 1142WAT     H1 5274   7.864   3.490   1.485
 1142WAT     H2 5275   7.920   3.606   1.440
 1142WAT    EPW 5276   7.908   3.554   1.496
 1143WAT      O 5277   7.774   3.487   1.952
 1143WAT     H1 5278   7.782   3.544   1.886
 1143WAT     H2 5279   7.786   3.536   2.023
 1143WAT    EPW 5280   7.777   3.503   1.953
 1144WAT      O 5281   7.334   4.561   2.714
 1144WAT     H1 5282   7.418   4.568   2.692
 1144WAT     H2 5283   7.331   4.601   2.792
 1144WAT    EPW 5284   7.346   4.568   2.722
 1145WAT      O 5285   7.235   3.069   1.787
 1145WAT     H1 5286   7.289   3.138   1.786
 1145WAT     H2 5287   7.235   3.042   1.704
 1145WAT    EPW 5288   7.243   3.075   1.774
 1146WAT      O 5289   7.531   4.112   2.189
 1146WAT     H1 5290   7.548   4.091   2.272
 1146WAT     H2 5291   7.465   4.059   2.168
 1146WAT    EPW 5292   7.524   4.101   2.198
 1147WAT      O 5293   7.606   4.106   2.448
 1147WAT     H1 5294   7.611   4.191   2.468
 1147WAT     H2 5295   7.577   4.069   2.522
 1147WAT    EPW 5296   7.602   4.113   2.462
 1148WAT      O 5297   6.888   4.543   3.069
 1148WAT     H1 5298   6.963   4.578   3.095
 1148WAT     H2 5299   6.905   4.458   3.064
 1148WAT    EPW 5300   6.902   4.536   3.072
 1149WAT      O 5301   7.280   3.450   1.952
 1149WAT     H1 5302   7.307   3.407   1.881
 1149WAT     H2 5303   7.262   3.387   2.009
 1149WAT    EPW 5304   7.281   3.434   1.950
 1150WAT      O 5305   7.262   4.193   1.907
 1150WAT     H1 5306   7.347   4.185   1.890
 1150WAT     H2 5307   7.227   4.125   1.866
 1150WAT    EPW 5308   7.270   4.182   1.898
 1151WAT      O 5309   7.139   4.865   2.031
 1151WAT     H1 5310   7.072   4.816   2.006
 1151WAT     H2 5311   7.179   4.884   1.956
 1151WAT    EPW 5312   7.135   4.861   2.016
 1152WAT      O 5313   7.094   3.560   2.260
 1152WAT     H1 5314   7.178   3.582   2.256
 1152WAT     H2 5315   7.055   3.618   2.207
 1152WAT    EPW 5316   7.101   3.572   2.252
 1153WAT      O 5317   7.499   4.194   1.730
 1153WAT     H1 5318   7.570   4.243   1.739
 1153WAT     H2 5319   7.521   4.137   1.668
 1153WAT    EPW 5320   7.513   4.192   1.723
 1154WAT      O 5321   6.915   4.358   2.062
 1154WAT     H1 5322   6.848   4.407   2.090
 1154WAT     H2 5323   6.983   4.412   2.065
 1154WAT    EPW 5324   6.915   4.373   2.067
 1155WAT      O 5325   7.679   3.729   3.072
 1155WAT     H1 5326   7.631   3.787   3.116
 1155WAT     H2 5327   7.677   3.758   2.990
 1155WAT    EPW 5328   7.672   3.742   3.066
 1156WAT      O 5329   6.921   4.026   1.573
 1156WAT     H1 5330   6.903   3.942   1.588
 1156WAT     H2 5331   6.987   4.023   1.516
 1156WAT    EPW 5332   6.928   4.013   1.567
 1157WAT      O 5333   6.938   4.443   1.530
 1157WAT     H1 5334   6.994   4.500   1.567
 1157WAT     H2 5335   6.915   4.391   1.597
 1157WAT    EPW 5336   6.943   4.443   1.545
 1158WAT      O 5337   7.359   4.343   2.239
 1158WAT     H1 5338   7.406   4.372   2.307
 1158WAT     H2 5339   7.416   4.295   2.194
 1158WAT    EPW 5340   7.374   4.340   2.242
 1159WAT      O 5341   6.921   4.288   1.293
 1159WAT     H1 5342   6.997   4.244   1.299
 1159WAT     H2 5343   6.923   4.341   1.362
 1159WAT    EPW 5344   6.933   4.289   1.304
 1160WAT      O 5345   7.015   4.110   2.094
 1160WAT     H1 5346   7.059   4.097   2.019
 1160WAT     H2 5347   6.995   4.194   2.091
 1160WAT    EPW 5348   7.019   4.120   2.082
 1161WAT      O 5349   7.650   3.466   1.459
 1161WAT     H1 5350   7.650   3.454   1.372
 1161WAT     H2 5351   7.632   3.551   1.468
 1161WAT    EPW 5352   7.647   3.477   1.447
 1162WAT      O 5353   7.424   4.461   1.922
 1162WAT     H1 5354   7.436   4.546   1.940
 1162WAT     H2 5355   7.491   4.421   1.961
 1162WAT    EPW 5356   7.436   4.468   1.930
 1163WAT      O 5357   7.237   3.810   2.908
 1163WAT     H1 5358   7.183   3.759   2.955
 1163WAT     H2 5359   7.239   3.771   2.830
 1163WAT    EPW 5360   7.229   3.796   2.903
 1164WAT      O 5361   7.285   3.749   1.422
 1164WAT     H1 5362   7.273   3.704   1.496
 1164WAT     H2 5363   7.227   3.715   1.367
 1164WAT    EPW 5364   7.275   3.738   1.425
 1165WAT      O 5365   7.302   3.932   2.082
 1165WAT     H1 5366   7.224   3.926   2.044
 1165WAT     H2 5367   7.309   3.857   2.126
 1165WAT    EPW 5368   7.292   3.920   2.083
 1166WAT      O 5369   7.345   3.906   2.429
 1166WAT     H1 5370   7.348   3.838   2.374
 1166WAT     H2 5371   7.280   3.956   2.397
 1166WAT    EPW 5372   7.336   3.903   2.416
 1167WAT      O 5373   7.755   4.784   2.368
 1167WAT     H1 5374   7.727   4.720   2.316
 1167WAT     H2 5375   7.734   4.856   2.324
 1167WAT    EPW 5376   7.748   4.785   2.354
 1168WAT      O 5377   7.125   4.041   2.985
 1168WAT     H1 5378   7.121   4.092   2.913
 1168WAT     H2 5379   7.158   3.966   2.955
 1168WAT    EPW 5380   7.129   4.038   2.970
 1169WAT      O 5381   7.715   4.546   2.928
 1169WAT     H1 5382   7.750   4.529   3.006
 1169WAT     H2 5383   7.671   4.474   2.908
 1169WAT    EPW 5384   7.714   4.533   2.937
 1170WAT      O 5385   7.812   3.621   2.192
 1170WAT     H1 5386   7.860   3.691   2.213
 1170WAT     H2 5387   7.849   3.556   2.237
 1170WAT    EPW 5388   7.825   3.622   2.202
 1171WAT      O 5389   7.523   4.798   1.587
 1171WAT     H1 5390   7.508   4.720   1.624
 1171WAT     H2 5391   7.592   4.783   1.535
 1171WAT    EPW 5392   7.531   4.784   1.584
 1172WAT      O 5393   7.490   3.172   1.385
 1172WAT     H1 5394   7.500   3.162   1.471
 1172WAT     H2 5395   7.419   3.223   1.379
 1172WAT    EPW 5396   7.481   3.178   1.397
 1173WAT      O 5397   7.752   4.750   1.427
 1173WAT     H1 5398   7.815   4.766   1.486
 1173WAT     H2 5399   7.756   4.819   1.374
 1173WAT    EPW 5400   7.762   4.762   1.428
 1174WAT      O 5401   7.202   4.003   1.510
 1174WAT     H1 5402   7.235   3.925   1.487
 1174WAT     H2 5403   7.267   4.040   1.555
 1174WAT    EPW 5404   7.217   3.997   1.513
 1175WAT      O 5405   6.902   3.169   1.606
 1175WAT     H1 5406   6.915   3.098   1.557
 1175WAT     H2 5407   6.865   3.137   1.679
 1175WAT    EPW 5408   6.899   3.154   1.610
 1176WAT      O 5409   7.871   3.937   1.652
 1176WAT     H1 5410   7.877   4.002   1.710
 1176WAT     H2 5411   7.853   3.868   1.701
 1176WAT    EPW 5412   7.870   3.936   1.668
 1177WAT      O 5413   7.321   3.389   1.303
 1177WAT     H1 5414   7.270   3.394   1.233
 1177WAT     H2 5415   7.399   3.413   1.274
 1177WAT    EPW 5416   7.325   3.393   1.289
 1178WAT      O 5417   7.794   4.142   2.095
 1178WAT     H1 5418   7.709   4.122   2.103
 1178WAT     H2 5419   7.826   4.125   2.175
 1178WAT    EPW 5420   7.786   4.137   2.108
 1179WAT      O 5421   7.469   4.815   1.184
 1179WAT     H1 5422   7.513   4.745   1.213
 1179WAT     H2 5423   7.490   4.877   1.241
 1179WAT    EPW 5424   7.479   4.814   1.197
 1180WAT      O 5425   7.179   4.111   2.327
 1180WAT     H1 5426   7.251   4.160   2.323
 1180WAT     H2 5427   7.152   4.108   2.244
 1180WAT    EPW 5428   7.185   4.118   2.314
 1181WAT      O 5429   7.502   3.628   2.000
 1181WAT     H1 5430   7.586   3.609   2.010
 1181WAT     H2 5431   7.465   3.551   1.987
 1181WAT    EPW 5432   7.509   3.614   2.000
 1182WAT      O 5433   6.984   3.762   1.666
 1182WAT     H1 5434   7.033   3.733   1.732
 1182WAT     H2 5435   6.997   3.703   1.603
 1182WAT    EPW 5436   6.993   3.749   1.666
 1183WAT      O 5437   7.436   3.905   1.214
 1183WAT     H1 5438   7.375   3.865   1.262
 1183WAT     H2 5439   7.398   3.917   1.137
 1183WAT    EPW 5440   7.421   3.901   1.210
 1184WAT      O 5441   7.118   4.216   2.755
 1184WAT     H1 5442   7.076   4.165   2.699
 1184WAT     H2 5443   7.083   4.295   2.740
 1184WAT    EPW 5444   7.107   4.220   2.744
 1185WAT      O 5445   7.582   3.752   1.485
 1185WAT     H1 5446   7.609   3.834   1.492
 1185WAT     H2 5447   7.495   3.759   1.476
 1185WAT    EPW 5448   7.573   3.765   1.485
 1186WAT      O 5449   6.930   3.349   2.139
 1186WAT     H1 5450   6.934   3.383   2.059
 1186WAT     H2 5451   7.005   3.372   2.176
 1186WAT    EPW 5452   6.941   3.357   2.133
 1187WAT      O 5453   7.592   4.397   2.416
 1187WAT     H1 5454   7.562   4.457   2.473
 1187WAT     H2 5455   7.597   4.442   2.342
 1187WAT    EPW 5456   7.588   4.413   2.414
 1188WAT      O 5457   7.390   4.292   2.756
 1188WAT     H1 5458   7.309   4.263   2.773
 1188WAT     H2 5459   7.381   4.379   2.757
 1188WAT    EPW 5460   7.377   4.301   2.759
 1189WAT      O 5461   7.844   4.040   2.366
 1189WAT     H1 5462   7.891   4.077   2.428
 1189WAT     H2 5463   7.761   4.053   2.391
 1189WAT    EPW 5464   7.838   4.047   2.379
 1190WAT      O 5465   7.515   3.600   2.640
 1190WAT     H1 5466   7.531   3.526   2.682
 1190WAT     H2 5467   7.510   3.575   2.556
 1190WAT    EPW 5468   7.516   3.585   2.634
 1191WAT      O 5469   7.770   4.779   1.888
 1191WAT     H1 5470   7.825   4.847   1.894
 1191WAT     H2 5471   7.735   4.787   1.809
 1191WAT    EPW 5472   7.773   4.790   1.877
 1192WAT      O 5473   7.690   3.181   2.628
 1192WAT     H1 5474   7.760   3.213   2.587
 1192WAT     H2 5475   7.714   3.100   2.650
 1192WAT    EPW 5476   7.704   3.174   2.625
 1193WAT      O 5477   7.588   4.602   2.227
 1193WAT     H1 5478   7.526   4.660   2.209
 1193WAT     H2 5479   7.613   4.573   2.149
 1193WAT    EPW 5480   7.583   4.606   2.213
 1194WAT      O 5481   7.748   4.079   1.219
 1194WAT     H1 5482   7.667   4.062   1.190
 1194WAT     H2 5483   7.744   4.165   1.238
 1194WAT    EPW 5484   7.735   4.089   1.217
 1195WAT      O 5485   7.341   3.686   2.234
 1195WAT     H1 5486   7.385   3.676   2.159
 1195WAT     H2 5487   7.395   3.655   2.294
 1195WAT    EPW 5488   7.355   3.680   2.232
 1196WAT      O 5489   7.854   4.767   2.815
 1196WAT     H1 5490   7.901   4.707   2.774
 1196WAT     H2 5491   7.818   4.722   2.882
 1196WAT    EPW 5492   7.855   4.751   2.819
 1197WAT      O 5493   7.695   3.185   2.238
 1197WAT     H1 5494   7.613   3.170   2.262
 1197WAT     H2 5495   7.691   3.188   2.151
 1197WAT    EPW 5496   7.683   3.183   2.229
 1198WAT      O 5497   7.859   4.289   2.717
 1198WAT     H1 5498   7.780   4.282   2.752
 1198WAT     H2 5499   7.867   4.373   2.698
 1198WAT    EPW 5500   7.849   4.300   2.720
 1199WAT      O 5501   6.952   3.224   2.842
 1199WAT     H1 5502   6.938   3.304   2.809
 1199WAT     H2 5503   6.873   3.200   2.871
 1199WAT    EPW 5504   6.938   3.233   2.841
 1200WAT      O 5505   7.442   4.909   2.249
 1200WAT     H1 5506   7.444   4.915   2.336
 1200WAT     H2 5507   7.400   4.835   2.234
 1200WAT    EPW 5508   7.436   4.899   2.260
 1201WAT      O 5509   7.258   3.499   1.564
 1201WAT     H1 5510   7.271   3.466   1.485
 1201WAT     H2 5511   7.177   3.474   1.584
 1201WAT    EPW 5512   7.248   3.490   1.556
 1202WAT      O 5513   7.119   4.859   2.793
 1202WAT     H1 5514   7.053   4.802   2.803
 1202WAT     H2 5515   7.081   4.936   2.808
 1202WAT    EPW 5516   7.104   4.862   2.797
 1203WAT      O 5517   7.256   3.700   2.606
 1203WAT     H1 5518   7.293   3.762   2.557
 1203WAT     H2 5519   7.323   3.653   2.635
 1203WAT    EPW 5520   7.271   3.702   2.603
 1204WAT      O 5521   7.033   3.545   2.534
 1204WAT     H1 5522   7.041   3.528   2.448
 1204WAT     H2 5523   7.108   3.585   2.553
 1204WAT    EPW 5524   7.046   3.548   2.524
 1205WAT      O 5525   7.289   3.286   2.775
 1205WAT     H1 5526   7.281   3.201   2.795
 1205WAT     H2 5527   7.257   3.290   2.693
 1205WAT    EPW 5528   7.283   3.274   2.766
 1206WAT      O 5529   6.973   4.067   2.556
 1206WAT     H1 5530   7.005   4.089   2.478
 1206WAT     H2 5531   6.963   3.981   2.550
 1206WAT    EPW 5532   6.976   4.058   2.544
 1207WAT      O 5533   7.119   3.661   1.218
 1207WAT     H1 5534   7.052   3.662   1.273
 1207WAT     H2 5535   7.128   3.576   1.199
 1207WAT    EPW 5536   7.110   3.649   1.223
 1208WAT      O 5537   7.518   4.531   1.329
 1208WAT     H1 5538   7.562   4.539   1.404
 1208WAT     H2 5539   7.437   4.510   1.355
 1208WAT    EPW 5540   7.512   4.529   1.344
 1209WAT      O 5541   7.449   3.997   2.694
 1209WAT     H1 5542   7.410   4.074   2.702
 1209WAT     H2 5543   7.409   3.959   2.627
 1209WAT    EPW 5544   7.438   4.002   2.686
 1210WAT      O 5545   7.250   4.438   1.389
 1210WAT     H1 5546   7.226   4.408   1.467
 1210WAT     H2 5547   7.247   4.368   1.338
 1210WAT    EPW 5548   7.246   4.424   1.393
 1211WAT      O 5549   7.532   4.263   1.264
 1211WAT     H1 5550   7.451   4.236   1.278
 1211WAT     H2 5551   7.530   4.348   1.282
 1211WAT    EPW 5552   7.520   4.272   1.268
 1212WAT      O 5553   7.492   3.294   2.439
 1212WAT     H1 5554   7.406   3.303   2.447
 1212WAT     H2 5555   7.514   3.243   2.506
 1212WAT    EPW 5556   7.483   3.288   2.451
 1213WAT      O 5557   7.653   3.802   2.797
 1213WAT     H1 5558   7.621   3.744   2.740
 1213WAT     H2 5559   7.617   3.877   2.773
 1213WAT    EPW 5560   7.643   3.805   2.785
 1214WAT      O 5561   7.733   3.127   1.260
 1214WAT     H1 5562   7.740   3.152   1.177
 1214WAT     H2 5563   7.658   3.165   1.286
 1214WAT    EPW 5564   7.723   3.136   1.251
 1215WAT      O 5565   7.496   4.838   2.822
 1215WAT     H1 5566   7.501   4.850   2.908
 1215WAT     H2 5567   7.562   4.782   2.806
 1215WAT    EPW 5568   7.507   4.831   2.833
 1216WAT      O 5569   7.214   3.303   2.504
 1216WAT     H1 5570   7.180   3.226   2.481
 1216WAT     H2 5571   7.145   3.355   2.511
 1216WAT    EPW 5572   7.199   3.299   2.502
 1217WAT      O 5573   7.256   4.676   2.958
 1217WAT     H1 5574   7.315   4.719   3.005
 1217WAT     H2 5575   7.219   4.738   2.909
 1217WAT    EPW 5576   7.259   4.691   2.958
 1218WAT      O 5577   7.080   3.634   1.900
 1218WAT     H1 5578   7.043   3.664   1.973
 1218WAT     H2 5579   7.133   3.571   1.928
 1218WAT    EPW 5580   7.082   3.629   1.915
 1219WAT      O 5581   7.048   4.475   2.651
 1219WAT     H1 5582   6.991   4.516   2.702
 1219WAT     H2 5583   7.122   4.521   2.660
 1219WAT    EPW 5584   7.051   4.488   2.660
 1220WAT      O 5585   7.227   4.801   1.528
 1220WAT     H1 5586   7.213   4.817   1.444
 1220WAT     H2 5587   7.314   4.809   1.536
 1220WAT    EPW 5588   7.238   4.805   1.517
 1221WAT      O 5589   7.644   4.041   1.501
 1221WAT     H1 5590   7.654   4.055   1.416
 1221WAT     H2 5591   7.726   4.035   1.531
 1221WAT    EPW 5592   7.657   4.042   1.493
 1222WAT      O 5593   7.558   3.339   2.813
 1222WAT     H1 5594   7.581   3.281   2.752
 1222WAT     H2 5595   7.473   3.321   2.827
 1222WAT    EPW 5596   7.549   3.327   2.806
 1223WAT      O 5597   7.296   4.683   2.176
 1223WAT     H1 5598   7.288   4.602   2.145
 1223WAT     H2 5599   7.251   4.732   2.119
 1223WAT    EPW 5600   7.288   4.678   2.163
 1224WAT      O 5601   7.053   4.907   2.534
 1224WAT     H1 5602   7.102   4.902   2.606
 1224WAT     H2 5603   7.072   4.834   2.491
 1224WAT    EPW 5604   7.063   4.896   2.538
 1225WAT      O 5605   6.959   4.538   0.487
 1225WAT     H1 5606   6.971   4.510   0.568
 1225WAT     H2 5607   6.898   4.484   0.456
 1225WAT    EPW 5608   6.951   4.526   0.494
 1226WAT      O 5609   7.616   4.291   0.993
 1226WAT     H1 5610   7.592   4.290   1.077
 1226WAT     H2 5611   7.541   4.276   0.951
 1226WAT    EPW 5612   7.601   4.288   0.999
 1227WAT      O 5613   7.554   3.551   0.441
 1227WAT     H1 5614   7.622   3.553   0.387
 1227WAT     H2 5615   7.549   3.468   0.466
 1227WAT    EPW 5616   7.563   3.539   0.437
 1228WAT      O 5617   7.614   4.610   0.720
 1228WAT     H1 5618   7.628   4.686   0.679
 1228WAT     H2 5619   7.693   4.573   0.722
 1228WAT    EPW 5620   7.628   4.616   0.714
 1229WAT      O 5621   6.949   3.766   0.208
 1229WAT     H1 5622   6.923   3.849   0.201
 1229WAT     H2 5623   6.882   3.728   0.250
 1229WAT    EPW 5624   6.935   3.773   0.213
 1230WAT      O 5625   7.252   3.248   0.257
 1230WAT     H1 5626   7.200   3.185   0.226
 1230WAT     H2 5627   7.311   3.204   0.304
 1230WAT    EPW 5628   7.253   3.232   0.260
 1231WAT      O 5629   7.582   3.461   1.187
 1231WAT     H1 5630   7.594   3.416   1.113
 1231WAT     H2 5631   7.611   3.541   1.167
 1231WAT    EPW 5632   7.588   3.466   1.173
 1232WAT      O 5633   7.156   3.421   1.085
 1232WAT     H1 5634   7.078   3.382   1.078
 1232WAT     H2 5635   7.205   3.380   1.026
 1232WAT    EPW 5636   7.151   3.409   1.076
 1233WAT      O 5637   7.820   3.185   1.002
 1233WAT     H1 5638   7.838   3.104   0.975
 1233WAT     H2 5639   7.806   3.229   0.928
 1233WAT    EPW 5640   7.821   3.180   0.987
 1234WAT      O 5641   7.399   4.860   0.645
 1234WAT     H1 5642   7.428   4.853   0.727
 1234WAT     H2 5643   7.336   4.800   0.640
 1234WAT    EPW 5644   7.394   4.850   0.656
 1235WAT      O 5645   6.890   3.476   0.844
 1235WAT     H1 5646   6.890   3.534   0.909
 1235WAT     H2 5647   6.950   3.507   0.788
 1235WAT    EPW 5648   6.899   3.489   0.845
 1236WAT      O 5649   7.198   4.676   0.557
 1236WAT     H1 5650   7.128   4.625   0.570
 1236WAT     H2 5651   7.224   4.656   0.476
 1236WAT    EPW 5652   7.192   4.666   0.547
 1237WAT      O 5653   7.334   4.561   0.814
 1237WAT     H1 5654   7.418   4.568   0.791
 1237WAT     H2 5655   7.331   4.601   0.891
 1237WAT    EPW 5656   7.346   4.568   0.822
 1238WAT      O 5657   7.531   4.112   0.289
 1238WAT     H1 5658   7.548   4.091   0.371
 1238WAT     H2 5659   7.465   4.059   0.267
 1238WAT    EPW 5660   7.524   4.101   0.298
 1239WAT      O 5661   7.606   4.106   0.548
 1239WAT     H1 5662   7.611   4.191   0.568
 1239WAT     H2 5663   7.577   4.069   0.621
 1239WAT    EPW 5664   7.602   4.113   0.561
 1240WAT      O 5665   6.888   4.543   1.169
 1240WAT     H1 5666   6.963   4.578   1.194
 1240WAT     H2 5667   6.905   4.458   1.163
 1240WAT    EPW 5668   6.902   4.536   1.172
 1241WAT      O 5669   7.094   3.560   0.360
 1241WAT     H1 5670   7.178   3.582   0.355
 1241WAT     H2 5671   7.055   3.618   0.307
 1241WAT    EPW 5672   7.101   3.572   0.351
 1242WAT      O 5673   7.679   3.729   1.171
 1242WAT     H1 5674   7.631   3.787   1.216
 1242WAT     H2 5675   7.677   3.758   1.089
 1242WAT    EPW 5676   7.672   3.742   1.166
 1243WAT      O 5677   7.359   4.343   0.339
 1243WAT     H1 5678   7.406   4.372   0.406
 1243WAT     H2 5679   7.416   4.295   0.293
 1243WAT    EPW 5680   7.374   4.340   0.342
 1244WAT      O 5681   7.237   3.810   1.007
 1244WAT     H1 5682   7.183   3.759   1.054
 1244WAT     H2 5683   7.239   3.771   0.929
 1244WAT    EPW 5684   7.229   3.796   1.003
 1245WAT      O 5685   7.345   3.906   0.528
 1245WAT     H1 5686   7.348   3.838   0.473
 1245WAT     H2 5687   7.280   3.956   0.497
 1245WAT    EPW 5688   7.336   3.903   0.515
 1246WAT      O 5689   7.755   4.784   0.467
 1246WAT     H1 5690   7.727   4.720   0.415
 1246WAT     H2 5691   7.734   4.856   0.423
 1246WAT    EPW 5692   7.748   4.785   0.453
 1247WAT      O 5693   7.125   4.041   1.084
 1247WAT     H1 5694   7.121   4.092   1.013
 1247WAT     H2 5695   7.158   3.966   1.054
 1247WAT    EPW 5696   7.129   4.038   1.069
 1248WAT      O 5697   7.715   4.546   1.027
 1248WAT     H1 5698   7.750   4.529   1.105
 1248WAT     H2 5699   7.671   4.474   1.008
 1248WAT    EPW 5700   7.714   4.533   1.036
 1249WAT      O 5701   7.812   3.621   0.291
 1249WAT     H1 5702   7.860   3.691   0.312
 1249WAT     H2 5703   7.849   3.556   0.336
 1249WAT    EPW 5704   7.825   3.622   0.301
 1250WAT      O 5705   7.794   4.142   0.195
 1250WAT     H1 5706   7.709   4.122   0.203
 1250WAT     H2 5707   7.826   4.125   0.274
 1250WAT    EPW 5708   7.786   4.137   0.208
 1251WAT      O 5709   7.179   4.111   0.426
 1251WAT     H1 5710   7.251   4.160   0.423
 1251WAT     H2 5711   7.152   4.108   0.343
 1251WAT    EPW 5712   7.185   4.118   0.413
 1252WAT      O 5713   7.118   4.216   0.854
 1252WAT     H1 5714   7.076   4.165   0.798
 1252WAT     H2 5715   7.083   4.295   0.840
 1252WAT    EPW 5716   7.107   4.220   0.844
 1253WAT      O 5717   7.592   4.397   0.516
 1253WAT     H1 5718   7.562   4.457   0.573
 1253WAT     H2 5719   7.597   4.442   0.441
 1253WAT    EPW 5720   7.588   4.413   0.513
 1254WAT      O 5721   7.390   4.292   0.856
 1254WAT     H1 5722   7.309   4.263   0.872
 1254WAT     H2 5723   7.381   4.379   0.856
 1254WAT    EPW 5724   7.377   4.301   0.858
 1255WAT      O 5725   7.844   4.040   0.465
 1255WAT     H1 5726   7.891   4.077   0.528
 1255WAT     H2 5727   7.761   4.053   0.491
 1255WAT    EPW 5728   7.838   4.047   0.478
 1256WAT      O 5729   7.515   3.600   0.739
 1256WAT     H1 5730   7.531   3.526   0.782
 1256WAT     H2 5731   7.510   3.575   0.656
 1256WAT    EPW 5732   7.516   3.585   0.733
 1257WAT      O 5733   7.690   3.181   0.727
 1257WAT     H1 5734   7.760   3.213   0.687
 1257WAT     H2 5735   7.714   3.100   0.750
 1257WAT    EPW 5736   7.704   3.174   0.724
 1258WAT      O 5737   7.588   4.602   0.327
 1258WAT     H1 5738   7.526   4.660   0.308
 1258WAT     H2 5739   7.613   4.573   0.248
 1258WAT    EPW 5740   7.583   4.606   0.312
 1259WAT      O 5741   7.341   3.686   0.333
 1259WAT     H1 5742   7.385   3.676   0.259
 1259WAT     H2 5743   7.395   3.655   0.394
 1259WAT    EPW 5744   7.355   3.680   0.331
 1260WAT      O 5745   7.854   4.767   0.915
 1260WAT     H1 5746   7.901   4.707   0.873
 1260WAT     H2 5747   7.818   4.722   0.981
 1260WAT    EPW 5748   7.855   4.751   0.918
 1261WAT      O 5749   7.695   3.185   0.338
 1261WAT     H1 5750   7.613   3.170   0.362
 1261WAT     H2 5751   7.691   3.188   0.251
 1261WAT    EPW 5752   7.683   3.183   0.328
 1262WAT      O 5753   7.859   4.289   0.817
 1262WAT     H1 5754   7.780   4.282   0.852
 1262WAT     H2 5755   7.867   4.373   0.797
 1262WAT    EPW 5756   7.849   4.300   0.819
 1263WAT      O 5757   6.952   3.224   0.941
 1263WAT     H1 5758   6.938   3.304   0.908
 1263WAT     H2 5759   6.873   3.200   0.970
 1263WAT    EPW 5760   6.938   3.233   0.941
 1264WAT      O 5761   7.442   4.909   0.348
 1264WAT     H1 5762   7.444   4.915   0.435
 1264WAT     H2 5763   7.400   4.835   0.333
 1264WAT    EPW 5764   7.436   4.899   0.359
 1265WAT      O 5765   7.119   4.859   0.893
 1265WAT     H1 5766   7.053   4.802   0.902
 1265WAT     H2 5767   7.081   4.936   0.908
 1265WAT    EPW 5768   7.104   4.862   0.896
 1266WAT      O 5769   7.256   3.700   0.705
 1266WAT     H1 5770   7.293   3.762   0.657
 1266WAT     H2 5771   7.323   3.653   0.734
 1266WAT    EPW 5772   7.271   3.702   0.702
 1267WAT      O 5773   7.033   3.545   0.633
 1267WAT     H1 5774   7.041   3.528   0.548
 1267WAT     H2 5775   7.108   3.585   0.653
 1267WAT    EPW 5776   7.046   3.548   0.623
 1268WAT      O 5777   7.289   3.286   0.874
 1268WAT     H1 5778   7.281   3.201   0.895
 1268WAT     H2 5779   7.257   3.290   0.793
 1268WAT    EPW 5780   7.283   3.274   0.865
 1269WAT      O 5781   6.973   4.067   0.655
 1269WAT     H1 5782   7.005   4.089   0.577
 1269WAT     H2 5783   6.963   3.981   0.650
 1269WAT    EPW 5784   6.976   4.058   0.643
 1270WAT      O 5785   7.449   3.997   0.794
 1270WAT     H1 5786   7.410   4.074   0.801
 1270WAT     H2 5787   7.409   3.959   0.726
 1270WAT    EPW 5788   7.438   4.002   0.785
 1271WAT      O 5789   7.492   3.294   0.539
 1271WAT     H1 5790   7.406   3.303   0.547
 1271WAT     H2 5791   7.514   3.243   0.606
 1271WAT    EPW 5792   7.483   3.288   0.550
 1272WAT      O 5793   7.653   3.802   0.897
 1272WAT     H1 5794   7.621   3.744   0.840
 1272WAT     H2 5795   7.617   3.877   0.872
 1272WAT    EPW 5796   7.643   3.805   0.885
 1273WAT      O 5797   7.496   4.838   0.921
 1273WAT     H1 5798   7.501   4.850   1.008
 1273WAT     H2 5799   7.562   4.782   0.906
 1273WAT    EPW 5800   7.507   4.831   0.932
 1274WAT      O 5801   7.214   3.303   0.604
 1274WAT     H1 5802   7.180   3.226   0.580
 1274WAT     H2 5803   7.145   3.355   0.610
 1274WAT    EPW 5804   7.199   3.299   0.601
 1275WAT      O 5805   7.256   4.676   1.057
 1275WAT     H1 5806   7.315   4.719   1.105
 1275WAT     H2 5807   7.219   4.738   1.009
 1275WAT    EPW 5808   7.259   4.691   1.057
 1276WAT      O 5809   7.048   4.475   0.750
 1276WAT     H1 5810   6.991   4.516   0.801
 1276WAT     H2 5811   7.122   4.521   0.760
 1276WAT    EPW 5812   7.051   4.488   0.759
 1277WAT      O 5813   7.558   3.339   0.912
 1277WAT     H1 5814   7.581   3.281   0.851
 1277WAT     H2 5815   7.473   3.321   0.926
 1277WAT    EPW 5816   7.549   3.327   0.905
 1278WAT      O 5817   7.296   4.683   0.276
 1278WAT     H1 5818   7.288   4.602   0.244
 1278WAT     H2 5819   7.251   4.732   0.218
 1278WAT    EPW 5820   7.288   4.678   0.262
 1279WAT      O 5821   7.053   4.907   0.634
 1279WAT     H1 5822   7.102   4.902   0.705
 1279WAT     H2 5823   7.072   4.834   0.590
 1279WAT    EPW 5824   7.063   4.896   0.638
 1280WAT      O 5825   6.965   2.417   7.464
 1280WAT     H1 5826   6.920   2.429   7.538
 1280WAT     H2 5827   6.936   2.339   7.435
 1280WAT    EPW 5828   6.954   2.407   7.470
 1281WAT      O 5829   6.939   1.796   7.114
 1281WAT     H1 5830   6.861   1.812   7.078
 1281WAT     H2 5831   6.943   1.709   7.116
 1281WAT    EPW 5832   6.928   1.785   7.109
 1282WAT      O 5833   7.253   2.322   6.981
 1282WAT     H1 5834   7.214   2.285   6.913
 1282WAT     H2 5835   7.245   2.262   7.044
 1282WAT    EPW 5836   7.246   2.308   6.981
 1283WAT      O 5837   7.215   2.486   7.371
 1283WAT     H1 5838   7.276   2.469   7.432
 1283WAT     H2 5839   7.140   2.472   7.414
 1283WAT    EPW 5840   7.213   2.482   7.387
 1284WAT      O 5841   7.644   1.420   7.366
 1284WAT     H1 5842   7.637   1.488   7.312
 1284WAT     H2 5843   7.718   1.381   7.341
 1284WAT    EPW 5844   7.654   1.424   7.355
 1285WAT      O 5845   7.105   2.795   6.979
 1285WAT     H1 5846   7.151   2.804   6.906
 1285WAT     H2 5847   7.150   2.738   7.026
 1285WAT    EPW 5848   7.118   2.788   6.975
 1286WAT      O 5849   7.103   2.142   7.509
 1286WAT     H1 5850   7.057   2.103   7.447
 1286WAT     H2 5851   7.173   2.091   7.518
 1286WAT    EPW 5852   7.107   2.129   7.501
 1287WAT      O 5853   7.303   1.952   7.512
 1287WAT     H1 5854   7.385   1.934   7.536
 1287WAT     H2 5855   7.256   1.891   7.551
 1287WAT    EPW 5856   7.308   1.941   7.521
 1288WAT      O 5857   7.724   2.550   7.773
 1288WAT     H1 5858   7.758   2.471   7.776
 1288WAT     H2 5859   7.790   2.601   7.747
 1288WAT    EPW 5860   7.739   2.546   7.769
 1289WAT      O 5861   7.729   2.495   7.394
 1289WAT     H1 5862   7.762   2.431   7.442
 1289WAT     H2 5863   7.753   2.474   7.313
 1289WAT    EPW 5864   7.738   2.483   7.389
 1290WAT      O 5865   7.363   1.462   7.438
 1290WAT     H1 5866   7.333   1.512   7.373
 1290WAT     H2 5867   7.450   1.470   7.432
 1290WAT    EPW 5868   7.371   1.470   7.428
 1291WAT      O 5869   7.661   1.376   7.660
 1291WAT     H1 5870   7.668   1.462   7.673
 1291WAT     H2 5871   7.657   1.368   7.574
 1291WAT    EPW 5872   7.661   1.388   7.650
 1292WAT      O 5873   6.949   1.918   7.811
 1292WAT     H1 5874   6.923   2.002   7.803
 1292WAT     H2 5875   6.882   1.880   7.852
 1292WAT    EPW 5876   6.935   1.925   7.816
 1293WAT      O 5877   6.940   2.889   7.601
 1293WAT     H1 5878   6.881   2.945   7.569
 1293WAT     H2 5879   6.982   2.863   7.529
 1293WAT    EPW 5880   6.937   2.894   7.585
 1294WAT      O 5881   7.524   2.674   7.349
 1294WAT     H1 5882   7.466   2.646   7.408
 1294WAT     H2 5883   7.586   2.613   7.351
 1294WAT    EPW 5884   7.524   2.661   7.358
 1295WAT      O 5885   7.094   2.756   7.394
 1295WAT     H1 5886   7.160   2.699   7.395
 1295WAT     H2 5887   7.133   2.831   7.372
 1295WAT    EPW 5888   7.110   2.759   7.391
 1296WAT      O 5889   7.176   2.605   7.744
 1296WAT     H1 5890   7.218   2.570   7.676
 1296WAT     H2 5891   7.208   2.563   7.813
 1296WAT    EPW 5892   7.187   2.594   7.744
 1297WAT      O 5893   7.499   2.890   7.673
 1297WAT     H1 5894   7.584   2.901   7.654
 1297WAT     H2 5895   7.469   2.972   7.680
 1297WAT    EPW 5896   7.507   2.904   7.671
 1298WAT      O 5897   7.838   2.681   6.976
 1298WAT     H1 5898   7.820   2.736   7.041
 1298WAT     H2 5899   7.915   2.710   6.946
 1298WAT    EPW 5900   7.847   2.693   6.981
 1299WAT      O 5901   6.984   1.587   7.338
 1299WAT     H1 5902   6.973   1.501   7.341
 1299WAT     H2 5903   6.937   1.617   7.405
 1299WAT    EPW 5904   6.975   1.579   7.348
 1300WAT      O 5905   7.914   1.708   7.212
 1300WAT     H1 5906   7.864   1.642   7.187
 1300WAT     H2 5907   7.920   1.759   7.141
 1300WAT    EPW 5908   7.908   1.706   7.198
 1301WAT      O 5909   7.774   1.639   7.654
 1301WAT     H1 5910   7.782   1.696   7.588
 1301WAT     H2 5911   7.786   1.688   7.725
 1301WAT    EPW 5912   7.777   1.655   7.655
 1302WAT      O 5913   7.235   1.221   7.489
 1302WAT     H1 5914   7.289   1.290   7.488
 1302WAT     H2 5915   7.235   1.194   7.406
 1302WAT    EPW 5916   7.243   1.227   7.476
 1303WAT      O 5917   7.280   1.602   7.654
 1303WAT     H1 5918   7.307   1.559   7.583
 1303WAT     H2 5919   7.262   1.539   7.711
 1303WAT    EPW 5920   7.281   1.587   7.652
 1304WAT      O 5921   7.262   2.345   7.609
 1304WAT     H1 5922   7.347   2.337   7.592
 1304WAT     H2 5923   7.227   2.277   7.568
 1304WAT    EPW 5924   7.270   2.334   7.600
 1305WAT      O 5925   7.139   3.018   7.733
 1305WAT     H1 5926   7.072   2.968   7.708
 1305WAT     H2 5927   7.179   3.036   7.657
 1305WAT    EPW 5928   7.135   3.013   7.718
 1306WAT      O 5929   7.499   2.346   7.432
 1306WAT     H1 5930   7.570   2.395   7.441
 1306WAT     H2 5931   7.521   2.289   7.370
 1306WAT    EPW 5932   7.513   2.345   7.424
 1307WAT      O 5933   6.915   2.510   7.764
 1307WAT     H1 5934   6.848   2.559   7.792
 1307WAT     H2 5935   6.983   2.565   7.767
 1307WAT    EPW 5936   6.915   2.525   7.769
 1308WAT      O 5937   6.921   2.178   7.275
 1308WAT     H1 5938   6.903   2.095   7.290
 1308WAT     H2 5939   6.987   2.175   7.218
 1308WAT    EPW 5940   6.928   2.166   7.268
 1309WAT      O 5941   6.938   2.595   7.232
 1309WAT     H1 5942   6.994   2.652   7.269
 1309WAT     H2 5943   6.915   2.543   7.299
 1309WAT    EPW 5944   6.943   2.596   7.247
 1310WAT      O 5945   6.921   2.440   6.995
 1310WAT     H1 5946   6.997   2.397   7.001
 1310WAT     H2 5947   6.923   2.493   7.064
 1310WAT    EPW 5948   6.933   2.441   7.006
 1311WAT      O 5949   7.015   2.262   7.795
 1311WAT     H1 5950   7.059   2.249   7.721
 1311WAT     H2 5951   6.995   2.347   7.793
 1311WAT    EPW 5952   7.019   2.272   7.784
 1312WAT      O 5953   7.650   1.618   7.160
 1312WAT     H1 5954   7.650   1.607   7.074
 1312WAT     H2 5955   7.632   1.703   7.170
 1312WAT    EPW 5956   7.647   1.629   7.149
 1313WAT      O 5957   7.424   2.613   7.624
 1313WAT     H1 5958   7.436   2.698   7.642
 1313WAT     H2 5959   7.491   2.574   7.663
 1313WAT    EPW 5960   7.436   2.620   7.632
 1314WAT      O 5961   7.285   1.901   7.124
 1314WAT     H1 5962   7.273   1.857   7.198
 1314WAT     H2 5963   7.227   1.867   7.069
 1314WAT    EPW 5964   7.275   1.890   7.127
 1315WAT      O 5965   7.302   2.084   7.784
 1315WAT     H1 5966   7.224   2.079   7.745
 1315WAT     H2 5967   7.309   2.009   7.827
 1315WAT    EPW 5968   7.292   2.073   7.785
 1316WAT      O 5969   7.523   2.950   7.288
 1316WAT     H1 5970   7.508   2.873   7.326
 1316WAT     H2 5971   7.592   2.935   7.237
 1316WAT    EPW 5972   7.531   2.936   7.286
 1317WAT      O 5973   7.490   1.324   7.087
 1317WAT     H1 5974   7.500   1.314   7.173
 1317WAT     H2 5975   7.419   1.375   7.081
 1317WAT    EPW 5976   7.481   1.330   7.099
 1318WAT      O 5977   7.752   2.902   7.129
 1318WAT     H1 5978   7.815   2.918   7.188
 1318WAT     H2 5979   7.756   2.971   7.075
 1318WAT    EPW 5980   7.762   2.914   7.130
 1319WAT      O 5981   7.202   2.155   7.212
 1319WAT     H1 5982   7.235   2.077   7.189
 1319WAT     H2 5983   7.267   2.192   7.257
 1319WAT    EPW 5984   7.217   2.149   7.215
 1320WAT      O 5985   6.902   1.321   7.308
 1320WAT     H1 5986   6.915   1.250   7.259
 1320WAT     H2 5987   6.865   1.289   7.381
 1320WAT    EPW 5988   6.899   1.306   7.312
 1321WAT      O 5989   7.871   2.089   7.354
 1321WAT     H1 5990   7.877   2.154   7.412
 1321WAT     H2 5991   7.853   2.020   7.403
 1321WAT    EPW 5992   7.870   2.089   7.370
 1322WAT      O 5993   7.321   1.541   7.005
 1322WAT     H1 5994   7.270   1.546   6.935
 1322WAT     H2 5995   7.399   1.565   6.976
 1322WAT    EPW 5996   7.325   1.545   6.990
 1323WAT      O 5997   7.794   2.294   7.797
 1323WAT     H1 5998   7.709   2.275   7.805
 1323WAT     H2 5999   7.826   2.278   7.876
 1323WAT    EPW 6000   7.786   2.289   7.810
 1324WAT      O 6001   7.469   2.967   6.886
 1324WAT     H1 6002   7.513   2.897   6.915
 1324WAT     H2 6003   7.490   3.029   6.943
 1324WAT    EPW 6004   7.479   2.966   6.898
 1325WAT      O 6005   7.502   1.780   7.702
 1325WAT     H1 6006   7.586   1.761   7.712
 1325WAT     H2 6007   7.465   1.703   7.688
 1325WAT    EPW 6008   7.509   1.766   7.702
 1326WAT      O 6009   6.984   1.914   7.368
 1326WAT     H1 6010   7.033   1.885   7.434
 1326WAT     H2 6011   6.997   1.855   7.305
 1326WAT    EPW 6012   6.993   1.901   7.368
 1327WAT      O 6013   7.436   2.058   6.916
 1327WAT     H1 6014   7.375   2.017   6.964
 1327WAT     H2 6015   7.398   2.069   6.839
 1327WAT    EPW 6016   7.421   2.053   6.912
 1328WAT      O 6017   7.582   1.904   7.187
 1328WAT     H1 6018   7.609   1.986   7.194
 1328WAT     H2 6019   7.495   1.911   7.178
 1328WAT    EPW 6020   7.573   1.917   7.187
 1329WAT      O 6021   6.930   1.501   7.841
 1329WAT     H1 6022   6.934   1.535   7.761
 1329WAT     H2 6023   7.005   1.524   7.878
 1329WAT    EPW 6024   6.941   1.509   7.835
 1330WAT      O 6025   7.770   2.931   7.590
 1330WAT     H1 6026   7.825   2.999   7.596
 1330WAT     H2 6027   7.735   2.939   7.511
 1330WAT    EPW 6028   7.773   2.943   7.579
 1331WAT      O 6029   7.748   2.232   6.921
 1331WAT     H1 6030   7.667   2.214   6.892
 1331WAT     H2 6031   7.744   2.317   6.940
 1331WAT    EPW 6032   7.735   2.242   6.919
 1332WAT      O 6033   7.258   1.651   7.266
 1332WAT     H1 6034   7.271   1.618   7.187
 1332WAT     H2 6035   7.177   1.626   7.286
 1332WAT    EPW 6036   7.248   1.643   7.258
 1333WAT      O 6037   7.119   1.813   6.920
 1333WAT     H1 6038   7.052   1.815   6.975
 1333WAT     H2 6039   7.128   1.728   6.901
 1333WAT    EPW 6040   7.110   1.801   6.925
 1334WAT      O 6041   7.518   2.684   7.031
 1334WAT     H1 6042   7.562   2.692   7.106
 1334WAT     H2 6043   7.437   2.662   7.057
 1334WAT    EPW 6044   7.512   2.682   7.046
 1335WAT      O 6045   7.250   2.591   7.091
 1335WAT     H1 6046   7.226   2.560   7.169
 1335WAT     H2 6047   7.247   2.520   7.040
 1335WAT    EPW 6048   7.246   2.576   7.095
 1336WAT      O 6049   7.532   2.415   6.965
 1336WAT     H1 6050   7.451   2.388   6.979
 1336WAT     H2 6051   7.530   2.500   6.984
 1336WAT    EPW 6052   7.520   2.424   6.970
 1337WAT      O 6053   7.733   1.279   6.962
 1337WAT     H1 6054   7.740   1.304   6.879
 1337WAT     H2 6055   7.658   1.317   6.988
 1337WAT    EPW 6056   7.723   1.289   6.953
 1338WAT      O 6057   7.080   1.786   7.602
 1338WAT     H1 6058   7.043   1.816   7.675
 1338WAT     H2 6059   7.133   1.723   7.630
 1338WAT    EPW 6060   7.082   1.781   7.617
 1339WAT      O 6061   7.227   2.954   7.230
 1339WAT     H1 6062   7.213   2.969   7.146
 1339WAT     H2 6063   7.314   2.962   7.238
 1339WAT    EPW 6064   7.238   2.957   7.219
 1340WAT      O 6065   7.644   2.193   7.203
 1340WAT     H1 6066   7.654   2.207   7.118
 1340WAT     H2 6067   7.726   2.187   7.233
 1340WAT    EPW 6068   7.657   2.194   7.195
 1341WAT      O 6069   7.296   2.835   7.878
 1341WAT     H1 6070   7.288   2.754   7.846
 1341WAT     H2 6071   7.251   2.884   7.821
 1341WAT    EPW 6072   7.288   2.830   7.865
 1342WAT      O 6073   6.965   2.417   5.563
 1342WAT     H1 6074   6.920   2.429   5.637
 1342WAT     H2 6075   6.936   2.339   5.534
 1342WAT    EPW 6076   6.954   2.407   5.570
 1343WAT      O 6077   6.939   1.796   5.214
 1343WAT     H1 6078   6.861   1.812   5.178
 1343WAT     H2 6079   6.943   1.709   5.216
 1343WAT    EPW 6080   6.928   1.785   5.209
 1344WAT      O 6081   7.253   2.322   5.081
 1344WAT     H1 6082   7.214   2.285   5.012
 1344WAT     H2 6083   7.245   2.262   5.144
 1344WAT    EPW 6084   7.246   2.308   5.080
 1345WAT      O 6085   7.215   2.486   5.471
 1345WAT     H1 6086   7.276   2.469   5.531
 1345WAT     H2 6087   7.140   2.472   5.513
 1345WAT    EPW 6088   7.213   2.482   5.486
 1346WAT      O 6089   7.644   1.420   5.466
 1346WAT     H1 6090   7.637   1.488   5.411
 1346WAT     H2 6091   7.718   1.381   5.441
 1346WAT    EPW 6092   7.654   1.424   5.454
 1347WAT      O 6093   7.105   2.795   5.078
 1347WAT     H1 6094   7.151   2.804   5.005
 1347WAT     H2 6095   7.150   2.738   5.125
 1347WAT    EPW 6096   7.118   2.788   5.075
 1348WAT      O 6097   6.959   2.690   6.188
 1348WAT     H1 6098   6.971   2.662   6.270
 1348WAT     H2 6099   6.898   2.636   6.157
 1348WAT    EPW 6100   6.951   2.678   6.196
 1349WAT      O 6101   7.616   2.443   6.695
 1349WAT     H1 6102   7.592   2.442   6.779
 1349WAT     H2 6103   7.541   2.428   6.653
 1349WAT    EPW 6104   7.601   2.440   6.701
 1350WAT      O 6105   7.103   2.142   5.609
 1350WAT     H1 6106   7.057   2.103   5.546
 1350WAT     H2 6107   7.173   2.091   5.618
 1350WAT    EPW 6108   7.107   2.129   5.601
 1351WAT      O 6109   7.554   1.703   6.143
 1351WAT     H1 6110   7.622   1.705   6.088
 1351WAT     H2 6111   7.549   1.620   6.168
 1351WAT    EPW 6112   7.563   1.691   6.139
 1352WAT      O 6113   7.614   2.762   6.421
 1352WAT     H1 6114   7.628   2.838   6.381
 1352WAT     H2 6115   7.693   2.725   6.424
 1352WAT    EPW 6116   7.628   2.768   6.416
 1353WAT      O 6117   7.303   1.952   5.611
 1353WAT     H1 6118   7.385   1.934   5.635
 1353WAT     H2 6119   7.256   1.891   5.650
 1353WAT    EPW 6120   7.308   1.941   5.620
 1354WAT      O 6121   7.724   2.550   5.872
 1354WAT     H1 6122   7.758   2.471   5.875
 1354WAT     H2 6123   7.790   2.601   5.846
 1354WAT    EPW 6124   7.739   2.546   5.869
 1355WAT      O 6125   7.729   2.495   5.493
 1355WAT     H1 6126   7.762   2.431   5.542
 1355WAT     H2 6127   7.753   2.474   5.412
 1355WAT    EPW 6128   7.738   2.483   5.488
 1356WAT      O 6129   7.363   1.462   5.537
 1356WAT     H1 6130   7.333   1.512   5.472
 1356WAT     H2 6131   7.450   1.470   5.532
 1356WAT    EPW 6132   7.371   1.470   5.527
 1357WAT      O 6133   7.661   1.376   5.760
 1357WAT     H1 6134   7.668   1.462   5.773
 1357WAT     H2 6135   7.657   1.368   5.673
 1357WAT    EPW 6136   7.661   1.388   5.749
 1358WAT      O 6137   6.949   1.918   5.910
 1358WAT     H1 6138   6.923   2.002   5.902
 1358WAT     H2 6139   6.882   1.880   5.952
 1358WAT    EPW 6140   6.935   1.925   5.915
 1359WAT      O 6141   6.940   2.889   5.700
 1359WAT     H1 6142   6.881   2.945   5.669
 1359WAT     H2 6143   6.982   2.863   5.629
 1359WAT    EPW 6144   6.937   2.894   5.685
 1360WAT      O 6145   7.524   2.674   5.448
 1360WAT     H1 6146   7.466   2.646   5.507
 1360WAT     H2 6147   7.586   2.613   5.450
 1360WAT    EPW 6148   7.524   2.661   5.457
 1361WAT      O 6149   7.252   1.400   5.959
 1361WAT     H1 6150   7.200   1.337   5.928
 1361WAT     H2 6151   7.311   1.356   6.006
 1361WAT    EPW 6152   7.253   1.384   5.961
 1362WAT      O 6153   7.582   1.613   6.889
 1362WAT     H1 6154   7.594   1.568   6.815
 1362WAT     H2 6155   7.611   1.693   6.868
 1362WAT    EPW 6156   7.588   1.619   6.875
 1363WAT      O 6157   7.094   2.756   5.493
 1363WAT     H1 6158   7.160   2.699   5.494
 1363WAT     H2 6159   7.133   2.831   5.471
 1363WAT    EPW 6160   7.110   2.759   5.490
 1364WAT      O 6161   7.156   1.573   6.787
 1364WAT     H1 6162   7.078   1.534   6.780
 1364WAT     H2 6163   7.205   1.532   6.728
 1364WAT    EPW 6164   7.151   1.561   6.777
 1365WAT      O 6165   7.176   2.605   5.843
 1365WAT     H1 6166   7.218   2.570   5.776
 1365WAT     H2 6167   7.208   2.563   5.912
 1365WAT    EPW 6168   7.187   2.594   5.843
 1366WAT      O 6169   7.499   2.890   5.773
 1366WAT     H1 6170   7.584   2.901   5.753
 1366WAT     H2 6171   7.469   2.972   5.779
 1366WAT    EPW 6172   7.507   2.904   5.771
 1367WAT      O 6173   7.820   1.337   6.704
 1367WAT     H1 6174   7.838   1.257   6.676
 1367WAT     H2 6175   7.806   1.382   6.630
 1367WAT    EPW 6176   7.821   1.332   6.689
 1368WAT      O 6177   7.399   3.012   6.347
 1368WAT     H1 6178   7.428   3.006   6.429
 1368WAT     H2 6179   7.336   2.952   6.342
 1368WAT    EPW 6180   7.394   3.002   6.358
 1369WAT      O 6181   6.890   1.628   6.546
 1369WAT     H1 6182   6.890   1.687   6.610
 1369WAT     H2 6183   6.950   1.659   6.490
 1369WAT    EPW 6184   6.899   1.641   6.547
 1370WAT      O 6185   7.838   2.681   5.075
 1370WAT     H1 6186   7.820   2.736   5.141
 1370WAT     H2 6187   7.915   2.710   5.045
 1370WAT    EPW 6188   7.847   2.693   5.080
 1371WAT      O 6189   6.984   1.587   5.437
 1371WAT     H1 6190   6.973   1.501   5.440
 1371WAT     H2 6191   6.937   1.617   5.504
 1371WAT    EPW 6192   6.975   1.579   5.448
 1372WAT      O 6193   7.198   2.828   6.259
 1372WAT     H1 6194   7.128   2.778   6.271
 1372WAT     H2 6195   7.224   2.808   6.178
 1372WAT    EPW 6196   7.192   2.818   6.249
 1373WAT      O 6197   7.914   1.708   5.312
 1373WAT     H1 6198   7.864   1.642   5.286
 1373WAT     H2 6199   7.920   1.759   5.241
 1373WAT    EPW 6200   7.908   1.706   5.298
 1374WAT      O 6201   7.774   1.639   5.753
 1374WAT     H1 6202   7.782   1.696   5.687
 1374WAT     H2 6203   7.786   1.688   5.824
 1374WAT    EPW 6204   7.777   1.655   5.754
 1375WAT      O 6205   7.334   2.714   6.515
 1375WAT     H1 6206   7.418   2.720   6.493
 1375WAT     H2 6207   7.331   2.753   6.593
 1375WAT    EPW 6208   7.346   2.720   6.524
 1376WAT      O 6209   7.235   1.221   5.588
 1376WAT     H1 6210   7.289   1.290   5.587
 1376WAT     H2 6211   7.235   1.194   5.505
 1376WAT    EPW 6212   7.243   1.227   5.575
 1377WAT      O 6213   7.531   2.265   5.990
 1377WAT     H1 6214   7.548   2.244   6.073
 1377WAT     H2 6215   7.465   2.211   5.969
 1377WAT    EPW 6216   7.524   2.254   5.999
 1378WAT      O 6217   7.606   2.258   6.249
 1378WAT     H1 6218   7.611   2.343   6.270
 1378WAT     H2 6219   7.577   2.221   6.323
 1378WAT    EPW 6220   7.602   2.265   6.263
 1379WAT      O 6221   6.888   2.696   6.870
 1379WAT     H1 6222   6.963   2.730   6.896
 1379WAT     H2 6223   6.905   2.610   6.865
 1379WAT    EPW 6224   6.902   2.688   6.873
 1380WAT      O 6225   7.280   1.602   5.753
 1380WAT     H1 6226   7.307   1.559   5.682
 1380WAT     H2 6227   7.262   1.539   5.810
 1380WAT    EPW 6228   7.281   1.587   5.751
 1381WAT      O 6229   7.262   2.345   5.708
 1381WAT     H1 6230   7.347   2.337   5.691
 1381WAT     H2 6231   7.227   2.277   5.667
 1381WAT    EPW 6232   7.270   2.334   5.699
 1382WAT      O 6233   7.139   3.018   5.832
 1382WAT     H1 6234   7.072   2.968   5.807
 1382WAT     H2 6235   7.179   3.036   5.757
 1382WAT    EPW 6236   7.135   3.013   5.817
 1383WAT      O 6237   7.094   1.713   6.061
 1383WAT     H1 6238   7.178   1.735   6.057
 1383WAT     H2 6239   7.055   1.770   6.008
 1383WAT    EPW 6240   7.101   1.724   6.053
 1384WAT      O 6241   7.499   2.346   5.532
 1384WAT     H1 6242   7.570   2.395   5.541
 1384WAT     H2 6243   7.521   2.289   5.469
 1384WAT    EPW 6244   7.513   2.345   5.524
 1385WAT      O 6245   6.915   2.510   5.864
 1385WAT     H1 6246   6.848   2.559   5.891
 1385WAT     H2 6247   6.983   2.565   5.867
 1385WAT    EPW 6248   6.915   2.525   5.868
 1386WAT      O 6249   7.679   1.881   6.873
 1386WAT     H1 6250   7.631   1.939   6.917
 1386WAT     H2 6251   7.677   1.911   6.791
 1386WAT    EPW 6252   7.672   1.894   6.868
 1387WAT      O 6253   6.921   2.178   5.374
 1387WAT     H1 6254   6.903   2.095   5.389
 1387WAT     H2 6255   6.987   2.175   5.317
 1387WAT    EPW 6256   6.928   2.166   5.368
 1388WAT      O 6257   6.938   2.595   5.331
 1388WAT     H1 6258   6.994   2.652   5.368
 1388WAT     H2 6259   6.915   2.543   5.398
 1388WAT    EPW 6260   6.943   2.596   5.347
 1389WAT      O 6261   7.359   2.495   6.040
 1389WAT     H1 6262   7.406   2.524   6.108
 1389WAT     H2 6263   7.416   2.447   5.995
 1389WAT    EPW 6264   7.374   2.492   6.044
 1390WAT      O 6265   6.921   2.440   5.094
 1390WAT     H1 6266   6.997   2.397   5.100
 1390WAT     H2 6267   6.923   2.493   5.163
 1390WAT    EPW 6268   6.933   2.441   5.105
 1391WAT      O 6269   7.015   2.262   5.895
 1391WAT     H1 6270   7.059   2.249   5.820
 1391WAT     H2 6271   6.995   2.347   5.892
 1391WAT    EPW 6272   7.019   2.272   5.883
 1392WAT      O 6273   7.650   1.618   5.260
 1392WAT     H1 6274   7.650   1.607   5.173
 1392WAT     H2 6275   7.632   1.703   5.269
 1392WAT    EPW 6276   7.647   1.629   5.248
 1393WAT      O 6277   7.424   2.613   5.723
 1393WAT     H1 6278   7.436   2.698   5.742
 1393WAT     H2 6279   7.491   2.574   5.763
 1393WAT    EPW 6280   7.436   2.620   5.732
 1394WAT      O 6281   7.237   1.962   6.709
 1394WAT     H1 6282   7.183   1.911   6.756
 1394WAT     H2 6283   7.239   1.923   6.631
 1394WAT    EPW 6284   7.229   1.948   6.705
 1395WAT      O 6285   7.285   1.901   5.223
 1395WAT     H1 6286   7.273   1.857   5.297
 1395WAT     H2 6287   7.227   1.867   5.168
 1395WAT    EPW 6288   7.275   1.890   5.226
 1396WAT      O 6289   7.302   2.084   5.883
 1396WAT     H1 6290   7.224   2.079   5.845
 1396WAT     H2 6291   7.309   2.009   5.927
 1396WAT    EPW 6292   7.292   2.073   5.884
 1397WAT      O 6293   7.345   2.058   6.230
 1397WAT     H1 6294   7.348   1.991   6.175
 1397WAT     H2 6295   7.280   2.108   6.199
 1397WAT    EPW 6296   7.336   2.055   6.217
 1398WAT      O 6297   7.755   2.936   6.169
 1398WAT     H1 6298   7.727   2.872   6.117
 1398WAT     H2 6299   7.734   3.008   6.125
 1398WAT    EPW 6300   7.748   2.937   6.155
 1399WAT      O 6301   7.125   2.194   6.786
 1399WAT     H1 6302   7.121   2.244   6.714
 1399WAT     H2 6303   7.158   2.118   6.756
 1399WAT    EPW 6304   7.129   2.190   6.771
 1400WAT      O 6305   7.715   2.699   6.729
 1400WAT     H1 6306   7.750   2.681   6.807
 1400WAT     H2 6307   7.671   2.626   6.709
 1400WAT    EPW 6308   7.714   2.685   6.738
 1401WAT      O 6309   7.812   1.773   5.993
 1401WAT     H1 6310   7.860   1.843   6.014
 1401WAT     H2 6311   7.849   1.709   6.038
 1401WAT    EPW 6312   7.825   1.774   6.003
 1402WAT      O 6313   7.523   2.950   5.388
 1402WAT     H1 6314   7.508   2.873   5.425
 1402WAT     H2 6315   7.592   2.935   5.336
 1402WAT    EPW 6316   7.531   2.936   5.386
 1403WAT      O 6317   7.490   1.324   5.187
 1403WAT     H1 6318   7.500   1.314   5.273
 1403WAT     H2 6319   7.419   1.375   5.180
 1403WAT    EPW 6320   7.481   1.330   5.198
 1404WAT      O 6321   7.752   2.902   5.228
 1404WAT     H1 6322   7.815   2.918   5.287
 1404WAT     H2 6323   7.756   2.971   5.175
 1404WAT    EPW 6324   7.762   2.914   5.229
 1405WAT      O 6325   7.202   2.155   5.311
 1405WAT     H1 6326   7.235   2.077   5.289
 1405WAT     H2 6327   7.267   2.192   5.356
 1405WAT    EPW 6328   7.217   2.149   5.314
 1406WAT      O 6329   6.902   1.321   5.408
 1406WAT     H1 6330   6.915   1.250   5.358
 1406WAT     H2 6331   6.865   1.289   5.480
 1406WAT    EPW 6332   6.899   1.306   5.411
 1407WAT      O 6333   7.871   2.089   5.453
 1407WAT     H1 6334   7.877   2.154   5.511
 1407WAT     H2 6335   7.853   2.020   5.502
 1407WAT    EPW 6336   7.870   2.089   5.469
 1408WAT      O 6337   7.321   1.541   5.105
 1408WAT     H1 6338   7.270   1.546   5.034
 1408WAT     H2 6339   7.399   1.565   5.075
 1408WAT    EPW 6340   7.325   1.545   5.090
 1409WAT      O 6341   7.794   2.294   5.896
 1409WAT     H1 6342   7.709   2.275   5.905
 1409WAT     H2 6343   7.826   2.278   5.976
 1409WAT    EPW 6344   7.786   2.289   5.909
 1410WAT      O 6345   7.469   2.967   4.985
 1410WAT     H1 6346   7.513   2.897   5.014
 1410WAT     H2 6347   7.490   3.029   5.042
 1410WAT    EPW 6348   7.479   2.966   4.998
 1411WAT      O 6349   7.179   2.263   6.128
 1411WAT     H1 6350   7.251   2.312   6.124
 1411WAT     H2 6351   7.152   2.260   6.045
 1411WAT    EPW 6352   7.185   2.270   6.115
 1412WAT      O 6353   7.502   1.780   5.802
 1412WAT     H1 6354   7.586   1.761   5.811
 1412WAT     H2 6355   7.465   1.703   5.788
 1412WAT    EPW 6356   7.509   1.766   5.801
 1413WAT      O 6357   6.984   1.914   5.467
 1413WAT     H1 6358   7.033   1.885   5.533
 1413WAT     H2 6359   6.997   1.855   5.404
 1413WAT    EPW 6360   6.993   1.901   5.468
 1414WAT      O 6361   7.436   2.058   5.016
 1414WAT     H1 6362   7.375   2.017   5.063
 1414WAT     H2 6363   7.398   2.069   4.938
 1414WAT    EPW 6364   7.421   2.053   5.011
 1415WAT      O 6365   7.118   2.369   6.556
 1415WAT     H1 6366   7.076   2.317   6.500
 1415WAT     H2 6367   7.083   2.447   6.542
 1415WAT    EPW 6368   7.107   2.373   6.545
 1416WAT      O 6369   7.582   1.904   5.287
 1416WAT     H1 6370   7.609   1.986   5.293
 1416WAT     H2 6371   7.495   1.911   5.277
 1416WAT    EPW 6372   7.573   1.917   5.286
 1417WAT      O 6373   6.930   1.501   5.940
 1417WAT     H1 6374   6.934   1.535   5.860
 1417WAT     H2 6375   7.005   1.524   5.977
 1417WAT    EPW 6376   6.941   1.509   5.934
 1418WAT      O 6377   7.592   2.550   6.218
 1418WAT     H1 6378   7.562   2.609   6.274
 1418WAT     H2 6379   7.597   2.594   6.143
 1418WAT    EPW 6380   7.588   2.565   6.215
 1419WAT      O 6381   7.390   2.445   6.557
 1419WAT     H1 6382   7.309   2.416   6.574
 1419WAT     H2 6383   7.381   2.531   6.558
 1419WAT    EPW 6384   7.377   2.453   6.560
 1420WAT      O 6385   7.844   2.192   6.167
 1420WAT     H1 6386   7.891   2.229   6.230
 1420WAT     H2 6387   7.761   2.205   6.193
 1420WAT    EPW 6388   7.838   2.199   6.180
 1421WAT      O 6389   7.515   1.752   6.441
 1421WAT     H1 6390   7.531   1.678   6.484
 1421WAT     H2 6391   7.510   1.727   6.357
 1421WAT    EPW 6392   7.516   1.738   6.435
 1422WAT      O 6393   7.770   2.931   5.690
 1422WAT     H1 6394   7.825   2.999   5.695
 1422WAT     H2 6395   7.735   2.939   5.610
 1422WAT    EPW 6396   7.773   2.943   5.679
 1423WAT      O 6397   7.690   1.333   6.429
 1423WAT     H1 6398   7.760   1.365   6.389
 1423WAT     H2 6399   7.714   1.252   6.452
 1423WAT    EPW 6400   7.704   1.326   6.426
 1424WAT      O 6401   7.588   2.754   6.028
 1424WAT     H1 6402   7.526   2.812   6.010
 1424WAT     H2 6403   7.613   2.725   5.950
 1424WAT    EPW 6404   7.583   2.758   6.014
 1425WAT      O 6405   7.748   2.232   5.020
 1425WAT     H1 6406   7.667   2.214   4.991
 1425WAT     H2 6407   7.744   2.317   5.039
 1425WAT    EPW 6408   7.735   2.242   5.019
 1426WAT      O 6409   7.341   1.838   6.035
 1426WAT     H1 6410   7.385   1.828   5.960
 1426WAT     H2 6411   7.395   1.807   6.095
 1426WAT    EPW 6412   7.355   1.832   6.033
 1427WAT      O 6413   7.854   2.919   6.616
 1427WAT     H1 6414   7.901   2.859   6.575
 1427WAT     H2 6415   7.818   2.875   6.683
 1427WAT    EPW 6416   7.855   2.904   6.620
 1428WAT      O 6417   7.695   1.337   6.040
 1428WAT     H1 6418   7.613   1.322   6.063
 1428WAT     H2 6419   7.691   1.340   5.953
 1428WAT    EPW 6420   7.683   1.335   6.030
 1429WAT      O 6421   7.859   2.441   6.518
 1429WAT     H1 6422   7.780   2.434   6.554
 1429WAT     H2 6423   7.867   2.526   6.499
 1429WAT    EPW 6424   7.849   2.452   6.521
 1430WAT      O 6425   6.952   1.377   6.643
 1430WAT     H1 6426   6.938   1.456   6.610
 1430WAT     H2 6427   6.873   1.352   6.672
 1430WAT    EPW 6428   6.938   1.385   6.643
 1431WAT      O 6429   7.442   3.062   6.050
 1431WAT     H1 6430   7.444   3.067   6.137
 1431WAT     H2 6431   7.400   2.987   6.035
 1431WAT    EPW 6432   7.436   3.051   6.061
 1432WAT      O 6433   7.258   1.651   5.366
 1432WAT     H1 6434   7.271   1.618   5.286
 1432WAT     H2 6435   7.177   1.626   5.386
 1432WAT    EPW 6436   7.248   1.643   5.357
 1433WAT      O 6437   7.119   3.011   6.594
 1433WAT     H1 6438   7.053   2.954   6.604
 1433WAT     H2 6439   7.081   3.089   6.609
 1433WAT    EPW 6440   7.104   3.014   6.598
 1434WAT      O 6441   7.256   1.852   6.407
 1434WAT     H1 6442   7.293   1.914   6.359
 1434WAT     H2 6443   7.323   1.805   6.436
 1434WAT    EPW 6444   7.271   1.854   6.404
 1435WAT      O 6445   7.033   1.697   6.335
 1435WAT     H1 6446   7.041   1.680   6.249
 1435WAT     H2 6447   7.108   1.738   6.354
 1435WAT    EPW 6448   7.046   1.700   6.325
 1436WAT      O 6449   7.289   1.438   6.576
 1436WAT     H1 6450   7.281   1.354   6.596
 1436WAT     H2 6451   7.257   1.442   6.495
 1436WAT    EPW 6452   7.283   1.426   6.567
 1437WAT      O 6453   6.973   2.220   6.357
 1437WAT     H1 6454   7.005   2.241   6.279
 1437WAT     H2 6455   6.963   2.133   6.352
 1437WAT    EPW 6456   6.976   2.210   6.345
 1438WAT      O 6457   7.119   1.813   5.019
 1438WAT     H1 6458   7.052   1.815   5.075
 1438WAT     H2 6459   7.128   1.728   5.001
 1438WAT    EPW 6460   7.110   1.801   5.024
 1439WAT      O 6461   7.518   2.684   5.130
 1439WAT     H1 6462   7.562   2.692   5.205
 1439WAT     H2 6463   7.437   2.662   5.156
 1439WAT    EPW 6464   7.512   2.682   5.145
 1440WAT      O 6465   7.449   2.149   6.496
 1440WAT     H1 6466   7.410   2.226   6.503
 1440WAT     H2 6467   7.409   2.111   6.428
 1440WAT    EPW 6468   7.438   2.155   6.487
 1441WAT      O 6469   7.250   2.591   5.190
 1441WAT     H1 6470   7.226   2.560   5.268
 1441WAT     H2 6471   7.247   2.520   5.139
 1441WAT    EPW 6472   7.246   2.576   5.194
 1442WAT      O 6473   7.532   2.415   5.065
 1442WAT     H1 6474   7.451   2.388   5.079
 1442WAT     H2 6475   7.530   2.500   5.083
 1442WAT    EPW 6476   7.520   2.424   5.070
 1443WAT      O 6477   7.492   1.446   6.241
 1443WAT     H1 6478   7.406   1.455   6.249
 1443WAT     H2 6479   7.514   1.395   6.308
 1443WAT    EPW 6480   7.483   1.440   6.252
 1444WAT      O 6481   7.653   1.954   6.598
 1444WAT     H1 6482   7.621   1.897   6.541
 1444WAT     H2 6483   7.617   2.030   6.574
 1444WAT    EPW 6484   7.643   1.957   6.586
 1445WAT      O 6485   7.733   1.279   5.061
 1445WAT     H1 6486   7.740   1.304   4.978
 1445WAT     H2 6487   7.658   1.317   5.087
 1445WAT    EPW 6488   7.723   1.289   5.053
 1446WAT      O 6489   7.496   2.990   6.623
 1446WAT     H1 6490   7.501   3.002   6.710
 1446WAT     H2 6491   7.562   2.934   6.608
 1446WAT    EPW 6492   7.507   2.983   6.634
 1447WAT      O 6493   7.214   1.455   6.305
 1447WAT     H1 6494   7.180   1.378   6.282
 1447WAT     H2 6495   7.145   1.507   6.312
 1447WAT    EPW 6496   7.199   1.451   6.303
 1448WAT      O 6497   7.256   2.828   6.759
 1448WAT     H1 6498   7.315   2.871   6.806
 1448WAT     H2 6499   7.219   2.890   6.710
 1448WAT    EPW 6500   7.259   2.844   6.759
 1449WAT      O 6501   7.080   1.786   5.701
 1449WAT     H1 6502   7.043   1.816   5.774
 1449WAT     H2 6503   7.133   1.723   5.729
 1449WAT    EPW 6504   7.082   1.781   5.716
 1450WAT      O 6505   7.048   2.627   6.452
 1450WAT     H1 6506   6.991   2.669   6.503
 1450WAT     H2 6507   7.122   2.673   6.462
 1450WAT    EPW 6508   7.051   2.640   6.461
 1451WAT      O 6509   7.227   2.954   5.330
 1451WAT     H1 6510   7.213   2.969   5.245
 1451WAT     H2 6511   7.314   2.962   5.337
 1451WAT    EPW 6512   7.238   2.957   5.318
 1452WAT      O 6513   7.644   2.193   5.302
 1452WAT     H1 6514   7.654   2.207   5.217
 1452WAT     H2 6515   7.726   2.187   5.332
 1452WAT    EPW 6516   7.657   2.194   5.294
 1453WAT      O 6517   7.558   1.491   6.614
 1453WAT     H1 6518   7.581   1.433   6.553
 1453WAT     H2 6519   7.473   1.473   6.628
 1453WAT    EPW 6520   7.549   1.480   6.607
 1454WAT      O 6521   7.296   2.835   5.977
 1454WAT     H1 6522   7.288   2.754   5.946
 1454WAT     H2 6523   7.251   2.884   5.920
 1454WAT    EPW 6524   7.288   2.830   5.964
 1455WAT      O 6525   7.053   3.060   6.335
 1455WAT     H1 6526   7.102   3.054   6.407
 1455WAT     H2 6527   7.072   2.986   6.292
 1455WAT    EPW 6528   7.063   3.048   6.340
 1456WAT      O 6529   6.965   2.417   3.662
 1456WAT     H1 6530   6.920   2.429   3.737
 1456WAT     H2 6531   6.936   2.339   3.634
 1456WAT    EPW 6532   6.954   2.407   3.669
 1457WAT      O 6533   6.939   1.796   3.313
 1457WAT     H1 6534   6.861   1.812   3.277
 1457WAT     H2 6535   6.943   1.709   3.315
 1457WAT    EPW 6536   6.928   1.785   3.308
 1458WAT      O 6537   7.253   2.322   3.180
 1458WAT     H1 6538   7.214   2.285   3.112
 1458WAT     H2 6539   7.245   2.262   3.243
 1458WAT    EPW 6540   7.246   2.308   3.179
 1459WAT      O 6541   7.215   2.486   3.570
 1459WAT     H1 6542   7.276   2.469   3.630
 1459WAT     H2 6543   7.140   2.472   3.612
 1459WAT    EPW 6544   7.213   2.482   3.585
 1460WAT      O 6545   7.644   1.420   3.565
 1460WAT     H1 6546   7.637   1.488   3.510
 1460WAT     H2 6547   7.718   1.381   3.540
 1460WAT    EPW 6548   7.654   1.424   3.553
 1461WAT      O 6549   7.105   2.795   3.178
 1461WAT     H1 6550   7.151   2.804   3.105
 1461WAT     H2 6551   7.150   2.738   3.225
 1461WAT    EPW 6552   7.118   2.788   3.174
 1462WAT      O 6553   6.959   2.690   4.288
 1462WAT     H1 6554   6.971   2.662   4.369
 1462WAT     H2 6555   6.898   2.636   4.257
 1462WAT    EPW 6556   6.951   2.678   4.295
 1463WAT      O 6557   7.616   2.443   4.794
 1463WAT     H1 6558   7.592   2.442   4.878
 1463WAT     H2 6559   7.541   2.428   4.752
 1463WAT    EPW 6560   7.601   2.440   4.801
 1464WAT      O 6561   7.103   2.142   3.708
 1464WAT     H1 6562   7.057   2.103   3.645
 1464WAT     H2 6563   7.173   2.091   3.717
 1464WAT    EPW 6564   7.107   2.129   3.700
 1465WAT      O 6565   7.554   1.703   4.243
 1465WAT     H1 6566   7.622   1.705   4.188
 1465WAT     H2 6567   7.549   1.620   4.267
 1465WAT    EPW 6568   7.563   1.691   4.238
 1466WAT      O 6569   7.614   2.762   4.521
 1466WAT     H1 6570   7.628   2.838   4.480
 1466WAT     H2 6571   7.693   2.725   4.523
 1466WAT    EPW 6572   7.628   2.768   4.515
 1467WAT      O 6573   7.303   1.952   3.710
 1467WAT     H1 6574   7.385   1.934   3.735
 1467WAT     H2 6575   7.256   1.891   3.750
 1467WAT    EPW 6576   7.308   1.941   3.720
 1468WAT      O 6577   7.724   2.550   3.971
 1468WAT     H1 6578   7.758   2.471   3.974
 1468WAT     H2 6579   7.790   2.601   3.946
 1468WAT    EPW 6580   7.739   2.546   3.968
 1469WAT      O 6581   7.729   2.495   3.592
 1469WAT     H1 6582   7.762   2.431   3.641
 1469WAT     H2 6583   7.753   2.474   3.511
 1469WAT    EPW 6584   7.738   2.483   3.588
 1470WAT      O 6585   7.363   1.462   3.637
 1470WAT     H1 6586   7.333   1.512   3.572
 1470WAT     H2 6587   7.450   1.470   3.631
 1470WAT    EPW 6588   7.371   1.470   3.626
 1471WAT      O 6589   7.661   1.376   3.859
 1471WAT     H1 6590   7.668   1.462   3.872
 1471WAT     H2 6591   7.657   1.368   3.772
 1471WAT    EPW 6592   7.661   1.388   3.848
 1472WAT      O 6593   6.949   1.918   4.009
 1472WAT     H1 6594   6.923   2.002   4.002
 1472WAT     H2 6595   6.882   1.880   4.051
 1472WAT    EPW 6596   6.935   1.925   4.014
 1473WAT      O 6597   6.940   2.889   3.799
 1473WAT     H1 6598   6.881   2.945   3.768
 1473WAT     H2 6599   6.982   2.863   3.728
 1473WAT    EPW 6600   6.937   2.894   3.784
 1474WAT      O 6601   7.524   2.674   3.547
 1474WAT     H1 6602   7.466   2.646   3.606
 1474WAT     H2 6603   7.586   2.613   3.550
 1474WAT    EPW 6604   7.524   2.661   3.556
 1475WAT      O 6605   7.252   1.400   4.058
 1475WAT     H1 6606   7.200   1.337   4.028
 1475WAT     H2 6607   7.311   1.356   4.105
 1475WAT    EPW 6608   7.253   1.384   4.061
 1476WAT      O 6609   7.582   1.613   4.988
 1476WAT     H1 6610   7.594   1.568   4.915
 1476WAT     H2 6611   7.611   1.693   4.968
 1476WAT    EPW 6612   7.588   1.619   4.974
 1477WAT      O 6613   7.094   2.756   3.592
 1477WAT     H1 6614   7.160   2.699   3.594
 1477WAT     H2 6615   7.133   2.831   3.570
 1477WAT    EPW 6616   7.110   2.759   3.589
 1478WAT      O 6617   7.156   1.573   4.887
 1478WAT     H1 6618   7.078   1.534   4.879
 1478WAT     H2 6619   7.205   1.532   4.827
 1478WAT    EPW 6620   7.151   1.561   4.877
 1479WAT      O 6621   7.176   2.605   3.942
 1479WAT     H1 6622   7.218   2.570   3.875
 1479WAT     H2 6623   7.208   2.563   4.012
 1479WAT    EPW 6624   7.187   2.594   3.943
 1480WAT      O 6625   7.499   2.890   3.872
 1480WAT     H1 6626   7.584   2.901   3.852
 1480WAT     H2 6627   7.469   2.972   3.879
 1480WAT    EPW 6628   7.507   2.904   3.870
 1481WAT      O 6629   7.820   1.337   4.803
 1481WAT     H1 6630   7.838   1.257   4.776
 1481WAT     H2 6631   7.806   1.382   4.729
 1481WAT    EPW 6632   7.821   1.332   4.788
 1482WAT      O 6633   7.399   3.012   4.446
 1482WAT     H1 6634   7.428   3.006   4.528
 1482WAT     H2 6635   7.336   2.952   4.441
 1482WAT    EPW 6636   7.394   3.002   4.457
 1483WAT      O 6637   6.890   1.628   4.645
 1483WAT     H1 6638   6.890   1.687   4.710
 1483WAT     H2 6639   6.950   1.659   4.589
 1483WAT    EPW 6640   6.899   1.641   4.646
 1484WAT      O 6641   7.838   2.681   3.174
 1484WAT     H1 6642   7.820   2.736   3.240
 1484WAT     H2 6643   7.915   2.710   3.144
 1484WAT    EPW 6644   7.847   2.693   3.180
 1485WAT      O 6645   6.984   1.587   3.537
 1485WAT     H1 6646   6.973   1.501   3.540
 1485WAT     H2 6647   6.937   1.617   3.604
 1485WAT    EPW 6648   6.975   1.579   3.547
 1486WAT      O 6649   7.198   2.828   4.358
 1486WAT     H1 6650   7.128   2.778   4.371
 1486WAT     H2 6651   7.224   2.808   4.277
 1486WAT    EPW 6652   7.192   2.818   4.348
 1487WAT      O 6653   7.914   1.708   3.411
 1487WAT     H1 6654   7.864   1.642   3.386
 1487WAT     H2 6655   7.920   1.759   3.340
 1487WAT    EPW 6656   7.908   1.706   3.397
 1488WAT      O 6657   7.774   1.639   3.852
 1488WAT     H1 6658   7.782   1.696   3.787
 1488WAT     H2 6659   7.786   1.688   3.923
 1488WAT    EPW 6660   7.777   1.655   3.853
 1489WAT      O 6661   7.334   2.714   4.615
 1489WAT     H1 6662   7.418   2.720   4.593
 1489WAT     H2 6663   7.331   2.753   4.692
 1489WAT    EPW 6664   7.346   2.720   4.623
 1490WAT      O 6665   7.235   1.221   3.687
 1490WAT     H1 6666   7.289   1.290   3.686
 1490WAT     H2 6667   7.235   1.194   3.604
 1490WAT    EPW 6668   7.243   1.227   3.675
 1491WAT      O 6669   7.531   2.265   4.090
 1491WAT     H1 6670   7.548   2.244   4.173
 1491WAT     H2 6671   7.465   2.211   4.068
 1491WAT    EPW 6672   7.524   2.254   4.099
 1492WAT      O 6673   7.606   2.258   4.349
 1492WAT     H1 6674   7.611   2.343   4.369
 1492WAT     H2 6675   7.577   2.221   4.422
 1492WAT    EPW 6676   7.602   2.265   4.363
 1493WAT      O 6677   6.888   2.696   4.970
 1493WAT     H1 6678   6.963   2.730   4.996
 1493WAT     H2 6679   6.905   2.610   4.964
 1493WAT    EPW 6680   6.902   2.688   4.973
 1494WAT      O 6681   7.280   1.602   3.853
 1494WAT     H1 6682   7.307   1.559   3.782
 1494WAT     H2 6683   7.262   1.539   3.910
 1494WAT    EPW 6684   7.281   1.587   3.851
 1495WAT      O 6685   7.262   2.345   3.808
 1495WAT     H1 6686   7.347   2.337   3.790
 1495WAT     H2 6687   7.227   2.277   3.766
 1495WAT    EPW 6688   7.270   2.334   3.799
 1496WAT      O 6689   7.139   3.018   3.931
 1496WAT     H1 6690   7.072   2.968   3.907
 1496WAT     H2 6691   7.179   3.036   3.856
 1496WAT    EPW 6692   7.135   3.013   3.917
 1497WAT      O 6693   7.094   1.713   4.161
 1497WAT     H1 6694   7.178   1.735   4.157
 1497WAT     H2 6695   7.055   1.770   4.108
 1497WAT    EPW 6696   7.101   1.724   4.152
 1498WAT      O 6697   7.499   2.346   3.631
 1498WAT     H1 6698   7.570   2.395   3.640
 1498WAT     H2 6699   7.521   2.289   3.568
 1498WAT    EPW 6700   7.513   2.345   3.623
 1499WAT      O 6701   6.915   2.510   3.963
 1499WAT     H1 6702   6.848   2.559   3.991
 1499WAT     H2 6703   6.983   2.565   3.966
 1499WAT    EPW 6704   6.915   2.525   3.968
 1500WAT      O 6705   7.679   1.881   4.973
 1500WAT     H1 6706   7.631   1.939   5.017
 1500WAT     H2 6707   7.677   1.911   4.891
 1500WAT    EPW 6708   7.672   1.894   4.967
 1501WAT      O 6709   6.921   2.178   3.473
 1501WAT     H1 6710   6.903   2.095   3.489
 1501WAT     H2 6711   6.987   2.175   3.416
 1501WAT    EPW 6712   6.928   2.166   3.467
 1502WAT      O 6713   6.938   2.595   3.431
 1502WAT     H1 6714   6.994   2.652   3.467
 1502WAT     H2 6715   6.915   2.543   3.497
 1502WAT    EPW 6716   6.943   2.596   3.446
 1503WAT      O 6717   7.359   2.495   4.140
 1503WAT     H1 6718   7.406   2.524   4.208
 1503WAT     H2 6719   7.416   2.447   4.094
 1503WAT    EPW 6720   7.374   2.492   4.143
 1504WAT      O 6721   6.921   2.440   3.194
 1504WAT     H1 6722   6.997   2.397   3.199
 1504WAT     H2 6723   6.923   2.493   3.263
 1504WAT    EPW 6724   6.933   2.441   3.205
 1505WAT      O 6725   7.015   2.262   3.994
 1505WAT     H1 6726   7.059   2.249   3.919
 1505WAT     H2 6727   6.995   2.347   3.992
 1505WAT    EPW 6728   7.019   2.272   3.983
 1506WAT      O 6729   7.650   1.618   3.359
 1506WAT     H1 6730   7.650   1.607   3.273
 1506WAT     H2 6731   7.632   1.703   3.368
 1506WAT    EPW 6732   7.647   1.629   3.348
 1507WAT      O 6733   7.424   2.613   3.822
 1507WAT     H1 6734   7.436   2.698   3.841
 1507WAT     H2 6735   7.491   2.574   3.862
 1507WAT    EPW 6736   7.436   2.620   3.831
 1508WAT      O 6737   7.237   1.962   4.809
 1508WAT     H1 6738   7.183   1.911   4.855
 1508WAT     H2 6739   7.239   1.923   4.731
 1508WAT    EPW 6740   7.229   1.948   4.804
 1509WAT      O 6741   7.285   1.901   3.323
 1509WAT     H1 6742   7.273   1.857   3.396
 1509WAT     H2 6743   7.227   1.867   3.267
 1509WAT    EPW 6744   7.275   1.890   3.325
 1510WAT      O 6745   7.302   2.084   3.982
 1510WAT     H1 6746   7.224   2.079   3.944
 1510WAT     H2 6747   7.309   2.009   4.026
 1510WAT    EPW 6748   7.292   2.073   3.983
 1511WAT      O 6749   7.345   2.058   4.329
 1511WAT     H1 6750   7.348   1.991   4.274
 1511WAT     H2 6751   7.280   2.108   4.298
 1511WAT    EPW 6752   7.336   2.055   4.317
 1512WAT      O 6753   7.755   2.936   4.268
 1512WAT     H1 6754   7.727   2.872   4.216
 1512WAT     H2 6755   7.734   3.008   4.225
 1512WAT    EPW 6756   7.748   2.937   4.254
 1513WAT      O 6757   7.125   2.194   4.885
 1513WAT     H1 6758   7.121   2.244   4.814
 1513WAT     H2 6759   7.158   2.118   4.856
 1513WAT    EPW 6760   7.129   2.190   4.870
 1514WAT      O 6761   7.715   2.699   4.829
 1514WAT     H1 6762   7.750   2.681   4.906
 1514WAT     H2 6763   7.671   2.626   4.809
 1514WAT    EPW 6764   7.714   2.685   4.837
 1515WAT      O 6765   7.812   1.773   4.092
 1515WAT     H1 6766   7.860   1.843   4.113
 1515WAT     H2 6767   7.849   1.709   4.138
 1515WAT    EPW 6768   7.825   1.774   4.102
 1516WAT      O 6769   7.523   2.950   3.487
 1516WAT     H1 6770   7.508   2.873   3.524
 1516WAT     H2 6771   7.592   2.935   3.436
 1516WAT    EPW 6772   7.531   2.936   3.485
 1517WAT      O 6773   7.490   1.324   3.286
 1517WAT     H1 6774   7.500   1.314   3.372
 1517WAT     H2 6775   7.419   1.375   3.279
 1517WAT    EPW 6776   7.481   1.330   3.298
 1518WAT      O 6777   7.752   2.902   3.327
 1518WAT     H1 6778   7.815   2.918   3.386
 1518WAT     H2 6779   7.756   2.971   3.274
 1518WAT    EPW 6780   7.762   2.914   3.328
 1519WAT      O 6781   7.202   2.155   3.410
 1519WAT     H1 6782   7.235   2.077   3.388
 1519WAT     H2 6783   7.267   2.192   3.456
 1519WAT    EPW 6784   7.217   2.149   3.414
 1520WAT      O 6785   6.902   1.321   3.507
 1520WAT     H1 6786   6.915   1.250   3.458
 1520WAT     H2 6787   6.865   1.289   3.580
 1520WAT    EPW 6788   6.899   1.306   3.511
 1521WAT      O 6789   7.871   2.089   3.553
 1521WAT     H1 6790   7.877   2.154   3.611
 1521WAT     H2 6791   7.853   2.020   3.602
 1521WAT    EPW 6792   7.870   2.089   3.569
 1522WAT      O 6793   7.321   1.541   3.204
 1522WAT     H1 6794   7.270   1.546   3.133
 1522WAT     H2 6795   7.399   1.565   3.174
 1522WAT    EPW 6796   7.325   1.545   3.189
 1523WAT      O 6797   7.794   2.294   3.996
 1523WAT     H1 6798   7.709   2.275   4.004
 1523WAT     H2 6799   7.826   2.278   4.075
 1523WAT    EPW 6800   7.786   2.289   4.009
 1524WAT      O 6801   7.469   2.967   3.084
 1524WAT     H1 6802   7.513   2.897   3.113
 1524WAT     H2 6803   7.490   3.029   3.142
 1524WAT    EPW 6804   7.479   2.966   3.097
 1525WAT      O 6805   7.179   2.263   4.227
 1525WAT     H1 6806   7.251   2.312   4.224
 1525WAT     H2 6807   7.152   2.260   4.145
 1525WAT    EPW 6808   7.185   2.270   4.215
 1526WAT      O 6809   7.502   1.780   3.901
 1526WAT     H1 6810   7.586   1.761   3.911
 1526WAT     H2 6811   7.465   1.703   3.887
 1526WAT    EPW 6812   7.509   1.766   3.900
 1527WAT      O 6813   6.984   1.914   3.566
 1527WAT     H1 6814   7.033   1.885   3.633
 1527WAT     H2 6815   6.997   1.855   3.504
 1527WAT    EPW 6816   6.993   1.901   3.567
 1528WAT      O 6817   7.436   2.058   3.115
 1528WAT     H1 6818   7.375   2.017   3.162
 1528WAT     H2 6819   7.398   2.069   3.038
 1528WAT    EPW 6820   7.421   2.053   3.111
 1529WAT      O 6821   7.118   2.369   4.655
 1529WAT     H1 6822   7.076   2.317   4.599
 1529WAT     H2 6823   7.083   2.447   4.641
 1529WAT    EPW 6824   7.107   2.373   4.645
 1530WAT      O 6825   7.582   1.904   3.386
 1530WAT     H1 6826   7.609   1.986   3.393
 1530WAT     H2 6827   7.495   1.911   3.376
 1530WAT    EPW 6828   7.573   1.917   3.386
 1531WAT      O 6829   6.930   1.501   4.040
 1531WAT     H1 6830   6.934   1.535   3.960
 1531WAT     H2 6831   7.005   1.524   4.076
 1531WAT    EPW 6832   6.941   1.509   4.033
 1532WAT      O 6833   7.592   2.550   4.317
 1532WAT     H1 6834   7.562   2.609   4.374
 1532WAT     H2 6835   7.597   2.594   4.242
 1532WAT    EPW 6836   7.588   2.565   4.314
 1533WAT      O 6837   7.390   2.445   4.657
 1533WAT     H1 6838   7.309   2.416   4.674
 1533WAT     H2 6839   7.381   2.531   4.657
 1533WAT    EPW 6840   7.377   2.453   4.659
 1534WAT      O 6841   7.844   2.192   4.266
 1534WAT     H1 6842   7.891   2.229   4.329
 1534WAT     H2 6843   7.761   2.205   4.292
 1534WAT    EPW 6844   7.838   2.199   4.279
 1535WAT      O 6845   7.515   1.752   4.540
 1535WAT     H1 6846   7.531   1.678   4.583
 1535WAT     H2 6847   7.510   1.727   4.457
 1535WAT    EPW 6848   7.516   1.738   4.534
 1536WAT      O 6849   7.770   2.931   3.789
 1536WAT     H1 6850   7.825   2.999   3.794
 1536WAT     H2 6851   7.735   2.939   3.709
 1536WAT    EPW 6852   7.773   2.943   3.778
 1537WAT      O 6853   7.690   1.333   4.528
 1537WAT     H1 6854   7.760   1.365   4.488
 1537WAT     H2 6855   7.714   1.252   4.551
 1537WAT    EPW 6856   7.704   1.326   4.526
 1538WAT      O 6857   7.588   2.754   4.128
 1538WAT     H1 6858   7.526   2.812   4.110
 1538WAT     H2 6859   7.613   2.725   4.049
 1538WAT    EPW 6860   7.583   2.758   4.114
 1539WAT      O 6861   7.748   2.232   3.119
 1539WAT     H1 6862   7.667   2.214   3.091
 1539WAT     H2 6863   7.744   2.317   3.139
 1539WAT    EPW 6864   7.735   2.242   3.118
 1540WAT      O 6865   7.341   1.838   4.134
 1540WAT     H1 6866   7.385   1.828   4.060
 1540WAT     H2 6867   7.395   1.807   4.195
 1540WAT    EPW 6868   7.355   1.832   4.132
 1541WAT      O 6869   7.854   2.919   4.716
 1541WAT     H1 6870   7.901   2.859   4.674
 1541WAT     H2 6871   7.818   2.875   4.782
 1541WAT    EPW 6872   7.855   2.904   4.720
 1542WAT      O 6873   7.695   1.337   4.139
 1542WAT     H1 6874   7.613   1.322   4.163
 1542WAT     H2 6875   7.691   1.340   4.052
 1542WAT    EPW 6876   7.683   1.335   4.130
 1543WAT      O 6877   7.859   2.441   4.618
 1543WAT     H1 6878   7.780   2.434   4.653
 1543WAT     H2 6879   7.867   2.526   4.598
 1543WAT    EPW 6880   7.849   2.452   4.620
 1544WAT      O 6881   6.952   1.377   4.743
 1544WAT     H1 6882   6.938   1.456   4.709
 1544WAT     H2 6883   6.873   1.352   4.771
 1544WAT    EPW 6884   6.938   1.385   4.742
 1545WAT      O 6885   7.442   3.062   4.150
 1545WAT     H1 6886   7.444   3.067   4.237
 1545WAT     H2 6887   7.400   2.987   4.135
 1545WAT    EPW 6888   7.436   3.051   4.160
 1546WAT      O 6889   7.258   1.651   3.465
 1546WAT     H1 6890   7.271   1.618   3.385
 1546WAT     H2 6891   7.177   1.626   3.485
 1546WAT    EPW 6892   7.248   1.643   3.456
 1547WAT      O 6893   7.119   3.011   4.694
 1547WAT     H1 6894   7.053   2.954   4.704
 1547WAT     H2 6895   7.081   3.089   4.709
 1547WAT    EPW 6896   7.104   3.014   4.697
 1548WAT      O 6897   7.256   1.852   4.507
 1548WAT     H1 6898   7.293   1.914   4.458
 1548WAT     H2 6899   7.323   1.805   4.535
 1548WAT    EPW 6900   7.271   1.854   4.504
 1549WAT      O 6901   7.033   1.697   4.434
 1549WAT     H1 6902   7.041   1.680   4.349
 1549WAT     H2 6903   7.108   1.738   4.454
 1549WAT    EPW 6904   7.046   1.700   4.424
 1550WAT      O 6905   7.289   1.438   4.675
 1550WAT     H1 6906   7.281   1.354   4.696
 1550WAT     H2 6907   7.257   1.442   4.594
 1550WAT    EPW 6908   7.283   1.426   4.666
 1551WAT      O 6909   6.973   2.220   4.457
 1551WAT     H1 6910   7.005   2.241   4.378
 1551WAT     H2 6911   6.963   2.133   4.451
 1551WAT    EPW 6912   6.976   2.210   4.444
 1552WAT      O 6913   7.119   1.813   3.118
 1552WAT     H1 6914   7.052   1.815   3.174
 1552WAT     H2 6915   7.128   1.728   3.100
 1552WAT    EPW 6916   7.110   1.801   3.124
 1553WAT      O 6917   7.518   2.684   3.230
 1553WAT     H1 6918   7.562   2.692   3.305
 1553WAT     H2 6919   7.437   2.662   3.256
 1553WAT    EPW 6920   7.512   2.682   3.245
 1554WAT      O 6921   7.449   2.149   4.595
 1554WAT     H1 6922   7.410   2.226   4.603
 1554WAT     H2 6923   7.409   2.111   4.527
 1554WAT    EPW 6924   7.438   2.155   4.586
 1555WAT      O 6925   7.250   2.591   3.290
 1555WAT     H1 6926   7.226   2.560   3.368
 1555WAT     H2 6927   7.247   2.520   3.238
 1555WAT    EPW 6928   7.246   2.576   3.294
 1556WAT      O 6929   7.532   2.415   3.164
 1556WAT     H1 6930   7.451   2.388   3.178
 1556WAT     H2 6931   7.530   2.500   3.183
 1556WAT    EPW 6932   7.520   2.424   3.169
 1557WAT      O 6933   7.492   1.446   4.340
 1557WAT     H1 6934   7.406   1.455   4.348
 1557WAT     H2 6935   7.514   1.395   4.407
 1557WAT    EPW 6936   7.483   1.440   4.351
 1558WAT      O 6937   7.653   1.954   4.698
 1558WAT     H1 6938   7.621   1.897   4.641
 1558WAT     H2 6939   7.617   2.030   4.673
 1558WAT    EPW 6940   7.643   1.957   4.686
 1559WAT      O 6941   7.733   1.279   3.161
 1559WAT     H1 6942   7.740   1.304   3.077
 1559WAT     H2 6943   7.658   1.317   3.186
 1559WAT    EPW 6944   7.723   1.289   3.152
 1560WAT      O 6945   7.496   2.990   4.723
 1560WAT     H1 6946   7.501   3.002   4.809
 1560WAT     H2 6947   7.562   2.934   4.707
 1560WAT    EPW 6948   7.507   2.983   4.733
 1561WAT      O 6949   7.214   1.455   4.405
 1561WAT     H1 6950   7.180   1.378   4.381
 1561WAT     H2 6951   7.145   1.507   4.411
 1561WAT    EPW 6952   7.199   1.451   4.402
 1562WAT      O 6953   7.256   2.828   4.859
 1562WAT     H1 6954   7.315   2.871   4.906
 1562WAT     H2 6955   7.219   2.890   4.810
 1562WAT    EPW 6956   7.259   2.844   4.858
 1563WAT      O 6957   7.080   1.786   3.800
 1563WAT     H1 6958   7.043   1.816   3.874
 1563WAT     H2 6959   7.133   1.723   3.829
 1563WAT    EPW 6960   7.082   1.781   3.815
 1564WAT      O 6961   7.048   2.627   4.552
 1564WAT     H1 6962   6.991   2.669   4.602
 1564WAT     H2 6963   7.122   2.673   4.561
 1564WAT    EPW 6964   7.051   2.640   4.560
 1565WAT      O 6965   7.227   2.954   3.429
 1565WAT     H1 6966   7.213   2.969   3.344
 1565WAT     H2 6967   7.314   2.962   3.437
 1565WAT    EPW 6968   7.238   2.957   3.418
 1566WAT      O 6969   7.644   2.193   3.402
 1566WAT     H1 6970   7.654   2.207   3.316
 1566WAT     H2 6971   7.726   2.187   3.431
 1566WAT    EPW 6972   7.657   2.194   3.394
 1567WAT      O 6973   7.558   1.491   4.713
 1567WAT     H1 6974   7.581   1.433   4.652
 1567WAT     H2 6975   7.473   1.473   4.728
 1567WAT    EPW 6976   7.549   1.480   4.706
 1568WAT      O 6977   7.296   2.835   4.077
 1568WAT     H1 6978   7.288   2.754   4.045
 1568WAT     H2 6979   7.251   2.884   4.020
 1568WAT    EPW 6980   7.288   2.830   4.064
 1569WAT      O 6981   7.053   3.060   4.435
 1569WAT     H1 6982   7.102   3.054   4.507
 1569WAT     H2 6983   7.072   2.986   4.391
 1569WAT    EPW 6984   7.063   3.048   4.439
 1570WAT      O 6985   6.965   2.417   1.762
 1570WAT     H1 6986   6.920   2.429   1.836
 1570WAT     H2 6987   6.936   2.339   1.733
 1570WAT    EPW 6988   6.954   2.407   1.768
 1571WAT      O 6989   6.939   1.796   1.412
 1571WAT     H1 6990   6.861   1.812   1.376
 1571WAT     H2 6991   6.943   1.709   1.415
 1571WAT    EPW 6992   6.928   1.785   1.407
 1572WAT      O 6993   7.253   2.322   1.280
 1572WAT     H1 6994   7.214   2.285   1.211
 1572WAT     H2 6995   7.245   2.262   1.342
 1572WAT    EPW 6996   7.246   2.308   1.279
 1573WAT      O 6997   7.215   2.486   1.670
 1573WAT     H1 6998   7.276   2.469   1.730
 1573WAT     H2 6999   7.140   2.472   1.712
 1573WAT    EPW 7000   7.213   2.482   1.685
 1574WAT      O 7001   7.644   1.420   1.664
 1574WAT     H1 7002   7.637   1.488   1.610
 1574WAT     H2 7003   7.718   1.381   1.640
 1574WAT    EPW 7004   7.654   1.424   1.653
 1575WAT      O 7005   7.105   2.795   1.277
 1575WAT     H1 7006   7.151   2.804   1.204
 1575WAT     H2 7007   7.150   2.738   1.324
 1575WAT    EPW 7008   7.118   2.788   1.273
 1576WAT      O 7009   6.959   2.690   2.387
 1576WAT     H1 7010   6.971   2.662   2.469
 1576WAT     H2 7011   6.898   2.636   2.356
 1576WAT    EPW 7012   6.951   2.678   2.395
 1577WAT      O 7013   7.616   2.443   2.894
 1577WAT     H1 7014   7.592   2.442   2.978
 1577WAT     H2 7015   7.541   2.428   2.851
 1577WAT    EPW 7016   7.601   2.440   2.900
 1578WAT      O 7017   7.103   2.142   1.807
 1578WAT     H1 7018   7.057   2.103   1.745
 1578WAT     H2 7019   7.173   2.091   1.817
 1578WAT    EPW 7020   7.107   2.129   1.799
 1579WAT      O 7021   7.554   1.703   2.342
 1579WAT     H1 7022   7.622   1.705   2.287
 1579WAT     H2 7023   7.549   1.620   2.367
 1579WAT    EPW 7024   7.563   1.691   2.338
 1580WAT      O 7025   7.614   2.762   2.620
 1580WAT     H1 7026   7.628   2.838   2.579
 1580WAT     H2 7027   7.693   2.725   2.623
 1580WAT    EPW 7028   7.628   2.768   2.615
 1581WAT      O 7029   7.303   1.952   1.810
 1581WAT     H1 7030   7.385   1.934   1.834
 1581WAT     H2 7031   7.256   1.891   1.849
 1581WAT    EPW 7032   7.308   1.941   1.819
 1582WAT      O 7033   7.724   2.550   2.071
 1582WAT     H1 7034   7.758   2.471   2.074
 1582WAT     H2 7035   7.790   2.601   2.045
 1582WAT    EPW 7036   7.739   2.546   2.067
 1583WAT      O 7037   7.729   2.495   1.692
 1583WAT     H1 7038   7.762   2.431   1.740
 1583WAT     H2 7039   7.753   2.474   1.611
 1583WAT    EPW 7040   7.738   2.483   1.687
 1584WAT      O 7041   7.363   1.462   1.736
 1584WAT     H1 7042   7.333   1.512   1.671
 1584WAT     H2 7043   7.450   1.470   1.731
 1584WAT    EPW 7044   7.371   1.470   1.726
 1585WAT      O 7045   7.661   1.376   1.959
 1585WAT     H1 7046   7.668   1.462   1.971
 1585WAT     H2 7047   7.657   1.368   1.872
 1585WAT    EPW 7048   7.661   1.388   1.948
 1586WAT      O 7049   6.949   1.918   2.109
 1586WAT     H1 7050   6.923   2.002   2.101
 1586WAT     H2 7051   6.882   1.880   2.150
 1586WAT    EPW 7052   6.935   1.925   2.114
 1587WAT      O 7053   6.940   2.889   1.899
 1587WAT     H1 7054   6.881   2.945   1.867
 1587WAT     H2 7055   6.982   2.863   1.827
 1587WAT    EPW 7056   6.937   2.894   1.884
 1588WAT      O 7057   7.524   2.674   1.647
 1588WAT     H1 7058   7.466   2.646   1.706
 1588WAT     H2 7059   7.586   2.613   1.649
 1588WAT    EPW 7060   7.524   2.661   1.656
 1589WAT      O 7061   7.252   1.400   2.158
 1589WAT     H1 7062   7.200   1.337   2.127
 1589WAT     H2 7063   7.311   1.356   2.205
 1589WAT    EPW 7064   7.253   1.384   2.160
 1590WAT      O 7065   7.582   1.613   3.088
 1590WAT     H1 7066   7.594   1.568   3.014
 1590WAT     H2 7067   7.611   1.693   3.067
 1590WAT    EPW 7068   7.588   1.619   3.074
 1591WAT      O 7069   7.094   2.756   1.692
 1591WAT     H1 7070   7.160   2.699   1.693
 1591WAT     H2 7071   7.133   2.831   1.670
 1591WAT    EPW 7072   7.110   2.759   1.689
 1592WAT      O 7073   7.156   1.573   2.986
 1592WAT     H1 7074   7.078   1.534   2.979
 1592WAT     H2 7075   7.205   1.532   2.927
 1592WAT    EPW 7076   7.151   1.561   2.976
 1593WAT      O 7077   7.176   2.605   2.042
 1593WAT     H1 7078   7.218   2.570   1.974
 1593WAT     H2 7079   7.208   2.563   2.111
 1593WAT    EPW 7080   7.187   2.594   2.042
 1594WAT      O 7081   7.499   2.890   1.971
 1594WAT     H1 7082   7.584   2.901   1.952
 1594WAT     H2 7083   7.469   2.972   1.978
 1594WAT    EPW 7084   7.507   2.904   1.969
 1595WAT      O 7085   7.820   1.337   2.903
 1595WAT     H1 7086   7.838   1.257   2.875
 1595WAT     H2 7087   7.806   1.382   2.829
 1595WAT    EPW 7088   7.821   1.332   2.888
 1596WAT      O 7089   7.399   3.012   2.545
 1596WAT     H1 7090   7.428   3.006   2.627
 1596WAT     H2 7091   7.336   2.952   2.541
 1596WAT    EPW 7092   7.394   3.002   2.557
 1597WAT      O 7093   6.890   1.628   2.745
 1597WAT     H1 7094   6.890   1.687   2.809
 1597WAT     H2 7095   6.950   1.659   2.689
 1597WAT    EPW 7096   6.899   1.641   2.746
 1598WAT      O 7097   7.838   2.681   1.274
 1598WAT     H1 7098   7.820   2.736   1.339
 1598WAT     H2 7099   7.915   2.710   1.244
 1598WAT    EPW 7100   7.847   2.693   1.279
 1599WAT      O 7101   6.984   1.587   1.636
 1599WAT     H1 7102   6.973   1.501   1.639
 1599WAT     H2 7103   6.937   1.617   1.703
 1599WAT    EPW 7104   6.975   1.579   1.646
 1600WAT      O 7105   7.198   2.828   2.458
 1600WAT     H1 7106   7.128   2.778   2.470
 1600WAT     H2 7107   7.224   2.808   2.377
 1600WAT    EPW 7108   7.192   2.818   2.447
 1601WAT      O 7109   7.914   1.708   1.511
 1601WAT     H1 7110   7.864   1.642   1.485
 1601WAT     H2 7111   7.920   1.759   1.440
 1601WAT    EPW 7112   7.908   1.706   1.496
 1602WAT      O 7113   7.774   1.639   1.952
 1602WAT     H1 7114   7.782   1.696   1.886
 1602WAT     H2 7115   7.786   1.688   2.023
 1602WAT    EPW 7116   7.777   1.655   1.953
 1603WAT      O 7117   7.334   2.714   2.714
 1603WAT     H1 7118   7.418   2.720   2.692
 1603WAT     H2 7119   7.331   2.753   2.792
 1603WAT    EPW 7120   7.346   2.720   2.722
 1604WAT      O 7121   7.235   1.221   1.787
 1604WAT     H1 7122   7.289   1.290   1.786
 1604WAT     H2 7123   7.235   1.194   1.704
 1604WAT    EPW 7124   7.243   1.227   1.774
 1605WAT      O 7125   7.531   2.265   2.189
 1605WAT     H1 7126   7.548   2.244   2.272
 1605WAT     H2 7127   7.465   2.211   2.168
 1605WAT    EPW 7128   7.524   2.254   2.198
 1606WAT      O 7129   7.606   2.258   2.448
 1606WAT     H1 7130   7.611   2.343   2.468
 1606WAT     H2 7131   7.577   2.221   2.522
 1606WAT    EPW 7132   7.602   2.265   2.462
 1607WAT      O 7133   6.888   2.696   3.069
 1607WAT     H1 7134   6.963   2.730   3.095
 1607WAT     H2 7135   6.905   2.610   3.064
 1607WAT    EPW 7136   6.902   2.688   3.072
 1608WAT      O 7137   7.280   1.602   1.952
 1608WAT     H1 7138   7.307   1.559   1.881
 1608WAT     H2 7139   7.262   1.539   2.009
 1608WAT    EPW 7140   7.281   1.587   1.950
 1609WAT      O 7141   7.262   2.345   1.907
 1609WAT     H1 7142   7.347   2.337   1.890
 1609WAT     H2 7143   7.227   2.277   1.866
 1609WAT    EPW 7144   7.270   2.334   1.898
 1610WAT      O 7145   7.139   3.018   2.031
 1610WAT     H1 7146   7.072   2.968   2.006
 1610WAT     H2 7147   7.179   3.036   1.956
 1610WAT    EPW 7148   7.135   3.013   2.016
 1611WAT      O 7149   7.094   1.713   2.260
 1611WAT     H1 7150   7.178   1.735   2.256
 1611WAT     H2 7151   7.055   1.770   2.207
 1611WAT    EPW 7152   7.101   1.724   2.252
 1612WAT      O 7153   7.499   2.346   1.730
 1612WAT     H1 7154   7.570   2.395   1.739
 1612WAT     H2 7155   7.521   2.289   1.668
 1612WAT    EPW 7156   7.513   2.345   1.723
 1613WAT      O 7157   6.915   2.510   2.062
 1613WAT     H1 7158   6.848   2.559   2.090
 1613WAT     H2 7159   6.983   2.565   2.065
 1613WAT    EPW 7160   6.915   2.525   2.067
 1614WAT      O 7161   7.679   1.881   3.072
 1614WAT     H1 7162   7.631   1.939   3.116
 1614WAT     H2 7163   7.677   1.911   2.990
 1614WAT    EPW 7164   7.672   1.894   3.066
 1615WAT      O 7165   6.921   2.178   1.573
 1615WAT     H1 7166   6.903   2.095   1.588
 1615WAT     H2 7167   6.987   2.175   1.516
 1615WAT    EPW 7168   6.928   2.166   1.567
 1616WAT      O 7169   6.938   2.595   1.530
 1616WAT     H1 7170   6.994   2.652   1.567
 1616WAT     H2 7171   6.915   2.543   1.597
 1616WAT    EPW 7172   6.943   2.596   1.545
 1617WAT      O 7173   7.359   2.495   2.239
 1617WAT     H1 7174   7.406   2.524   2.307
 1617WAT     H2 7175   7.416   2.447   2.194
 1617WAT    EPW 7176   7.374   2.492   2.242
 1618WAT      O 7177   6.921   2.440   1.293
 1618WAT     H1 7178   6.997   2.397   1.299
 1618WAT     H2 7179   6.923   2.493   1.362
 1618WAT    EPW 7180   6.933   2.441   1.304
 1619WAT      O 7181   7.015   2.262   2.094
 1619WAT     H1 7182   7.059   2.249   2.019
 1619WAT     H2 7183   6.995   2.347   2.091
 1619WAT    EPW 7184   7.019   2.272   2.082
 1620WAT      O 7185   7.650   1.618   1.459
 1620WAT     H1 7186   7.650   1.607   1.372
 1620WAT     H2 7187   7.632   1.703   1.468
 1620WAT    EPW 7188   7.647   1.629   1.447
 1621WAT      O 7189   7.424   2.613   1.922
 1621WAT     H1 7190   7.436   2.698   1.940
 1621WAT     H2 7191   7.491   2.574   1.961
 1621WAT    EPW 7192   7.436   2.620   1.930
 1622WAT      O 7193   7.237   1.962   2.908
 1622WAT     H1 7194   7.183   1.911   2.955
 1622WAT     H2 7195   7.239   1.923   2.830
 1622WAT    EPW 7196   7.229   1.948   2.903
 1623WAT      O 7197   7.285   1.901   1.422
 1623WAT     H1 7198   7.273   1.857   1.496
 1623WAT     H2 7199   7.227   1.867   1.367
 1623WAT    EPW 7200   7.275   1.890   1.425
 1624WAT      O 7201   7.302   2.084   2.082
 1624WAT     H1 7202   7.224   2.079   2.044
 1624WAT     H2 7203   7.309   2.009   2.126
 1624WAT    EPW 7204   7.292   2.073   2.083
 1625WAT      O 7205   7.345   2.058   2.429
 1625WAT     H1 7206   7.348   1.991   2.374
 1625WAT     H2 7207   7.280   2.108   2.397
 1625WAT    EPW 7208   7.336   2.055   2.416
 1626WAT      O 7209   7.755   2.936   2.368
 1626WAT     H1 7210   7.727   2.872   2.316
 1626WAT     H2 7211   7.734   3.008   2.324
 1626WAT    EPW 7212   7.748   2.937   2.354
 1627WAT      O 7213   7.125   2.194   2.985
 1627WAT     H1 7214   7.121   2.244   2.913
 1627WAT     H2 7215   7.158   2.118   2.955
 1627WAT    EPW 7216   7.129   2.190   2.970
 1628WAT      O 7217   7.715   2.699   2.928
 1628WAT     H1 7218   7.750   2.681   3.006
 1628WAT     H2 7219   7.671   2.626   2.908
 1628WAT    EPW 7220   7.714   2.685   2.937
 1629WAT      O 7221   7.812   1.773   2.192
 1629WAT     H1 7222   7.860   1.843   2.213
 1629WAT     H2 7223   7.849   1.709   2.237
 1629WAT    EPW 7224   7.825   1.774   2.202
 1630WAT      O 7225   7.523   2.950   1.587
 1630WAT     H1 7226   7.508   2.873   1.624
 1630WAT     H2 7227   7.592   2.935   1.535
 1630WAT    EPW 7228   7.531   2.936   1.584
 1631WAT      O 7229   7.490   1.324   1.385
 1631WAT     H1 7230   7.500   1.314   1.471
 1631WAT     H2 7231   7.419   1.375   1.379
 1631WAT    EPW 7232   7.481   1.330   1.397
 1632WAT      O 7233   7.752   2.902   1.427
 1632WAT     H1 7234   7.815   2.918   1.486
 1632WAT     H2 7235   7.756   2.971   1.374
 1632WAT    EPW 7236   7.762   2.914   1.428
 1633WAT      O 7237   7.202   2.155   1.510
 1633WAT     H1 7238   7.235   2.077   1.487
 1633WAT     H2 7239   7.267   2.192   1.555
 1633WAT    EPW 7240   7.217   2.149   1.513
 1634WAT      O 7241   6.902   1.321   1.606
 1634WAT     H1 7242   6.915   1.250   1.557
 1634WAT     H2 7243   6.865   1.289   1.679
 1634WAT    EPW 7244   6.899   1.306   1.610
 1635WAT      O 7245   7.871   2.089   1.652
 1635WAT     H1 7246   7.877   2.154   1.710
 1635WAT     H2 7247   7.853   2.020   1.701
 1635WAT    EPW 7248   7.870   2.089   1.668
 1636WAT      O 7249   7.321   1.541   1.303
 1636WAT     H1 7250   7.270   1.546   1.233
 1636WAT     H2 7251   7.399   1.565   1.274
 1636WAT    EPW 7252   7.325   1.545   1.289
 1637WAT      O 7253   7.794   2.294   2.095
 1637WAT     H1 7254   7.709   2.275   2.103
 1637WAT     H2 7255   7.826   2.278   2.175
 1637WAT    EPW 7256   7.786   2.289   2.108
 1638WAT      O 7257   7.469   2.967   1.184
 1638WAT     H1 7258   7.513   2.897   1.213
 1638WAT     H2 7259   7.490   3.029   1.241
 1638WAT    EPW 7260   7.479   2.966   1.197
 1639WAT      O 7261   7.179   2.263   2.327
 1639WAT     H1 7262   7.251   2.312   2.323
 1639WAT     H2 7263   7.152   2.260   2.244
 1639WAT    EPW 7264   7.185   2.270   2.314
 1640WAT      O 7265   7.502   1.780   2.000
 1640WAT     H1 7266   7.586   1.761   2.010
 1640WAT     H2 7267   7.465   1.703   1.987
 1640WAT    EPW 7268   7.509   1.766   2.000
 1641WAT      O 7269   6.984   1.914   1.666
 1641WAT     H1 7270   7.033   1.885   1.732
 1641WAT     H2 7271   6.997   1.855   1.603
 1641WAT    EPW 7272   6.993   1.901   1.666
 1642WAT      O 7273   7.436   2.058   1.214
 1642WAT     H1 7274   7.375   2.017   1.262
 1642WAT     H2 7275   7.398   2.069   1.137
 1642WAT    EPW 7276   7.421   2.053   1.210
 1643WAT      O 7277   7.118   2.369   2.755
 1643WAT     H1 7278   7.076   2.317   2.699
 1643WAT     H2 7279   7.083   2.447   2.740
 1643WAT    EPW 7280   7.107   2.373   2.744
 1644WAT      O 7281   7.582   1.904   1.485
 1644WAT     H1 7282   7.609   1.986   1.492
 1644WAT     H2 7283   7.495   1.911   1.476
 1644WAT    EPW 7284   7.573   1.917   1.485
 1645WAT      O 7285   6.930   1.501   2.139
 1645WAT     H1 7286   6.934   1.535   2.059
 1645WAT     H2 7287   7.005   1.524   2.176
 1645WAT    EPW 7288   6.941   1.509   2.133
 1646WAT      O 7289   7.592   2.550   2.416
 1646WAT     H1 7290   7.562   2.609   2.473
 1646WAT     H2 7291   7.597   2.594   2.342
 1646WAT    EPW 7292   7.588   2.565   2.414
 1647WAT      O 7293   7.390   2.445   2.756
 1647WAT     H1 7294   7.309   2.416   2.773
 1647WAT     H2 7295   7.381   2.531   2.757
 1647WAT    EPW 7296   7.377   2.453   2.759
 1648WAT      O 7297   7.844   2.192   2.366
 1648WAT     H1 7298   7.891   2.229   2.428
 1648WAT     H2 7299   7.761   2.205   2.391
 1648WAT    EPW 7300   7.838   2.199   2.379
 1649WAT      O 7301   7.515   1.752   2.640
 1649WAT     H1 7302   7.531   1.678   2.682
 1649WAT     H2 7303   7.510   1.727   2.556
 1649WAT    EPW 7304   7.516   1.738   2.634
 1650WAT      O 7305   7.770   2.931   1.888
 1650WAT     H1 7306   7.825   2.999   1.894
 1650WAT     H2 7307   7.735   2.939   1.809
 1650WAT    EPW 7308   7.773   2.943   1.877
 1651WAT      O 7309   7.690   1.333   2.628
 1651WAT     H1 7310   7.760   1.365   2.587
 1651WAT     H2 7311   7.714   1.252   2.650
 1651WAT    EPW 7312   7.704   1.326   2.625
 1652WAT      O 7313   7.588   2.754   2.227
 1652WAT     H1 7314   7.526   2.812   2.209
 1652WAT     H2 7315   7.613   2.725   2.149
 1652WAT    EPW 7316   7.583   2.758   2.213
 1653WAT      O 7317   7.748   2.232   1.219
 1653WAT     H1 7318   7.667   2.214   1.190
 1653WAT     H2 7319   7.744   2.317   1.238
 1653WAT    EPW 7320   7.735   2.242   1.217
 1654WAT      O 7321   7.341   1.838   2.234
 1654WAT     H1 7322   7.385   1.828   2.159
 1654WAT     H2 7323   7.395   1.807   2.294
 1654WAT    EPW 7324   7.355   1.832   2.232
 1655WAT      O 7325   7.854   2.919   2.815
 1655WAT     H1 7326   7.901   2.859   2.774
 1655WAT     H2 7327   7.818   2.875   2.882
 1655WAT    EPW 7328   7.855   2.904   2.819
 1656WAT      O 7329   7.695   1.337   2.238
 1656WAT     H1 7330   7.613   1.322   2.262
 1656WAT     H2 7331   7.691   1.340   2.151
 1656WAT    EPW 7332   7.683   1.335   2.229
 1657WAT      O 7333   7.859   2.441   2.717
 1657WAT     H1 7334   7.780   2.434   2.752
 1657WAT     H2 7335   7.867   2.526   2.698
 1657WAT    EPW 7336   7.849   2.452   2.720
 1658WAT      O 7337   6.952   1.377   2.842
 1658WAT     H1 7338   6.938   1.456   2.809
 1658WAT     H2 7339   6.873   1.352   2.871
 1658WAT    EPW 7340   6.938   1.385   2.841
 1659WAT      O 7341   7.442   3.062   2.249
 1659WAT     H1 7342   7.444   3.067   2.336
 1659WAT     H2 7343   7.400   2.987   2.234
 1659WAT    EPW 7344   7.436   3.051   2.260
 1660WAT      O 7345   7.258   1.651   1.564
 1660WAT     H1 7346   7.271   1.618   1.485
 1660WAT     H2 7347   7.177   1.626   1.584
 1660WAT    EPW 7348   7.248   1.643   1.556
 1661WAT      O 7349   7.119   3.011   2.793
 1661WAT     H1 7350   7.053   2.954   2.803
 1661WAT     H2 7351   7.081   3.089   2.808
 1661WAT    EPW 7352   7.104   3.014   2.797
 1662WAT      O 7353   7.256   1.852   2.606
 1662WAT     H1 7354   7.293   1.914   2.557
 1662WAT     H2 7355   7.323   1.805   2.635
 1662WAT    EPW 7356   7.271   1.854   2.603
 1663WAT      O 7357   7.033   1.697   2.534
 1663WAT     H1 7358   7.041   1.680   2.448
 1663WAT     H2 7359   7.108   1.738   2.553
 1663WAT    EPW 7360   7.046   1.700   2.524
 1664WAT      O 7361   7.289   1.438   2.775
 1664WAT     H1 7362   7.281   1.354   2.795
 1664WAT     H2 7363   7.257   1.442   2.693
 1664WAT    EPW 7364   7.283   1.426   2.766
 1665WAT      O 7365   6.973   2.220   2.556
 1665WAT     H1 7366   7.005   2.241   2.478
 1665WAT     H2 7367   6.963   2.133   2.550
 1665WAT    EPW 7368   6.976   2.210   2.544
 1666WAT      O 7369   7.119   1.813   1.218
 1666WAT     H1 7370   7.052   1.815   1.273
 1666WAT     H2 7371   7.128   1.728   1.199
 1666WAT    EPW 7372   7.110   1.801   1.223
 1667WAT      O 7373   7.518   2.684   1.329
 1667WAT     H1 7374   7.562   2.692   1.404
 1667WAT     H2 7375   7.437   2.662   1.355
 1667WAT    EPW 7376   7.512   2.682   1.344
 1668WAT      O 7377   7.449   2.149   2.694
 1668WAT     H1 7378   7.410   2.226   2.702
 1668WAT     H2 7379   7.409   2.111   2.627
 1668WAT    EPW 7380   7.438   2.155   2.686
 1669WAT      O 7381   7.250   2.591   1.389
 1669WAT     H1 7382   7.226   2.560   1.467
 1669WAT     H2 7383   7.247   2.520   1.338
 1669WAT    EPW 7384   7.246   2.576   1.393
 1670WAT      O 7385   7.532   2.415   1.264
 1670WAT     H1 7386   7.451   2.388   1.278
 1670WAT     H2 7387   7.530   2.500   1.282
 1670WAT    EPW 7388   7.520   2.424   1.268
 1671WAT      O 7389   7.492   1.446   2.439
 1671WAT     H1 7390   7.406   1.455   2.447
 1671WAT     H2 7391   7.514   1.395   2.506
 1671WAT    EPW 7392   7.483   1.440   2.451
 1672WAT      O 7393   7.653   1.954   2.797
 1672WAT     H1 7394   7.621   1.897   2.740
 1672WAT     H2 7395   7.617   2.030   2.773
 1672WAT    EPW 7396   7.643   1.957   2.785
 1673WAT      O 7397   7.733   1.279   1.260
 1673WAT     H1 7398   7.740   1.304   1.177
 1673WAT     H2 7399   7.658   1.317   1.286
 1673WAT    EPW 7400   7.723   1.289   1.251
 1674WAT      O 7401   7.496   2.990   2.822
 1674WAT     H1 7402   7.501   3.002   2.908
 1674WAT     H2 7403   7.562   2.934   2.806
 1674WAT    EPW 7404   7.507   2.983   2.833
 1675WAT      O 7405   7.214   1.455   2.504
 1675WAT     H1 7406   7.180   1.378   2.481
 1675WAT     H2 7407   7.145   1.507   2.511
 1675WAT    EPW 7408   7.199   1.451   2.502
 1676WAT      O 7409   7.256   2.828   2.958
 1676WAT     H1 7410   7.315   2.871   3.005
 1676WAT     H2 7411   7.219   2.890   2.909
 1676WAT    EPW 7412   7.259   2.844   2.958
 1677WAT      O 7413   7.080   1.786   1.900
 1677WAT     H1 7414   7.043   1.816   1.973
 1677WAT     H2 7415   7.133   1.723   1.928
 1677WAT    EPW 7416   7.082   1.781   1.915
 1678WAT      O 7417   7.048   2.627   2.651
 1678WAT     H1 7418   6.991   2.669   2.702
 1678WAT     H2 7419   7.122   2.673   2.660
 1678WAT    EPW 7420   7.051   2.640   2.660
 1679WAT      O 7421   7.227   2.954   1.528
 1679WAT     H1 7422   7.213   2.969   1.444
 1679WAT     H2 7423   7.314   2.962   1.536
 1679WAT    EPW 7424   7.238   2.957   1.517
 1680WAT      O 7425   7.644   2.193   1.501
 1680WAT     H1 7426   7.654   2.207   1.416
 1680WAT     H2 7427   7.726   2.187   1.531
 1680WAT    EPW 7428   7.657   2.194   1.493
 1681WAT      O 7429   7.558   1.491   2.813
 1681WAT     H1 7430   7.581   1.433   2.752
 1681WAT     H2 7431   7.473   1.473   2.827
 1681WAT    EPW 7432   7.549   1.480   2.806
 1682WAT      O 7433   7.296   2.835   2.176
 1682WAT     H1 7434   7.288   2.754   2.145
 1682WAT     H2 7435   7.251   2.884   2.119
 1682WAT    EPW 7436   7.288   2.830   2.163
 1683WAT      O 7437   7.053   3.060   2.534
 1683WAT     H1 7438   7.102   3.054   2.606
 1683WAT     H2 7439   7.072   2.986   2.491
 1683WAT    EPW 7440   7.063   3.048   2.538
 1684WAT      O 7441   6.959   2.690   0.487
 1684WAT     H1 7442   6.971   2.662   0.568
 1684WAT     H2 7443   6.898   2.636   0.456
 1684WAT    EPW 7444   6.951   2.678   0.494
 1685WAT      O 7445   7.616   2.443   0.993
 1685WAT     H1 7446   7.592   2.442   1.077
 1685WAT     H2 7447   7.541   2.428   0.951
 1685WAT    EPW 7448   7.601   2.440   0.999
 1686WAT      O 7449   7.554   1.703   0.441
 1686WAT     H1 7450   7.622   1.705   0.387
 1686WAT     H2 7451   7.549   1.620   0.466
 1686WAT    EPW 7452   7.563   1.691   0.437
 1687WAT      O 7453   7.614   2.762   0.720
 1687WAT     H1 7454   7.628   2.838   0.679
 1687WAT     H2 7455   7.693   2.725   0.722
 1687WAT    EPW 7456   7.628   2.768   0.714
 1688WAT      O 7457   6.949   1.918   0.208
 1688WAT     H1 7458   6.923   2.002   0.201
 1688WAT     H2 7459   6.882   1.880   0.250
 1688WAT    EPW 7460   6.935   1.925   0.213
 1689WAT      O 7461   7.252   1.400   0.257
 1689WAT     H1 7462   7.200   1.337   0.226
 1689WAT     H2 7463   7.311   1.356   0.304
 1689WAT    EPW 7464   7.253   1.384   0.260
 1690WAT      O 7465   7.582   1.613   1.187
 1690WAT     H1 7466   7.594   1.568   1.113
 1690WAT     H2 7467   7.611   1.693   1.167
 1690WAT    EPW 7468   7.588   1.619   1.173
 1691WAT      O 7469   7.156   1.573   1.085
 1691WAT     H1 7470   7.078   1.534   1.078
 1691WAT     H2 7471   7.205   1.532   1.026
 1691WAT    EPW 7472   7.151   1.561   1.076
 1692WAT      O 7473   7.820   1.337   1.002
 1692WAT     H1 7474   7.838   1.257   0.975
 1692WAT     H2 7475   7.806   1.382   0.928
 1692WAT    EPW 7476   7.821   1.332   0.987
 1693WAT      O 7477   7.399   3.012   0.645
 1693WAT     H1 7478   7.428   3.006   0.727
 1693WAT     H2 7479   7.336   2.952   0.640
 1693WAT    EPW 7480   7.394   3.002   0.656
 1694WAT      O 7481   6.890   1.628   0.844
 1694WAT     H1 7482   6.890   1.687   0.909
 1694WAT     H2 7483   6.950   1.659   0.788
 1694WAT    EPW 7484   6.899   1.641   0.845
 1695WAT      O 7485   7.198   2.828   0.557
 1695WAT     H1 7486   7.128   2.778   0.570
 1695WAT     H2 7487   7.224   2.808   0.476
 1695WAT    EPW 7488   7.192   2.818   0.547
 1696WAT      O 7489   7.334   2.714   0.814
 1696WAT     H1 7490   7.418   2.720   0.791
 1696WAT     H2 7491   7.331   2.753   0.891
 1696WAT    EPW 7492   7.346   2.720   0.822
 1697WAT      O 7493   7.531   2.265   0.289
 1697WAT     H1 7494   7.548   2.244   0.371
 1697WAT     H2 7495   7.465   2.211   0.267
 1697WAT    EPW 7496   7.524   2.254   0.298
 1698WAT      O 7497   7.606   2.258   0.548
 1698WAT     H1 7498   7.611   2.343   0.568
 1698WAT     H2 7499   7.577   2.221   0.621
 1698WAT    EPW 7500   7.602   2.265   0.561
 1699WAT      O 7501   6.888   2.696   1.169
 1699WAT     H1 7502   6.963   2.730   1.194
 1699WAT     H2 7503   6.905   2.610   1.163
 1699WAT    EPW 7504   6.902   2.688   1.172
 1700WAT      O 7505   7.094   1.713   0.360
 1700WAT     H1 7506   7.178   1.735   0.355
 1700WAT     H2 7507   7.055   1.770   0.307
 1700WAT    EPW 7508   7.101   1.724   0.351
 1701WAT      O 7509   7.679   1.881   1.171
 1701WAT     H1 7510   7.631   1.939   1.216
 1701WAT     H2 7511   7.677   1.911   1.089
 1701WAT    EPW 7512   7.672   1.894   1.166
 1702WAT      O 7513   7.359   2.495   0.339
 1702WAT     H1 7514   7.406   2.524   0.406
 1702WAT     H2 7515   7.416   2.447   0.293
 1702WAT    EPW 7516   7.374   2.492   0.342
 1703WAT      O 7517   7.237   1.962   1.007
 1703WAT     H1 7518   7.183   1.911   1.054
 1703WAT     H2 7519   7.239   1.923   0.929
 1703WAT    EPW 7520   7.229   1.948   1.003
 1704WAT      O 7521   7.345   2.058   0.528
 1704WAT     H1 7522   7.348   1.991   0.473
 1704WAT     H2 7523   7.280   2.108   0.497
 1704WAT    EPW 7524   7.336   2.055   0.515
 1705WAT      O 7525   7.755   2.936   0.467
 1705WAT     H1 7526   7.727   2.872   0.415
 1705WAT     H2 7527   7.734   3.008   0.423
 1705WAT    EPW 7528   7.748   2.937   0.453
 1706WAT      O 7529   7.125   2.194   1.084
 1706WAT     H1 7530   7.121   2.244   1.013
 1706WAT     H2 7531   7.158   2.118   1.054
 1706WAT    EPW 7532   7.129   2.190   1.069
 1707WAT      O 7533   7.715   2.699   1.027
 1707WAT     H1 7534   7.750   2.681   1.105
 1707WAT     H2 7535   7.671   2.626   1.008
 1707WAT    EPW 7536   7.714   2.685   1.036
 1708WAT      O 7537   7.812   1.773   0.291
 1708WAT     H1 7538   7.860   1.843   0.312
 1708WAT     H2 7539   7.849   1.709   0.336
 1708WAT    EPW 7540   7.825   1.774   0.301
 1709WAT      O 7541   7.794   2.294   0.195
 1709WAT     H1 7542   7.709   2.275   0.203
 1709WAT     H2 7543   7.826   2.278   0.274
 1709WAT    EPW 7544   7.786   2.289   0.208
 1710WAT      O 7545   7.179   2.263   0.426
 1710WAT     H1 7546   7.251   2.312   0.423
 1710WAT     H2 7547   7.152   2.260   0.343
 1710WAT    EPW 7548   7.185   2.270   0.413
 1711WAT      O 7549   7.118   2.369   0.854
 1711WAT     H1 7550   7.076   2.317   0.798
 1711WAT     H2 7551   7.083   2.447   0.840
 1711WAT    EPW 7552   7.107   2.373   0.844
 1712WAT      O 7553   7.592   2.550   0.516
 1712WAT     H1 7554   7.562   2.609   0.573
 1712WAT     H2 7555   7.597   2.594   0.441
 1712WAT    EPW 7556   7.588   2.565   0.513
 1713WAT      O 7557   7.390   2.445   0.856
 1713WAT     H1 7558   7.309   2.416   0.872
 1713WAT     H2 7559   7.381   2.531   0.856
 1713WAT    EPW 7560   7.377   2.453   0.858
 1714WAT      O 7561   7.844   2.192   0.465
 1714WAT     H1 7562   7.891   2.229   0.528
 1714WAT     H2 7563   7.761   2.205   0.491
 1714WAT    EPW 7564   7.838   2.199   0.478
 1715WAT      O 7565   7.515   1.752   0.739
 1715WAT     H1 7566   7.531   1.678   0.782
 1715WAT     H2 7567   7.510   1.727   0.656
 1715WAT    EPW 7568   7.516   1.738   0.733
 1716WAT      O 7569   7.690   1.333   0.727
 1716WAT     H1 7570   7.760   1.365   0.687
 1716WAT     H2 7571   7.714   1.252   0.750
 1716WAT    EPW 7572   7.704   1.326   0.724
 1717WAT      O 7573   7.588   2.754   0.327
 1717WAT     H1 7574   7.526   2.812   0.308
 1717WAT     H2 7575   7.613   2.725   0.248
 1717WAT    EPW 7576   7.583   2.758   0.312
 1718WAT      O 7577   7.341   1.838   0.333
 1718WAT     H1 7578   7.385   1.828   0.259
 1718WAT     H2 7579   7.395   1.807   0.394
 1718WAT    EPW 7580   7.355   1.832   0.331
 1719WAT      O 7581   7.854   2.919   0.915
 1719WAT     H1 7582   7.901   2.859   0.873
 1719WAT     H2 7583   7.818   2.875   0.981
 1719WAT    EPW 7584   7.855   2.904   0.918
 1720WAT      O 7585   7.695   1.337   0.338
 1720WAT     H1 7586   7.613   1.322   0.362
 1720WAT     H2 7587   7.691   1.340   0.251
 1720WAT    EPW 7588   7.683   1.335   0.328
 1721WAT      O 7589   7.859   2.441   0.817
 1721WAT     H1 7590   7.780   2.434   0.852
 1721WAT     H2 7591   7.867   2.526   0.797
 1721WAT    EPW 7592   7.849   2.452   0.819
 1722WAT      O 7593   6.952   1.377   0.941
 1722WAT     H1 7594   6.938   1.456   0.908
 1722WAT     H2 7595   6.873   1.352   0.970
 1722WAT    EPW 7596   6.938   1.385   0.941
 1723WAT      O 7597   7.442   3.062   0.348
 1723WAT     H1 7598   7.444   3.067   0.435
 1723WAT     H2 7599   7.400   2.987   0.333
 1723WAT    EPW 7600   7.436   3.051   0.359
 1724WAT      O 7601   7.119   3.011   0.893
 1724WAT     H1 7602   7.053   2.954   0.902
 1724WAT     H2 7603   7.081   3.089   0.908
 1724WAT    EPW 7604   7.104   3.014   0.896
 1725WAT      O 7605   7.256   1.852   0.705
 1725WAT     H1 7606   7.293   1.914   0.657
 1725WAT     H2 7607   7.323   1.805   0.734
 1725WAT    EPW 7608   7.271   1.854   0.702
 1726WAT      O 7609   7.033   1.697   0.633
 1726WAT     H1 7610   7.041   1.680   0.548
 1726WAT     H2 7611   7.108   1.738   0.653
 1726WAT    EPW 7612   7.046   1.700   0.623
 1727WAT      O 7613   7.289   1.438   0.874
 1727WAT     H1 7614   7.281   1.354   0.895
 1727WAT     H2 7615   7.257   1.442   0.793
 1727WAT    EPW 7616   7.283   1.426   0.865
 1728WAT      O 7617   6.973   2.220   0.655
 1728WAT     H1 7618   7.005   2.241   0.577
 1728WAT     H2 7619   6.963   2.133   0.650
 1728WAT    EPW 7620   6.976   2.210   0.643
 1729WAT      O 7621   7.449   2.149   0.794
 1729WAT     H1 7622   7.410   2.226   0.801
 1729WAT     H2 7623   7.409   2.111   0.726
 1729WAT    EPW 7624   7.438   2.155   0.785
 1730WAT      O 7625   7.492   1.446   0.539
 1730WAT     H1 7626   7.406   1.455   0.547
 1730WAT     H2 7627   7.514   1.395   0.606
 1730WAT    EPW 7628   7.483   1.440   0.550
 1731WAT      O 7629   7.653   1.954   0.897
 1731WAT     H1 7630   7.621   1.897   0.840
 1731WAT     H2 7631   7.617   2.030   0.872
 1731WAT    EPW 7632   7.643   1.957   0.885
 1732WAT      O 7633   7.496   2.990   0.921
 1732WAT     H1 7634   7.501   3.002   1.008
 1732WAT     H2 7635   7.562   2.934   0.906
 1732WAT    EPW 7636   7.507   2.983   0.932
 1733WAT      O 7637   7.214   1.455   0.604
 1733WAT     H1 7638   7.180   1.378   0.580
 1733WAT     H2 7639   7.145   1.507   0.610
 1733WAT    EPW 7640   7.199   1.451   0.601
 1734WAT      O 7641   7.256   2.828   1.057
 1734WAT     H1 7642   7.315   2.871   1.105
 1734WAT     H2 7643   7.219   2.890   1.009
 1734WAT    EPW 7644   7.259   2.844   1.057
 1735WAT      O 7645   7.048   2.627   0.750
 1735WAT     H1 7646   6.991   2.669   0.801
 1735WAT     H2 7647   7.122   2.673   0.760
 1735WAT    EPW 7648   7.051   2.640   0.759
 1736WAT      O 7649   7.558   1.491   0.912
 1736WAT     H1 7650   7.581   1.433   0.851
 1736WAT     H2 7651   7.473   1.473   0.926
 1736WAT    EPW 7652   7.549   1.480   0.905
 1737WAT      O 7653   7.296   2.835   0.276
 1737WAT     H1 7654   7.288   2.754   0.244
 1737WAT     H2 7655   7.251   2.884   0.218
 1737WAT    EPW 7656   7.288   2.830   0.262
 1738WAT      O 7657   7.053   3.060   0.634
 1738WAT     H1 7658   7.102   3.054   0.705
 1738WAT     H2 7659   7.072   2.986   0.590
 1738WAT    EPW 7660   7.063   3.048   0.638
 1739WAT      O 7661   6.965   0.569   7.464
 1739WAT     H1 7662   6.920   0.581   7.538
 1739WAT     H2 7663   6.936   0.491   7.435
 1739WAT    EPW 7664   6.954   0.559   7.470
 1740WAT      O 7665   7.253   0.474   6.981
 1740WAT     H1 7666   7.214   0.437   6.913
 1740WAT     H2 7667   7.245   0.415   7.044
 1740WAT    EPW 7668   7.246   0.460   6.981
 1741WAT      O 7669   7.215   0.639   7.371
 1741WAT     H1 7670   7.276   0.622   7.432
 1741WAT     H2 7671   7.140   0.625   7.414
 1741WAT    EPW 7672   7.213   0.634   7.387
 1742WAT      O 7673   7.105   0.948   6.979
 1742WAT     H1 7674   7.151   0.956   6.906
 1742WAT     H2 7675   7.150   0.890   7.026
 1742WAT    EPW 7676   7.118   0.940   6.975
 1743WAT      O 7677   7.103   0.295   7.509
 1743WAT     H1 7678   7.057   0.255   7.447
 1743WAT     H2 7679   7.173   0.243   7.518
 1743WAT    EPW 7680   7.107   0.281   7.501
 1744WAT      O 7681   7.724   0.703   7.773
 1744WAT     H1 7682   7.758   0.623   7.776
 1744WAT     H2 7683   7.790   0.753   7.747
 1744WAT    EPW 7684   7.739   0.698   7.769
 1745WAT      O 7685   7.729   0.648   7.394
 1745WAT     H1 7686   7.762   0.583   7.442
 1745WAT     H2 7687   7.753   0.626   7.313
 1745WAT    EPW 7688   7.738   0.635   7.389
 1746WAT      O 7689   6.940   1.042   7.601
 1746WAT     H1 7690   6.881   1.097   7.569
 1746WAT     H2 7691   6.982   1.015   7.529
 1746WAT    EPW 7692   6.937   1.046   7.585
 1747WAT      O 7693   7.524   0.826   7.349
 1747WAT     H1 7694   7.466   0.799   7.408
 1747WAT     H2 7695   7.586   0.765   7.351
 1747WAT    EPW 7696   7.524   0.813   7.358
 1748WAT      O 7697   7.094   0.909   7.394
 1748WAT     H1 7698   7.160   0.851   7.395
 1748WAT     H2 7699   7.133   0.984   7.372
 1748WAT    EPW 7700   7.110   0.911   7.391
 1749WAT      O 7701   7.176   0.757   7.744
 1749WAT     H1 7702   7.218   0.722   7.676
 1749WAT     H2 7703   7.208   0.715   7.813
 1749WAT    EPW 7704   7.187   0.746   7.744
 1750WAT      O 7705   7.499   1.043   7.673
 1750WAT     H1 7706   7.584   1.053   7.654
 1750WAT     H2 7707   7.469   1.124   7.680
 1750WAT    EPW 7708   7.507   1.056   7.671
 1751WAT      O 7709   7.838   0.833   6.976
 1751WAT     H1 7710   7.820   0.888   7.041
 1751WAT     H2 7711   7.915   0.862   6.946
 1751WAT    EPW 7712   7.847   0.846   6.981
 1752WAT      O 7713   7.262   0.497   7.609
 1752WAT     H1 7714   7.347   0.489   7.592
 1752WAT     H2 7715   7.227   0.429   7.568
 1752WAT    EPW 7716   7.270   0.486   7.600
 1753WAT      O 7717   7.139   1.170   7.733
 1753WAT     H1 7718   7.072   1.120   7.708
 1753WAT     H2 7719   7.179   1.188   7.657
 1753WAT    EPW 7720   7.135   1.165   7.718
 1754WAT      O 7721   7.499   0.498   7.432
 1754WAT     H1 7722   7.570   0.547   7.441
 1754WAT     H2 7723   7.521   0.441   7.370
 1754WAT    EPW 7724   7.513   0.497   7.424
 1755WAT      O 7725   6.915   0.662   7.764
 1755WAT     H1 7726   6.848   0.711   7.792
 1755WAT     H2 7727   6.983   0.717   7.767
 1755WAT    EPW 7728   6.915   0.677   7.769
 1756WAT      O 7729   6.921   0.331   7.275
 1756WAT     H1 7730   6.903   0.247   7.290
 1756WAT     H2 7731   6.987   0.327   7.218
 1756WAT    EPW 7732   6.928   0.318   7.268
 1757WAT      O 7733   6.938   0.747   7.232
 1757WAT     H1 7734   6.994   0.804   7.269
 1757WAT     H2 7735   6.915   0.696   7.299
 1757WAT    EPW 7736   6.943   0.748   7.247
 1758WAT      O 7737   6.921   0.592   6.995
 1758WAT     H1 7738   6.997   0.549   7.001
 1758WAT     H2 7739   6.923   0.645   7.064
 1758WAT    EPW 7740   6.933   0.593   7.006
 1759WAT      O 7741   7.015   0.414   7.795
 1759WAT     H1 7742   7.059   0.401   7.721
 1759WAT     H2 7743   6.995   0.499   7.793
 1759WAT    EPW 7744   7.019   0.425   7.784
 1760WAT      O 7745   7.424   0.766   7.624
 1760WAT     H1 7746   7.436   0.850   7.642
 1760WAT     H2 7747   7.491   0.726   7.663
 1760WAT    EPW 7748   7.436   0.772   7.632
 1761WAT      O 7749   7.302   0.237   7.784
 1761WAT     H1 7750   7.224   0.231   7.745
 1761WAT     H2 7751   7.309   0.161   7.827
 1761WAT    EPW 7752   7.292   0.225   7.785
 1762WAT      O 7753   7.523   1.102   7.288
 1762WAT     H1 7754   7.508   1.025   7.326
 1762WAT     H2 7755   7.592   1.088   7.237
 1762WAT    EPW 7756   7.531   1.089   7.286
 1763WAT      O 7757   7.752   1.054   7.129
 1763WAT     H1 7758   7.815   1.070   7.188
 1763WAT     H2 7759   7.756   1.123   7.075
 1763WAT    EPW 7760   7.762   1.067   7.130
 1764WAT      O 7761   7.202   0.307   7.212
 1764WAT     H1 7762   7.235   0.229   7.189
 1764WAT     H2 7763   7.267   0.344   7.257
 1764WAT    EPW 7764   7.217   0.301   7.215
 1765WAT      O 7765   7.871   0.242   7.354
 1765WAT     H1 7766   7.877   0.307   7.412
 1765WAT     H2 7767   7.853   0.172   7.403
 1765WAT    EPW 7768   7.870   0.241   7.370
 1766WAT      O 7769   7.794   0.446   7.797
 1766WAT     H1 7770   7.709   0.427   7.805
 1766WAT     H2 7771   7.826   0.430   7.876
 1766WAT    EPW 7772   7.786   0.441   7.810
 1767WAT      O 7773   7.469   1.119   6.886
 1767WAT     H1 7774   7.513   1.050   6.915
 1767WAT     H2 7775   7.490   1.182   6.943
 1767WAT    EPW 7776   7.479   1.118   6.898
 1768WAT      O 7777   7.436   0.210   6.916
 1768WAT     H1 7778   7.375   0.169   6.964
 1768WAT     H2 7779   7.398   0.222   6.839
 1768WAT    EPW 7780   7.421   0.206   6.912
 1769WAT      O 7781   7.770   1.083   7.590
 1769WAT     H1 7782   7.825   1.151   7.596
 1769WAT     H2 7783   7.735   1.092   7.511
 1769WAT    EPW 7784   7.773   1.095   7.579
 1770WAT      O 7785   7.748   0.384   6.921
 1770WAT     H1 7786   7.667   0.366   6.892
 1770WAT     H2 7787   7.744   0.469   6.940
 1770WAT    EPW 7788   7.735   0.394   6.919
 1771WAT      O 7789   7.518   0.836   7.031
 1771WAT     H1 7790   7.562   0.844   7.106
 1771WAT     H2 7791   7.437   0.814   7.057
 1771WAT    EPW 7792   7.512   0.834   7.046
 1772WAT      O 7793   7.250   0.743   7.091
 1772WAT     H1 7794   7.226   0.712   7.169
 1772WAT     H2 7795   7.247   0.673   7.040
 1772WAT    EPW 7796   7.246   0.728   7.095
 1773WAT      O 7797   7.532   0.567   6.965
 1773WAT     H1 7798   7.451   0.541   6.979
 1773WAT     H2 7799   7.530   0.653   6.984
 1773WAT    EPW 7800   7.520   0.576   6.970
 1774WAT      O 7801   7.227   1.106   7.230
 1774WAT     H1 7802   7.213   1.121   7.146
 1774WAT     H2 7803   7.314   1.114   7.238
 1774WAT    EPW 7804   7.238   1.109   7.219
 1775WAT      O 7805   7.644   0.346   7.203
 1775WAT     H1 7806   7.654   0.359   7.118
 1775WAT     H2 7807   7.726   0.340   7.233
 1775WAT    EPW 7808   7.657   0.347   7.195
 1776WAT      O 7809   7.296   0.987   7.878
 1776WAT     H1 7810   7.288   0.906   7.846
 1776WAT     H2 7811   7.251   1.036   7.821
 1776WAT    EPW 7812   7.288   0.983   7.865
 1777WAT      O 7813   6.965   0.569   5.563
 1777WAT     H1 7814   6.920   0.581   5.637
 1777WAT     H2 7815   6.936   0.491   5.534
 1777WAT    EPW 7816   6.954   0.559   5.570
 1778WAT      O 7817   7.253   0.474   5.081
 1778WAT     H1 7818   7.214   0.437   5.012
 1778WAT     H2 7819   7.245   0.415   5.144
 1778WAT    EPW 7820   7.246   0.460   5.080
 1779WAT      O 7821   7.215   0.639   5.471
 1779WAT     H1 7822   7.276   0.622   5.531
 1779WAT     H2 7823   7.140   0.625   5.513
 1779WAT    EPW 7824   7.213   0.634   5.486
 1780WAT      O 7825   7.105   0.948   5.078
 1780WAT     H1 7826   7.151   0.956   5.005
 1780WAT     H2 7827   7.150   0.890   5.125
 1780WAT    EPW 7828   7.118   0.940   5.075
 1781WAT      O 7829   6.959   0.842   6.188
 1781WAT     H1 7830   6.971   0.814   6.270
 1781WAT     H2 7831   6.898   0.788   6.157
 1781WAT    EPW 7832   6.951   0.830   6.196
 1782WAT      O 7833   7.616   0.595   6.695
 1782WAT     H1 7834   7.592   0.595   6.779
 1782WAT     H2 7835   7.541   0.580   6.653
 1782WAT    EPW 7836   7.601   0.593   6.701
 1783WAT      O 7837   7.103   0.295   5.609
 1783WAT     H1 7838   7.057   0.255   5.546
 1783WAT     H2 7839   7.173   0.243   5.618
 1783WAT    EPW 7840   7.107   0.281   5.601
 1784WAT      O 7841   7.614   0.914   6.421
 1784WAT     H1 7842   7.628   0.990   6.381
 1784WAT     H2 7843   7.693   0.878   6.424
 1784WAT    EPW 7844   7.628   0.920   6.416
 1785WAT      O 7845   7.724   0.703   5.872
 1785WAT     H1 7846   7.758   0.623   5.875
 1785WAT     H2 7847   7.790   0.753   5.846
 1785WAT    EPW 7848   7.739   0.698   5.869
 1786WAT      O 7849   7.729   0.648   5.493
 1786WAT     H1 7850   7.762   0.583   5.542
 1786WAT     H2 7851   7.753   0.626   5.412
 1786WAT    EPW 7852   7.738   0.635   5.488
 1787WAT      O 7853   6.940   1.042   5.700
 1787WAT     H1 7854   6.881   1.097   5.669
 1787WAT     H2 7855   6.982   1.015   5.629
 1787WAT    EPW 7856   6.937   1.046   5.685
 1788WAT      O 7857   7.524   0.826   5.448
 1788WAT     H1 7858   7.466   0.799   5.507
 1788WAT     H2 7859   7.586   0.765   5.450
 1788WAT    EPW 7860   7.524   0.813   5.457
 1789WAT      O 7861   7.094   0.909   5.493
 1789WAT     H1 7862   7.160   0.851   5.494
 1789WAT     H2 7863   7.133   0.984   5.471
 1789WAT    EPW 7864   7.110   0.911   5.490
 1790WAT      O 7865   7.176   0.757   5.843
 1790WAT     H1 7866   7.218   0.722   5.776
 1790WAT     H2 7867   7.208   0.715   5.912
 1790WAT    EPW 7868   7.187   0.746   5.843
 1791WAT      O 7869   7.499   1.043   5.773
 1791WAT     H1 7870   7.584   1.053   5.753
 1791WAT     H2 7871   7.469   1.124   5.779
 1791WAT    EPW 7872   7.507   1.056   5.771
 1792WAT      O 7873   7.399   1.164   6.347
 1792WAT     H1 7874   7.428   1.158   6.429
 1792WAT     H2 7875   7.336   1.104   6.342
 1792WAT    EPW 7876   7.394   1.155   6.358
 1793WAT      O 7877   7.838   0.833   5.075
 1793WAT     H1 7878   7.820   0.888   5.141
 1793WAT     H2 7879   7.915   0.862   5.045
 1793WAT    EPW 7880   7.847   0.846   5.080
 1794WAT      O 7881   7.198   0.981   6.259
 1794WAT     H1 7882   7.128   0.930   6.271
 1794WAT     H2 7883   7.224   0.960   6.178
 1794WAT    EPW 7884   7.192   0.970   6.249
 1795WAT      O 7885   7.334   0.866   6.515
 1795WAT     H1 7886   7.418   0.872   6.493
 1795WAT     H2 7887   7.331   0.905   6.593
 1795WAT    EPW 7888   7.346   0.873   6.524
 1796WAT      O 7889   7.531   0.417   5.990
 1796WAT     H1 7890   7.548   0.396   6.073
 1796WAT     H2 7891   7.465   0.363   5.969
 1796WAT    EPW 7892   7.524   0.406   5.999
 1797WAT      O 7893   7.606   0.411   6.249
 1797WAT     H1 7894   7.611   0.495   6.270
 1797WAT     H2 7895   7.577   0.374   6.323
 1797WAT    EPW 7896   7.602   0.418   6.263
 1798WAT      O 7897   6.888   0.848   6.870
 1798WAT     H1 7898   6.963   0.883   6.896
 1798WAT     H2 7899   6.905   0.762   6.865
 1798WAT    EPW 7900   6.902   0.840   6.873
 1799WAT      O 7901   7.262   0.497   5.708
 1799WAT     H1 7902   7.347   0.489   5.691
 1799WAT     H2 7903   7.227   0.429   5.667
 1799WAT    EPW 7904   7.270   0.486   5.699
 1800WAT      O 7905   7.139   1.170   5.832
 1800WAT     H1 7906   7.072   1.120   5.807
 1800WAT     H2 7907   7.179   1.188   5.757
 1800WAT    EPW 7908   7.135   1.165   5.817
 1801WAT      O 7909   7.499   0.498   5.532
 1801WAT     H1 7910   7.570   0.547   5.541
 1801WAT     H2 7911   7.521   0.441   5.469
 1801WAT    EPW 7912   7.513   0.497   5.524
 1802WAT      O 7913   6.915   0.662   5.864
 1802WAT     H1 7914   6.848   0.711   5.891
 1802WAT     H2 7915   6.983   0.717   5.867
 1802WAT    EPW 7916   6.915   0.677   5.868
 1803WAT      O 7917   6.921   0.331   5.374
 1803WAT     H1 7918   6.903   0.247   5.389
 1803WAT     H2 7919   6.987   0.327   5.317
 1803WAT    EPW 7920   6.928   0.318   5.368
 1804WAT      O 7921   6.938   0.747   5.331
 1804WAT     H1 7922   6.994   0.804   5.368
 1804WAT     H2 7923   6.915   0.696   5.398
 1804WAT    EPW 7924   6.943   0.748   5.347
 1805WAT      O 7925   7.359   0.647   6.040
 1805WAT     H1 7926   7.406   0.676   6.108
 1805WAT     H2 7927   7.416   0.599   5.995
 1805WAT    EPW 7928   7.374   0.644   6.044
 1806WAT      O 7929   6.921   0.592   5.094
 1806WAT     H1 7930   6.997   0.549   5.100
 1806WAT     H2 7931   6.923   0.645   5.163
 1806WAT    EPW 7932   6.933   0.593   5.105
 1807WAT      O 7933   7.015   0.414   5.895
 1807WAT     H1 7934   7.059   0.401   5.820
 1807WAT     H2 7935   6.995   0.499   5.892
 1807WAT    EPW 7936   7.019   0.425   5.883
 1808WAT      O 7937   7.424   0.766   5.723
 1808WAT     H1 7938   7.436   0.850   5.742
 1808WAT     H2 7939   7.491   0.726   5.763
 1808WAT    EPW 7940   7.436   0.772   5.732
 1809WAT      O 7941   7.302   0.237   5.883
 1809WAT     H1 7942   7.224   0.231   5.845
 1809WAT     H2 7943   7.309   0.161   5.927
 1809WAT    EPW 7944   7.292   0.225   5.884
 1810WAT      O 7945   7.755   1.088   6.169
 1810WAT     H1 7946   7.727   1.024   6.117
 1810WAT     H2 7947   7.734   1.161   6.125
 1810WAT    EPW 7948   7.748   1.089   6.155
 1811WAT      O 7949   7.125   0.346   6.786
 1811WAT     H1 7950   7.121   0.396   6.714
 1811WAT     H2 7951   7.158   0.271   6.756
 1811WAT    EPW 7952   7.129   0.342   6.771
 1812WAT      O 7953   7.715   0.851   6.729
 1812WAT     H1 7954   7.750   0.833   6.807
 1812WAT     H2 7955   7.671   0.778   6.709
 1812WAT    EPW 7956   7.714   0.837   6.738
 1813WAT      O 7957   7.523   1.102   5.388
 1813WAT     H1 7958   7.508   1.025   5.425
 1813WAT     H2 7959   7.592   1.088   5.336
 1813WAT    EPW 7960   7.531   1.089   5.386
 1814WAT      O 7961   7.752   1.054   5.228
 1814WAT     H1 7962   7.815   1.070   5.287
 1814WAT     H2 7963   7.756   1.123   5.175
 1814WAT    EPW 7964   7.762   1.067   5.229
 1815WAT      O 7965   7.202   0.307   5.311
 1815WAT     H1 7966   7.235   0.229   5.289
 1815WAT     H2 7967   7.267   0.344   5.356
 1815WAT    EPW 7968   7.217   0.301   5.314
 1816WAT      O 7969   7.871   0.242   5.453
 1816WAT     H1 7970   7.877   0.307   5.511
 1816WAT     H2 7971   7.853   0.172   5.502
 1816WAT    EPW 7972   7.870   0.241   5.469
 1817WAT      O 7973   7.794   0.446   5.896
 1817WAT     H1 7974   7.709   0.427   5.905
 1817WAT     H2 7975   7.826   0.430   5.976
 1817WAT    EPW 7976   7.786   0.441   5.909
 1818WAT      O 7977   7.469   1.119   4.985
 1818WAT     H1 7978   7.513   1.050   5.014
 1818WAT     H2 7979   7.490   1.182   5.042
 1818WAT    EPW 7980   7.479   1.118   4.998
 1819WAT      O 7981   7.179   0.416   6.128
 1819WAT     H1 7982   7.251   0.464   6.124
 1819WAT     H2 7983   7.152   0.413   6.045
 1819WAT    EPW 7984   7.185   0.422   6.115
 1820WAT      O 7985   7.436   0.210   5.016
 1820WAT     H1 7986   7.375   0.169   5.063
 1820WAT     H2 7987   7.398   0.222   4.938
 1820WAT    EPW 7988   7.421   0.206   5.011
 1821WAT      O 7989   7.118   0.521   6.556
 1821WAT     H1 7990   7.076   0.469   6.500
 1821WAT     H2 7991   7.083   0.599   6.542
 1821WAT    EPW 7992   7.107   0.525   6.545
 1822WAT      O 7993   7.592   0.702   6.218
 1822WAT     H1 7994   7.562   0.761   6.274
 1822WAT     H2 7995   7.597   0.746   6.143
 1822WAT    EPW 7996   7.588   0.717   6.215
 1823WAT      O 7997   7.390   0.597   6.557
 1823WAT     H1 7998   7.309   0.568   6.574
 1823WAT     H2 7999   7.381   0.684   6.558
 1823WAT    EPW 8000   7.377   0.605   6.560
 1824WAT      O 8001   7.844   0.344   6.167
 1824WAT     H1 8002   7.891   0.382   6.230
 1824WAT     H2 8003   7.761   0.358   6.193
 1824WAT    EPW 8004   7.838   0.352   6.180
 1825WAT      O 8005   7.770   1.083   5.690
 1825WAT     H1 8006   7.825   1.151   5.695
 1825WAT     H2 8007   7.735   1.092   5.610
 1825WAT    EPW 8008   7.773   1.095   5.679
 1826WAT      O 8009   7.588   0.906   6.028
 1826WAT     H1 8010   7.526   0.964   6.010
 1826WAT     H2 8011   7.613   0.878   5.950
 1826WAT    EPW 8012   7.583   0.911   6.014
 1827WAT      O 8013   7.748   0.384   5.020
 1827WAT     H1 8014   7.667   0.366   4.991
 1827WAT     H2 8015   7.744   0.469   5.039
 1827WAT    EPW 8016   7.735   0.394   5.019
 1828WAT      O 8017   7.854   1.071   6.616
 1828WAT     H1 8018   7.901   1.011   6.575
 1828WAT     H2 8019   7.818   1.027   6.683
 1828WAT    EPW 8020   7.855   1.056   6.620
 1829WAT      O 8021   7.859   0.593   6.518
 1829WAT     H1 8022   7.780   0.587   6.554
 1829WAT     H2 8023   7.867   0.678   6.499
 1829WAT    EPW 8024   7.849   0.605   6.521
 1830WAT      O 8025   7.442   1.214   6.050
 1830WAT     H1 8026   7.444   1.220   6.137
 1830WAT     H2 8027   7.400   1.139   6.035
 1830WAT    EPW 8028   7.436   1.204   6.061
 1831WAT      O 8029   7.119   1.164   6.594
 1831WAT     H1 8030   7.053   1.107   6.604
 1831WAT     H2 8031   7.081   1.241   6.609
 1831WAT    EPW 8032   7.104   1.167   6.598
 1832WAT      O 8033   6.973   0.372   6.357
 1832WAT     H1 8034   7.005   0.394   6.279
 1832WAT     H2 8035   6.963   0.285   6.352
 1832WAT    EPW 8036   6.976   0.362   6.345
 1833WAT      O 8037   7.518   0.836   5.130
 1833WAT     H1 8038   7.562   0.844   5.205
 1833WAT     H2 8039   7.437   0.814   5.156
 1833WAT    EPW 8040   7.512   0.834   5.145
 1834WAT      O 8041   7.449   0.301   6.496
 1834WAT     H1 8042   7.410   0.378   6.503
 1834WAT     H2 8043   7.409   0.264   6.428
 1834WAT    EPW 8044   7.438   0.307   6.487
 1835WAT      O 8045   7.250   0.743   5.190
 1835WAT     H1 8046   7.226   0.712   5.268
 1835WAT     H2 8047   7.247   0.673   5.139
 1835WAT    EPW 8048   7.246   0.728   5.194
 1836WAT      O 8049   7.532   0.567   5.065
 1836WAT     H1 8050   7.451   0.541   5.079
 1836WAT     H2 8051   7.530   0.653   5.083
 1836WAT    EPW 8052   7.520   0.576   5.070
 1837WAT      O 8053   7.496   1.142   6.623
 1837WAT     H1 8054   7.501   1.155   6.710
 1837WAT     H2 8055   7.562   1.086   6.608
 1837WAT    EPW 8056   7.507   1.136   6.634
 1838WAT      O 8057   7.256   0.980   6.759
 1838WAT     H1 8058   7.315   1.023   6.806
 1838WAT     H2 8059   7.219   1.043   6.710
 1838WAT    EPW 8060   7.259   0.996   6.759
 1839WAT      O 8061   7.048   0.779   6.452
 1839WAT     H1 8062   6.991   0.821   6.503
 1839WAT     H2 8063   7.122   0.826   6.462
 1839WAT    EPW 8064   7.051   0.792   6.461
 1840WAT      O 8065   7.227   1.106   5.330
 1840WAT     H1 8066   7.213   1.121   5.245
 1840WAT     H2 8067   7.314   1.114   5.337
 1840WAT    EPW 8068   7.238   1.109   5.318
 1841WAT      O 8069   7.644   0.346   5.302
 1841WAT     H1 8070   7.654   0.359   5.217
 1841WAT     H2 8071   7.726   0.340   5.332
 1841WAT    EPW 8072   7.657   0.347   5.294
 1842WAT      O 8073   7.296   0.987   5.977
 1842WAT     H1 8074   7.288   0.906   5.946
 1842WAT     H2 8075   7.251   1.036   5.920
 1842WAT    EPW 8076   7.288   0.983   5.964
 1843WAT      O 8077   7.053   1.212   6.335
 1843WAT     H1 8078   7.102   1.206   6.407
 1843WAT     H2 8079   7.072   1.138   6.292
 1843WAT    EPW 8080   7.063   1.200   6.340
 1844WAT      O 8081   6.965   0.569   3.662
 1844WAT     H1 8082   6.920   0.581   3.737
 1844WAT     H2 8083   6.936   0.491   3.634
 1844WAT    EPW 8084   6.954   0.559   3.669
 1845WAT      O 8085   7.253   0.474   3.180
 1845WAT     H1 8086   7.214   0.437   3.112
 1845WAT     H2 8087   7.245   0.415   3.243
 1845WAT    EPW 8088   7.246   0.460   3.179
 1846WAT      O 8089   7.215   0.639   3.570
 1846WAT     H1 8090   7.276   0.622   3.630
 1846WAT     H2 8091   7.140   0.625   3.612
 1846WAT    EPW 8092   7.213   0.634   3.585
 1847WAT      O 8093   7.105   0.948   3.178
 1847WAT     H1 8094   7.151   0.956   3.105
 1847WAT     H2 8095   7.150   0.890   3.225
 1847WAT    EPW 8096   7.118   0.940   3.174
 1848WAT      O 8097   6.959   0.842   4.288
 1848WAT     H1 8098   6.971   0.814   4.369
 1848WAT     H2 8099   6.898   0.788   4.257
 1848WAT    EPW 8100   6.951   0.830   4.295
 1849WAT      O 8101   7.616   0.595   4.794
 1849WAT     H1 8102   7.592   0.595   4.878
 1849WAT     H2 8103   7.541   0.580   4.752
 1849WAT    EPW 8104   7.601   0.593   4.801
 1850WAT      O 8105   7.103   0.295   3.708
 1850WAT     H1 8106   7.057   0.255   3.645
 1850WAT     H2 8107   7.173   0.243   3.717
 1850WAT    EPW 8108   7.107   0.281   3.700
 1851WAT      O 8109   7.614   0.914   4.521
 1851WAT     H1 8110   7.628   0.990   4.480
 1851WAT     H2 8111   7.693   0.878   4.523
 1851WAT    EPW 8112   7.628   0.920   4.515
 1852WAT      O 8113   7.724   0.703   3.971
 1852WAT     H1 8114   7.758   0.623   3.974
 1852WAT     H2 8115   7.790   0.753   3.946
 1852WAT    EPW 8116   7.739   0.698   3.968
 1853WAT      O 8117   7.729   0.648   3.592
 1853WAT     H1 8118   7.762   0.583   3.641
 1853WAT     H2 8119   7.753   0.626   3.511
 1853WAT    EPW 8120   7.738   0.635   3.588
 1854WAT      O 8121   6.940   1.042   3.799
 1854WAT     H1 8122   6.881   1.097   3.768
 1854WAT     H2 8123   6.982   1.015   3.728
 1854WAT    EPW 8124   6.937   1.046   3.784
 1855WAT      O 8125   7.524   0.826   3.547
 1855WAT     H1 8126   7.466   0.799   3.606
 1855WAT     H2 8127   7.586   0.765   3.550
 1855WAT    EPW 8128   7.524   0.813   3.556
 1856WAT      O 8129   7.094   0.909   3.592
 1856WAT     H1 8130   7.160   0.851   3.594
 1856WAT     H2 8131   7.133   0.984   3.570
 1856WAT    EPW 8132   7.110   0.911   3.589
 1857WAT      O 8133   7.176   0.757   3.942
 1857WAT     H1 8134   7.218   0.722   3.875
 1857WAT     H2 8135   7.208   0.715   4.012
 1857WAT    EPW 8136   7.187   0.746   3.943
 1858WAT      O 8137   7.499   1.043   3.872
 1858WAT     H1 8138   7.584   1.053   3.852
 1858WAT     H2 8139   7.469   1.124   3.879
 1858WAT    EPW 8140   7.507   1.056   3.870
 1859WAT      O 8141   7.399   1.164   4.446
 1859WAT     H1 8142   7.428   1.158   4.528
 1859WAT     H2 8143   7.336   1.104   4.441
 1859WAT    EPW 8144   7.394   1.155   4.457
 1860WAT      O 8145   7.838   0.833   3.174
 1860WAT     H1 8146   7.820   0.888   3.240
 1860WAT     H2 8147   7.915   0.862   3.144
 1860WAT    EPW 8148   7.847   0.846   3.180
 1861WAT      O 8149   7.198   0.981   4.358
 1861WAT     H1 8150   7.128   0.930   4.371
 1861WAT     H2 8151   7.224   0.960   4.277
 1861WAT    EPW 8152   7.192   0.970   4.348
 1862WAT      O 8153   7.334   0.866   4.615
 1862WAT     H1 8154   7.418   0.872   4.593
 1862WAT     H2 8155   7.331   0.905   4.692
 1862WAT    EPW 8156   7.346   0.873   4.623
 1863WAT      O 8157   7.531   0.417   4.090
 1863WAT     H1 8158   7.548   0.396   4.173
 1863WAT     H2 8159   7.465   0.363   4.068
 1863WAT    EPW 8160   7.524   0.406   4.099
 1864WAT      O 8161   7.606   0.411   4.349
 1864WAT     H1 8162   7.611   0.495   4.369
 1864WAT     H2 8163   7.577   0.374   4.422
 1864WAT    EPW 8164   7.602   0.418   4.363
 1865WAT      O 8165   6.888   0.848   4.970
 1865WAT     H1 8166   6.963   0.883   4.996
 1865WAT     H2 8167   6.905   0.762   4.964
 1865WAT    EPW 8168   6.902   0.840   4.973
 1866WAT      O 8169   7.262   0.497   3.808
 1866WAT     H1 8170   7.347   0.489   3.790
 1866WAT     H2 8171   7.227   0.429   3.766
 1866WAT    EPW 8172   7.270   0.486   3.799
 1867WAT      O 8173   7.139   1.170   3.931
 1867WAT     H1 8174   7.072   1.120   3.907
 1867WAT     H2 8175   7.179   1.188   3.856
 1867WAT    EPW 8176   7.135   1.165   3.917
 1868WAT      O 8177   7.499   0.498   3.631
 1868WAT     H1 8178   7.570   0.547   3.640
 1868WAT     H2 8179   7.521   0.441   3.568
 1868WAT    EPW 8180   7.513   0.497   3.623
 1869WAT      O 8181   6.915   0.662   3.963
 1869WAT     H1 8182   6.848   0.711   3.991
 1869WAT     H2 8183   6.983   0.717   3.966
 1869WAT    EPW 8184   6.915   0.677   3.968
 1870WAT      O 8185   6.921   0.331   3.473
 1870WAT     H1 8186   6.903   0.247   3.489
 1870WAT     H2 8187   6.987   0.327   3.416
 1870WAT    EPW 8188   6.928   0.318   3.467
 1871WAT      O 8189   6.938   0.747   3.431
 1871WAT     H1 8190   6.994   0.804   3.467
 1871WAT     H2 8191   6.915   0.696   3.497
 1871WAT    EPW 8192   6.943   0.748   3.446
 1872WAT      O 8193   7.359   0.647   4.140
 1872WAT     H1 8194   7.406   0.676   4.208
 1872WAT     H2 8195   7.416   0.599   4.094
 1872WAT    EPW 8196   7.374   0.644   4.143
 1873WAT      O 8197   6.921   0.592   3.194
 1873WAT     H1 8198   6.997   0.549   3.199
 1873WAT     H2 8199   6.923   0.645   3.263
 1873WAT    EPW 8200   6.933   0.593   3.205
 1874WAT      O 8201   7.015   0.414   3.994
 1874WAT     H1 8202   7.059   0.401   3.919
 1874WAT     H2 8203   6.995   0.499   3.992
 1874WAT    EPW 8204   7.019   0.425   3.983
 1875WAT      O 8205   7.424   0.766   3.822
 1875WAT     H1 8206   7.436   0.850   3.841
 1875WAT     H2 8207   7.491   0.726   3.862
 1875WAT    EPW 8208   7.436   0.772   3.831
 1876WAT      O 8209   7.302   0.237   3.982
 1876WAT     H1 8210   7.224   0.231   3.944
 1876WAT     H2 8211   7.309   0.161   4.026
 1876WAT    EPW 8212   7.292   0.225   3.983
 1877WAT      O 8213   7.755   1.088   4.268
 1877WAT     H1 8214   7.727   1.024   4.216
 1877WAT     H2 8215   7.734   1.161   4.225
 1877WAT    EPW 8216   7.748   1.089   4.254
 1878WAT      O 8217   7.125   0.346   4.885
 1878WAT     H1 8218   7.121   0.396   4.814
 1878WAT     H2 8219   7.158   0.271   4.856
 1878WAT    EPW 8220   7.129   0.342   4.870
 1879WAT      O 8221   7.715   0.851   4.829
 1879WAT     H1 8222   7.750   0.833   4.906
 1879WAT     H2 8223   7.671   0.778   4.809
 1879WAT    EPW 8224   7.714   0.837   4.837
 1880WAT      O 8225   7.523   1.102   3.487
 1880WAT     H1 8226   7.508   1.025   3.524
 1880WAT     H2 8227   7.592   1.088   3.436
 1880WAT    EPW 8228   7.531   1.089   3.485
 1881WAT      O 8229   7.752   1.054   3.327
 1881WAT     H1 8230   7.815   1.070   3.386
 1881WAT     H2 8231   7.756   1.123   3.274
 1881WAT    EPW 8232   7.762   1.067   3.328
 1882WAT      O 8233   7.202   0.307   3.410
 1882WAT     H1 8234   7.235   0.229   3.388
 1882WAT     H2 8235   7.267   0.344   3.456
 1882WAT    EPW 8236   7.217   0.301   3.414
 1883WAT      O 8237   7.871   0.242   3.553
 1883WAT     H1 8238   7.877   0.307   3.611
 1883WAT     H2 8239   7.853   0.172   3.602
 1883WAT    EPW 8240   7.870   0.241   3.569
 1884WAT      O 8241   7.794   0.446   3.996
 1884WAT     H1 8242   7.709   0.427   4.004
 1884WAT     H2 8243   7.826   0.430   4.075
 1884WAT    EPW 8244   7.786   0.441   4.009
 1885WAT      O 8245   7.469   1.119   3.084
 1885WAT     H1 8246   7.513   1.050   3.113
 1885WAT     H2 8247   7.490   1.182   3.142
 1885WAT    EPW 8248   7.479   1.118   3.097
 1886WAT      O 8249   7.179   0.416   4.227
 1886WAT     H1 8250   7.251   0.464   4.224
 1886WAT     H2 8251   7.152   0.413   4.145
 1886WAT    EPW 8252   7.185   0.422   4.215
 1887WAT      O 8253   7.436   0.210   3.115
 1887WAT     H1 8254   7.375   0.169   3.162
 1887WAT     H2 8255   7.398   0.222   3.038
 1887WAT    EPW 8256   7.421   0.206   3.111
 1888WAT      O 8257   7.118   0.521   4.655
 1888WAT     H1 8258   7.076   0.469   4.599
 1888WAT     H2 8259   7.083   0.599   4.641
 1888WAT    EPW 8260   7.107   0.525   4.645
 1889WAT      O 8261   7.592   0.702   4.317
 1889WAT     H1 8262   7.562   0.761   4.374
 1889WAT     H2 8263   7.597   0.746   4.242
 1889WAT    EPW 8264   7.588   0.717   4.314
 1890WAT      O 8265   7.390   0.597   4.657
 1890WAT     H1 8266   7.309   0.568   4.674
 1890WAT     H2 8267   7.381   0.684   4.657
 1890WAT    EPW 8268   7.377   0.605   4.659
 1891WAT      O 8269   7.844   0.344   4.266
 1891WAT     H1 8270   7.891   0.382   4.329
 1891WAT     H2 8271   7.761   0.358   4.292
 1891WAT    EPW 8272   7.838   0.352   4.279
 1892WAT      O 8273   7.770   1.083   3.789
 1892WAT     H1 8274   7.825   1.151   3.794
 1892WAT     H2 8275   7.735   1.092   3.709
 1892WAT    EPW 8276   7.773   1.095   3.778
 1893WAT      O 8277   7.588   0.906   4.128
 1893WAT     H1 8278   7.526   0.964   4.110
 1893WAT     H2 8279   7.613   0.878   4.049
 1893WAT    EPW 8280   7.583   0.911   4.114
 1894WAT      O 8281   7.748   0.384   3.119
 1894WAT     H1 8282   7.667   0.366   3.091
 1894WAT     H2 8283   7.744   0.469   3.139
 1894WAT    EPW 8284   7.735   0.394   3.118
 1895WAT      O 8285   7.854   1.071   4.716
 1895WAT     H1 8286   7.901   1.011   4.674
 1895WAT     H2 8287   7.818   1.027   4.782
 1895WAT    EPW 8288   7.855   1.056   4.720
 1896WAT      O 8289   7.859   0.593   4.618
 1896WAT     H1 8290   7.780   0.587   4.653
 1896WAT     H2 8291   7.867   0.678   4.598
 1896WAT    EPW 8292   7.849   0.605   4.620
 1897WAT      O 8293   7.442   1.214   4.150
 1897WAT     H1 8294   7.444   1.220   4.237
 1897WAT     H2 8295   7.400   1.139   4.135
 1897WAT    EPW 8296   7.436   1.204   4.160
 1898WAT      O 8297   7.119   1.164   4.694
 1898WAT     H1 8298   7.053   1.107   4.704
 1898WAT     H2 8299   7.081   1.241   4.709
 1898WAT    EPW 8300   7.104   1.167   4.697
 1899WAT      O 8301   6.973   0.372   4.457
 1899WAT     H1 8302   7.005   0.394   4.378
 1899WAT     H2 8303   6.963   0.285   4.451
 1899WAT    EPW 8304   6.976   0.362   4.444
 1900WAT      O 8305   7.518   0.836   3.230
 1900WAT     H1 8306   7.562   0.844   3.305
 1900WAT     H2 8307   7.437   0.814   3.256
 1900WAT    EPW 8308   7.512   0.834   3.245
 1901WAT      O 8309   7.449   0.301   4.595
 1901WAT     H1 8310   7.410   0.378   4.603
 1901WAT     H2 8311   7.409   0.264   4.527
 1901WAT    EPW 8312   7.438   0.307   4.586
 1902WAT      O 8313   7.250   0.743   3.290
 1902WAT     H1 8314   7.226   0.712   3.368
 1902WAT     H2 8315   7.247   0.673   3.238
 1902WAT    EPW 8316   7.246   0.728   3.294
 1903WAT      O 8317   7.532   0.567   3.164
 1903WAT     H1 8318   7.451   0.541   3.178
 1903WAT     H2 8319   7.530   0.653   3.183
 1903WAT    EPW 8320   7.520   0.576   3.169
 1904WAT      O 8321   7.496   1.142   4.723
 1904WAT     H1 8322   7.501   1.155   4.809
 1904WAT     H2 8323   7.562   1.086   4.707
 1904WAT    EPW 8324   7.507   1.136   4.733
 1905WAT      O 8325   7.256   0.980   4.859
 1905WAT     H1 8326   7.315   1.023   4.906
 1905WAT     H2 8327   7.219   1.043   4.810
 1905WAT    EPW 8328   7.259   0.996   4.858
 1906WAT      O 8329   7.048   0.779   4.552
 1906WAT     H1 8330   6.991   0.821   4.602
 1906WAT     H2 8331   7.122   0.826   4.561
 1906WAT    EPW 8332   7.051   0.792   4.560
 1907WAT      O 8333   7.227   1.106   3.429
 1907WAT     H1 8334   7.213   1.121   3.344
 1907WAT     H2 8335   7.314   1.114   3.437
 1907WAT    EPW 8336   7.238   1.109   3.418
 1908WAT      O 8337   7.644   0.346   3.402
 1908WAT     H1 8338   7.654   0.359   3.316
 1908WAT     H2 8339   7.726   0.340   3.431
 1908WAT    EPW 8340   7.657   0.347   3.394
 1909WAT      O 8341   7.296   0.987   4.077
 1909WAT     H1 8342   7.288   0.906   4.045
 1909WAT     H2 8343   7.251   1.036   4.020
 1909WAT    EPW 8344   7.288   0.983   4.064
 1910WAT      O 8345   7.053   1.212   4.435
 1910WAT     H1 8346   7.102   1.206   4.507
 1910WAT     H2 8347   7.072   1.138   4.391
 1910WAT    EPW 8348   7.063   1.200   4.439
 1911WAT      O 8349   6.965   0.569   1.762
 1911WAT     H1 8350   6.920   0.581   1.836
 1911WAT     H2 8351   6.936   0.491   1.733
 1911WAT    EPW 8352   6.954   0.559   1.768
 1912WAT      O 8353   7.253   0.474   1.280
 1912WAT     H1 8354   7.214   0.437   1.211
 1912WAT     H2 8355   7.245   0.415   1.342
 1912WAT    EPW 8356   7.246   0.460   1.279
 1913WAT      O 8357   7.215   0.639   1.670
 1913WAT     H1 8358   7.276   0.622   1.730
 1913WAT     H2 8359   7.140   0.625   1.712
 1913WAT    EPW 8360   7.213   0.634   1.685
 1914WAT      O 8361   7.105   0.948   1.277
 1914WAT     H1 8362   7.151   0.956   1.204
 1914WAT     H2 8363   7.150   0.890   1.324
 1914WAT    EPW 8364   7.118   0.940   1.273
 1915WAT      O 8365   6.959   0.842   2.387
 1915WAT     H1 8366   6.971   0.814   2.469
 1915WAT     H2 8367   6.898   0.788   2.356
 1915WAT    EPW 8368   6.951   0.830   2.395
 1916WAT      O 8369   7.616   0.595   2.894
 1916WAT     H1 8370   7.592   0.595   2.978
 1916WAT     H2 8371   7.541   0.580   2.851
 1916WAT    EPW 8372   7.601   0.593   2.900
 1917WAT      O 8373   7.103   0.295   1.807
 1917WAT     H1 8374   7.057   0.255   1.745
 1917WAT     H2 8375   7.173   0.243   1.817
 1917WAT    EPW 8376   7.107   0.281   1.799
 1918WAT      O 8377   7.614   0.914   2.620
 1918WAT     H1 8378   7.628   0.990   2.579
 1918WAT     H2 8379   7.693   0.878   2.623
 1918WAT    EPW 8380   7.628   0.920   2.615
 1919WAT      O 8381   7.724   0.703   2.071
 1919WAT     H1 8382   7.758   0.623   2.074
 1919WAT     H2 8383   7.790   0.753   2.045
 1919WAT    EPW 8384   7.739   0.698   2.067
 1920WAT      O 8385   7.729   0.648   1.692
 1920WAT     H1 8386   7.762   0.583   1.740
 1920WAT     H2 8387   7.753   0.626   1.611
 1920WAT    EPW 8388   7.738   0.635   1.687
 1921WAT      O 8389   6.940   1.042   1.899
 1921WAT     H1 8390   6.881   1.097   1.867
 1921WAT     H2 8391   6.982   1.015   1.827
 1921WAT    EPW 8392   6.937   1.046   1.884
 1922WAT      O 8393   7.524   0.826   1.647
 1922WAT     H1 8394   7.466   0.799   1.706
 1922WAT     H2 8395   7.586   0.765   1.649
 1922WAT    EPW 8396   7.524   0.813   1.656
 1923WAT      O 8397   7.094   0.909   1.692
 1923WAT     H1 8398   7.160   0.851   1.693
 1923WAT     H2 8399   7.133   0.984   1.670
 1923WAT    EPW 8400   7.110   0.911   1.689
 1924WAT      O 8401   7.176   0.757   2.042
 1924WAT     H1 8402   7.218   0.722   1.974
 1924WAT     H2 8403   7.208   0.715   2.111
 1924WAT    EPW 8404   7.187   0.746   2.042
 1925WAT      O 8405   7.499   1.043   1.971
 1925WAT     H1 8406   7.584   1.053   1.952
 1925WAT     H2 8407   7.469   1.124   1.978
 1925WAT    EPW 8408   7.507   1.056   1.969
 1926WAT      O 8409   7.399   1.164   2.545
 1926WAT     H1 8410   7.428   1.158   2.627
 1926WAT     H2 8411   7.336   1.104   2.541
 1926WAT    EPW 8412   7.394   1.155   2.557
 1927WAT      O 8413   7.838   0.833   1.274
 1927WAT     H1 8414   7.820   0.888   1.339
 1927WAT     H2 8415   7.915   0.862   1.244
 1927WAT    EPW 8416   7.847   0.846   1.279
 1928WAT      O 8417   7.198   0.981   2.458
 1928WAT     H1 8418   7.128   0.930   2.470
 1928WAT     H2 8419   7.224   0.960   2.377
 1928WAT    EPW 8420   7.192   0.970   2.447
 1929WAT      O 8421   7.334   0.866   2.714
 1929WAT     H1 8422   7.418   0.872   2.692
 1929WAT     H2 8423   7.331   0.905   2.792
 1929WAT    EPW 8424   7.346   0.873   2.722
 1930WAT      O 8425   7.531   0.417   2.189
 1930WAT     H1 8426   7.548   0.396   2.272
 1930WAT     H2 8427   7.465   0.363   2.168
 1930WAT    EPW 8428   7.524   0.406   2.198
 1931WAT      O 8429   7.606   0.411   2.448
 1931WAT     H1 8430   7.611   0.495   2.468
 1931WAT     H2 8431   7.577   0.374   2.522
 1931WAT    EPW 8432   7.602   0.418   2.462
 1932WAT      O 8433   6.888   0.848   3.069
 1932WAT     H1 8434   6.963   0.883   3.095
 1932WAT     H2 8435   6.905   0.762   3.064
 1932WAT    EPW 8436   6.902   0.840   3.072
 1933WAT      O 8437   7.262   0.497   1.907
 1933WAT     H1 8438   7.347   0.489   1.890
 1933WAT     H2 8439   7.227   0.429   1.866
 1933WAT    EPW 8440   7.270   0.486   1.898
 1934WAT      O 8441   7.139   1.170   2.031
 1934WAT     H1 8442   7.072   1.120   2.006
 1934WAT     H2 8443   7.179   1.188   1.956
 1934WAT    EPW 8444   7.135   1.165   2.016
 1935WAT      O 8445   7.499   0.498   1.730
 1935WAT     H1 8446   7.570   0.547   1.739
 1935WAT     H2 8447   7.521   0.441   1.668
 1935WAT    EPW 8448   7.513   0.497   1.723
 1936WAT      O 8449   6.915   0.662   2.062
 1936WAT     H1 8450   6.848   0.711   2.090
 1936WAT     H2 8451   6.983   0.717   2.065
 1936WAT    EPW 8452   6.915   0.677   2.067
 1937WAT      O 8453   6.921   0.331   1.573
 1937WAT     H1 8454   6.903   0.247   1.588
 1937WAT     H2 8455   6.987   0.327   1.516
 1937WAT    EPW 8456   6.928   0.318   1.567
 1938WAT      O 8457   6.938   0.747   1.530
 1938WAT     H1 8458   6.994   0.804   1.567
 1938WAT     H2 8459   6.915   0.696   1.597
 1938WAT    EPW 8460   6.943   0.748   1.545
 1939WAT      O 8461   7.359   0.647   2.239
 1939WAT     H1 8462   7.406   0.676   2.307
 1939WAT     H2 8463   7.416   0.599   2.194
 1939WAT    EPW 8464   7.374   0.644   2.242
 1940WAT      O 8465   6.921   0.592   1.293
 1940WAT     H1 8466   6.997   0.549   1.299
 1940WAT     H2 8467   6.923   0.645   1.362
 1940WAT    EPW 8468   6.933   0.593   1.304
 1941WAT      O 8469   7.015   0.414   2.094
 1941WAT     H1 8470   7.059   0.401   2.019
 1941WAT     H2 8471   6.995   0.499   2.091
 1941WAT    EPW 8472   7.019   0.425   2.082
 1942WAT      O 8473   7.424   0.766   1.922
 1942WAT     H1 8474   7.436   0.850   1.940
 1942WAT     H2 8475   7.491   0.726   1.961
 1942WAT    EPW 8476   7.436   0.772   1.930
 1943WAT      O 8477   7.302   0.237   2.082
 1943WAT     H1 8478   7.224   0.231   2.044
 1943WAT     H2 8479   7.309   0.161   2.126
 1943WAT    EPW 8480   7.292   0.225   2.083
 1944WAT      O 8481   7.755   1.088   2.368
 1944WAT     H1 8482   7.727   1.024   2.316
 1944WAT     H2 8483   7.734   1.161   2.324
 1944WAT    EPW 8484   7.748   1.089   2.354
 1945WAT      O 8485   7.125   0.346   2.985
 1945WAT     H1 8486   7.121   0.396   2.913
 1945WAT     H2 8487   7.158   0.271   2.955
 1945WAT    EPW 8488   7.129   0.342   2.970
 1946WAT      O 8489   7.715   0.851   2.928
 1946WAT     H1 8490   7.750   0.833   3.006
 1946WAT     H2 8491   7.671   0.778   2.908
 1946WAT    EPW 8492   7.714   0.837   2.937
 1947WAT      O 8493   7.523   1.102   1.587
 1947WAT     H1 8494   7.508   1.025   1.624
 1947WAT     H2 8495   7.592   1.088   1.535
 1947WAT    EPW 8496   7.531   1.089   1.584
 1948WAT      O 8497   7.752   1.054   1.427
 1948WAT     H1 8498   7.815   1.070   1.486
 1948WAT     H2 8499   7.756   1.123   1.374
 1948WAT    EPW 8500   7.762   1.067   1.428
 1949WAT      O 8501   7.202   0.307   1.510
 1949WAT     H1 8502   7.235   0.229   1.487
 1949WAT     H2 8503   7.267   0.344   1.555
 1949WAT    EPW 8504   7.217   0.301   1.513
 1950WAT      O 8505   7.871   0.242   1.652
 1950WAT     H1 8506   7.877   0.307   1.710
 1950WAT     H2 8507   7.853   0.172   1.701
 1950WAT    EPW 8508   7.870   0.241   1.668
 1951WAT      O 8509   7.794   0.446   2.095
 1951WAT     H1 8510   7.709   0.427   2.103
 1951WAT     H2 8511   7.826   0.430   2.175
 1951WAT    EPW 8512   7.786   0.441   2.108
 1952WAT      O 8513   7.469   1.119   1.184
 1952WAT     H1 8514   7.513   1.050   1.213
 1952WAT     H2 8515   7.490   1.182   1.241
 1952WAT    EPW 8516   7.479   1.118   1.197
 1953WAT      O 8517   7.179   0.416   2.327
 1953WAT     H1 8518   7.251   0.464   2.323
 1953WAT     H2 8519   7.152   0.413   2.244
 1953WAT    EPW 8520   7.185   0.422   2.314
 1954WAT      O 8521   7.436   0.210   1.214
 1954WAT     H1 8522   7.375   0.169   1.262
 1954WAT     H2 8523   7.398   0.222   1.137
 1954WAT    EPW 8524   7.421   0.206   1.210
 1955WAT      O 8525   7.118   0.521   2.755
 1955WAT     H1 8526   7.076   0.469   2.699
 1955WAT     H2 8527   7.083   0.599   2.740
 1955WAT    EPW 8528   7.107   0.525   2.744
 1956WAT      O 8529   7.592   0.702   2.416
 1956WAT     H1 8530   7.562   0.761   2.473
 1956WAT     H2 8531   7.597   0.746   2.342
 1956WAT    EPW 8532   7.588   0.717   2.414
 1957WAT      O 8533   7.390   0.597   2.756
 1957WAT     H1 8534   7.309   0.568   2.773
 1957WAT     H2 8535   7.381   0.684   2.757
 1957WAT    EPW 8536   7.377   0.605   2.759
 1958WAT      O 8537   7.844   0.344   2.366
 1958WAT     H1 8538   7.891   0.382   2.428
 1958WAT     H2 8539   7.761   0.358   2.391
 1958WAT    EPW 8540   7.838   0.352   2.379
 1959WAT      O 8541   7.770   1.083   1.888
 1959WAT     H1 8542   7.825   1.151   1.894
 1959WAT     H2 8543   7.735   1.092   1.809
 1959WAT    EPW 8544   7.773   1.095   1.877
 1960WAT      O 8545   7.588   0.906   2.227
 1960WAT     H1 8546   7.526   0.964   2.209
 1960WAT     H2 8547   7.613   0.878   2.149
 1960WAT    EPW 8548   7.583   0.911   2.213
 1961WAT      O 8549   7.748   0.384   1.219
 1961WAT     H1 8550   7.667   0.366   1.190
 1961WAT     H2 8551   7.744   0.469   1.238
 1961WAT    EPW 8552   7.735   0.394   1.217
 1962WAT      O 8553   7.854   1.071   2.815
 1962WAT     H1 8554   7.901   1.011   2.774
 1962WAT     H2 8555   7.818   1.027   2.882
 1962WAT    EPW 8556   7.855   1.056   2.819
 1963WAT      O 8557   7.859   0.593   2.717
 1963WAT     H1 8558   7.780   0.587   2.752
 1963WAT     H2 8559   7.867   0.678   2.698
 1963WAT    EPW 8560   7.849   0.605   2.720
 1964WAT      O 8561   7.442   1.214   2.249
 1964WAT     H1 8562   7.444   1.220   2.336
 1964WAT     H2 8563   7.400   1.139   2.234
 1964WAT    EPW 8564   7.436   1.204   2.260
 1965WAT      O 8565   7.119   1.164   2.793
 1965WAT     H1 8566   7.053   1.107   2.803
 1965WAT     H2 8567   7.081   1.241   2.808
 1965WAT    EPW 8568   7.104   1.167   2.797
 1966WAT      O 8569   6.973   0.372   2.556
 1966WAT     H1 8570   7.005   0.394   2.478
 1966WAT     H2 8571   6.963   0.285   2.550
 1966WAT    EPW 8572   6.976   0.362   2.544
 1967WAT      O 8573   7.518   0.836   1.329
 1967WAT     H1 8574   7.562   0.844   1.404
 1967WAT     H2 8575   7.437   0.814   1.355
 1967WAT    EPW 8576   7.512   0.834   1.344
 1968WAT      O 8577   7.449   0.301   2.694
 1968WAT     H1 8578   7.410   0.378   2.702
 1968WAT     H2 8579   7.409   0.264   2.627
 1968WAT    EPW 8580   7.438   0.307   2.686
 1969WAT      O 8581   7.250   0.743   1.389
 1969WAT     H1 8582   7.226   0.712   1.467
 1969WAT     H2 8583   7.247   0.673   1.338
 1969WAT    EPW 8584   7.246   0.728   1.393
 1970WAT      O 8585   7.532   0.567   1.264
 1970WAT     H1 8586   7.451   0.541   1.278
 1970WAT     H2 8587   7.530   0.653   1.282
 1970WAT    EPW 8588   7.520   0.576   1.268
 1971WAT      O 8589   7.496   1.142   2.822
 1971WAT     H1 8590   7.501   1.155   2.908
 1971WAT     H2 8591   7.562   1.086   2.806
 1971WAT    EPW 8592   7.507   1.136   2.833
 1972WAT      O 8593   7.256   0.980   2.958
 1972WAT     H1 8594   7.315   1.023   3.005
 1972WAT     H2 8595   7.219   1.043   2.909
 1972WAT    EPW 8596   7.259   0.996   2.958
 1973WAT      O 8597   7.048   0.779   2.651
 1973WAT     H1 8598   6.991   0.821   2.702
 1973WAT     H2 8599   7.122   0.826   2.660
 1973WAT    EPW 8600   7.051   0.792   2.660
 1974WAT      O 8601   7.227   1.106   1.528
 1974WAT     H1 8602   7.213   1.121   1.444
 1974WAT     H2 8603   7.314   1.114   1.536
 1974WAT    EPW 8604   7.238   1.109   1.517
 1975WAT      O 8605   7.644   0.346   1.501
 1975WAT     H1 8606   7.654   0.359   1.416
 1975WAT     H2 8607   7.726   0.340   1.531
 1975WAT    EPW 8608   7.657   0.347   1.493
 1976WAT      O 8609   7.296   0.987   2.176
 1976WAT     H1 8610   7.288   0.906   2.145
 1976WAT     H2 8611   7.251   1.036   2.119
 1976WAT    EPW 8612   7.288   0.983   2.163
 1977WAT      O 8613   7.053   1.212   2.534
 1977WAT     H1 8614   7.102   1.206   2.606
 1977WAT     H2 8615   7.072   1.138   2.491
 1977WAT    EPW 8616   7.063   1.200   2.538
 1978WAT      O 8617   6.959   0.842   0.487
 1978WAT     H1 8618   6.971   0.814   0.568
 1978WAT     H2 8619   6.898   0.788   0.456
 1978WAT    EPW 8620   6.951   0.830   0.494
 1979WAT      O 8621   7.616   0.595   0.993
 1979WAT     H1 8622   7.592   0.595   1.077
 1979WAT     H2 8623   7.541   0.580   0.951
 1979WAT    EPW 8624   7.601   0.593   0.999
 1980WAT      O 8625   7.614   0.914   0.720
 1980WAT     H1 8626   7.628   0.990   0.679
 1980WAT     H2 8627   7.693   0.878   0.722
 1980WAT    EPW 8628   7.628   0.920   0.714
 1981WAT      O 8629   7.399   1.164   0.645
 1981WAT     H1 8630   7.428   1.158   0.727
 1981WAT     H2 8631   7.336   1.104   0.640
 1981WAT    EPW 8632   7.394   1.155   0.656
 1982WAT      O 8633   7.198   0.981   0.557
 1982WAT     H1 8634   7.128   0.930   0.570
 1982WAT     H2 8635   7.224   0.960   0.476
 1982WAT    EPW 8636   7.192   0.970   0.547
 1983WAT      O 8637   7.334   0.866   0.814
 1983WAT     H1 8638   7.418   0.872   0.791
 1983WAT     H2 8639   7.331   0.905   0.891
 1983WAT    EPW 8640   7.346   0.873   0.822
 1984WAT      O 8641   7.531   0.417   0.289
 1984WAT     H1 8642   7.548   0.396   0.371
 1984WAT     H2 8643   7.465   0.363   0.267
 1984WAT    EPW 8644   7.524   0.406   0.298
 1985WAT      O 8645   7.606   0.411   0.548
 1985WAT     H1 8646   7.611   0.495   0.568
 1985WAT     H2 8647   7.577   0.374   0.621
 1985WAT    EPW 8648   7.602   0.418   0.561
 1986WAT      O 8649   6.888   0.848   1.169
 1986WAT     H1 8650   6.963   0.883   1.194
 1986WAT     H2 8651   6.905   0.762   1.163
 1986WAT    EPW 8652   6.902   0.840   1.172
 1987WAT      O 8653   7.359   0.647   0.339
 1987WAT     H1 8654   7.406   0.676   0.406
 1987WAT     H2 8655   7.416   0.599   0.293
 1987WAT    EPW 8656   7.374   0.644   0.342
 1988WAT      O 8657   7.755   1.088   0.467
 1988WAT     H1 8658   7.727   1.024   0.415
 1988WAT     H2 8659   7.734   1.161   0.423
 1988WAT    EPW 8660   7.748   1.089   0.453
 1989WAT      O 8661   7.125   0.346   1.084
 1989WAT     H1 8662   7.121   0.396   1.013
 1989WAT     H2 8663   7.158   0.271   1.054
 1989WAT    EPW 8664   7.129   0.342   1.069
 1990WAT      O 8665   7.715   0.851   1.027
 1990WAT     H1 8666   7.750   0.833   1.105
 1990WAT     H2 8667   7.671   0.778   1.008
 1990WAT    EPW 8668   7.714   0.837   1.036
 1991WAT      O 8669   7.794   0.446   0.195
 1991WAT     H1 8670   7.709   0.427   0.203
 1991WAT     H2 8671   7.826   0.430   0.274
 1991WAT    EPW 8672   7.786   0.441   0.208
 1992WAT      O 8673   7.179   0.416   0.426
 1992WAT     H1 8674   7.251   0.464   0.423
 1992WAT     H2 8675   7.152   0.413   0.343
 1992WAT    EPW 8676   7.185   0.422   0.413
 1993WAT      O 8677   7.118   0.521   0.854
 1993WAT     H1 8678   7.076   0.469   0.798
 1993WAT     H2 8679   7.083   0.599   0.840
 1993WAT    EPW 8680   7.107   0.525   0.844
 1994WAT      O 8681   7.592   0.702   0.516
 1994WAT     H1 8682   7.562   0.761   0.573
 1994WAT     H2 8683   7.597   0.746   0.441
 1994WAT    EPW 8684   7.588   0.717   0.513
 1995WAT      O 8685   7.390   0.597   0.856
 1995WAT     H1 8686   7.309   0.568   0.872
 1995WAT     H2 8687   7.381   0.684   0.856
 1995WAT    EPW 8688   7.377   0.605   0.858
 1996WAT      O 8689   7.844   0.344   0.465
 1996WAT     H1 8690   7.891   0.382   0.528
 1996WAT     H2 8691   7.761   0.358   0.491
 1996WAT    EPW 8692   7.838   0.352   0.478
 1997WAT      O 8693   7.588   0.906   0.327
 1997WAT     H1 8694   7.526   0.964   0.308
 1997WAT     H2 8695   7.613   0.878   0.248
 1997WAT    EPW 8696   7.583   0.911   0.312
 1998WAT      O 8697   7.854   1.071   0.915
 1998WAT     H1 8698   7.901   1.011   0.873
 1998WAT     H2 8699   7.818   1.027   0.981
 1998WAT    EPW 8700   7.855   1.056   0.918
 1999WAT      O 8701   7.859   0.593   0.817
 1999WAT     H1 8702   7.780   0.587   0.852
 1999WAT     H2 8703   7.867   0.678   0.797
 1999WAT    EPW 8704   7.849   0.605   0.819
 2000WAT      O 8705   7.442   1.214   0.348
 2000WAT     H1 8706   7.444   1.220   0.435
 2000WAT     H2 8707   7.400   1.139   0.333
 2000WAT    EPW 8708   7.436   1.204   0.359
 2001WAT      O 8709   7.119   1.164   0.893
 2001WAT     H1 8710   7.053   1.107   0.902
 2001WAT     H2 8711   7.081   1.241   0.908
 2001WAT    EPW 8712   7.104   1.167   0.896
 2002WAT      O 8713   6.973   0.372   0.655
 2002WAT     H1 8714   7.005   0.394   0.577
 2002WAT     H2 8715   6.963   0.285   0.650
 2002WAT    EPW 8716   6.976   0.362   0.643
 2003WAT      O 8717   7.449   0.301   0.794
 2003WAT     H1 8718   7.410   0.378   0.801
 2003WAT     H2 8719   7.409   0.264   0.726
 2003WAT    EPW 8720   7.438   0.307   0.785
 2004WAT      O 8721   7.496   1.142   0.921
 2004WAT     H1 8722   7.501   1.155   1.008
 2004WAT     H2 8723   7.562   1.086   0.906
 2004WAT    EPW 8724   7.507   1.136   0.932
 2005WAT      O 8725   7.256   0.980   1.057
 2005WAT     H1 8726   7.315   1.023   1.105
 2005WAT     H2 8727   7.219   1.043   1.009
 2005WAT    EPW 8728   7.259   0.996   1.057
 2006WAT      O 8729   7.048   0.779   0.750
 2006WAT     H1 8730   6.991   0.821   0.801
 2006WAT     H2 8731   7.122   0.826   0.760
 2006WAT    EPW 8732   7.051   0.792   0.759
 2007WAT      O 8733   7.296   0.987   0.276
 2007WAT     H1 8734   7.288   0.906   0.244
 2007WAT     H2 8735   7.251   1.036   0.218
 2007WAT    EPW 8736   7.288   0.983   0.262
 2008WAT      O 8737   7.053   1.212   0.634
 2008WAT     H1 8738   7.102   1.206   0.705
 2008WAT     H2 8739   7.072   1.138   0.590
 2008WAT    EPW 8740   7.063   1.200   0.638
 2009WAT      O 8741   6.110   6.855   7.451
 2009WAT     H1 8742   6.086   6.903   7.383
 2009WAT     H2 8743   6.197   6.847   7.441
 2009WAT    EPW 8744   6.119   6.861   7.439
 2010WAT      O 8745   5.052   7.339   7.114
 2010WAT     H1 8746   4.975   7.356   7.078
 2010WAT     H2 8747   5.056   7.252   7.116
 2010WAT    EPW 8748   5.041   7.329   7.109
 2011WAT      O 8749   5.366   7.866   6.981
 2011WAT     H1 8750   5.327   7.829   6.913
 2011WAT     H2 8751   5.358   7.806   7.044
 2011WAT    EPW 8752   5.359   7.851   6.981
 2012WAT      O 8753   6.358   7.653   7.586
 2012WAT     H1 8754   6.366   7.653   7.499
 2012WAT     H2 8755   6.300   7.590   7.600
 2012WAT    EPW 8756   6.351   7.644   7.575
 2013WAT      O 8757   5.757   6.963   7.366
 2013WAT     H1 8758   5.750   7.031   7.312
 2013WAT     H2 8759   5.831   6.924   7.341
 2013WAT    EPW 8760   5.767   6.968   7.355
 2014WAT      O 8761   5.217   7.686   7.509
 2014WAT     H1 8762   5.170   7.647   7.447
 2014WAT     H2 8763   5.287   7.634   7.518
 2014WAT    EPW 8764   5.220   7.672   7.501
 2015WAT      O 8765   5.417   7.496   7.512
 2015WAT     H1 8766   5.498   7.477   7.536
 2015WAT     H2 8767   5.369   7.434   7.551
 2015WAT    EPW 8768   5.422   7.484   7.521
 2016WAT      O 8769   5.476   7.005   7.438
 2016WAT     H1 8770   5.447   7.055   7.373
 2016WAT     H2 8771   5.563   7.013   7.432
 2016WAT    EPW 8772   5.485   7.014   7.428
 2017WAT      O 8773   5.774   6.919   7.660
 2017WAT     H1 8774   5.782   7.005   7.673
 2017WAT     H2 8775   5.771   6.912   7.574
 2017WAT    EPW 8776   5.775   6.931   7.650
 2018WAT      O 8777   6.242   7.212   6.890
 2018WAT     H1 8778   6.197   7.280   6.921
 2018WAT     H2 8779   6.253   7.162   6.961
 2018WAT    EPW 8780   6.237   7.215   6.905
 2019WAT      O 8781   5.062   7.462   7.811
 2019WAT     H1 8782   5.037   7.545   7.803
 2019WAT     H2 8783   4.996   7.424   7.852
 2019WAT    EPW 8784   5.049   7.468   7.816
 2020WAT      O 8785   6.781   7.209   7.520
 2020WAT     H1 8786   6.746   7.277   7.562
 2020WAT     H2 8787   6.717   7.149   7.521
 2020WAT    EPW 8788   6.767   7.210   7.526
 2021WAT      O 8789   5.993   7.373   7.482
 2021WAT     H1 8790   6.022   7.350   7.403
 2021WAT     H2 8791   6.067   7.381   7.529
 2021WAT    EPW 8792   6.008   7.371   7.477
 2022WAT      O 8793   6.066   7.407   6.994
 2022WAT     H1 8794   6.094   7.486   7.019
 2022WAT     H2 8795   5.988   7.424   6.958
 2022WAT    EPW 8796   6.058   7.421   6.992
 2023WAT      O 8797   6.302   7.014   7.081
 2023WAT     H1 8798   6.356   6.946   7.089
 2023WAT     H2 8799   6.308   7.054   7.158
 2023WAT    EPW 8800   6.311   7.010   7.094
 2024WAT      O 8801   5.098   7.131   7.338
 2024WAT     H1 8802   5.086   7.044   7.341
 2024WAT     H2 8803   5.050   7.160   7.405
 2024WAT    EPW 8804   5.089   7.122   7.348
 2025WAT      O 8805   6.028   7.252   7.212
 2025WAT     H1 8806   5.977   7.185   7.187
 2025WAT     H2 8807   6.033   7.302   7.141
 2025WAT    EPW 8808   6.021   7.249   7.198
 2026WAT      O 8809   6.028   6.946   7.202
 2026WAT     H1 8810   5.982   6.906   7.139
 2026WAT     H2 8811   6.105   6.961   7.164
 2026WAT    EPW 8812   6.033   6.942   7.187
 2027WAT      O 8813   5.888   7.182   7.654
 2027WAT     H1 8814   5.895   7.239   7.588
 2027WAT     H2 8815   5.900   7.232   7.725
 2027WAT    EPW 8816   5.891   7.198   7.655
 2028WAT      O 8817   5.349   6.765   7.489
 2028WAT     H1 8818   5.402   6.834   7.488
 2028WAT     H2 8819   5.349   6.737   7.406
 2028WAT    EPW 8820   5.356   6.771   7.476
 2029WAT      O 8821   6.393   6.794   7.526
 2029WAT     H1 8822   6.397   6.762   7.607
 2029WAT     H2 8823   6.425   6.729   7.477
 2029WAT    EPW 8824   6.398   6.780   7.531
 2030WAT      O 8825   5.393   7.146   7.654
 2030WAT     H1 8826   5.421   7.103   7.583
 2030WAT     H2 8827   5.376   7.082   7.711
 2030WAT    EPW 8828   5.395   7.130   7.652
 2031WAT      O 8829   6.452   7.569   7.034
 2031WAT     H1 8830   6.430   7.642   6.992
 2031WAT     H2 8831   6.407   7.574   7.109
 2031WAT    EPW 8832   6.442   7.580   7.039
 2032WAT      O 8833   6.870   7.055   6.980
 2032WAT     H1 8834   6.804   6.998   6.982
 2032WAT     H2 8835   6.851   7.106   6.912
 2032WAT    EPW 8836   6.858   7.054   6.970
 2033WAT      O 8837   5.035   7.722   7.275
 2033WAT     H1 8838   5.016   7.638   7.290
 2033WAT     H2 8839   5.101   7.718   7.218
 2033WAT    EPW 8840   5.042   7.709   7.268
 2034WAT      O 8841   6.671   7.011   7.207
 2034WAT     H1 8842   6.745   6.970   7.227
 2034WAT     H2 8843   6.697   7.082   7.165
 2034WAT    EPW 8844   6.685   7.015   7.204
 2035WAT      O 8845   6.316   7.240   7.715
 2035WAT     H1 8846   6.350   7.255   7.793
 2035WAT     H2 8847   6.271   7.166   7.726
 2035WAT    EPW 8848   6.314   7.231   7.728
 2036WAT      O 8849   5.764   7.162   7.160
 2036WAT     H1 8850   5.763   7.150   7.074
 2036WAT     H2 8851   5.745   7.246   7.170
 2036WAT    EPW 8852   5.761   7.172   7.149
 2037WAT      O 8853   5.399   7.445   7.124
 2037WAT     H1 8854   5.386   7.400   7.198
 2037WAT     H2 8855   5.341   7.411   7.069
 2037WAT    EPW 8856   5.388   7.433   7.127
 2038WAT      O 8857   5.416   7.628   7.784
 2038WAT     H1 8858   5.337   7.622   7.745
 2038WAT     H2 8859   5.423   7.553   7.827
 2038WAT    EPW 8860   5.405   7.616   7.785
 2039WAT      O 8861   6.267   7.170   7.321
 2039WAT     H1 8862   6.316   7.241   7.314
 2039WAT     H2 8863   6.188   7.196   7.295
 2039WAT    EPW 8864   6.263   7.184   7.316
 2040WAT      O 8865   6.144   7.634   7.121
 2040WAT     H1 8866   6.144   7.706   7.072
 2040WAT     H2 8867   6.081   7.647   7.179
 2040WAT    EPW 8868   6.135   7.646   7.122
 2041WAT      O 8869   5.604   6.868   7.087
 2041WAT     H1 8870   5.613   6.857   7.173
 2041WAT     H2 8871   5.533   6.918   7.081
 2041WAT    EPW 8872   5.595   6.874   7.099
 2042WAT      O 8873   5.316   7.699   7.212
 2042WAT     H1 8874   5.348   7.621   7.189
 2042WAT     H2 8875   5.381   7.735   7.257
 2042WAT    EPW 8876   5.330   7.692   7.215
 2043WAT      O 8877   5.016   6.865   7.308
 2043WAT     H1 8878   5.029   6.794   7.259
 2043WAT     H2 8879   4.979   6.833   7.381
 2043WAT    EPW 8880   5.012   6.849   7.312
 2044WAT      O 8881   5.985   7.633   7.354
 2044WAT     H1 8882   5.991   7.698   7.412
 2044WAT     H2 8883   5.966   7.563   7.403
 2044WAT    EPW 8884   5.983   7.632   7.370
 2045WAT      O 8885   5.435   7.084   7.005
 2045WAT     H1 8886   5.383   7.090   6.935
 2045WAT     H2 8887   5.513   7.108   6.976
 2045WAT    EPW 8888   5.439   7.089   6.990
 2046WAT      O 8889   5.907   7.837   7.797
 2046WAT     H1 8890   5.823   7.818   7.805
 2046WAT     H2 8891   5.940   7.821   7.876
 2046WAT    EPW 8892   5.899   7.832   7.810
 2047WAT      O 8893   5.615   7.324   7.702
 2047WAT     H1 8894   5.700   7.305   7.712
 2047WAT     H2 8895   5.578   7.246   7.688
 2047WAT    EPW 8896   5.622   7.310   7.702
 2048WAT      O 8897   5.097   7.458   7.368
 2048WAT     H1 8898   5.146   7.428   7.434
 2048WAT     H2 8899   5.110   7.398   7.305
 2048WAT    EPW 8900   5.106   7.445   7.368
 2049WAT      O 8901   5.550   7.601   6.916
 2049WAT     H1 8902   5.489   7.561   6.964
 2049WAT     H2 8903   5.511   7.613   6.839
 2049WAT    EPW 8904   5.535   7.597   6.912
 2050WAT      O 8905   6.726   7.767   7.797
 2050WAT     H1 8906   6.698   7.807   7.869
 2050WAT     H2 8907   6.812   7.761   7.809
 2050WAT    EPW 8908   6.735   7.772   7.809
 2051WAT      O 8909   5.695   7.447   7.187
 2051WAT     H1 8910   5.722   7.530   7.194
 2051WAT     H2 8911   5.609   7.455   7.178
 2051WAT    EPW 8912   5.686   7.460   7.187
 2052WAT      O 8913   5.043   7.044   7.841
 2052WAT     H1 8914   5.048   7.079   7.761
 2052WAT     H2 8915   5.119   7.068   7.878
 2052WAT    EPW 8916   5.055   7.053   7.835
 2053WAT      O 8917   6.548   7.374   7.614
 2053WAT     H1 8918   6.474   7.342   7.645
 2053WAT     H2 8919   6.548   7.457   7.642
 2053WAT    EPW 8920   6.537   7.381   7.622
 2054WAT      O 8921   6.710   7.430   7.012
 2054WAT     H1 8922   6.748   7.498   6.972
 2054WAT     H2 8923   6.626   7.453   7.015
 2054WAT    EPW 8924   6.703   7.444   7.007
 2055WAT      O 8925   5.861   7.775   6.921
 2055WAT     H1 8926   5.781   7.757   6.892
 2055WAT     H2 8927   5.858   7.860   6.940
 2055WAT    EPW 8928   5.849   7.785   6.919
 2056WAT      O 8929   6.479   7.390   7.350
 2056WAT     H1 8930   6.500   7.370   7.432
 2056WAT     H2 8931   6.555   7.417   7.316
 2056WAT    EPW 8932   6.494   7.391   7.357
 2057WAT      O 8933   6.582   6.999   7.497
 2057WAT     H1 8934   6.510   6.952   7.514
 2057WAT     H2 8935   6.565   7.033   7.419
 2057WAT    EPW 8936   6.569   6.997   7.488
 2058WAT      O 8937   6.626   7.793   7.335
 2058WAT     H1 8938   6.673   7.720   7.330
 2058WAT     H2 8939   6.544   7.764   7.328
 2058WAT    EPW 8940   6.621   7.778   7.333
 2059WAT      O 8941   5.372   7.194   7.266
 2059WAT     H1 8942   5.384   7.162   7.187
 2059WAT     H2 8943   5.291   7.170   7.286
 2059WAT    EPW 8944   5.362   7.186   7.258
 2060WAT      O 8945   6.703   7.504   7.279
 2060WAT     H1 8946   6.713   7.499   7.193
 2060WAT     H2 8947   6.777   7.471   7.311
 2060WAT    EPW 8948   6.715   7.499   7.271
 2061WAT      O 8949   5.232   7.357   6.920
 2061WAT     H1 8950   5.165   7.358   6.975
 2061WAT     H2 8951   5.242   7.272   6.901
 2061WAT    EPW 8952   5.224   7.344   6.925
 2062WAT      O 8953   6.100   7.018   7.679
 2062WAT     H1 8954   6.030   7.070   7.673
 2062WAT     H2 8955   6.104   6.980   7.600
 2062WAT    EPW 8956   6.091   7.020   7.666
 2063WAT      O 8957   6.491   7.598   7.808
 2063WAT     H1 8958   6.557   7.652   7.824
 2063WAT     H2 8959   6.456   7.629   7.734
 2063WAT    EPW 8960   6.495   7.610   7.799
 2064WAT      O 8961   5.846   6.823   6.962
 2064WAT     H1 8962   5.854   6.847   6.879
 2064WAT     H2 8963   5.772   6.860   6.988
 2064WAT    EPW 8964   5.836   6.832   6.953
 2065WAT      O 8965   6.168   7.465   7.653
 2065WAT     H1 8966   6.223   7.404   7.683
 2065WAT     H2 8967   6.126   7.491   7.725
 2065WAT    EPW 8968   6.170   7.459   7.668
 2066WAT      O 8969   5.193   7.330   7.602
 2066WAT     H1 8970   5.156   7.360   7.675
 2066WAT     H2 8971   5.247   7.267   7.630
 2066WAT    EPW 8972   5.196   7.325   7.617
 2067WAT      O 8973   6.365   7.648   7.309
 2067WAT     H1 8974   6.372   7.563   7.327
 2067WAT     H2 8975   6.283   7.656   7.282
 2067WAT    EPW 8976   6.354   7.636   7.308
 2068WAT      O 8977   5.757   7.737   7.203
 2068WAT     H1 8978   5.767   7.751   7.118
 2068WAT     H2 8979   5.839   7.731   7.233
 2068WAT    EPW 8980   5.771   7.738   7.195
 2069WAT      O 8981   6.110   6.855   5.550
 2069WAT     H1 8982   6.086   6.903   5.482
 2069WAT     H2 8983   6.197   6.847   5.540
 2069WAT    EPW 8984   6.119   6.861   5.539
 2070WAT      O 8985   6.091   7.546   6.017
 2070WAT     H1 8986   6.039   7.606   6.054
 2070WAT     H2 8987   6.131   7.509   6.086
 2070WAT    EPW 8988   6.089   7.550   6.033
 2071WAT      O 8989   5.052   7.339   5.214
 2071WAT     H1 8990   4.975   7.356   5.178
 2071WAT     H2 8991   5.056   7.252   5.216
 2071WAT    EPW 8992   5.041   7.329   5.209
 2072WAT      O 8993   5.366   7.866   5.081
 2072WAT     H1 8994   5.327   7.829   5.012
 2072WAT     H2 8995   5.358   7.806   5.144
 2072WAT    EPW 8996   5.359   7.851   5.080
 2073WAT      O 8997   6.358   7.653   5.685
 2073WAT     H1 8998   6.366   7.653   5.598
 2073WAT     H2 8999   6.300   7.590   5.700
 2073WAT    EPW 9000   6.351   7.644   5.674
 2074WAT      O 9001   5.757   6.963   5.466
 2074WAT     H1 9002   5.750   7.031   5.411
 2074WAT     H2 9003   5.831   6.924   5.441
 2074WAT    EPW 9004   5.767   6.968   5.454
 2075WAT      O 9005   5.217   7.686   5.609
 2075WAT     H1 9006   5.170   7.647   5.546
 2075WAT     H2 9007   5.287   7.634   5.618
 2075WAT    EPW 9008   5.220   7.672   5.601
 2076WAT      O 9009   5.667   7.247   6.143
 2076WAT     H1 9010   5.735   7.249   6.088
 2076WAT     H2 9011   5.663   7.163   6.168
 2076WAT    EPW 9012   5.677   7.235   6.139
 2077WAT      O 9013   5.417   7.496   5.611
 2077WAT     H1 9014   5.498   7.477   5.635
 2077WAT     H2 9015   5.369   7.434   5.650
 2077WAT    EPW 9016   5.422   7.484   5.620
 2078WAT      O 9017   6.040   7.452   6.627
 2078WAT     H1 9018   5.955   7.442   6.609
 2078WAT     H2 9019   6.043   7.526   6.672
 2078WAT    EPW 9020   6.028   7.461   6.631
 2079WAT      O 9021   5.476   7.005   5.537
 2079WAT     H1 9022   5.447   7.055   5.472
 2079WAT     H2 9023   5.563   7.013   5.532
 2079WAT    EPW 9024   5.485   7.014   5.527
 2080WAT      O 9025   6.495   6.748   6.538
 2080WAT     H1 9026   6.480   6.825   6.500
 2080WAT     H2 9027   6.418   6.726   6.573
 2080WAT    EPW 9028   6.482   6.756   6.538
 2081WAT      O 9029   5.774   6.919   5.760
 2081WAT     H1 9030   5.782   7.005   5.773
 2081WAT     H2 9031   5.771   6.912   5.673
 2081WAT    EPW 9032   5.775   6.931   5.749
 2082WAT      O 9033   6.242   7.212   4.990
 2082WAT     H1 9034   6.197   7.280   5.020
 2082WAT     H2 9035   6.253   7.162   5.060
 2082WAT    EPW 9036   6.237   7.215   5.005
 2083WAT      O 9037   5.062   7.462   5.910
 2083WAT     H1 9038   5.037   7.545   5.902
 2083WAT     H2 9039   4.996   7.424   5.952
 2083WAT    EPW 9040   5.049   7.468   5.915
 2084WAT      O 9041   5.365   6.944   5.959
 2084WAT     H1 9042   5.313   6.881   5.928
 2084WAT     H2 9043   5.424   6.900   6.006
 2084WAT    EPW 9044   5.366   6.928   5.961
 2085WAT      O 9045   5.696   7.157   6.889
 2085WAT     H1 9046   5.707   7.111   6.815
 2085WAT     H2 9047   5.725   7.237   6.868
 2085WAT    EPW 9048   5.702   7.162   6.875
 2086WAT      O 9049   6.781   7.209   5.619
 2086WAT     H1 9050   6.746   7.277   5.662
 2086WAT     H2 9051   6.717   7.149   5.621
 2086WAT    EPW 9052   6.767   7.210   5.626
 2087WAT      O 9053   5.269   7.117   6.787
 2087WAT     H1 9054   5.191   7.078   6.780
 2087WAT     H2 9055   5.318   7.075   6.728
 2087WAT    EPW 9056   5.265   7.105   6.777
 2088WAT      O 9057   5.934   6.881   6.704
 2088WAT     H1 9058   5.952   6.800   6.676
 2088WAT     H2 9059   5.920   6.925   6.630
 2088WAT    EPW 9060   5.934   6.875   6.689
 2089WAT      O 9061   5.993   7.373   5.581
 2089WAT     H1 9062   6.022   7.350   5.502
 2089WAT     H2 9063   6.067   7.381   5.628
 2089WAT    EPW 9064   6.008   7.371   5.577
 2090WAT      O 9065   6.066   7.407   5.093
 2090WAT     H1 9066   6.094   7.486   5.118
 2090WAT     H2 9067   5.988   7.424   5.057
 2090WAT    EPW 9068   6.058   7.421   5.092
 2091WAT      O 9069   6.749   7.042   6.156
 2091WAT     H1 9070   6.824   7.049   6.113
 2091WAT     H2 9071   6.755   6.964   6.196
 2091WAT    EPW 9072   6.761   7.031   6.156
 2092WAT      O 9073   5.004   7.171   6.546
 2092WAT     H1 9074   5.003   7.230   6.610
 2092WAT     H2 9075   5.063   7.203   6.490
 2092WAT    EPW 9076   5.013   7.185   6.547
 2093WAT      O 9077   6.302   7.014   5.180
 2093WAT     H1 9078   6.356   6.946   5.188
 2093WAT     H2 9079   6.308   7.054   5.258
 2093WAT    EPW 9080   6.311   7.010   5.193
 2094WAT      O 9081   5.098   7.131   5.437
 2094WAT     H1 9082   5.086   7.044   5.440
 2094WAT     H2 9083   5.050   7.160   5.504
 2094WAT    EPW 9084   5.089   7.122   5.448
 2095WAT      O 9085   6.028   7.252   5.312
 2095WAT     H1 9086   5.977   7.185   5.286
 2095WAT     H2 9087   6.033   7.302   5.241
 2095WAT    EPW 9088   6.021   7.249   5.298
 2096WAT      O 9089   6.028   6.946   5.301
 2096WAT     H1 9090   5.982   6.906   5.238
 2096WAT     H2 9091   6.105   6.961   5.263
 2096WAT    EPW 9092   6.033   6.942   5.286
 2097WAT      O 9093   5.888   7.182   5.753
 2097WAT     H1 9094   5.895   7.239   5.687
 2097WAT     H2 9095   5.900   7.232   5.824
 2097WAT    EPW 9096   5.891   7.198   5.754
 2098WAT      O 9097   5.349   6.765   5.588
 2098WAT     H1 9098   5.402   6.834   5.587
 2098WAT     H2 9099   5.349   6.737   5.505
 2098WAT    EPW 9100   5.356   6.771   5.575
 2099WAT      O 9101   5.644   7.808   5.990
 2099WAT     H1 9102   5.661   7.787   6.073
 2099WAT     H2 9103   5.579   7.755   5.969
 2099WAT    EPW 9104   5.637   7.797   5.999
 2100WAT      O 9105   6.267   7.199   6.342
 2100WAT     H1 9106   6.257   7.231   6.422
 2100WAT     H2 9107   6.208   7.136   6.338
 2100WAT    EPW 9108   6.257   7.195   6.353
 2101WAT      O 9109   6.393   6.794   5.625
 2101WAT     H1 9110   6.397   6.762   5.707
 2101WAT     H2 9111   6.425   6.729   5.576
 2101WAT    EPW 9112   6.398   6.780   5.630
 2102WAT      O 9113   6.639   7.217   6.456
 2102WAT     H1 9114   6.716   7.195   6.490
 2102WAT     H2 9115   6.591   7.239   6.526
 2102WAT    EPW 9116   6.643   7.217   6.472
 2103WAT      O 9117   5.393   7.146   5.753
 2103WAT     H1 9118   5.421   7.103   5.682
 2103WAT     H2 9119   5.376   7.082   5.810
 2103WAT    EPW 9120   5.395   7.130   5.751
 2104WAT      O 9121   5.207   7.256   6.061
 2104WAT     H1 9122   5.292   7.278   6.057
 2104WAT     H2 9123   5.169   7.313   6.008
 2104WAT    EPW 9124   5.214   7.268   6.053
 2105WAT      O 9125   6.452   7.569   5.134
 2105WAT     H1 9126   6.430   7.642   5.091
 2105WAT     H2 9127   6.407   7.574   5.208
 2105WAT    EPW 9128   6.442   7.580   5.138
 2106WAT      O 9129   6.870   7.055   5.079
 2106WAT     H1 9130   6.804   6.998   5.081
 2106WAT     H2 9131   6.851   7.106   5.011
 2106WAT    EPW 9132   6.858   7.054   5.069
 2107WAT      O 9133   5.793   7.424   6.873
 2107WAT     H1 9134   5.744   7.482   6.917
 2107WAT     H2 9135   5.790   7.454   6.791
 2107WAT    EPW 9136   5.785   7.437   6.868
 2108WAT      O 9137   6.903   7.493   6.334
 2108WAT     H1 9138   6.924   7.413   6.307
 2108WAT     H2 9139   6.818   7.499   6.316
 2108WAT    EPW 9140   6.893   7.482   6.328
 2109WAT      O 9141   5.035   7.722   5.374
 2109WAT     H1 9142   5.016   7.638   5.389
 2109WAT     H2 9143   5.101   7.718   5.317
 2109WAT    EPW 9144   5.042   7.709   5.368
 2110WAT      O 9145   6.671   7.011   5.307
 2110WAT     H1 9146   6.745   6.970   5.327
 2110WAT     H2 9147   6.697   7.082   5.264
 2110WAT    EPW 9148   6.685   7.015   5.303
 2111WAT      O 9149   6.316   7.240   5.814
 2111WAT     H1 9150   6.350   7.255   5.893
 2111WAT     H2 9151   6.271   7.166   5.825
 2111WAT    EPW 9152   6.314   7.231   5.827
 2112WAT      O 9153   5.764   7.162   5.260
 2112WAT     H1 9154   5.763   7.150   5.173
 2112WAT     H2 9155   5.745   7.246   5.269
 2112WAT    EPW 9156   5.761   7.172   5.248
 2113WAT      O 9157   5.350   7.505   6.709
 2113WAT     H1 9158   5.297   7.455   6.756
 2113WAT     H2 9159   5.352   7.466   6.631
 2113WAT    EPW 9160   5.343   7.492   6.705
 2114WAT      O 9161   5.399   7.445   5.223
 2114WAT     H1 9162   5.386   7.400   5.297
 2114WAT     H2 9163   5.341   7.411   5.168
 2114WAT    EPW 9164   5.388   7.433   5.226
 2115WAT      O 9165   5.416   7.628   5.883
 2115WAT     H1 9166   5.337   7.622   5.845
 2115WAT     H2 9167   5.423   7.553   5.927
 2115WAT    EPW 9168   5.405   7.616   5.884
 2116WAT      O 9169   5.459   7.602   6.230
 2116WAT     H1 9170   5.461   7.534   6.175
 2116WAT     H2 9171   5.394   7.651   6.199
 2116WAT    EPW 9172   5.449   7.599   6.217
 2117WAT      O 9173   6.448   7.373   6.069
 2117WAT     H1 9174   6.382   7.406   6.116
 2117WAT     H2 9175   6.467   7.436   6.013
 2117WAT    EPW 9176   6.441   7.387   6.068
 2118WAT      O 9177   6.113   6.963   6.412
 2118WAT     H1 9178   6.127   6.881   6.388
 2118WAT     H2 9179   6.150   6.969   6.491
 2118WAT    EPW 9180   6.120   6.952   6.420
 2119WAT      O 9181   6.267   7.170   5.421
 2119WAT     H1 9182   6.316   7.241   5.413
 2119WAT     H2 9183   6.188   7.196   5.394
 2119WAT    EPW 9184   6.263   7.184   5.416
 2120WAT      O 9185   5.238   7.737   6.786
 2120WAT     H1 9186   5.235   7.787   6.714
 2120WAT     H2 9187   5.272   7.662   6.756
 2120WAT    EPW 9188   5.243   7.733   6.771
 2121WAT      O 9189   5.926   7.317   5.993
 2121WAT     H1 9190   5.974   7.387   6.014
 2121WAT     H2 9191   5.963   7.252   6.038
 2121WAT    EPW 9192   5.938   7.318   6.003
 2122WAT      O 9193   6.144   7.634   5.220
 2122WAT     H1 9194   6.144   7.706   5.171
 2122WAT     H2 9195   6.081   7.647   5.278
 2122WAT    EPW 9196   6.135   7.646   5.222
 2123WAT      O 9197   5.604   6.868   5.187
 2123WAT     H1 9198   5.613   6.857   5.273
 2123WAT     H2 9199   5.533   6.918   5.180
 2123WAT    EPW 9200   5.595   6.874   5.198
 2124WAT      O 9201   6.573   7.812   6.428
 2124WAT     H1 9202   6.579   7.825   6.341
 2124WAT     H2 9203   6.649   7.844   6.458
 2124WAT    EPW 9204   6.585   7.819   6.419
 2125WAT      O 9205   6.677   6.842   6.726
 2125WAT     H1 9206   6.613   6.802   6.682
 2125WAT     H2 9207   6.679   6.799   6.802
 2125WAT    EPW 9208   6.668   6.830   6.731
 2126WAT      O 9209   5.316   7.699   5.311
 2126WAT     H1 9210   5.348   7.621   5.289
 2126WAT     H2 9211   5.381   7.735   5.356
 2126WAT    EPW 9212   5.330   7.692   5.314
 2127WAT      O 9213   6.147   7.793   6.388
 2127WAT     H1 9214   6.131   7.854   6.448
 2127WAT     H2 9215   6.200   7.737   6.428
 2127WAT    EPW 9216   6.152   7.794   6.402
 2128WAT      O 9217   5.016   6.865   5.408
 2128WAT     H1 9218   5.029   6.794   5.358
 2128WAT     H2 9219   4.979   6.833   5.480
 2128WAT    EPW 9220   5.012   6.849   5.411
 2129WAT      O 9221   5.985   7.633   5.453
 2129WAT     H1 9222   5.991   7.698   5.511
 2129WAT     H2 9223   5.966   7.563   5.502
 2129WAT    EPW 9224   5.983   7.632   5.469
 2130WAT      O 9225   5.435   7.084   5.105
 2130WAT     H1 9226   5.383   7.090   5.034
 2130WAT     H2 9227   5.513   7.108   5.075
 2130WAT    EPW 9228   5.439   7.089   5.090
 2131WAT      O 9229   5.907   7.837   5.896
 2131WAT     H1 9230   5.823   7.818   5.905
 2131WAT     H2 9231   5.940   7.821   5.976
 2131WAT    EPW 9232   5.899   7.832   5.909
 2132WAT      O 9233   5.292   7.807   6.128
 2132WAT     H1 9234   5.364   7.856   6.124
 2132WAT     H2 9235   5.265   7.804   6.045
 2132WAT    EPW 9236   5.299   7.814   6.115
 2133WAT      O 9237   5.615   7.324   5.802
 2133WAT     H1 9238   5.700   7.305   5.811
 2133WAT     H2 9239   5.578   7.246   5.788
 2133WAT    EPW 9240   5.622   7.310   5.801
 2134WAT      O 9241   5.097   7.458   5.467
 2134WAT     H1 9242   5.146   7.428   5.533
 2134WAT     H2 9243   5.110   7.398   5.404
 2134WAT    EPW 9244   5.106   7.445   5.468
 2135WAT      O 9245   6.601   7.760   6.152
 2135WAT     H1 9246   6.600   7.682   6.192
 2135WAT     H2 9247   6.517   7.783   6.151
 2135WAT    EPW 9248   6.588   7.752   6.158
 2136WAT      O 9249   5.550   7.601   5.016
 2136WAT     H1 9250   5.489   7.561   5.063
 2136WAT     H2 9251   5.511   7.613   4.938
 2136WAT    EPW 9252   5.535   7.597   5.011
 2137WAT      O 9253   6.726   7.767   5.896
 2137WAT     H1 9254   6.698   7.807   5.968
 2137WAT     H2 9255   6.812   7.761   5.909
 2137WAT    EPW 9256   6.735   7.772   5.908
 2138WAT      O 9257   5.695   7.447   5.287
 2138WAT     H1 9258   5.722   7.530   5.293
 2138WAT     H2 9259   5.609   7.455   5.277
 2138WAT    EPW 9260   5.686   7.460   5.286
 2139WAT      O 9261   6.492   7.159   6.750
 2139WAT     H1 9262   6.440   7.205   6.802
 2139WAT     H2 9263   6.456   7.080   6.749
 2139WAT    EPW 9264   6.479   7.154   6.757
 2140WAT      O 9265   5.043   7.044   5.940
 2140WAT     H1 9266   5.048   7.079   5.860
 2140WAT     H2 9267   5.119   7.068   5.977
 2140WAT    EPW 9268   5.055   7.053   5.934
 2141WAT      O 9269   6.342   7.516   6.757
 2141WAT     H1 9270   6.349   7.527   6.844
 2141WAT     H2 9271   6.278   7.572   6.735
 2141WAT    EPW 9272   6.333   7.526   6.767
 2142WAT      O 9273   6.568   7.548   6.594
 2142WAT     H1 9274   6.600   7.627   6.614
 2142WAT     H2 9275   6.531   7.521   6.668
 2142WAT    EPW 9276   6.568   7.556   6.608
 2143WAT      O 9277   6.548   7.374   5.713
 2143WAT     H1 9278   6.474   7.342   5.745
 2143WAT     H2 9279   6.548   7.457   5.741
 2143WAT    EPW 9280   6.537   7.381   5.722
 2144WAT      O 9281   6.838   7.602   6.867
 2144WAT     H1 9282   6.833   7.568   6.787
 2144WAT     H2 9283   6.912   7.649   6.865
 2144WAT    EPW 9284   6.848   7.604   6.855
 2145WAT      O 9285   6.439   7.007   6.459
 2145WAT     H1 9286   6.514   7.052   6.453
 2145WAT     H2 9287   6.383   7.054   6.412
 2145WAT    EPW 9288   6.442   7.021   6.451
 2146WAT      O 9289   5.957   7.735   6.167
 2146WAT     H1 9290   6.005   7.773   6.230
 2146WAT     H2 9291   5.875   7.749   6.193
 2146WAT    EPW 9292   5.952   7.743   6.180
 2147WAT      O 9293   5.628   7.296   6.441
 2147WAT     H1 9294   5.644   7.221   6.484
 2147WAT     H2 9295   5.624   7.271   6.357
 2147WAT    EPW 9296   5.630   7.281   6.435
 2148WAT      O 9297   6.568   6.805   6.226
 2148WAT     H1 9298   6.540   6.887   6.222
 2148WAT     H2 9299   6.639   6.810   6.276
 2148WAT    EPW 9300   6.574   6.818   6.233
 2149WAT      O 9301   5.803   6.876   6.429
 2149WAT     H1 9302   5.874   6.908   6.389
 2149WAT     H2 9303   5.827   6.796   6.452
 2149WAT    EPW 9304   5.817   6.869   6.426
 2150WAT      O 9305   6.710   7.430   5.112
 2150WAT     H1 9306   6.748   7.498   5.072
 2150WAT     H2 9307   6.626   7.453   5.115
 2150WAT    EPW 9308   6.703   7.444   5.106
 2151WAT      O 9309   5.861   7.775   5.020
 2151WAT     H1 9310   5.781   7.757   4.991
 2151WAT     H2 9311   5.858   7.860   5.039
 2151WAT    EPW 9312   5.849   7.785   5.019
 2152WAT      O 9313   5.454   7.382   6.035
 2152WAT     H1 9314   5.498   7.371   5.960
 2152WAT     H2 9315   5.509   7.350   6.095
 2152WAT    EPW 9316   5.469   7.376   6.033
 2153WAT      O 9317   6.256   7.292   6.594
 2153WAT     H1 9318   6.191   7.339   6.629
 2153WAT     H2 9319   6.312   7.283   6.660
 2153WAT    EPW 9320   6.255   7.298   6.609
 2154WAT      O 9321   6.225   7.446   6.224
 2154WAT     H1 9322   6.255   7.488   6.294
 2154WAT     H2 9323   6.228   7.362   6.247
 2154WAT    EPW 9324   6.230   7.439   6.238
 2155WAT      O 9325   6.479   7.390   5.449
 2155WAT     H1 9326   6.500   7.370   5.532
 2155WAT     H2 9327   6.555   7.417   5.415
 2155WAT    EPW 9328   6.494   7.391   5.456
 2156WAT      O 9329   5.809   6.880   6.040
 2156WAT     H1 9330   5.726   6.865   6.063
 2156WAT     H2 9331   5.805   6.884   5.953
 2156WAT    EPW 9332   5.796   6.879   6.030
 2157WAT      O 9333   6.582   6.999   5.597
 2157WAT     H1 9334   6.510   6.952   5.614
 2157WAT     H2 9335   6.565   7.033   5.518
 2157WAT    EPW 9336   6.569   6.997   5.587
 2158WAT      O 9337   6.626   7.793   5.435
 2158WAT     H1 9338   6.673   7.720   5.430
 2158WAT     H2 9339   6.544   7.764   5.427
 2158WAT    EPW 9340   6.621   7.778   5.433
 2159WAT      O 9341   5.065   6.920   6.643
 2159WAT     H1 9342   5.051   7.000   6.610
 2159WAT     H2 9343   4.987   6.896   6.672
 2159WAT    EPW 9344   5.052   6.928   6.643
 2160WAT      O 9345   5.372   7.194   5.366
 2160WAT     H1 9346   5.384   7.162   5.286
 2160WAT     H2 9347   5.291   7.170   5.386
 2160WAT    EPW 9348   5.362   7.186   5.357
 2161WAT      O 9349   6.839   7.510   6.610
 2161WAT     H1 9350   6.754   7.498   6.623
 2161WAT     H2 9351   6.855   7.470   6.534
 2161WAT    EPW 9352   6.829   7.502   6.601
 2162WAT      O 9353   6.291   7.576   6.468
 2162WAT     H1 9354   6.265   7.504   6.510
 2162WAT     H2 9355   6.373   7.588   6.495
 2162WAT    EPW 9356   6.299   7.567   6.478
 2163WAT      O 9357   6.084   7.695   6.787
 2163WAT     H1 9358   6.116   7.764   6.743
 2163WAT     H2 9359   6.014   7.728   6.827
 2163WAT    EPW 9360   6.078   7.710   6.786
 2164WAT      O 9361   5.369   7.396   6.407
 2164WAT     H1 9362   5.407   7.457   6.359
 2164WAT     H2 9363   5.437   7.348   6.436
 2164WAT    EPW 9364   5.385   7.398   6.404
 2165WAT      O 9365   5.147   7.240   6.335
 2165WAT     H1 9366   5.155   7.223   6.249
 2165WAT     H2 9367   5.222   7.281   6.354
 2165WAT    EPW 9368   5.159   7.244   6.325
 2166WAT      O 9369   6.703   7.504   5.379
 2166WAT     H1 9370   6.713   7.499   5.292
 2166WAT     H2 9371   6.777   7.471   5.411
 2166WAT    EPW 9372   6.715   7.499   5.371
 2167WAT      O 9373   5.402   6.981   6.576
 2167WAT     H1 9374   5.394   6.897   6.596
 2167WAT     H2 9375   5.371   6.986   6.495
 2167WAT    EPW 9376   5.397   6.970   6.567
 2168WAT      O 9377   6.613   7.519   6.314
 2168WAT     H1 9378   6.613   7.433   6.327
 2168WAT     H2 9379   6.620   7.551   6.395
 2168WAT    EPW 9380   6.614   7.511   6.328
 2169WAT      O 9381   5.087   7.763   6.357
 2169WAT     H1 9382   5.119   7.785   6.279
 2169WAT     H2 9383   5.077   7.676   6.352
 2169WAT    EPW 9384   5.090   7.753   6.345
 2170WAT      O 9385   5.232   7.357   5.019
 2170WAT     H1 9386   5.165   7.358   5.075
 2170WAT     H2 9387   5.242   7.272   5.001
 2170WAT    EPW 9388   5.224   7.344   5.024
 2171WAT      O 9389   6.201   6.999   6.693
 2171WAT     H1 9390   6.210   7.070   6.742
 2171WAT     H2 9391   6.137   6.954   6.732
 2171WAT    EPW 9392   6.193   7.003   6.706
 2172WAT      O 9393   6.100   7.018   5.778
 2172WAT     H1 9394   6.030   7.070   5.772
 2172WAT     H2 9395   6.104   6.980   5.700
 2172WAT    EPW 9396   6.091   7.020   5.766
 2173WAT      O 9397   6.460   7.070   6.058
 2173WAT     H1 9398   6.546   7.079   6.072
 2173WAT     H2 9399   6.423   7.125   6.114
 2173WAT    EPW 9400   6.467   7.079   6.068
 2174WAT      O 9401   5.563   7.692   6.496
 2174WAT     H1 9402   5.523   7.770   6.503
 2174WAT     H2 9403   5.522   7.655   6.428
 2174WAT    EPW 9404   5.551   7.698   6.487
 2175WAT      O 9405   6.491   7.598   5.907
 2175WAT     H1 9406   6.557   7.652   5.923
 2175WAT     H2 9407   6.456   7.629   5.833
 2175WAT    EPW 9408   6.495   7.610   5.899
 2176WAT      O 9409   5.606   6.990   6.241
 2176WAT     H1 9410   5.519   6.998   6.249
 2176WAT     H2 9411   5.628   6.938   6.308
 2176WAT    EPW 9412   5.596   6.984   6.252
 2177WAT      O 9413   6.808   6.853   6.374
 2177WAT     H1 9414   6.802   6.849   6.461
 2177WAT     H2 9415   6.876   6.803   6.355
 2177WAT    EPW 9416   6.817   6.845   6.384
 2178WAT      O 9417   6.016   7.065   6.078
 2178WAT     H1 9418   5.942   7.019   6.089
 2178WAT     H2 9419   6.073   7.024   6.130
 2178WAT    EPW 9420   6.014   7.052   6.087
 2179WAT      O 9421   5.766   7.498   6.598
 2179WAT     H1 9422   5.734   7.440   6.541
 2179WAT     H2 9423   5.731   7.573   6.574
 2179WAT    EPW 9424   5.756   7.500   6.586
 2180WAT      O 9425   5.846   6.823   5.061
 2180WAT     H1 9426   5.854   6.847   4.978
 2180WAT     H2 9427   5.772   6.860   5.087
 2180WAT    EPW 9428   5.836   6.832   5.053
 2181WAT      O 9429   5.328   6.998   6.305
 2181WAT     H1 9430   5.294   6.921   6.282
 2181WAT     H2 9431   5.258   7.051   6.312
 2181WAT    EPW 9432   5.313   6.995   6.303
 2182WAT      O 9433   6.232   6.884   6.003
 2182WAT     H1 9434   6.299   6.938   6.016
 2182WAT     H2 9435   6.182   6.926   5.946
 2182WAT    EPW 9436   6.235   6.898   5.997
 2183WAT      O 9437   6.168   7.465   5.752
 2183WAT     H1 9438   6.223   7.404   5.782
 2183WAT     H2 9439   6.126   7.491   5.824
 2183WAT    EPW 9440   6.170   7.459   5.767
 2184WAT      O 9441   5.193   7.330   5.701
 2184WAT     H1 9442   5.156   7.360   5.774
 2184WAT     H2 9443   5.247   7.267   5.729
 2184WAT    EPW 9444   5.196   7.325   5.716
 2185WAT      O 9445   6.365   7.648   5.409
 2185WAT     H1 9446   6.372   7.563   5.427
 2185WAT     H2 9447   6.283   7.656   5.381
 2185WAT    EPW 9448   6.354   7.636   5.407
 2186WAT      O 9449   5.757   7.737   5.302
 2186WAT     H1 9450   5.767   7.751   5.217
 2186WAT     H2 9451   5.839   7.731   5.332
 2186WAT    EPW 9452   5.771   7.738   5.294
 2187WAT      O 9453   6.693   7.785   6.724
 2187WAT     H1 9454   6.756   7.768   6.781
 2187WAT     H2 9455   6.734   7.825   6.659
 2187WAT    EPW 9456   6.708   7.788   6.723
 2188WAT      O 9457   6.755   7.241   6.798
 2188WAT     H1 9458   6.736   7.306   6.853
 2188WAT     H2 9459   6.683   7.192   6.797
 2188WAT    EPW 9460   6.742   7.244   6.806
 2189WAT      O 9461   6.745   7.335   6.095
 2189WAT     H1 9462   6.662   7.360   6.087
 2189WAT     H2 9463   6.740   7.251   6.118
 2189WAT    EPW 9464   6.732   7.327   6.097
 2190WAT      O 9465   5.671   7.034   6.614
 2190WAT     H1 9466   5.695   6.977   6.553
 2190WAT     H2 9467   5.587   7.016   6.628
 2190WAT    EPW 9468   5.662   7.023   6.607
 2191WAT      O 9469   6.434   7.796   6.859
 2191WAT     H1 9470   6.521   7.792   6.856
 2191WAT     H2 9471   6.412   7.838   6.786
 2191WAT    EPW 9472   6.444   7.802   6.848
 2192WAT      O 9473   6.110   6.855   3.650
 2192WAT     H1 9474   6.086   6.903   3.582
 2192WAT     H2 9475   6.197   6.847   3.640
 2192WAT    EPW 9476   6.119   6.861   3.638
 2193WAT      O 9477   6.091   7.546   4.117
 2193WAT     H1 9478   6.039   7.606   4.153
 2193WAT     H2 9479   6.131   7.509   4.185
 2193WAT    EPW 9480   6.089   7.550   4.132
 2194WAT      O 9481   5.052   7.339   3.313
 2194WAT     H1 9482   4.975   7.356   3.277
 2194WAT     H2 9483   5.056   7.252   3.315
 2194WAT    EPW 9484   5.041   7.329   3.308
 2195WAT      O 9485   5.366   7.866   3.180
 2195WAT     H1 9486   5.327   7.829   3.112
 2195WAT     H2 9487   5.358   7.806   3.243
 2195WAT    EPW 9488   5.359   7.851   3.179
 2196WAT      O 9489   6.358   7.653   3.784
 2196WAT     H1 9490   6.366   7.653   3.697
 2196WAT     H2 9491   6.300   7.590   3.799
 2196WAT    EPW 9492   6.351   7.644   3.774
 2197WAT      O 9493   5.757   6.963   3.565
 2197WAT     H1 9494   5.750   7.031   3.510
 2197WAT     H2 9495   5.831   6.924   3.540
 2197WAT    EPW 9496   5.767   6.968   3.553
 2198WAT      O 9497   5.217   7.686   3.708
 2198WAT     H1 9498   5.170   7.647   3.645
 2198WAT     H2 9499   5.287   7.634   3.717
 2198WAT    EPW 9500   5.220   7.672   3.700
 2199WAT      O 9501   5.667   7.247   4.243
 2199WAT     H1 9502   5.735   7.249   4.188
 2199WAT     H2 9503   5.663   7.163   4.267
 2199WAT    EPW 9504   5.677   7.235   4.238
 2200WAT      O 9505   5.417   7.496   3.710
 2200WAT     H1 9506   5.498   7.477   3.735
 2200WAT     H2 9507   5.369   7.434   3.750
 2200WAT    EPW 9508   5.422   7.484   3.720
 2201WAT      O 9509   6.040   7.452   4.726
 2201WAT     H1 9510   5.955   7.442   4.708
 2201WAT     H2 9511   6.043   7.526   4.772
 2201WAT    EPW 9512   6.028   7.461   4.730
 2202WAT      O 9513   5.476   7.005   3.637
 2202WAT     H1 9514   5.447   7.055   3.572
 2202WAT     H2 9515   5.563   7.013   3.631
 2202WAT    EPW 9516   5.485   7.014   3.626
 2203WAT      O 9517   6.495   6.748   4.638
 2203WAT     H1 9518   6.480   6.825   4.599
 2203WAT     H2 9519   6.418   6.726   4.672
 2203WAT    EPW 9520   6.482   6.756   4.637
 2204WAT      O 9521   5.774   6.919   3.859
 2204WAT     H1 9522   5.782   7.005   3.872
 2204WAT     H2 9523   5.771   6.912   3.772
 2204WAT    EPW 9524   5.775   6.931   3.848
 2205WAT      O 9525   6.242   7.212   3.089
 2205WAT     H1 9526   6.197   7.280   3.120
 2205WAT     H2 9527   6.253   7.162   3.159
 2205WAT    EPW 9528   6.237   7.215   3.104
 2206WAT      O 9529   5.062   7.462   4.009
 2206WAT     H1 9530   5.037   7.545   4.002
 2206WAT     H2 9531   4.996   7.424   4.051
 2206WAT    EPW 9532   5.049   7.468   4.014
 2207WAT      O 9533   5.365   6.944   4.058
 2207WAT     H1 9534   5.313   6.881   4.028
 2207WAT     H2 9535   5.424   6.900   4.105
 2207WAT    EPW 9536   5.366   6.928   4.061
 2208WAT      O 9537   5.696   7.157   4.988
 2208WAT     H1 9538   5.707   7.111   4.915
 2208WAT     H2 9539   5.725   7.237   4.968
 2208WAT    EPW 9540   5.702   7.162   4.974
 2209WAT      O 9541   6.781   7.209   3.719
 2209WAT     H1 9542   6.746   7.277   3.761
 2209WAT     H2 9543   6.717   7.149   3.720
 2209WAT    EPW 9544   6.767   7.210   3.725
 2210WAT      O 9545   5.269   7.117   4.887
 2210WAT     H1 9546   5.191   7.078   4.879
 2210WAT     H2 9547   5.318   7.075   4.827
 2210WAT    EPW 9548   5.265   7.105   4.877
 2211WAT      O 9549   5.934   6.881   4.803
 2211WAT     H1 9550   5.952   6.800   4.776
 2211WAT     H2 9551   5.920   6.925   4.729
 2211WAT    EPW 9552   5.934   6.875   4.788
 2212WAT      O 9553   5.993   7.373   3.681
 2212WAT     H1 9554   6.022   7.350   3.602
 2212WAT     H2 9555   6.067   7.381   3.728
 2212WAT    EPW 9556   6.008   7.371   3.676
 2213WAT      O 9557   6.066   7.407   3.193
 2213WAT     H1 9558   6.094   7.486   3.218
 2213WAT     H2 9559   5.988   7.424   3.156
 2213WAT    EPW 9560   6.058   7.421   3.191
 2214WAT      O 9561   6.749   7.042   4.255
 2214WAT     H1 9562   6.824   7.049   4.213
 2214WAT     H2 9563   6.755   6.964   4.295
 2214WAT    EPW 9564   6.761   7.031   4.255
 2215WAT      O 9565   5.004   7.171   4.645
 2215WAT     H1 9566   5.003   7.230   4.710
 2215WAT     H2 9567   5.063   7.203   4.589
 2215WAT    EPW 9568   5.013   7.185   4.646
 2216WAT      O 9569   6.302   7.014   3.280
 2216WAT     H1 9570   6.356   6.946   3.287
 2216WAT     H2 9571   6.308   7.054   3.357
 2216WAT    EPW 9572   6.311   7.010   3.292
 2217WAT      O 9573   5.098   7.131   3.537
 2217WAT     H1 9574   5.086   7.044   3.540
 2217WAT     H2 9575   5.050   7.160   3.604
 2217WAT    EPW 9576   5.089   7.122   3.547
 2218WAT      O 9577   6.028   7.252   3.411
 2218WAT     H1 9578   5.977   7.185   3.386
 2218WAT     H2 9579   6.033   7.302   3.340
 2218WAT    EPW 9580   6.021   7.249   3.397
 2219WAT      O 9581   6.028   6.946   3.400
 2219WAT     H1 9582   5.982   6.906   3.338
 2219WAT     H2 9583   6.105   6.961   3.363
 2219WAT    EPW 9584   6.033   6.942   3.385
 2220WAT      O 9585   5.888   7.182   3.852
 2220WAT     H1 9586   5.895   7.239   3.787
 2220WAT     H2 9587   5.900   7.232   3.923
 2220WAT    EPW 9588   5.891   7.198   3.853
 2221WAT      O 9589   5.349   6.765   3.687
 2221WAT     H1 9590   5.402   6.834   3.686
 2221WAT     H2 9591   5.349   6.737   3.604
 2221WAT    EPW 9592   5.356   6.771   3.675
 2222WAT      O 9593   5.644   7.808   4.090
 2222WAT     H1 9594   5.661   7.787   4.173
 2222WAT     H2 9595   5.579   7.755   4.068
 2222WAT    EPW 9596   5.637   7.797   4.099
 2223WAT      O 9597   6.267   7.199   4.441
 2223WAT     H1 9598   6.257   7.231   4.522
 2223WAT     H2 9599   6.208   7.136   4.437
 2223WAT    EPW 9600   6.257   7.195   4.453
 2224WAT      O 9601   6.393   6.794   3.725
 2224WAT     H1 9602   6.397   6.762   3.806
 2224WAT     H2 9603   6.425   6.729   3.676
 2224WAT    EPW 9604   6.398   6.780   3.730
 2225WAT      O 9605   6.639   7.217   4.556
 2225WAT     H1 9606   6.716   7.195   4.589
 2225WAT     H2 9607   6.591   7.239   4.626
 2225WAT    EPW 9608   6.643   7.217   4.571
 2226WAT      O 9609   5.393   7.146   3.853
 2226WAT     H1 9610   5.421   7.103   3.782
 2226WAT     H2 9611   5.376   7.082   3.910
 2226WAT    EPW 9612   5.395   7.130   3.851
 2227WAT      O 9613   5.207   7.256   4.161
 2227WAT     H1 9614   5.292   7.278   4.157
 2227WAT     H2 9615   5.169   7.313   4.108
 2227WAT    EPW 9616   5.214   7.268   4.152
 2228WAT      O 9617   6.452   7.569   3.233
 2228WAT     H1 9618   6.430   7.642   3.191
 2228WAT     H2 9619   6.407   7.574   3.308
 2228WAT    EPW 9620   6.442   7.580   3.238
 2229WAT      O 9621   6.870   7.055   3.178
 2229WAT     H1 9622   6.804   6.998   3.181
 2229WAT     H2 9623   6.851   7.106   3.110
 2229WAT    EPW 9624   6.858   7.054   3.169
 2230WAT      O 9625   5.793   7.424   4.973
 2230WAT     H1 9626   5.744   7.482   5.017
 2230WAT     H2 9627   5.790   7.454   4.891
 2230WAT    EPW 9628   5.785   7.437   4.967
 2231WAT      O 9629   6.903   7.493   4.434
 2231WAT     H1 9630   6.924   7.413   4.406
 2231WAT     H2 9631   6.818   7.499   4.415
 2231WAT    EPW 9632   6.893   7.482   4.427
 2232WAT      O 9633   5.035   7.722   3.473
 2232WAT     H1 9634   5.016   7.638   3.489
 2232WAT     H2 9635   5.101   7.718   3.416
 2232WAT    EPW 9636   5.042   7.709   3.467
 2233WAT      O 9637   6.671   7.011   3.406
 2233WAT     H1 9638   6.745   6.970   3.426
 2233WAT     H2 9639   6.697   7.082   3.364
 2233WAT    EPW 9640   6.685   7.015   3.403
 2234WAT      O 9641   6.316   7.240   3.913
 2234WAT     H1 9642   6.350   7.255   3.992
 2234WAT     H2 9643   6.271   7.166   3.925
 2234WAT    EPW 9644   6.314   7.231   3.927
 2235WAT      O 9645   5.764   7.162   3.359
 2235WAT     H1 9646   5.763   7.150   3.273
 2235WAT     H2 9647   5.745   7.246   3.368
 2235WAT    EPW 9648   5.761   7.172   3.348
 2236WAT      O 9649   5.350   7.505   4.809
 2236WAT     H1 9650   5.297   7.455   4.855
 2236WAT     H2 9651   5.352   7.466   4.731
 2236WAT    EPW 9652   5.343   7.492   4.804
 2237WAT      O 9653   5.399   7.445   3.323
 2237WAT     H1 9654   5.386   7.400   3.396
 2237WAT     H2 9655   5.341   7.411   3.267
 2237WAT    EPW 9656   5.388   7.433   3.325
 2238WAT      O 9657   5.416   7.628   3.982
 2238WAT     H1 9658   5.337   7.622   3.944
 2238WAT     H2 9659   5.423   7.553   4.026
 2238WAT    EPW 9660   5.405   7.616   3.983
 2239WAT      O 9661   5.459   7.602   4.329
 2239WAT     H1 9662   5.461   7.534   4.274
 2239WAT     H2 9663   5.394   7.651   4.298
 2239WAT    EPW 9664   5.449   7.599   4.317
 2240WAT      O 9665   6.448   7.373   4.169
 2240WAT     H1 9666   6.382   7.406   4.215
 2240WAT     H2 9667   6.467   7.436   4.112
 2240WAT    EPW 9668   6.441   7.387   4.167
 2241WAT      O 9669   6.113   6.963   4.512
 2241WAT     H1 9670   6.127   6.881   4.487
 2241WAT     H2 9671   6.150   6.969   4.590
 2241WAT    EPW 9672   6.120   6.952   4.520
 2242WAT      O 9673   6.267   7.170   3.520
 2242WAT     H1 9674   6.316   7.241   3.512
 2242WAT     H2 9675   6.188   7.196   3.494
 2242WAT    EPW 9676   6.263   7.184   3.515
 2243WAT      O 9677   5.238   7.737   4.885
 2243WAT     H1 9678   5.235   7.787   4.814
 2243WAT     H2 9679   5.272   7.662   4.856
 2243WAT    EPW 9680   5.243   7.733   4.870
 2244WAT      O 9681   5.926   7.317   4.092
 2244WAT     H1 9682   5.974   7.387   4.113
 2244WAT     H2 9683   5.963   7.252   4.138
 2244WAT    EPW 9684   5.938   7.318   4.102
 2245WAT      O 9685   6.144   7.634   3.320
 2245WAT     H1 9686   6.144   7.706   3.271
 2245WAT     H2 9687   6.081   7.647   3.378
 2245WAT    EPW 9688   6.135   7.646   3.321
 2246WAT      O 9689   5.604   6.868   3.286
 2246WAT     H1 9690   5.613   6.857   3.372
 2246WAT     H2 9691   5.533   6.918   3.279
 2246WAT    EPW 9692   5.595   6.874   3.298
 2247WAT      O 9693   6.573   7.812   4.527
 2247WAT     H1 9694   6.579   7.825   4.441
 2247WAT     H2 9695   6.649   7.844   4.557
 2247WAT    EPW 9696   6.585   7.819   4.519
 2248WAT      O 9697   6.677   6.842   4.826
 2248WAT     H1 9698   6.613   6.802   4.781
 2248WAT     H2 9699   6.679   6.799   4.901
 2248WAT    EPW 9700   6.668   6.830   4.830
 2249WAT      O 9701   5.316   7.699   3.410
 2249WAT     H1 9702   5.348   7.621   3.388
 2249WAT     H2 9703   5.381   7.735   3.456
 2249WAT    EPW 9704   5.330   7.692   3.414
 2250WAT      O 9705   6.147   7.793   4.487
 2250WAT     H1 9706   6.131   7.854   4.547
 2250WAT     H2 9707   6.200   7.737   4.528
 2250WAT    EPW 9708   6.152   7.794   4.502
 2251WAT      O 9709   5.016   6.865   3.507
 2251WAT     H1 9710   5.029   6.794   3.458
 2251WAT     H2 9711   4.979   6.833   3.580
 2251WAT    EPW 9712   5.012   6.849   3.511
 2252WAT      O 9713   5.985   7.633   3.553
 2252WAT     H1 9714   5.991   7.698   3.611
 2252WAT     H2 9715   5.966   7.563   3.602
 2252WAT    EPW 9716   5.983   7.632   3.569
 2253WAT      O 9717   5.435   7.084   3.204
 2253WAT     H1 9718   5.383   7.090   3.133
 2253WAT     H2 9719   5.513   7.108   3.174
 2253WAT    EPW 9720   5.439   7.089   3.189
 2254WAT      O 9721   5.907   7.837   3.996
 2254WAT     H1 9722   5.823   7.818   4.004
 2254WAT     H2 9723   5.940   7.821   4.075
 2254WAT    EPW 9724   5.899   7.832   4.009
 2255WAT      O 9725   5.292   7.807   4.227
 2255WAT     H1 9726   5.364   7.856   4.224
 2255WAT     H2 9727   5.265   7.804   4.145
 2255WAT    EPW 9728   5.299   7.814   4.215
 2256WAT      O 9729   5.615   7.324   3.901
 2256WAT     H1 9730   5.700   7.305   3.911
 2256WAT     H2 9731   5.578   7.246   3.887
 2256WAT    EPW 9732   5.622   7.310   3.900
 2257WAT      O 9733   5.097   7.458   3.566
 2257WAT     H1 9734   5.146   7.428   3.633
 2257WAT     H2 9735   5.110   7.398   3.504
 2257WAT    EPW 9736   5.106   7.445   3.567
 2258WAT      O 9737   6.601   7.760   4.252
 2258WAT     H1 9738   6.600   7.682   4.291
 2258WAT     H2 9739   6.517   7.783   4.251
 2258WAT    EPW 9740   6.588   7.752   4.257
 2259WAT      O 9741   5.550   7.601   3.115
 2259WAT     H1 9742   5.489   7.561   3.162
 2259WAT     H2 9743   5.511   7.613   3.038
 2259WAT    EPW 9744   5.535   7.597   3.111
 2260WAT      O 9745   6.726   7.767   3.995
 2260WAT     H1 9746   6.698   7.807   4.067
 2260WAT     H2 9747   6.812   7.761   4.008
 2260WAT    EPW 9748   6.735   7.772   4.008
 2261WAT      O 9749   5.695   7.447   3.386
 2261WAT     H1 9750   5.722   7.530   3.393
 2261WAT     H2 9751   5.609   7.455   3.376
 2261WAT    EPW 9752   5.686   7.460   3.386
 2262WAT      O 9753   6.492   7.159   4.849
 2262WAT     H1 9754   6.440   7.205   4.902
 2262WAT     H2 9755   6.456   7.080   4.849
 2262WAT    EPW 9756   6.479   7.154   4.857
 2263WAT      O 9757   5.043   7.044   4.040
 2263WAT     H1 9758   5.048   7.079   3.960
 2263WAT     H2 9759   5.119   7.068   4.076
 2263WAT    EPW 9760   5.055   7.053   4.033
 2264WAT      O 9761   6.342   7.516   4.857
 2264WAT     H1 9762   6.349   7.527   4.943
 2264WAT     H2 9763   6.278   7.572   4.835
 2264WAT    EPW 9764   6.333   7.526   4.866
 2265WAT      O 9765   6.568   7.548   4.693
 2265WAT     H1 9766   6.600   7.627   4.714
 2265WAT     H2 9767   6.531   7.521   4.768
 2265WAT    EPW 9768   6.568   7.556   4.707
 2266WAT      O 9769   6.548   7.374   3.812
 2266WAT     H1 9770   6.474   7.342   3.844
 2266WAT     H2 9771   6.548   7.457   3.840
 2266WAT    EPW 9772   6.537   7.381   3.821
 2267WAT      O 9773   6.838   7.602   4.967
 2267WAT     H1 9774   6.833   7.568   4.887
 2267WAT     H2 9775   6.912   7.649   4.965
 2267WAT    EPW 9776   6.848   7.604   4.955
 2268WAT      O 9777   6.439   7.007   4.558
 2268WAT     H1 9778   6.514   7.052   4.552
 2268WAT     H2 9779   6.383   7.054   4.511
 2268WAT    EPW 9780   6.442   7.021   4.551
 2269WAT      O 9781   5.957   7.735   4.266
 2269WAT     H1 9782   6.005   7.773   4.329
 2269WAT     H2 9783   5.875   7.749   4.292
 2269WAT    EPW 9784   5.952   7.743   4.279
 2270WAT      O 9785   5.628   7.296   4.540
 2270WAT     H1 9786   5.644   7.221   4.583
 2270WAT     H2 9787   5.624   7.271   4.457
 2270WAT    EPW 9788   5.630   7.281   4.534
 2271WAT      O 9789   6.568   6.805   4.325
 2271WAT     H1 9790   6.540   6.887   4.321
 2271WAT     H2 9791   6.639   6.810   4.375
 2271WAT    EPW 9792   6.574   6.818   4.332
 2272WAT      O 9793   5.803   6.876   4.528
 2272WAT     H1 9794   5.874   6.908   4.488
 2272WAT     H2 9795   5.827   6.796   4.551
 2272WAT    EPW 9796   5.817   6.869   4.526
 2273WAT      O 9797   6.710   7.430   3.211
 2273WAT     H1 9798   6.748   7.498   3.171
 2273WAT     H2 9799   6.626   7.453   3.214
 2273WAT    EPW 9800   6.703   7.444   3.206
 2274WAT      O 9801   5.861   7.775   3.119
 2274WAT     H1 9802   5.781   7.757   3.091
 2274WAT     H2 9803   5.858   7.860   3.139
 2274WAT    EPW 9804   5.849   7.785   3.118
 2275WAT      O 9805   5.454   7.382   4.134
 2275WAT     H1 9806   5.498   7.371   4.060
 2275WAT     H2 9807   5.509   7.350   4.195
 2275WAT    EPW 9808   5.469   7.376   4.132
 2276WAT      O 9809   6.256   7.292   4.694
 2276WAT     H1 9810   6.191   7.339   4.728
 2276WAT     H2 9811   6.312   7.283   4.759
 2276WAT    EPW 9812   6.255   7.298   4.708
 2277WAT      O 9813   6.225   7.446   4.323
 2277WAT     H1 9814   6.255   7.488   4.394
 2277WAT     H2 9815   6.228   7.362   4.347
 2277WAT    EPW 9816   6.230   7.439   4.337
 2278WAT      O 9817   6.479   7.390   3.549
 2278WAT     H1 9818   6.500   7.370   3.631
 2278WAT     H2 9819   6.555   7.417   3.514
 2278WAT    EPW 9820   6.494   7.391   3.556
 2279WAT      O 9821   5.809   6.880   4.139
 2279WAT     H1 9822   5.726   6.865   4.163
 2279WAT     H2 9823   5.805   6.884   4.052
 2279WAT    EPW 9824   5.796   6.879   4.130
 2280WAT      O 9825   6.582   6.999   3.696
 2280WAT     H1 9826   6.510   6.952   3.713
 2280WAT     H2 9827   6.565   7.033   3.617
 2280WAT    EPW 9828   6.569   6.997   3.687
 2281WAT      O 9829   6.626   7.793   3.534
 2281WAT     H1 9830   6.673   7.720   3.529
 2281WAT     H2 9831   6.544   7.764   3.526
 2281WAT    EPW 9832   6.621   7.778   3.532
 2282WAT      O 9833   5.065   6.920   4.743
 2282WAT     H1 9834   5.051   7.000   4.709
 2282WAT     H2 9835   4.987   6.896   4.771
 2282WAT    EPW 9836   5.052   6.928   4.742
 2283WAT      O 9837   5.372   7.194   3.465
 2283WAT     H1 9838   5.384   7.162   3.385
 2283WAT     H2 9839   5.291   7.170   3.485
 2283WAT    EPW 9840   5.362   7.186   3.456
 2284WAT      O 9841   6.839   7.510   4.710
 2284WAT     H1 9842   6.754   7.498   4.722
 2284WAT     H2 9843   6.855   7.470   4.633
 2284WAT    EPW 9844   6.829   7.502   4.700
 2285WAT      O 9845   6.291   7.576   4.567
 2285WAT     H1 9846   6.265   7.504   4.610
 2285WAT     H2 9847   6.373   7.588   4.594
 2285WAT    EPW 9848   6.299   7.567   4.578
 2286WAT      O 9849   6.084   7.695   4.886
 2286WAT     H1 9850   6.116   7.764   4.843
 2286WAT     H2 9851   6.014   7.728   4.926
 2286WAT    EPW 9852   6.078   7.710   4.886
 2287WAT      O 9853   5.369   7.396   4.507
 2287WAT     H1 9854   5.407   7.457   4.458
 2287WAT     H2 9855   5.437   7.348   4.535
 2287WAT    EPW 9856   5.385   7.398   4.504
 2288WAT      O 9857   5.147   7.240   4.434
 2288WAT     H1 9858   5.155   7.223   4.349
 2288WAT     H2 9859   5.222   7.281   4.454
 2288WAT    EPW 9860   5.159   7.244   4.424
 2289WAT      O 9861   6.703   7.504   3.478
 2289WAT     H1 9862   6.713   7.499   3.392
 2289WAT     H2 9863   6.777   7.471   3.510
 2289WAT    EPW 9864   6.715   7.499   3.470
 2290WAT      O 9865   5.402   6.981   4.675
 2290WAT     H1 9866   5.394   6.897   4.696
 2290WAT     H2 9867   5.371   6.986   4.594
 2290WAT    EPW 9868   5.397   6.970   4.666
 2291WAT      O 9869   6.613   7.519   4.414
 2291WAT     H1 9870   6.613   7.433   4.426
 2291WAT     H2 9871   6.620   7.551   4.494
 2291WAT    EPW 9872   6.614   7.511   4.427
 2292WAT      O 9873   5.087   7.763   4.457
 2292WAT     H1 9874   5.119   7.785   4.378
 2292WAT     H2 9875   5.077   7.676   4.451
 2292WAT    EPW 9876   5.090   7.753   4.444
 2293WAT      O 9877   5.232   7.357   3.118
 2293WAT     H1 9878   5.165   7.358   3.174
 2293WAT     H2 9879   5.242   7.272   3.100
 2293WAT    EPW 9880   5.224   7.344   3.124
 2294WAT      O 9881   6.201   6.999   4.792
 2294WAT     H1 9882   6.210   7.070   4.841
 2294WAT     H2 9883   6.137   6.954   4.832
 2294WAT    EPW 9884   6.193   7.003   4.805
 2295WAT      O 9885   6.100   7.018   3.877
 2295WAT     H1 9886   6.030   7.070   3.872
 2295WAT     H2 9887   6.104   6.980   3.799
 2295WAT    EPW 9888   6.091   7.020   3.865
 2296WAT      O 9889   6.460   7.070   4.157
 2296WAT     H1 9890   6.546   7.079   4.172
 2296WAT     H2 9891   6.423   7.125   4.214
 2296WAT    EPW 9892   6.467   7.079   4.168
 2297WAT      O 9893   5.563   7.692   4.595
 2297WAT     H1 9894   5.523   7.770   4.603
 2297WAT     H2 9895   5.522   7.655   4.527
 2297WAT    EPW 9896   5.551   7.698   4.586
 2298WAT      O 9897   6.491   7.598   4.006
 2298WAT     H1 9898   6.557   7.652   4.022
 2298WAT     H2 9899   6.456   7.629   3.933
 2298WAT    EPW 9900   6.495   7.610   3.998
 2299WAT      O 9901   5.606   6.990   4.340
 2299WAT     H1 9902   5.519   6.998   4.348
 2299WAT     H2 9903   5.628   6.938   4.407
 2299WAT    EPW 9904   5.596   6.984   4.351
 2300WAT      O 9905   6.808   6.853   4.473
 2300WAT     H1 9906   6.802   6.849   4.560
 2300WAT     H2 9907   6.876   6.803   4.454
 2300WAT    EPW 9908   6.817   6.845   4.483
 2301WAT      O 9909   6.016   7.065   4.177
 2301WAT     H1 9910   5.942   7.019   4.189
 2301WAT     H2 9911   6.073   7.024   4.230
 2301WAT    EPW 9912   6.014   7.052   4.187
 2302WAT      O 9913   5.766   7.498   4.698
 2302WAT     H1 9914   5.734   7.440   4.641
 2302WAT     H2 9915   5.731   7.573   4.673
 2302WAT    EPW 9916   5.756   7.500   4.686
 2303WAT      O 9917   5.846   6.823   3.161
 2303WAT     H1 9918   5.854   6.847   3.077
 2303WAT     H2 9919   5.772   6.860   3.186
 2303WAT    EPW 9920   5.836   6.832   3.152
 2304WAT      O 9921   5.328   6.998   4.405
 2304WAT     H1 9922   5.294   6.921   4.381
 2304WAT     H2 9923   5.258   7.051   4.411
 2304WAT    EPW 9924   5.313   6.995   4.402
 2305WAT      O 9925   6.232   6.884   4.103
 2305WAT     H1 9926   6.299   6.938   4.115
 2305WAT     H2 9927   6.182   6.926   4.045
 2305WAT    EPW 9928   6.235   6.898   4.096
 2306WAT      O 9929   6.168   7.465   3.852
 2306WAT     H1 9930   6.223   7.404   3.882
 2306WAT     H2 9931   6.126   7.491   3.923
 2306WAT    EPW 9932   6.170   7.459   3.867
 2307WAT      O 9933   5.193   7.330   3.800
 2307WAT     H1 9934   5.156   7.360   3.874
 2307WAT     H2 9935   5.247   7.267   3.829
 2307WAT    EPW 9936   5.196   7.325   3.815
 2308WAT      O 9937   6.365   7.648   3.508
 2308WAT     H1 9938   6.372   7.563   3.526
 2308WAT     H2 9939   6.283   7.656   3.480
 2308WAT    EPW 9940   6.354   7.636   3.507
 2309WAT      O 9941   5.757   7.737   3.402
 2309WAT     H1 9942   5.767   7.751   3.316
 2309WAT     H2 9943   5.839   7.731   3.431
 2309WAT    EPW 9944   5.771   7.738   3.394
 2310WAT      O 9945   6.693   7.785   4.823
 2310WAT     H1 9946   6.756   7.768   4.881
 2310WAT     H2 9947   6.734   7.825   4.758
 2310WAT    EPW 9948   6.708   7.788   4.822
 2311WAT      O 9949   6.755   7.241   4.897
 2311WAT     H1 9950   6.736   7.306   4.952
 2311WAT     H2 9951   6.683   7.192   4.896
 2311WAT    EPW 9952   6.742   7.244   4.905
 2312WAT      O 9953   6.745   7.335   4.194
 2312WAT     H1 9954   6.662   7.360   4.187
 2312WAT     H2 9955   6.740   7.251   4.217
 2312WAT    EPW 9956   6.732   7.327   4.196
 2313WAT      O 9957   5.671   7.034   4.713
 2313WAT     H1 9958   5.695   6.977   4.652
 2313WAT     H2 9959   5.587   7.016   4.728
 2313WAT    EPW 9960   5.662   7.023   4.706
 2314WAT      O 9961   6.434   7.796   4.959
 2314WAT     H1 9962   6.521   7.792   4.955
 2314WAT     H2 9963   6.412   7.838   4.885
 2314WAT    EPW 9964   6.444   7.802   4.947
 2315WAT      O 9965   6.110   6.855   1.749
 2315WAT     H1 9966   6.086   6.903   1.681
 2315WAT     H2 9967   6.197   6.847   1.739
 2315WAT    EPW 9968   6.119   6.861   1.737
 2316WAT      O 9969   6.091   7.546   2.216
 2316WAT     H1 9970   6.039   7.606   2.252
 2316WAT     H2 9971   6.131   7.509   2.284
 2316WAT    EPW 9972   6.089   7.550   2.232
 2317WAT      O 9973   5.052   7.339   1.412
 2317WAT     H1 9974   4.975   7.356   1.376
 2317WAT     H2 9975   5.056   7.252   1.415
 2317WAT    EPW 9976   5.041   7.329   1.407
 2318WAT      O 9977   5.366   7.866   1.280
 2318WAT     H1 9978   5.327   7.829   1.211
 2318WAT     H2 9979   5.358   7.806   1.342
 2318WAT    EPW 9980   5.359   7.851   1.279
 2319WAT      O 9981   6.358   7.653   1.884
 2319WAT     H1 9982   6.366   7.653   1.797
 2319WAT     H2 9983   6.300   7.590   1.899
 2319WAT    EPW 9984   6.351   7.644   1.873
 2320WAT      O 9985   5.757   6.963   1.664
 2320WAT     H1 9986   5.750   7.031   1.610
 2320WAT     H2 9987   5.831   6.924   1.640
 2320WAT    EPW 9988   5.767   6.968   1.653
 2321WAT      O 9989   5.217   7.686   1.807
 2321WAT     H1 9990   5.170   7.647   1.745
 2321WAT     H2 9991   5.287   7.634   1.817
 2321WAT    EPW 9992   5.220   7.672   1.799
 2322WAT      O 9993   5.667   7.247   2.342
 2322WAT     H1 9994   5.735   7.249   2.287
 2322WAT     H2 9995   5.663   7.163   2.367
 2322WAT    EPW 9996   5.677   7.235   2.338
 2323WAT      O 9997   5.417   7.496   1.810
 2323WAT     H1 9998   5.498   7.477   1.834
 2323WAT     H2 9999   5.369   7.434   1.849
 2323WAT    EPW10000   5.422   7.484   1.819
 2324WAT      O10001   6.040   7.452   2.826
 2324WAT     H110002   5.955   7.442   2.808
 2324WAT     H210003   6.043   7.526   2.871
 2324WAT    EPW10004   6.028   7.461   2.830
 2325WAT      O10005   5.476   7.005   1.736
 2325WAT     H110006   5.447   7.055   1.671
 2325WAT     H210007   5.563   7.013   1.731
 2325WAT    EPW10008   5.485   7.014   1.726
 2326WAT      O10009   6.495   6.748   2.737
 2326WAT     H110010   6.480   6.825   2.699
 2326WAT     H210011   6.418   6.726   2.771
 2326WAT    EPW10012   6.482   6.756   2.737
 2327WAT      O10013   5.774   6.919   1.959
 2327WAT     H110014   5.782   7.005   1.971
 2327WAT     H210015   5.771   6.912   1.872
 2327WAT    EPW10016   5.775   6.931   1.948
 2328WAT      O10017   6.242   7.212   1.188
 2328WAT     H110018   6.197   7.280   1.219
 2328WAT     H210019   6.253   7.162   1.259
 2328WAT    EPW10020   6.237   7.215   1.203
 2329WAT      O10021   5.062   7.462   2.109
 2329WAT     H110022   5.037   7.545   2.101
 2329WAT     H210023   4.996   7.424   2.150
 2329WAT    EPW10024   5.049   7.468   2.114
 2330WAT      O10025   5.365   6.944   2.158
 2330WAT     H110026   5.313   6.881   2.127
 2330WAT     H210027   5.424   6.900   2.205
 2330WAT    EPW10028   5.366   6.928   2.160
 2331WAT      O10029   5.696   7.157   3.088
 2331WAT     H110030   5.707   7.111   3.014
 2331WAT     H210031   5.725   7.237   3.067
 2331WAT    EPW10032   5.702   7.162   3.074
 2332WAT      O10033   6.781   7.209   1.818
 2332WAT     H110034   6.746   7.277   1.861
 2332WAT     H210035   6.717   7.149   1.820
 2332WAT    EPW10036   6.767   7.210   1.824
 2333WAT      O10037   5.269   7.117   2.986
 2333WAT     H110038   5.191   7.078   2.979
 2333WAT     H210039   5.318   7.075   2.927
 2333WAT    EPW10040   5.265   7.105   2.976
 2334WAT      O10041   5.934   6.881   2.903
 2334WAT     H110042   5.952   6.800   2.875
 2334WAT     H210043   5.920   6.925   2.829
 2334WAT    EPW10044   5.934   6.875   2.888
 2335WAT      O10045   5.993   7.373   1.780
 2335WAT     H110046   6.022   7.350   1.701
 2335WAT     H210047   6.067   7.381   1.827
 2335WAT    EPW10048   6.008   7.371   1.775
 2336WAT      O10049   6.066   7.407   1.292
 2336WAT     H110050   6.094   7.486   1.317
 2336WAT     H210051   5.988   7.424   1.256
 2336WAT    EPW10052   6.058   7.421   1.290
 2337WAT      O10053   6.749   7.042   2.355
 2337WAT     H110054   6.824   7.049   2.312
 2337WAT     H210055   6.755   6.964   2.395
 2337WAT    EPW10056   6.761   7.031   2.354
 2338WAT      O10057   5.004   7.171   2.745
 2338WAT     H110058   5.003   7.230   2.809
 2338WAT     H210059   5.063   7.203   2.689
 2338WAT    EPW10060   5.013   7.185   2.746
 2339WAT      O10061   6.302   7.014   1.379
 2339WAT     H110062   6.356   6.946   1.387
 2339WAT     H210063   6.308   7.054   1.457
 2339WAT    EPW10064   6.311   7.010   1.392
 2340WAT      O10065   5.098   7.131   1.636
 2340WAT     H110066   5.086   7.044   1.639
 2340WAT     H210067   5.050   7.160   1.703
 2340WAT    EPW10068   5.089   7.122   1.646
 2341WAT      O10069   6.028   7.252   1.511
 2341WAT     H110070   5.977   7.185   1.485
 2341WAT     H210071   6.033   7.302   1.440
 2341WAT    EPW10072   6.021   7.249   1.496
 2342WAT      O10073   6.028   6.946   1.500
 2342WAT     H110074   5.982   6.906   1.437
 2342WAT     H210075   6.105   6.961   1.462
 2342WAT    EPW10076   6.033   6.942   1.485
 2343WAT      O10077   5.888   7.182   1.952
 2343WAT     H110078   5.895   7.239   1.886
 2343WAT     H210079   5.900   7.232   2.023
 2343WAT    EPW10080   5.891   7.198   1.953
 2344WAT      O10081   5.349   6.765   1.787
 2344WAT     H110082   5.402   6.834   1.786
 2344WAT     H210083   5.349   6.737   1.704
 2344WAT    EPW10084   5.356   6.771   1.774
 2345WAT      O10085   5.644   7.808   2.189
 2345WAT     H110086   5.661   7.787   2.272
 2345WAT     H210087   5.579   7.755   2.168
 2345WAT    EPW10088   5.637   7.797   2.198
 2346WAT      O10089   6.267   7.199   2.541
 2346WAT     H110090   6.257   7.231   2.621
 2346WAT     H210091   6.208   7.136   2.537
 2346WAT    EPW10092   6.257   7.195   2.552
 2347WAT      O10093   6.393   6.794   1.824
 2347WAT     H110094   6.397   6.762   1.905
 2347WAT     H210095   6.425   6.729   1.775
 2347WAT    EPW10096   6.398   6.780   1.829
 2348WAT      O10097   6.639   7.217   2.655
 2348WAT     H110098   6.716   7.195   2.689
 2348WAT     H210099   6.591   7.239   2.725
 2348WAT    EPW10100   6.643   7.217   2.670
 2349WAT      O10101   5.393   7.146   1.952
 2349WAT     H110102   5.421   7.103   1.881
 2349WAT     H210103   5.376   7.082   2.009
 2349WAT    EPW10104   5.395   7.130   1.950
 2350WAT      O10105   5.207   7.256   2.260
 2350WAT     H110106   5.292   7.278   2.256
 2350WAT     H210107   5.169   7.313   2.207
 2350WAT    EPW10108   5.214   7.268   2.252
 2351WAT      O10109   6.452   7.569   1.332
 2351WAT     H110110   6.430   7.642   1.290
 2351WAT     H210111   6.407   7.574   1.407
 2351WAT    EPW10112   6.442   7.580   1.337
 2352WAT      O10113   6.870   7.055   1.278
 2352WAT     H110114   6.804   6.998   1.280
 2352WAT     H210115   6.851   7.106   1.210
 2352WAT    EPW10116   6.858   7.054   1.268
 2353WAT      O10117   5.793   7.424   3.072
 2353WAT     H110118   5.744   7.482   3.116
 2353WAT     H210119   5.790   7.454   2.990
 2353WAT    EPW10120   5.785   7.437   3.066
 2354WAT      O10121   6.903   7.493   2.533
 2354WAT     H110122   6.924   7.413   2.506
 2354WAT     H210123   6.818   7.499   2.514
 2354WAT    EPW10124   6.893   7.482   2.526
 2355WAT      O10125   5.035   7.722   1.573
 2355WAT     H110126   5.016   7.638   1.588
 2355WAT     H210127   5.101   7.718   1.516
 2355WAT    EPW10128   5.042   7.709   1.567
 2356WAT      O10129   6.671   7.011   1.506
 2356WAT     H110130   6.745   6.970   1.525
 2356WAT     H210131   6.697   7.082   1.463
 2356WAT    EPW10132   6.685   7.015   1.502
 2357WAT      O10133   6.316   7.240   2.013
 2357WAT     H110134   6.350   7.255   2.092
 2357WAT     H210135   6.271   7.166   2.024
 2357WAT    EPW10136   6.314   7.231   2.026
 2358WAT      O10137   5.764   7.162   1.459
 2358WAT     H110138   5.763   7.150   1.372
 2358WAT     H210139   5.745   7.246   1.468
 2358WAT    EPW10140   5.761   7.172   1.447
 2359WAT      O10141   5.350   7.505   2.908
 2359WAT     H110142   5.297   7.455   2.955
 2359WAT     H210143   5.352   7.466   2.830
 2359WAT    EPW10144   5.343   7.492   2.903
 2360WAT      O10145   5.399   7.445   1.422
 2360WAT     H110146   5.386   7.400   1.496
 2360WAT     H210147   5.341   7.411   1.367
 2360WAT    EPW10148   5.388   7.433   1.425
 2361WAT      O10149   5.416   7.628   2.082
 2361WAT     H110150   5.337   7.622   2.044
 2361WAT     H210151   5.423   7.553   2.126
 2361WAT    EPW10152   5.405   7.616   2.083
 2362WAT      O10153   5.459   7.602   2.429
 2362WAT     H110154   5.461   7.534   2.374
 2362WAT     H210155   5.394   7.651   2.397
 2362WAT    EPW10156   5.449   7.599   2.416
 2363WAT      O10157   6.448   7.373   2.268
 2363WAT     H110158   6.382   7.406   2.315
 2363WAT     H210159   6.467   7.436   2.211
 2363WAT    EPW10160   6.441   7.387   2.267
 2364WAT      O10161   6.113   6.963   2.611
 2364WAT     H110162   6.127   6.881   2.587
 2364WAT     H210163   6.150   6.969   2.690
 2364WAT    EPW10164   6.120   6.952   2.619
 2365WAT      O10165   6.267   7.170   1.619
 2365WAT     H110166   6.316   7.241   1.612
 2365WAT     H210167   6.188   7.196   1.593
 2365WAT    EPW10168   6.263   7.184   1.614
 2366WAT      O10169   5.238   7.737   2.985
 2366WAT     H110170   5.235   7.787   2.913
 2366WAT     H210171   5.272   7.662   2.955
 2366WAT    EPW10172   5.243   7.733   2.970
 2367WAT      O10173   5.926   7.317   2.192
 2367WAT     H110174   5.974   7.387   2.213
 2367WAT     H210175   5.963   7.252   2.237
 2367WAT    EPW10176   5.938   7.318   2.202
 2368WAT      O10177   6.144   7.634   1.419
 2368WAT     H110178   6.144   7.706   1.370
 2368WAT     H210179   6.081   7.647   1.477
 2368WAT    EPW10180   6.135   7.646   1.421
 2369WAT      O10181   5.604   6.868   1.385
 2369WAT     H110182   5.613   6.857   1.471
 2369WAT     H210183   5.533   6.918   1.379
 2369WAT    EPW10184   5.595   6.874   1.397
 2370WAT      O10185   6.573   7.812   2.626
 2370WAT     H110186   6.579   7.825   2.540
 2370WAT     H210187   6.649   7.844   2.657
 2370WAT    EPW10188   6.585   7.819   2.618
 2371WAT      O10189   6.677   6.842   2.925
 2371WAT     H110190   6.613   6.802   2.881
 2371WAT     H210191   6.679   6.799   3.001
 2371WAT    EPW10192   6.668   6.830   2.930
 2372WAT      O10193   5.316   7.699   1.510
 2372WAT     H110194   5.348   7.621   1.487
 2372WAT     H210195   5.381   7.735   1.555
 2372WAT    EPW10196   5.330   7.692   1.513
 2373WAT      O10197   6.147   7.793   2.586
 2373WAT     H110198   6.131   7.854   2.647
 2373WAT     H210199   6.200   7.737   2.627
 2373WAT    EPW10200   6.152   7.794   2.601
 2374WAT      O10201   5.016   6.865   1.606
 2374WAT     H110202   5.029   6.794   1.557
 2374WAT     H210203   4.979   6.833   1.679
 2374WAT    EPW10204   5.012   6.849   1.610
 2375WAT      O10205   5.985   7.633   1.652
 2375WAT     H110206   5.991   7.698   1.710
 2375WAT     H210207   5.966   7.563   1.701
 2375WAT    EPW10208   5.983   7.632   1.668
 2376WAT      O10209   5.435   7.084   1.303
 2376WAT     H110210   5.383   7.090   1.233
 2376WAT     H210211   5.513   7.108   1.274
 2376WAT    EPW10212   5.439   7.089   1.289
 2377WAT      O10213   5.907   7.837   2.095
 2377WAT     H110214   5.823   7.818   2.103
 2377WAT     H210215   5.940   7.821   2.175
 2377WAT    EPW10216   5.899   7.832   2.108
 2378WAT      O10217   5.292   7.807   2.327
 2378WAT     H110218   5.364   7.856   2.323
 2378WAT     H210219   5.265   7.804   2.244
 2378WAT    EPW10220   5.299   7.814   2.314
 2379WAT      O10221   5.615   7.324   2.000
 2379WAT     H110222   5.700   7.305   2.010
 2379WAT     H210223   5.578   7.246   1.987
 2379WAT    EPW10224   5.622   7.310   2.000
 2380WAT      O10225   5.097   7.458   1.666
 2380WAT     H110226   5.146   7.428   1.732
 2380WAT     H210227   5.110   7.398   1.603
 2380WAT    EPW10228   5.106   7.445   1.666
 2381WAT      O10229   6.601   7.760   2.351
 2381WAT     H110230   6.600   7.682   2.391
 2381WAT     H210231   6.517   7.783   2.350
 2381WAT    EPW10232   6.588   7.752   2.357
 2382WAT      O10233   5.550   7.601   1.214
 2382WAT     H110234   5.489   7.561   1.262
 2382WAT     H210235   5.511   7.613   1.137
 2382WAT    EPW10236   5.535   7.597   1.210
 2383WAT      O10237   6.726   7.767   2.095
 2383WAT     H110238   6.698   7.807   2.167
 2383WAT     H210239   6.812   7.761   2.107
 2383WAT    EPW10240   6.735   7.772   2.107
 2384WAT      O10241   5.695   7.447   1.485
 2384WAT     H110242   5.722   7.530   1.492
 2384WAT     H210243   5.609   7.455   1.476
 2384WAT    EPW10244   5.686   7.460   1.485
 2385WAT      O10245   6.492   7.159   2.949
 2385WAT     H110246   6.440   7.205   3.001
 2385WAT     H210247   6.456   7.080   2.948
 2385WAT    EPW10248   6.479   7.154   2.956
 2386WAT      O10249   5.043   7.044   2.139
 2386WAT     H110250   5.048   7.079   2.059
 2386WAT     H210251   5.119   7.068   2.176
 2386WAT    EPW10252   5.055   7.053   2.133
 2387WAT      O10253   6.342   7.516   2.956
 2387WAT     H110254   6.349   7.527   3.043
 2387WAT     H210255   6.278   7.572   2.934
 2387WAT    EPW10256   6.333   7.526   2.966
 2388WAT      O10257   6.568   7.548   2.793
 2388WAT     H110258   6.600   7.627   2.813
 2388WAT     H210259   6.531   7.521   2.867
 2388WAT    EPW10260   6.568   7.556   2.807
 2389WAT      O10261   6.548   7.374   1.912
 2389WAT     H110262   6.474   7.342   1.943
 2389WAT     H210263   6.548   7.457   1.940
 2389WAT    EPW10264   6.537   7.381   1.920
 2390WAT      O10265   6.838   7.602   3.066
 2390WAT     H110266   6.833   7.568   2.986
 2390WAT     H210267   6.912   7.649   3.064
 2390WAT    EPW10268   6.848   7.604   3.054
 2391WAT      O10269   6.439   7.007   2.658
 2391WAT     H110270   6.514   7.052   2.651
 2391WAT     H210271   6.383   7.054   2.611
 2391WAT    EPW10272   6.442   7.021   2.650
 2392WAT      O10273   5.957   7.735   2.366
 2392WAT     H110274   6.005   7.773   2.428
 2392WAT     H210275   5.875   7.749   2.391
 2392WAT    EPW10276   5.952   7.743   2.379
 2393WAT      O10277   5.628   7.296   2.640
 2393WAT     H110278   5.644   7.221   2.682
 2393WAT     H210279   5.624   7.271   2.556
 2393WAT    EPW10280   5.630   7.281   2.634
 2394WAT      O10281   6.568   6.805   2.425
 2394WAT     H110282   6.540   6.887   2.420
 2394WAT     H210283   6.639   6.810   2.474
 2394WAT    EPW10284   6.574   6.818   2.431
 2395WAT      O10285   5.803   6.876   2.628
 2395WAT     H110286   5.874   6.908   2.587
 2395WAT     H210287   5.827   6.796   2.650
 2395WAT    EPW10288   5.817   6.869   2.625
 2396WAT      O10289   6.710   7.430   1.310
 2396WAT     H110290   6.748   7.498   1.270
 2396WAT     H210291   6.626   7.453   1.314
 2396WAT    EPW10292   6.703   7.444   1.305
 2397WAT      O10293   5.861   7.775   1.219
 2397WAT     H110294   5.781   7.757   1.190
 2397WAT     H210295   5.858   7.860   1.238
 2397WAT    EPW10296   5.849   7.785   1.217
 2398WAT      O10297   5.454   7.382   2.234
 2398WAT     H110298   5.498   7.371   2.159
 2398WAT     H210299   5.509   7.350   2.294
 2398WAT    EPW10300   5.469   7.376   2.232
 2399WAT      O10301   6.256   7.292   2.793
 2399WAT     H110302   6.191   7.339   2.828
 2399WAT     H210303   6.312   7.283   2.859
 2399WAT    EPW10304   6.255   7.298   2.808
 2400WAT      O10305   6.225   7.446   2.423
 2400WAT     H110306   6.255   7.488   2.493
 2400WAT     H210307   6.228   7.362   2.446
 2400WAT    EPW10308   6.230   7.439   2.437
 2401WAT      O10309   6.479   7.390   1.648
 2401WAT     H110310   6.500   7.370   1.730
 2401WAT     H210311   6.555   7.417   1.614
 2401WAT    EPW10312   6.494   7.391   1.655
 2402WAT      O10313   5.809   6.880   2.238
 2402WAT     H110314   5.726   6.865   2.262
 2402WAT     H210315   5.805   6.884   2.151
 2402WAT    EPW10316   5.796   6.879   2.229
 2403WAT      O10317   6.582   6.999   1.795
 2403WAT     H110318   6.510   6.952   1.812
 2403WAT     H210319   6.565   7.033   1.717
 2403WAT    EPW10320   6.569   6.997   1.786
 2404WAT      O10321   6.626   7.793   1.633
 2404WAT     H110322   6.673   7.720   1.629
 2404WAT     H210323   6.544   7.764   1.626
 2404WAT    EPW10324   6.621   7.778   1.631
 2405WAT      O10325   5.065   6.920   2.842
 2405WAT     H110326   5.051   7.000   2.809
 2405WAT     H210327   4.987   6.896   2.871
 2405WAT    EPW10328   5.052   6.928   2.841
 2406WAT      O10329   5.372   7.194   1.564
 2406WAT     H110330   5.384   7.162   1.485
 2406WAT     H210331   5.291   7.170   1.584
 2406WAT    EPW10332   5.362   7.186   1.556
 2407WAT      O10333   6.839   7.510   2.809
 2407WAT     H110334   6.754   7.498   2.822
 2407WAT     H210335   6.855   7.470   2.733
 2407WAT    EPW10336   6.829   7.502   2.800
 2408WAT      O10337   6.291   7.576   2.667
 2408WAT     H110338   6.265   7.504   2.709
 2408WAT     H210339   6.373   7.588   2.694
 2408WAT    EPW10340   6.299   7.567   2.677
 2409WAT      O10341   6.084   7.695   2.985
 2409WAT     H110342   6.116   7.764   2.942
 2409WAT     H210343   6.014   7.728   3.026
 2409WAT    EPW10344   6.078   7.710   2.985
 2410WAT      O10345   5.369   7.396   2.606
 2410WAT     H110346   5.407   7.457   2.557
 2410WAT     H210347   5.437   7.348   2.635
 2410WAT    EPW10348   5.385   7.398   2.603
 2411WAT      O10349   5.147   7.240   2.534
 2411WAT     H110350   5.155   7.223   2.448
 2411WAT     H210351   5.222   7.281   2.553
 2411WAT    EPW10352   5.159   7.244   2.524
 2412WAT      O10353   6.703   7.504   1.578
 2412WAT     H110354   6.713   7.499   1.491
 2412WAT     H210355   6.777   7.471   1.609
 2412WAT    EPW10356   6.715   7.499   1.569
 2413WAT      O10357   5.402   6.981   2.775
 2413WAT     H110358   5.394   6.897   2.795
 2413WAT     H210359   5.371   6.986   2.693
 2413WAT    EPW10360   5.397   6.970   2.766
 2414WAT      O10361   6.613   7.519   2.513
 2414WAT     H110362   6.613   7.433   2.526
 2414WAT     H210363   6.620   7.551   2.594
 2414WAT    EPW10364   6.614   7.511   2.527
 2415WAT      O10365   5.087   7.763   2.556
 2415WAT     H110366   5.119   7.785   2.478
 2415WAT     H210367   5.077   7.676   2.550
 2415WAT    EPW10368   5.090   7.753   2.544
 2416WAT      O10369   5.232   7.357   1.218
 2416WAT     H110370   5.165   7.358   1.273
 2416WAT     H210371   5.242   7.272   1.199
 2416WAT    EPW10372   5.224   7.344   1.223
 2417WAT      O10373   6.201   6.999   2.891
 2417WAT     H110374   6.210   7.070   2.941
 2417WAT     H210375   6.137   6.954   2.931
 2417WAT    EPW10376   6.193   7.003   2.905
 2418WAT      O10377   6.100   7.018   1.977
 2418WAT     H110378   6.030   7.070   1.971
 2418WAT     H210379   6.104   6.980   1.898
 2418WAT    EPW10380   6.091   7.020   1.964
 2419WAT      O10381   6.460   7.070   2.257
 2419WAT     H110382   6.546   7.079   2.271
 2419WAT     H210383   6.423   7.125   2.313
 2419WAT    EPW10384   6.467   7.079   2.267
 2420WAT      O10385   5.563   7.692   2.694
 2420WAT     H110386   5.523   7.770   2.702
 2420WAT     H210387   5.522   7.655   2.627
 2420WAT    EPW10388   5.551   7.698   2.686
 2421WAT      O10389   6.491   7.598   2.106
 2421WAT     H110390   6.557   7.652   2.122
 2421WAT     H210391   6.456   7.629   2.032
 2421WAT    EPW10392   6.495   7.610   2.097
 2422WAT      O10393   5.606   6.990   2.439
 2422WAT     H110394   5.519   6.998   2.447
 2422WAT     H210395   5.628   6.938   2.506
 2422WAT    EPW10396   5.596   6.984   2.451
 2423WAT      O10397   6.808   6.853   2.572
 2423WAT     H110398   6.802   6.849   2.659
 2423WAT     H210399   6.876   6.803   2.553
 2423WAT    EPW10400   6.817   6.845   2.582
 2424WAT      O10401   6.016   7.065   2.277
 2424WAT     H110402   5.942   7.019   2.288
 2424WAT     H210403   6.073   7.024   2.329
 2424WAT    EPW10404   6.014   7.052   2.286
 2425WAT      O10405   5.766   7.498   2.797
 2425WAT     H110406   5.734   7.440   2.740
 2425WAT     H210407   5.731   7.573   2.773
 2425WAT    EPW10408   5.756   7.500   2.785
 2426WAT      O10409   5.846   6.823   1.260
 2426WAT     H110410   5.854   6.847   1.177
 2426WAT     H210411   5.772   6.860   1.286
 2426WAT    EPW10412   5.836   6.832   1.251
 2427WAT      O10413   5.328   6.998   2.504
 2427WAT     H110414   5.294   6.921   2.481
 2427WAT     H210415   5.258   7.051   2.511
 2427WAT    EPW10416   5.313   6.995   2.502
 2428WAT      O10417   6.232   6.884   2.202
 2428WAT     H110418   6.299   6.938   2.215
 2428WAT     H210419   6.182   6.926   2.145
 2428WAT    EPW10420   6.235   6.898   2.195
 2429WAT      O10421   6.168   7.465   1.951
 2429WAT     H110422   6.223   7.404   1.981
 2429WAT     H210423   6.126   7.491   2.023
 2429WAT    EPW10424   6.170   7.459   1.966
 2430WAT      O10425   5.193   7.330   1.900
 2430WAT     H110426   5.156   7.360   1.973
 2430WAT     H210427   5.247   7.267   1.928
 2430WAT    EPW10428   5.196   7.325   1.915
 2431WAT      O10429   6.365   7.648   1.607
 2431WAT     H110430   6.372   7.563   1.626
 2431WAT     H210431   6.283   7.656   1.580
 2431WAT    EPW10432   6.354   7.636   1.606
 2432WAT      O10433   5.757   7.737   1.501
 2432WAT     H110434   5.767   7.751   1.416
 2432WAT     H210435   5.839   7.731   1.531
 2432WAT    EPW10436   5.771   7.738   1.493
 2433WAT      O10437   6.693   7.785   2.923
 2433WAT     H110438   6.756   7.768   2.980
 2433WAT     H210439   6.734   7.825   2.857
 2433WAT    EPW10440   6.708   7.788   2.921
 2434WAT      O10441   6.755   7.241   2.996
 2434WAT     H110442   6.736   7.306   3.052
 2434WAT     H210443   6.683   7.192   2.996
 2434WAT    EPW10444   6.742   7.244   3.004
 2435WAT      O10445   6.745   7.335   2.293
 2435WAT     H110446   6.662   7.360   2.286
 2435WAT     H210447   6.740   7.251   2.316
 2435WAT    EPW10448   6.732   7.327   2.296
 2436WAT      O10449   5.671   7.034   2.813
 2436WAT     H110450   5.695   6.977   2.752
 2436WAT     H210451   5.587   7.016   2.827
 2436WAT    EPW10452   5.662   7.023   2.806
 2437WAT      O10453   6.434   7.796   3.058
 2437WAT     H110454   6.521   7.792   3.054
 2437WAT     H210455   6.412   7.838   2.985
 2437WAT    EPW10456   6.444   7.802   3.047
 2438WAT      O10457   6.091   7.546   0.315
 2438WAT     H110458   6.039   7.606   0.352
 2438WAT     H210459   6.131   7.509   0.384
 2438WAT    EPW10460   6.089   7.550   0.331
 2439WAT      O10461   5.667   7.247   0.441
 2439WAT     H110462   5.735   7.249   0.387
 2439WAT     H210463   5.663   7.163   0.466
 2439WAT    EPW10464   5.677   7.235   0.437
 2440WAT      O10465   6.040   7.452   0.925
 2440WAT     H110466   5.955   7.442   0.907
 2440WAT     H210467   6.043   7.526   0.970
 2440WAT    EPW10468   6.028   7.461   0.929
 2441WAT      O10469   6.495   6.748   0.836
 2441WAT     H110470   6.480   6.825   0.798
 2441WAT     H210471   6.418   6.726   0.871
 2441WAT    EPW10472   6.482   6.756   0.836
 2442WAT      O10473   5.062   7.462   0.208
 2442WAT     H110474   5.037   7.545   0.201
 2442WAT     H210475   4.996   7.424   0.250
 2442WAT    EPW10476   5.049   7.468   0.213
 2443WAT      O10477   5.365   6.944   0.257
 2443WAT     H110478   5.313   6.881   0.226
 2443WAT     H210479   5.424   6.900   0.304
 2443WAT    EPW10480   5.366   6.928   0.260
 2444WAT      O10481   5.696   7.157   1.187
 2444WAT     H110482   5.707   7.111   1.113
 2444WAT     H210483   5.725   7.237   1.167
 2444WAT    EPW10484   5.702   7.162   1.173
 2445WAT      O10485   5.269   7.117   1.085
 2445WAT     H110486   5.191   7.078   1.078
 2445WAT     H210487   5.318   7.075   1.026
 2445WAT    EPW10488   5.265   7.105   1.076
 2446WAT      O10489   5.934   6.881   1.002
 2446WAT     H110490   5.952   6.800   0.975
 2446WAT     H210491   5.920   6.925   0.928
 2446WAT    EPW10492   5.934   6.875   0.987
 2447WAT      O10493   6.749   7.042   0.454
 2447WAT     H110494   6.824   7.049   0.411
 2447WAT     H210495   6.755   6.964   0.494
 2447WAT    EPW10496   6.761   7.031   0.454
 2448WAT      O10497   5.004   7.171   0.844
 2448WAT     H110498   5.003   7.230   0.909
 2448WAT     H210499   5.063   7.203   0.788
 2448WAT    EPW10500   5.013   7.185   0.845
 2449WAT      O10501   5.644   7.808   0.289
 2449WAT     H110502   5.661   7.787   0.371
 2449WAT     H210503   5.579   7.755   0.267
 2449WAT    EPW10504   5.637   7.797   0.298
 2450WAT      O10505   6.267   7.199   0.640
 2450WAT     H110506   6.257   7.231   0.721
 2450WAT     H210507   6.208   7.136   0.636
 2450WAT    EPW10508   6.257   7.195   0.651
 2451WAT      O10509   6.639   7.217   0.754
 2451WAT     H110510   6.716   7.195   0.788
 2451WAT     H210511   6.591   7.239   0.824
 2451WAT    EPW10512   6.643   7.217   0.770
 2452WAT      O10513   5.207   7.256   0.360
 2452WAT     H110514   5.292   7.278   0.355
 2452WAT     H210515   5.169   7.313   0.307
 2452WAT    EPW10516   5.214   7.268   0.351
 2453WAT      O10517   5.793   7.424   1.171
 2453WAT     H110518   5.744   7.482   1.216
 2453WAT     H210519   5.790   7.454   1.089
 2453WAT    EPW10520   5.785   7.437   1.166
 2454WAT      O10521   6.903   7.493   0.633
 2454WAT     H110522   6.924   7.413   0.605
 2454WAT     H210523   6.818   7.499   0.614
 2454WAT    EPW10524   6.893   7.482   0.626
 2455WAT      O10525   5.350   7.505   1.007
 2455WAT     H110526   5.297   7.455   1.054
 2455WAT     H210527   5.352   7.466   0.929
 2455WAT    EPW10528   5.343   7.492   1.003
 2456WAT      O10529   5.459   7.602   0.528
 2456WAT     H110530   5.461   7.534   0.473
 2456WAT     H210531   5.394   7.651   0.497
 2456WAT    EPW10532   5.449   7.599   0.515
 2457WAT      O10533   6.448   7.373   0.368
 2457WAT     H110534   6.382   7.406   0.414
 2457WAT     H210535   6.467   7.436   0.311
 2457WAT    EPW10536   6.441   7.387   0.366
 2458WAT      O10537   6.113   6.963   0.711
 2458WAT     H110538   6.127   6.881   0.686
 2458WAT     H210539   6.150   6.969   0.789
 2458WAT    EPW10540   6.120   6.952   0.719
 2459WAT      O10541   5.238   7.737   1.084
 2459WAT     H110542   5.235   7.787   1.013
 2459WAT     H210543   5.272   7.662   1.054
 2459WAT    EPW10544   5.243   7.733   1.069
 2460WAT      O10545   5.926   7.317   0.291
 2460WAT     H110546   5.974   7.387   0.312
 2460WAT     H210547   5.963   7.252   0.336
 2460WAT    EPW10548   5.938   7.318   0.301
 2461WAT      O10549   6.573   7.812   0.726
 2461WAT     H110550   6.579   7.825   0.640
 2461WAT     H210551   6.649   7.844   0.756
 2461WAT    EPW10552   6.585   7.819   0.717
 2462WAT      O10553   6.677   6.842   1.024
 2462WAT     H110554   6.613   6.802   0.980
 2462WAT     H210555   6.679   6.799   1.100
 2462WAT    EPW10556   6.668   6.830   1.029
 2463WAT      O10557   6.147   7.793   0.686
 2463WAT     H110558   6.131   7.854   0.746
 2463WAT     H210559   6.200   7.737   0.726
 2463WAT    EPW10560   6.152   7.794   0.701
 2464WAT      O10561   5.907   7.837   0.195
 2464WAT     H110562   5.823   7.818   0.203
 2464WAT     H210563   5.940   7.821   0.274
 2464WAT    EPW10564   5.899   7.832   0.208
 2465WAT      O10565   5.292   7.807   0.426
 2465WAT     H110566   5.364   7.856   0.423
 2465WAT     H210567   5.265   7.804   0.343
 2465WAT    EPW10568   5.299   7.814   0.413
 2466WAT      O10569   6.601   7.760   0.450
 2466WAT     H110570   6.600   7.682   0.490
 2466WAT     H210571   6.517   7.783   0.450
 2466WAT    EPW10572   6.588   7.752   0.456
 2467WAT      O10573   6.726   7.767   0.194
 2467WAT     H110574   6.698   7.807   0.266
 2467WAT     H210575   6.812   7.761   0.207
 2467WAT    EPW10576   6.735   7.772   0.207
 2468WAT      O10577   6.492   7.159   1.048
 2468WAT     H110578   6.440   7.205   1.100
 2468WAT     H210579   6.456   7.080   1.047
 2468WAT    EPW10580   6.479   7.154   1.056
 2469WAT      O10581   6.342   7.516   1.056
 2469WAT     H110582   6.349   7.527   1.142
 2469WAT     H210583   6.278   7.572   1.034
 2469WAT    EPW10584   6.333   7.526   1.065
 2470WAT      O10585   6.568   7.548   0.892
 2470WAT     H110586   6.600   7.627   0.912
 2470WAT     H210587   6.531   7.521   0.966
 2470WAT    EPW10588   6.568   7.556   0.906
 2471WAT      O10589   6.838   7.602   1.166
 2471WAT     H110590   6.833   7.568   1.086
 2471WAT     H210591   6.912   7.649   1.163
 2471WAT    EPW10592   6.848   7.604   1.153
 2472WAT      O10593   6.439   7.007   0.757
 2472WAT     H110594   6.514   7.052   0.751
 2472WAT     H210595   6.383   7.054   0.710
 2472WAT    EPW10596   6.442   7.021   0.749
 2473WAT      O10597   5.957   7.735   0.465
 2473WAT     H110598   6.005   7.773   0.528
 2473WAT     H210599   5.875   7.749   0.491
 2473WAT    EPW10600   5.952   7.743   0.478
 2474WAT      O10601   5.628   7.296   0.739
 2474WAT     H110602   5.644   7.221   0.782
 2474WAT     H210603   5.624   7.271   0.656
 2474WAT    EPW10604   5.630   7.281   0.733
 2475WAT      O10605   6.568   6.805   0.524
 2475WAT     H110606   6.540   6.887   0.520
 2475WAT     H210607   6.639   6.810   0.574
 2475WAT    EPW10608   6.574   6.818   0.531
 2476WAT      O10609   5.803   6.876   0.727
 2476WAT     H110610   5.874   6.908   0.687
 2476WAT     H210611   5.827   6.796   0.750
 2476WAT    EPW10612   5.817   6.869   0.724
 2477WAT      O10613   5.454   7.382   0.333
 2477WAT     H110614   5.498   7.371   0.259
 2477WAT     H210615   5.509   7.350   0.394
 2477WAT    EPW10616   5.469   7.376   0.331
 2478WAT      O10617   6.256   7.292   0.892
 2478WAT     H110618   6.191   7.339   0.927
 2478WAT     H210619   6.312   7.283   0.958
 2478WAT    EPW10620   6.255   7.298   0.907
 2479WAT      O10621   6.225   7.446   0.522
 2479WAT     H110622   6.255   7.488   0.592
 2479WAT     H210623   6.228   7.362   0.545
 2479WAT    EPW10624   6.230   7.439   0.536
 2480WAT      O10625   5.809   6.880   0.338
 2480WAT     H110626   5.726   6.865   0.362
 2480WAT     H210627   5.805   6.884   0.251
 2480WAT    EPW10628   5.796   6.879   0.328
 2481WAT      O10629   5.065   6.920   0.941
 2481WAT     H110630   5.051   7.000   0.908
 2481WAT     H210631   4.987   6.896   0.970
 2481WAT    EPW10632   5.052   6.928   0.941
 2482WAT      O10633   6.839   7.510   0.909
 2482WAT     H110634   6.754   7.498   0.921
 2482WAT     H210635   6.855   7.470   0.832
 2482WAT    EPW10636   6.829   7.502   0.899
 2483WAT      O10637   6.291   7.576   0.766
 2483WAT     H110638   6.265   7.504   0.808
 2483WAT     H210639   6.373   7.588   0.793
 2483WAT    EPW10640   6.299   7.567   0.776
 2484WAT      O10641   6.084   7.695   1.085
 2484WAT     H110642   6.116   7.764   1.042
 2484WAT     H210643   6.014   7.728   1.125
 2484WAT    EPW10644   6.078   7.710   1.084
 2485WAT      O10645   5.369   7.396   0.705
 2485WAT     H110646   5.407   7.457   0.657
 2485WAT     H210647   5.437   7.348   0.734
 2485WAT    EPW10648   5.385   7.398   0.702
 2486WAT      O10649   5.147   7.240   0.633
 2486WAT     H110650   5.155   7.223   0.548
 2486WAT     H210651   5.222   7.281   0.653
 2486WAT    EPW10652   5.159   7.244   0.623
 2487WAT      O10653   5.402   6.981   0.874
 2487WAT     H110654   5.394   6.897   0.895
 2487WAT     H210655   5.371   6.986   0.793
 2487WAT    EPW10656   5.397   6.970   0.865
 2488WAT      O10657   6.613   7.519   0.613
 2488WAT     H110658   6.613   7.433   0.625
 2488WAT     H210659   6.620   7.551   0.693
 2488WAT    EPW10660   6.614   7.511   0.626
 2489WAT      O10661   5.087   7.763   0.655
 2489WAT     H110662   5.119   7.785   0.577
 2489WAT     H210663   5.077   7.676   0.650
 2489WAT    EPW10664   5.090   7.753   0.643
 2490WAT      O10665   6.201   6.999   0.991
 2490WAT     H110666   6.210   7.070   1.040
 2490WAT     H210667   6.137   6.954   1.030
 2490WAT    EPW10668   6.193   7.003   1.004
 2491WAT      O10669   6.460   7.070   0.356
 2491WAT     H110670   6.546   7.079   0.371
 2491WAT     H210671   6.423   7.125   0.413
 2491WAT    EPW10672   6.467   7.079   0.367
 2492WAT      O10673   5.563   7.692   0.794
 2492WAT     H110674   5.523   7.770   0.801
 2492WAT     H210675   5.522   7.655   0.726
 2492WAT    EPW10676   5.551   7.698   0.785
 2493WAT      O10677   5.606   6.990   0.539
 2493WAT     H110678   5.519   6.998   0.547
 2493WAT     H210679   5.628   6.938   0.606
 2493WAT    EPW10680   5.596   6.984   0.550
 2494WAT      O10681   6.808   6.853   0.672
 2494WAT     H110682   6.802   6.849   0.759
 2494WAT     H210683   6.876   6.803   0.653
 2494WAT    EPW10684   6.817   6.845   0.682
 2495WAT      O10685   6.016   7.065   0.376
 2495WAT     H110686   5.942   7.019   0.388
 2495WAT     H210687   6.073   7.024   0.429
 2495WAT    EPW10688   6.014   7.052   0.386
 2496WAT      O10689   5.766   7.498   0.897
 2496WAT     H110690   5.734   7.440   0.840
 2496WAT     H210691   5.731   7.573   0.872
 2496WAT    EPW10692   5.756   7.500   0.885
 2497WAT      O10693   5.328   6.998   0.604
 2497WAT     H110694   5.294   6.921   0.580
 2497WAT     H210695   5.258   7.051   0.610
 2497WAT    EPW10696   5.313   6.995   0.601
 2498WAT      O10697   6.232   6.884   0.301
 2498WAT     H110698   6.299   6.938   0.314
 2498WAT     H210699   6.182   6.926   0.244
 2498WAT    EPW10700   6.235   6.898   0.295
 2499WAT      O10701   6.693   7.785   1.022
 2499WAT     H110702   6.756   7.768   1.079
 2499WAT     H210703   6.734   7.825   0.957
 2499WAT    EPW10704   6.708   7.788   1.021
 2500WAT      O10705   6.755   7.241   1.096
 2500WAT     H110706   6.736   7.306   1.151
 2500WAT     H210707   6.683   7.192   1.095
 2500WAT    EPW10708   6.742   7.244   1.104
 2501WAT      O10709   6.745   7.335   0.393
 2501WAT     H110710   6.662   7.360   0.386
 2501WAT     H210711   6.740   7.251   0.416
 2501WAT    EPW10712   6.732   7.327   0.395
 2502WAT      O10713   5.671   7.034   0.912
 2502WAT     H110714   5.695   6.977   0.851
 2502WAT     H210715   5.587   7.016   0.926
 2502WAT    EPW10716   5.662   7.023   0.905
 2503WAT      O10717   6.434   7.796   1.157
 2503WAT     H110718   6.521   7.792   1.154
 2503WAT     H210719   6.412   7.838   1.084
 2503WAT    EPW10720   6.444   7.802   1.146
 2504WAT      O10721   6.110   5.007   7.451
 2504WAT     H110722   6.086   5.056   7.383
 2504WAT     H210723   6.197   4.999   7.441
 2504WAT    EPW10724   6.119   5.013   7.439
 2505WAT      O10725   5.078   6.112   7.464
 2505WAT     H110726   5.034   6.124   7.538
 2505WAT     H210727   5.050   6.035   7.435
 2505WAT    EPW10728   5.067   6.103   7.470
 2506WAT      O10729   6.706   6.442   7.215
 2506WAT     H110730   6.776   6.391   7.215
 2506WAT     H210731   6.647   6.398   7.168
 2506WAT    EPW10732   6.707   6.428   7.208
 2507WAT      O10733   5.052   5.492   7.114
 2507WAT     H110734   4.975   5.508   7.078
 2507WAT     H210735   5.056   5.404   7.116
 2507WAT    EPW10736   5.041   5.481   7.109
 2508WAT      O10737   5.366   6.018   6.981
 2508WAT     H110738   5.327   5.981   6.913
 2508WAT     H210739   5.358   5.958   7.044
 2508WAT    EPW10740   5.359   6.004   6.981
 2509WAT      O10741   6.358   5.805   7.586
 2509WAT     H110742   6.366   5.805   7.499
 2509WAT     H210743   6.300   5.742   7.600
 2509WAT    EPW10744   6.351   5.796   7.575
 2510WAT      O10745   5.329   6.182   7.371
 2510WAT     H110746   5.390   6.165   7.432
 2510WAT     H210747   5.254   6.168   7.414
 2510WAT    EPW10748   5.327   6.177   7.387
 2511WAT      O10749   5.757   5.115   7.366
 2511WAT     H110750   5.750   5.183   7.312
 2511WAT     H210751   5.831   5.077   7.341
 2511WAT    EPW10752   5.767   5.120   7.355
 2512WAT      O10753   5.218   6.491   6.979
 2512WAT     H110754   5.265   6.499   6.906
 2512WAT     H210755   5.264   6.433   7.026
 2512WAT    EPW10756   5.232   6.484   6.975
 2513WAT      O10757   5.217   5.838   7.509
 2513WAT     H110758   5.170   5.799   7.447
 2513WAT     H210759   5.287   5.787   7.518
 2513WAT    EPW10760   5.220   5.825   7.501
 2514WAT      O10761   5.417   5.648   7.512
 2514WAT     H110762   5.498   5.629   7.536
 2514WAT     H210763   5.369   5.587   7.551
 2514WAT    EPW10764   5.422   5.636   7.521
 2515WAT      O10765   5.837   6.246   7.773
 2515WAT     H110766   5.872   6.166   7.776
 2515WAT     H210767   5.904   6.296   7.747
 2515WAT    EPW10768   5.852   6.242   7.769
 2516WAT      O10769   5.843   6.191   7.394
 2516WAT     H110770   5.876   6.127   7.442
 2516WAT     H210771   5.867   6.170   7.313
 2516WAT    EPW10772   5.851   6.178   7.389
 2517WAT      O10773   5.476   5.157   7.438
 2517WAT     H110774   5.447   5.207   7.373
 2517WAT     H210775   5.563   5.165   7.432
 2517WAT    EPW10776   5.485   5.166   7.428
 2518WAT      O10777   5.774   5.072   7.660
 2518WAT     H110778   5.782   5.158   7.673
 2518WAT     H210779   5.771   5.064   7.574
 2518WAT    EPW10780   5.775   5.083   7.650
 2519WAT      O10781   6.242   5.364   6.890
 2519WAT     H110782   6.197   5.432   6.921
 2519WAT     H210783   6.253   5.314   6.961
 2519WAT    EPW10784   6.237   5.367   6.905
 2520WAT      O10785   5.062   5.614   7.811
 2520WAT     H110786   5.037   5.697   7.803
 2520WAT     H210787   4.996   5.576   7.852
 2520WAT    EPW10788   5.049   5.621   7.816
 2521WAT      O10789   5.053   6.585   7.601
 2521WAT     H110790   4.994   6.641   7.569
 2521WAT     H210791   5.096   6.558   7.529
 2521WAT    EPW10792   5.051   6.589   7.585
 2522WAT      O10793   5.637   6.369   7.349
 2522WAT     H110794   5.579   6.342   7.408
 2522WAT     H210795   5.700   6.309   7.351
 2522WAT    EPW10796   5.638   6.356   7.358
 2523WAT      O10797   6.252   6.598   7.101
 2523WAT     H110798   6.324   6.645   7.111
 2523WAT     H210799   6.274   6.519   7.129
 2523WAT    EPW10800   6.266   6.594   7.106
 2524WAT      O10801   6.068   6.637   7.300
 2524WAT     H110802   6.090   6.690   7.366
 2524WAT     H210803   6.145   6.620   7.262
 2524WAT    EPW10804   6.083   6.643   7.304
 2525WAT      O10805   5.208   6.452   7.394
 2525WAT     H110806   5.273   6.395   7.395
 2525WAT     H210807   5.247   6.527   7.372
 2525WAT    EPW10808   5.223   6.455   7.391
 2526WAT      O10809   6.781   5.361   7.520
 2526WAT     H110810   6.746   5.429   7.562
 2526WAT     H210811   6.717   5.302   7.521
 2526WAT    EPW10812   6.767   5.363   7.526
 2527WAT      O10813   5.290   6.301   7.744
 2527WAT     H110814   5.332   6.265   7.676
 2527WAT     H210815   5.322   6.259   7.813
 2527WAT    EPW10816   5.301   6.289   7.744
 2528WAT      O10817   5.613   6.586   7.673
 2528WAT     H110818   5.697   6.596   7.654
 2528WAT     H210819   5.583   6.668   7.680
 2528WAT    EPW10820   5.621   6.600   7.671
 2529WAT      O10821   5.993   5.526   7.482
 2529WAT     H110822   6.022   5.502   7.403
 2529WAT     H210823   6.067   5.534   7.529
 2529WAT    EPW10824   6.008   5.523   7.477
 2530WAT      O10825   6.066   5.560   6.994
 2530WAT     H110826   6.094   5.638   7.019
 2530WAT     H210827   5.988   5.576   6.958
 2530WAT    EPW10828   6.058   5.574   6.992
 2531WAT      O10829   6.470   6.757   7.141
 2531WAT     H110830   6.536   6.742   7.086
 2531WAT     H210831   6.506   6.749   7.220
 2531WAT    EPW10832   6.485   6.754   7.144
 2532WAT      O10833   5.951   6.377   6.976
 2532WAT     H110834   5.933   6.431   7.041
 2532WAT     H210835   6.028   6.406   6.946
 2532WAT    EPW10836   5.960   6.389   6.981
 2533WAT      O10837   6.302   5.166   7.081
 2533WAT     H110838   6.356   5.098   7.089
 2533WAT     H210839   6.308   5.206   7.158
 2533WAT    EPW10840   6.311   5.162   7.094
 2534WAT      O10841   5.098   5.283   7.338
 2534WAT     H110842   5.086   5.197   7.341
 2534WAT     H210843   5.050   5.312   7.405
 2534WAT    EPW10844   5.089   5.275   7.348
 2535WAT      O10845   6.028   5.404   7.212
 2535WAT     H110846   5.977   5.338   7.187
 2535WAT     H210847   6.033   5.454   7.141
 2535WAT    EPW10848   6.021   5.402   7.198
 2536WAT      O10849   6.028   5.098   7.202
 2536WAT     H110850   5.982   5.058   7.139
 2536WAT     H210851   6.105   5.113   7.164
 2536WAT    EPW10852   6.033   5.094   7.187
 2537WAT      O10853   6.711   6.734   7.541
 2537WAT     H110854   6.665   6.805   7.561
 2537WAT     H210855   6.649   6.677   7.516
 2537WAT    EPW10856   6.695   6.736   7.540
 2538WAT      O10857   5.888   5.335   7.654
 2538WAT     H110858   5.895   5.391   7.588
 2538WAT     H210859   5.900   5.384   7.725
 2538WAT    EPW10860   5.891   5.350   7.655
 2539WAT      O10861   6.410   6.318   7.495
 2539WAT     H110862   6.480   6.270   7.514
 2539WAT     H210863   6.344   6.261   7.499
 2539WAT    EPW10864   6.411   6.303   7.498
 2540WAT      O10865   5.349   4.917   7.489
 2540WAT     H110866   5.402   4.986   7.488
 2540WAT     H210867   5.349   4.890   7.406
 2540WAT    EPW10868   5.356   4.923   7.476
 2541WAT      O10869   6.393   4.946   7.526
 2541WAT     H110870   6.397   4.914   7.607
 2541WAT     H210871   6.425   4.882   7.477
 2541WAT    EPW10872   6.398   4.932   7.531
 2542WAT      O10873   5.393   5.298   7.654
 2542WAT     H110874   5.421   5.255   7.583
 2542WAT     H210875   5.376   5.234   7.711
 2542WAT    EPW10876   5.395   5.282   7.652
 2543WAT      O10877   6.662   6.067   7.076
 2543WAT     H110878   6.674   6.039   7.157
 2543WAT     H210879   6.743   6.070   7.043
 2543WAT    EPW10880   6.676   6.064   7.083
 2544WAT      O10881   5.376   6.041   7.609
 2544WAT     H110882   5.461   6.033   7.592
 2544WAT     H210883   5.340   5.972   7.568
 2544WAT    EPW10884   5.383   6.029   7.600
 2545WAT      O10885   5.252   6.713   7.733
 2545WAT     H110886   5.185   6.663   7.708
 2545WAT     H210887   5.293   6.732   7.657
 2545WAT    EPW10888   5.248   6.709   7.718
 2546WAT      O10889   6.452   5.721   7.034
 2546WAT     H110890   6.430   5.794   6.992
 2546WAT     H210891   6.407   5.726   7.109
 2546WAT    EPW10892   6.442   5.733   7.039
 2547WAT      O10893   5.613   6.041   7.432
 2547WAT     H110894   5.684   6.091   7.441
 2547WAT     H210895   5.635   5.985   7.370
 2547WAT    EPW10896   5.626   6.040   7.424
 2548WAT      O10897   6.870   5.207   6.980
 2548WAT     H110898   6.804   5.150   6.982
 2548WAT     H210899   6.851   5.258   6.912
 2548WAT    EPW10900   6.858   5.206   6.970
 2549WAT      O10901   5.028   6.206   7.764
 2549WAT     H110902   4.961   6.254   7.792
 2549WAT     H210903   5.096   6.260   7.767
 2549WAT    EPW10904   5.028   6.221   7.769
 2550WAT      O10905   5.035   5.874   7.275
 2550WAT     H110906   5.016   5.790   7.290
 2550WAT     H210907   5.101   5.870   7.218
 2550WAT    EPW10908   5.042   5.861   7.268
 2551WAT      O10909   6.671   5.163   7.207
 2551WAT     H110910   6.745   5.122   7.227
 2551WAT     H210911   6.697   5.235   7.165
 2551WAT    EPW10912   6.685   5.168   7.204
 2552WAT      O10913   6.065   6.412   7.665
 2552WAT     H110914   6.013   6.475   7.636
 2552WAT     H210915   6.096   6.375   7.592
 2552WAT    EPW10916   6.062   6.416   7.650
 2553WAT      O10917   5.052   6.290   7.232
 2553WAT     H110918   5.107   6.347   7.269
 2553WAT     H210919   5.029   6.239   7.299
 2553WAT    EPW10920   5.057   6.291   7.247
 2554WAT      O10921   6.316   5.392   7.715
 2554WAT     H110922   6.350   5.407   7.793
 2554WAT     H210923   6.271   5.318   7.726
 2554WAT    EPW10924   6.314   5.383   7.728
 2555WAT      O10925   5.035   6.135   6.995
 2555WAT     H110926   5.111   6.092   7.001
 2555WAT     H210927   5.036   6.189   7.064
 2555WAT    EPW10928   5.046   6.137   7.006
 2556WAT      O10929   5.129   5.957   7.795
 2556WAT     H110930   5.172   5.945   7.721
 2556WAT     H210931   5.108   6.042   7.793
 2556WAT    EPW10932   5.132   5.968   7.784
 2557WAT      O10933   5.764   5.314   7.160
 2557WAT     H110934   5.763   5.302   7.074
 2557WAT     H210935   5.745   5.399   7.170
 2557WAT    EPW10936   5.761   5.325   7.149
 2558WAT      O10937   5.537   6.309   7.624
 2558WAT     H110938   5.550   6.393   7.642
 2558WAT     H210939   5.604   6.269   7.663
 2558WAT    EPW10940   5.549   6.316   7.632
 2559WAT      O10941   5.399   5.597   7.124
 2559WAT     H110942   5.386   5.552   7.198
 2559WAT     H210943   5.341   5.563   7.069
 2559WAT    EPW10944   5.388   5.585   7.127
 2560WAT      O10945   5.416   5.780   7.784
 2560WAT     H110946   5.337   5.774   7.745
 2560WAT     H210947   5.423   5.705   7.827
 2560WAT    EPW10948   5.405   5.768   7.785
 2561WAT      O10949   6.267   5.322   7.321
 2561WAT     H110950   6.316   5.394   7.314
 2561WAT     H210951   6.188   5.348   7.295
 2561WAT    EPW10952   6.263   5.336   7.316
 2562WAT      O10953   6.144   5.786   7.121
 2562WAT     H110954   6.144   5.858   7.072
 2562WAT     H210955   6.081   5.799   7.179
 2562WAT    EPW10956   6.135   5.799   7.122
 2563WAT      O10957   6.642   6.173   7.519
 2563WAT     H110958   6.677   6.138   7.591
 2563WAT     H210959   6.641   6.107   7.462
 2563WAT    EPW10960   6.647   6.158   7.521
 2564WAT      O10961   6.247   6.165   7.844
 2564WAT     H110962   6.168   6.187   7.871
 2564WAT     H210963   6.273   6.105   7.902
 2564WAT    EPW10964   6.239   6.159   7.856
 2565WAT      O10965   5.637   6.646   7.288
 2565WAT     H110966   5.622   6.568   7.326
 2565WAT     H210967   5.706   6.631   7.237
 2565WAT    EPW10968   5.645   6.632   7.286
 2566WAT      O10969   5.604   5.020   7.087
 2566WAT     H110970   5.613   5.009   7.173
 2566WAT     H210971   5.533   5.071   7.081
 2566WAT    EPW10972   5.595   5.026   7.099
 2567WAT      O10973   5.866   6.597   7.129
 2567WAT     H110974   5.928   6.614   7.188
 2567WAT     H210975   5.869   6.666   7.075
 2567WAT    EPW10976   5.876   6.610   7.130
 2568WAT      O10977   5.316   5.851   7.212
 2568WAT     H110978   5.348   5.773   7.189
 2568WAT     H210979   5.381   5.888   7.257
 2568WAT    EPW10980   5.330   5.845   7.215
 2569WAT      O10981   5.016   5.017   7.308
 2569WAT     H110982   5.029   4.946   7.259
 2569WAT     H210983   4.979   4.985   7.381
 2569WAT    EPW10984   5.012   5.002   7.312
 2570WAT      O10985   5.985   5.785   7.354
 2570WAT     H110986   5.991   5.850   7.412
 2570WAT     H210987   5.966   5.715   7.403
 2570WAT    EPW10988   5.983   5.784   7.370
 2571WAT      O10989   5.435   5.237   7.005
 2571WAT     H110990   5.383   5.242   6.935
 2571WAT     H210991   5.513   5.261   6.976
 2571WAT    EPW10992   5.439   5.241   6.990
 2572WAT      O10993   5.907   5.990   7.797
 2572WAT     H110994   5.823   5.970   7.805
 2572WAT     H210995   5.940   5.973   7.876
 2572WAT    EPW10996   5.899   5.984   7.810
 2573WAT      O10997   5.582   6.663   6.886
 2573WAT     H110998   5.626   6.593   6.915
 2573WAT     H210999   5.603   6.725   6.943
 2573WAT    EPW11000   5.592   6.662   6.898
 2574WAT      O11001   5.615   5.476   7.702
 2574WAT     H111002   5.700   5.457   7.712
 2574WAT     H211003   5.578   5.398   7.688
 2574WAT    EPW11004   5.622   5.462   7.702
 2575WAT      O11005   6.877   6.634   7.135
 2575WAT     H111006   6.946   6.588   7.110
 2575WAT     H211007   6.823   6.575   7.169
 2575WAT    EPW11008   6.879   6.619   7.136
 2576WAT      O11009   5.097   5.610   7.368
 2576WAT     H111010   5.146   5.581   7.434
 2576WAT     H211011   5.110   5.551   7.305
 2576WAT    EPW11012   5.106   5.597   7.368
 2577WAT      O11013   5.550   5.753   6.916
 2577WAT     H111014   5.489   5.713   6.964
 2577WAT     H211015   5.511   5.765   6.839
 2577WAT    EPW11016   5.535   5.749   6.912
 2578WAT      O11017   6.726   5.919   7.797
 2578WAT     H111018   6.698   5.959   7.869
 2578WAT     H211019   6.812   5.913   7.809
 2578WAT    EPW11020   6.735   5.924   7.809
 2579WAT      O11021   5.695   5.599   7.187
 2579WAT     H111022   5.722   5.682   7.194
 2579WAT     H211023   5.609   5.607   7.178
 2579WAT    EPW11024   5.686   5.613   7.187
 2580WAT      O11025   5.043   5.196   7.841
 2580WAT     H111026   5.048   5.231   7.761
 2580WAT     H211027   5.119   5.220   7.878
 2580WAT    EPW11028   5.055   5.205   7.835
 2581WAT      O11029   6.839   6.482   7.849
 2581WAT     H111030   6.868   6.508   7.771
 2581WAT     H211031   6.909   6.492   7.901
 2581WAT    EPW11032   6.854   6.488   7.846
 2582WAT      O11033   6.500   6.343   7.048
 2582WAT     H111034   6.533   6.262   7.051
 2582WAT     H211035   6.424   6.336   7.091
 2582WAT    EPW11036   6.494   6.330   7.055
 2583WAT      O11037   6.548   5.526   7.614
 2583WAT     H111038   6.474   5.494   7.645
 2583WAT     H211039   6.548   5.609   7.642
 2583WAT    EPW11040   6.537   5.534   7.622
 2584WAT      O11041   6.237   6.130   6.988
 2584WAT     H111042   6.306   6.079   6.971
 2584WAT     H211043   6.196   6.135   6.911
 2584WAT    EPW11044   6.241   6.123   6.974
 2585WAT      O11045   5.883   6.627   7.590
 2585WAT     H111046   5.938   6.695   7.596
 2585WAT     H211047   5.848   6.635   7.511
 2585WAT    EPW11048   5.886   6.638   7.579
 2586WAT      O11049   6.710   5.583   7.012
 2586WAT     H111050   6.748   5.650   6.972
 2586WAT     H211051   6.626   5.605   7.015
 2586WAT    EPW11052   6.703   5.596   7.007
 2587WAT      O11053   5.861   5.927   6.921
 2587WAT     H111054   5.781   5.910   6.892
 2587WAT     H211055   5.858   6.012   6.940
 2587WAT    EPW11056   5.849   5.937   6.919
 2588WAT      O11057   6.479   5.543   7.350
 2588WAT     H111058   6.500   5.522   7.432
 2588WAT     H211059   6.555   5.569   7.316
 2588WAT    EPW11060   6.494   5.544   7.357
 2589WAT      O11061   6.582   5.151   7.497
 2589WAT     H111062   6.510   5.104   7.514
 2589WAT     H211063   6.565   5.185   7.419
 2589WAT    EPW11064   6.569   5.149   7.488
 2590WAT      O11065   6.626   5.945   7.335
 2590WAT     H111066   6.673   5.872   7.330
 2590WAT     H211067   6.544   5.917   7.328
 2590WAT    EPW11068   6.621   5.930   7.333
 2591WAT      O11069   5.372   5.347   7.266
 2591WAT     H111070   5.384   5.314   7.187
 2591WAT     H211071   5.291   5.322   7.286
 2591WAT    EPW11072   5.362   5.338   7.258
 2592WAT      O11073   6.247   6.062   7.571
 2592WAT     H111074   6.255   6.096   7.651
 2592WAT     H211075   6.264   5.977   7.583
 2592WAT    EPW11076   6.251   6.054   7.584
 2593WAT      O11077   6.000   5.989   7.527
 2593WAT     H111078   5.970   5.958   7.603
 2593WAT     H211079   6.069   6.037   7.551
 2593WAT    EPW11080   6.006   5.992   7.542
 2594WAT      O11081   6.393   6.685   7.780
 2594WAT     H111082   6.347   6.749   7.818
 2594WAT     H211083   6.463   6.677   7.831
 2594WAT    EPW11084   6.396   6.693   7.793
 2595WAT      O11085   6.703   5.657   7.279
 2595WAT     H111086   6.713   5.651   7.193
 2595WAT     H211087   6.777   5.623   7.311
 2595WAT    EPW11088   6.715   5.651   7.271
 2596WAT      O11089   6.095   6.353   7.390
 2596WAT     H111090   6.074   6.436   7.374
 2596WAT     H211091   6.017   6.315   7.402
 2596WAT    EPW11092   6.080   6.360   7.390
 2597WAT      O11093   5.232   5.509   6.920
 2597WAT     H111094   5.165   5.510   6.975
 2597WAT     H211095   5.242   5.424   6.901
 2597WAT    EPW11096   5.224   5.496   6.925
 2598WAT      O11097   6.100   5.170   7.679
 2598WAT     H111098   6.030   5.222   7.673
 2598WAT     H211099   6.104   5.132   7.600
 2598WAT    EPW11100   6.091   5.172   7.666
 2599WAT      O11101   5.631   6.379   7.031
 2599WAT     H111102   5.675   6.387   7.106
 2599WAT     H211103   5.551   6.358   7.057
 2599WAT    EPW11104   5.626   6.377   7.046
 2600WAT      O11105   6.491   5.750   7.808
 2600WAT     H111106   6.557   5.804   7.824
 2600WAT     H211107   6.456   5.781   7.734
 2600WAT    EPW11108   6.495   5.762   7.799
 2601WAT      O11109   6.522   6.556   7.388
 2601WAT     H111110   6.504   6.491   7.443
 2601WAT     H211111   6.593   6.529   7.346
 2601WAT    EPW11112   6.530   6.543   7.390
 2602WAT      O11113   5.364   6.286   7.091
 2602WAT     H111114   5.340   6.256   7.169
 2602WAT     H211115   5.361   6.216   7.040
 2602WAT    EPW11116   5.360   6.271   7.095
 2603WAT      O11117   5.646   6.111   6.965
 2603WAT     H111118   5.564   6.084   6.979
 2603WAT     H211119   5.643   6.196   6.984
 2603WAT    EPW11120   5.633   6.119   6.970
 2604WAT      O11121   5.846   4.975   6.962
 2604WAT     H111122   5.854   5.000   6.879
 2604WAT     H211123   5.772   5.013   6.988
 2604WAT    EPW11124   5.836   4.984   6.953
 2605WAT      O11125   6.168   5.617   7.653
 2605WAT     H111126   6.223   5.556   7.683
 2605WAT     H211127   6.126   5.643   7.725
 2605WAT    EPW11128   6.170   5.612   7.668
 2606WAT      O11129   5.193   5.482   7.602
 2606WAT     H111130   5.156   5.512   7.675
 2606WAT     H211131   5.247   5.419   7.630
 2606WAT    EPW11132   5.196   5.477   7.617
 2607WAT      O11133   6.365   5.800   7.309
 2607WAT     H111134   6.372   5.715   7.327
 2607WAT     H211135   6.283   5.808   7.282
 2607WAT    EPW11136   6.354   5.789   7.308
 2608WAT      O11137   5.341   6.649   7.230
 2608WAT     H111138   5.326   6.665   7.146
 2608WAT     H211139   5.427   6.657   7.238
 2608WAT    EPW11140   5.351   6.653   7.219
 2609WAT      O11141   5.757   5.889   7.203
 2609WAT     H111142   5.767   5.903   7.118
 2609WAT     H211143   5.839   5.883   7.233
 2609WAT    EPW11144   5.771   5.890   7.195
 2610WAT      O11145   6.673   6.695   6.951
 2610WAT     H111146   6.737   6.682   7.009
 2610WAT     H211147   6.639   6.616   6.939
 2610WAT    EPW11148   6.678   6.682   6.958
 2611WAT      O11149   6.281   6.322   7.183
 2611WAT     H111150   6.256   6.309   7.266
 2611WAT     H211151   6.249   6.252   7.141
 2611WAT    EPW11152   6.272   6.310   7.189
 2612WAT      O11153   5.409   6.531   7.878
 2612WAT     H111154   5.401   6.450   7.846
 2612WAT     H211155   5.365   6.579   7.821
 2612WAT    EPW11156   5.402   6.526   7.865
 2613WAT      O11157   5.969   6.143   7.126
 2613WAT     H111158   6.041   6.108   7.091
 2613WAT     H211159   5.966   6.223   7.092
 2613WAT    EPW11160   5.979   6.149   7.116
 2614WAT      O11161   6.110   5.007   5.550
 2614WAT     H111162   6.086   5.056   5.482
 2614WAT     H211163   6.197   4.999   5.540
 2614WAT    EPW11164   6.119   5.013   5.539
 2615WAT      O11165   6.091   5.698   6.017
 2615WAT     H111166   6.039   5.758   6.054
 2615WAT     H211167   6.131   5.662   6.086
 2615WAT    EPW11168   6.089   5.702   6.033
 2616WAT      O11169   5.078   6.112   5.563
 2616WAT     H111170   5.034   6.124   5.637
 2616WAT     H211171   5.050   6.035   5.534
 2616WAT    EPW11172   5.067   6.103   5.570
 2617WAT      O11173   6.706   6.442   5.314
 2617WAT     H111174   6.776   6.391   5.314
 2617WAT     H211175   6.647   6.398   5.267
 2617WAT    EPW11176   6.707   6.428   5.307
 2618WAT      O11177   5.052   5.492   5.214
 2618WAT     H111178   4.975   5.508   5.178
 2618WAT     H211179   5.056   5.404   5.216
 2618WAT    EPW11180   5.041   5.481   5.209
 2619WAT      O11181   5.366   6.018   5.081
 2619WAT     H111182   5.327   5.981   5.012
 2619WAT     H211183   5.358   5.958   5.144
 2619WAT    EPW11184   5.359   6.004   5.080
 2620WAT      O11185   6.358   5.805   5.685
 2620WAT     H111186   6.366   5.805   5.598
 2620WAT     H211187   6.300   5.742   5.700
 2620WAT    EPW11188   6.351   5.796   5.674
 2621WAT      O11189   5.329   6.182   5.471
 2621WAT     H111190   5.390   6.165   5.531
 2621WAT     H211191   5.254   6.168   5.513
 2621WAT    EPW11192   5.327   6.177   5.486
 2622WAT      O11193   5.757   5.115   5.466
 2622WAT     H111194   5.750   5.183   5.411
 2622WAT     H211195   5.831   5.077   5.441
 2622WAT    EPW11196   5.767   5.120   5.454
 2623WAT      O11197   5.218   6.491   5.078
 2623WAT     H111198   5.265   6.499   5.005
 2623WAT     H211199   5.264   6.433   5.125
 2623WAT    EPW11200   5.232   6.484   5.075
 2624WAT      O11201   5.072   6.386   6.188
 2624WAT     H111202   5.085   6.358   6.270
 2624WAT     H211203   5.011   6.332   6.157
 2624WAT    EPW11204   5.065   6.374   6.196
 2625WAT      O11205   5.729   6.138   6.695
 2625WAT     H111206   5.706   6.138   6.779
 2625WAT     H211207   5.655   6.124   6.653
 2625WAT    EPW11208   5.715   6.136   6.701
 2626WAT      O11209   5.217   5.838   5.609
 2626WAT     H111210   5.170   5.799   5.546
 2626WAT     H211211   5.287   5.787   5.618
 2626WAT    EPW11212   5.220   5.825   5.601
 2627WAT      O11213   5.667   5.399   6.143
 2627WAT     H111214   5.735   5.401   6.088
 2627WAT     H211215   5.663   5.315   6.168
 2627WAT    EPW11216   5.677   5.387   6.139
 2628WAT      O11217   5.728   6.458   6.421
 2628WAT     H111218   5.741   6.534   6.381
 2628WAT     H211219   5.807   6.421   6.424
 2628WAT    EPW11220   5.741   6.463   6.416
 2629WAT      O11221   5.417   5.648   5.611
 2629WAT     H111222   5.498   5.629   5.635
 2629WAT     H211223   5.369   5.587   5.650
 2629WAT    EPW11224   5.422   5.636   5.620
 2630WAT      O11225   5.837   6.246   5.872
 2630WAT     H111226   5.872   6.166   5.875
 2630WAT     H211227   5.904   6.296   5.846
 2630WAT    EPW11228   5.852   6.242   5.869
 2631WAT      O11229   5.843   6.191   5.493
 2631WAT     H111230   5.876   6.127   5.542
 2631WAT     H211231   5.867   6.170   5.412
 2631WAT    EPW11232   5.851   6.178   5.488
 2632WAT      O11233   6.040   5.604   6.627
 2632WAT     H111234   5.955   5.594   6.609
 2632WAT     H211235   6.043   5.679   6.672
 2632WAT    EPW11236   6.028   5.614   6.631
 2633WAT      O11237   5.476   5.157   5.537
 2633WAT     H111238   5.447   5.207   5.472
 2633WAT     H211239   5.563   5.165   5.532
 2633WAT    EPW11240   5.485   5.166   5.527
 2634WAT      O11241   6.495   4.900   6.538
 2634WAT     H111242   6.480   4.977   6.500
 2634WAT     H211243   6.418   4.878   6.573
 2634WAT    EPW11244   6.482   4.908   6.538
 2635WAT      O11245   5.774   5.072   5.760
 2635WAT     H111246   5.782   5.158   5.773
 2635WAT     H211247   5.771   5.064   5.673
 2635WAT    EPW11248   5.775   5.083   5.749
 2636WAT      O11249   6.242   5.364   4.990
 2636WAT     H111250   6.197   5.432   5.020
 2636WAT     H211251   6.253   5.314   5.060
 2636WAT    EPW11252   6.237   5.367   5.005
 2637WAT      O11253   5.062   5.614   5.910
 2637WAT     H111254   5.037   5.697   5.902
 2637WAT     H211255   4.996   5.576   5.952
 2637WAT    EPW11256   5.049   5.621   5.915
 2638WAT      O11257   5.053   6.585   5.700
 2638WAT     H111258   4.994   6.641   5.669
 2638WAT     H211259   5.096   6.558   5.629
 2638WAT    EPW11260   5.051   6.589   5.685
 2639WAT      O11261   5.637   6.369   5.448
 2639WAT     H111262   5.579   6.342   5.507
 2639WAT     H211263   5.700   6.309   5.450
 2639WAT    EPW11264   5.638   6.356   5.457
 2640WAT      O11265   6.252   6.598   5.200
 2640WAT     H111266   6.324   6.645   5.210
 2640WAT     H211267   6.274   6.519   5.228
 2640WAT    EPW11268   6.266   6.594   5.206
 2641WAT      O11269   6.068   6.637   5.399
 2641WAT     H111270   6.090   6.690   5.465
 2641WAT     H211271   6.145   6.620   5.361
 2641WAT    EPW11272   6.083   6.643   5.403
 2642WAT      O11273   5.365   5.096   5.959
 2642WAT     H111274   5.313   5.033   5.928
 2642WAT     H211275   5.424   5.052   6.006
 2642WAT    EPW11276   5.366   5.080   5.961
 2643WAT      O11277   5.696   5.309   6.889
 2643WAT     H111278   5.707   5.264   6.815
 2643WAT     H211279   5.725   5.389   6.868
 2643WAT    EPW11280   5.702   5.314   6.875
 2644WAT      O11281   5.208   6.452   5.493
 2644WAT     H111282   5.273   6.395   5.494
 2644WAT     H211283   5.247   6.527   5.471
 2644WAT    EPW11284   5.223   6.455   5.490
 2645WAT      O11285   6.781   5.361   5.619
 2645WAT     H111286   6.746   5.429   5.662
 2645WAT     H211287   6.717   5.302   5.621
 2645WAT    EPW11288   6.767   5.363   5.626
 2646WAT      O11289   6.312   6.638   6.230
 2646WAT     H111290   6.387   6.684   6.229
 2646WAT     H211291   6.300   6.617   6.146
 2646WAT    EPW11292   6.321   6.642   6.217
 2647WAT      O11293   5.269   5.269   6.787
 2647WAT     H111294   5.191   5.230   6.780
 2647WAT     H211295   5.318   5.228   6.728
 2647WAT    EPW11296   5.265   5.257   6.777
 2648WAT      O11297   5.290   6.301   5.843
 2648WAT     H111298   5.332   6.265   5.776
 2648WAT     H211299   5.322   6.259   5.912
 2648WAT    EPW11300   5.301   6.289   5.843
 2649WAT      O11301   5.613   6.586   5.773
 2649WAT     H111302   5.697   6.596   5.753
 2649WAT     H211303   5.583   6.668   5.779
 2649WAT    EPW11304   5.621   6.600   5.771
 2650WAT      O11305   5.934   5.033   6.704
 2650WAT     H111306   5.952   4.952   6.676
 2650WAT     H211307   5.920   5.077   6.630
 2650WAT    EPW11308   5.934   5.028   6.689
 2651WAT      O11309   5.993   5.526   5.581
 2651WAT     H111310   6.022   5.502   5.502
 2651WAT     H211311   6.067   5.534   5.628
 2651WAT    EPW11312   6.008   5.523   5.577
 2652WAT      O11313   6.066   5.560   5.093
 2652WAT     H111314   6.094   5.638   5.118
 2652WAT     H211315   5.988   5.576   5.057
 2652WAT    EPW11316   6.058   5.574   5.092
 2653WAT      O11317   6.470   6.757   5.240
 2653WAT     H111318   6.536   6.742   5.186
 2653WAT     H211319   6.506   6.749   5.319
 2653WAT    EPW11320   6.485   6.754   5.244
 2654WAT      O11321   5.512   6.708   6.347
 2654WAT     H111322   5.542   6.701   6.429
 2654WAT     H211323   5.450   6.647   6.342
 2654WAT    EPW11324   5.508   6.698   6.358
 2655WAT      O11325   6.749   5.194   6.156
 2655WAT     H111326   6.824   5.201   6.113
 2655WAT     H211327   6.755   5.116   6.196
 2655WAT    EPW11328   6.761   5.183   6.156
 2656WAT      O11329   5.004   5.324   6.546
 2656WAT     H111330   5.003   5.382   6.610
 2656WAT     H211331   5.063   5.355   6.490
 2656WAT    EPW11332   5.013   5.337   6.547
 2657WAT      O11333   6.238   6.357   6.600
 2657WAT     H111334   6.234   6.395   6.678
 2657WAT     H211335   6.323   6.353   6.583
 2657WAT    EPW11336   6.250   6.362   6.609
 2658WAT      O11337   5.951   6.377   5.075
 2658WAT     H111338   5.933   6.431   5.141
 2658WAT     H211339   6.028   6.406   5.045
 2658WAT    EPW11340   5.960   6.389   5.080
 2659WAT      O11341   6.302   5.166   5.180
 2659WAT     H111342   6.356   5.098   5.188
 2659WAT     H211343   6.308   5.206   5.258
 2659WAT    EPW11344   6.311   5.162   5.193
 2660WAT      O11345   5.098   5.283   5.437
 2660WAT     H111346   5.086   5.197   5.440
 2660WAT     H211347   5.050   5.312   5.504
 2660WAT    EPW11348   5.089   5.275   5.448
 2661WAT      O11349   5.312   6.524   6.259
 2661WAT     H111350   5.242   6.473   6.271
 2661WAT     H211351   5.338   6.504   6.178
 2661WAT    EPW11352   5.305   6.514   6.249
 2662WAT      O11353   6.028   5.404   5.312
 2662WAT     H111354   5.977   5.338   5.286
 2662WAT     H211355   6.033   5.454   5.241
 2662WAT    EPW11356   6.021   5.402   5.298
 2663WAT      O11357   6.083   6.673   6.350
 2663WAT     H111358   6.160   6.665   6.309
 2663WAT     H211359   6.025   6.661   6.286
 2663WAT    EPW11360   6.086   6.670   6.334
 2664WAT      O11361   6.028   5.098   5.301
 2664WAT     H111362   5.982   5.058   5.238
 2664WAT     H211363   6.105   5.113   5.263
 2664WAT    EPW11364   6.033   5.094   5.286
 2665WAT      O11365   6.711   6.734   5.640
 2665WAT     H111366   6.665   6.805   5.660
 2665WAT     H211367   6.649   6.677   5.616
 2665WAT    EPW11368   6.695   6.736   5.639
 2666WAT      O11369   5.888   5.335   5.753
 2666WAT     H111370   5.895   5.391   5.687
 2666WAT     H211371   5.900   5.384   5.824
 2666WAT    EPW11372   5.891   5.350   5.754
 2667WAT      O11373   6.410   6.318   5.594
 2667WAT     H111374   6.480   6.270   5.613
 2667WAT     H211375   6.344   6.261   5.599
 2667WAT    EPW11376   6.411   6.303   5.598
 2668WAT      O11377   5.448   6.409   6.515
 2668WAT     H111378   5.532   6.415   6.493
 2668WAT     H211379   5.444   6.449   6.593
 2668WAT    EPW11380   5.460   6.416   6.524
 2669WAT      O11381   5.349   4.917   5.588
 2669WAT     H111382   5.402   4.986   5.587
 2669WAT     H211383   5.349   4.890   5.505
 2669WAT    EPW11384   5.356   4.923   5.575
 2670WAT      O11385   5.644   5.960   5.990
 2670WAT     H111386   5.661   5.939   6.073
 2670WAT     H211387   5.579   5.907   5.969
 2670WAT    EPW11388   5.637   5.949   5.999
 2671WAT      O11389   6.267   5.352   6.342
 2671WAT     H111390   6.257   5.384   6.422
 2671WAT     H211391   6.208   5.288   6.338
 2671WAT    EPW11392   6.257   5.347   6.353
 2672WAT      O11393   5.719   5.954   6.249
 2672WAT     H111394   5.724   6.039   6.270
 2672WAT     H211395   5.691   5.917   6.323
 2672WAT    EPW11396   5.716   5.961   6.263
 2673WAT      O11397   6.337   6.024   6.162
 2673WAT     H111398   6.285   5.982   6.219
 2673WAT     H211399   6.324   6.108   6.180
 2673WAT    EPW11400   6.327   6.030   6.173
 2674WAT      O11401   6.393   4.946   5.625
 2674WAT     H111402   6.397   4.914   5.707
 2674WAT     H211403   6.425   4.882   5.576
 2674WAT    EPW11404   6.398   4.932   5.630
 2675WAT      O11405   5.001   6.391   6.870
 2675WAT     H111406   5.077   6.426   6.896
 2675WAT     H211407   5.019   6.306   6.865
 2675WAT    EPW11408   5.015   6.384   6.873
 2676WAT      O11409   6.639   5.370   6.456
 2676WAT     H111410   6.716   5.347   6.490
 2676WAT     H211411   6.591   5.391   6.526
 2676WAT    EPW11412   6.643   5.370   6.472
 2677WAT      O11413   5.393   5.298   5.753
 2677WAT     H111414   5.421   5.255   5.682
 2677WAT     H211415   5.376   5.234   5.810
 2677WAT    EPW11416   5.395   5.282   5.751
 2678WAT      O11417   6.662   6.067   5.175
 2678WAT     H111418   6.674   6.039   5.257
 2678WAT     H211419   6.743   6.070   5.142
 2678WAT    EPW11420   6.676   6.064   5.182
 2679WAT      O11421   5.376   6.041   5.708
 2679WAT     H111422   5.461   6.033   5.691
 2679WAT     H211423   5.340   5.972   5.667
 2679WAT    EPW11424   5.383   6.029   5.699
 2680WAT      O11425   5.252   6.713   5.832
 2680WAT     H111426   5.185   6.663   5.807
 2680WAT     H211427   5.293   6.732   5.757
 2680WAT    EPW11428   5.248   6.709   5.817
 2681WAT      O11429   5.207   5.408   6.061
 2681WAT     H111430   5.292   5.430   6.057
 2681WAT     H211431   5.169   5.465   6.008
 2681WAT    EPW11432   5.214   5.420   6.053
 2682WAT      O11433   6.886   6.518   6.600
 2682WAT     H111434   6.817   6.549   6.556
 2682WAT     H211435   6.849   6.473   6.665
 2682WAT    EPW11436   6.870   6.516   6.603
 2683WAT      O11437   6.452   5.721   5.134
 2683WAT     H111438   6.430   5.794   5.091
 2683WAT     H211439   6.407   5.726   5.208
 2683WAT    EPW11440   6.442   5.733   5.138
 2684WAT      O11441   5.613   6.041   5.532
 2684WAT     H111442   5.684   6.091   5.541
 2684WAT     H211443   5.635   5.985   5.469
 2684WAT    EPW11444   5.626   6.040   5.524
 2685WAT      O11445   6.870   5.207   5.079
 2685WAT     H111446   6.804   5.150   5.081
 2685WAT     H211447   6.851   5.258   5.011
 2685WAT    EPW11448   6.858   5.206   5.069
 2686WAT      O11449   5.028   6.206   5.864
 2686WAT     H111450   4.961   6.254   5.891
 2686WAT     H211451   5.096   6.260   5.867
 2686WAT    EPW11452   5.028   6.221   5.868
 2687WAT      O11453   5.793   5.577   6.873
 2687WAT     H111454   5.744   5.634   6.917
 2687WAT     H211455   5.790   5.606   6.791
 2687WAT    EPW11456   5.785   5.590   6.868
 2688WAT      O11457   6.903   5.645   6.334
 2688WAT     H111458   6.924   5.565   6.307
 2688WAT     H211459   6.818   5.651   6.316
 2688WAT    EPW11460   6.893   5.634   6.328
 2689WAT      O11461   5.035   5.874   5.374
 2689WAT     H111462   5.016   5.790   5.389
 2689WAT     H211463   5.101   5.870   5.317
 2689WAT    EPW11464   5.042   5.861   5.368
 2690WAT      O11465   6.671   5.163   5.307
 2690WAT     H111466   6.745   5.122   5.327
 2690WAT     H211467   6.697   5.235   5.264
 2690WAT    EPW11468   6.685   5.168   5.303
 2691WAT      O11469   6.065   6.412   5.764
 2691WAT     H111470   6.013   6.475   5.735
 2691WAT     H211471   6.096   6.375   5.691
 2691WAT    EPW11472   6.062   6.416   5.749
 2692WAT      O11473   5.472   6.190   6.040
 2692WAT     H111474   5.519   6.219   6.108
 2692WAT     H211475   5.530   6.143   5.995
 2692WAT    EPW11476   5.488   6.188   6.044
 2693WAT      O11477   6.316   5.392   5.814
 2693WAT     H111478   6.350   5.407   5.893
 2693WAT     H211479   6.271   5.318   5.825
 2693WAT    EPW11480   6.314   5.383   5.827
 2694WAT      O11481   5.035   6.135   5.094
 2694WAT     H111482   5.111   6.092   5.100
 2694WAT     H211483   5.036   6.189   5.163
 2694WAT    EPW11484   5.046   6.137   5.105
 2695WAT      O11485   5.129   5.957   5.895
 2695WAT     H111486   5.172   5.945   5.820
 2695WAT     H211487   5.108   6.042   5.892
 2695WAT    EPW11488   5.132   5.968   5.883
 2696WAT      O11489   5.764   5.314   5.260
 2696WAT     H111490   5.763   5.302   5.173
 2696WAT     H211491   5.745   5.399   5.269
 2696WAT    EPW11492   5.761   5.325   5.248
 2697WAT      O11493   6.669   6.557   6.409
 2697WAT     H111494   6.602   6.608   6.431
 2697WAT     H211495   6.675   6.567   6.323
 2697WAT    EPW11496   6.660   6.566   6.400
 2698WAT      O11497   5.537   6.309   5.723
 2698WAT     H111498   5.550   6.393   5.742
 2698WAT     H211499   5.604   6.269   5.763
 2698WAT    EPW11500   5.549   6.316   5.732
 2699WAT      O11501   5.350   5.657   6.709
 2699WAT     H111502   5.297   5.607   6.756
 2699WAT     H211503   5.352   5.618   6.631
 2699WAT    EPW11504   5.343   5.644   6.705
 2700WAT      O11505   5.399   5.597   5.223
 2700WAT     H111506   5.386   5.552   5.297
 2700WAT     H211507   5.341   5.563   5.168
 2700WAT    EPW11508   5.388   5.585   5.226
 2701WAT      O11509   5.416   5.780   5.883
 2701WAT     H111510   5.337   5.774   5.845
 2701WAT     H211511   5.423   5.705   5.927
 2701WAT    EPW11512   5.405   5.768   5.884
 2702WAT      O11513   5.459   5.754   6.230
 2702WAT     H111514   5.461   5.686   6.175
 2702WAT     H211515   5.394   5.803   6.199
 2702WAT    EPW11516   5.449   5.751   6.217
 2703WAT      O11517   6.448   5.525   6.069
 2703WAT     H111518   6.382   5.558   6.116
 2703WAT     H211519   6.467   5.588   6.013
 2703WAT    EPW11520   6.441   5.539   6.068
 2704WAT      O11521   5.869   6.631   6.169
 2704WAT     H111522   5.841   6.567   6.117
 2704WAT     H211523   5.848   6.704   6.125
 2704WAT    EPW11524   5.861   6.633   6.155
 2705WAT      O11525   6.113   5.116   6.412
 2705WAT     H111526   6.127   5.033   6.388
 2705WAT     H211527   6.150   5.121   6.491
 2705WAT    EPW11528   6.120   5.104   6.420
 2706WAT      O11529   6.267   5.322   5.421
 2706WAT     H111530   6.316   5.394   5.413
 2706WAT     H211531   6.188   5.348   5.394
 2706WAT    EPW11532   6.263   5.336   5.416
 2707WAT      O11533   5.238   5.889   6.786
 2707WAT     H111534   5.235   5.939   6.714
 2707WAT     H211535   5.272   5.814   6.756
 2707WAT    EPW11536   5.243   5.885   6.771
 2708WAT      O11537   6.399   6.110   6.612
 2708WAT     H111538   6.447   6.182   6.621
 2708WAT     H211539   6.438   6.067   6.546
 2708WAT    EPW11540   6.412   6.114   6.603
 2709WAT      O11541   5.828   6.394   6.729
 2709WAT     H111542   5.864   6.376   6.807
 2709WAT     H211543   5.785   6.321   6.709
 2709WAT    EPW11544   5.827   6.381   6.738
 2710WAT      O11545   5.926   5.469   5.993
 2710WAT     H111546   5.974   5.539   6.014
 2710WAT     H211547   5.963   5.404   6.038
 2710WAT    EPW11548   5.938   5.470   6.003
 2711WAT      O11549   6.144   5.786   5.220
 2711WAT     H111550   6.144   5.858   5.171
 2711WAT     H211551   6.081   5.799   5.278
 2711WAT    EPW11552   6.135   5.799   5.222
 2712WAT      O11553   6.642   6.173   5.619
 2712WAT     H111554   6.677   6.138   5.690
 2712WAT     H211555   6.641   6.107   5.562
 2712WAT    EPW11556   6.647   6.158   5.621
 2713WAT      O11557   6.246   6.479   6.003
 2713WAT     H111558   6.186   6.450   5.947
 2713WAT     H211559   6.301   6.525   5.952
 2713WAT    EPW11560   6.245   6.482   5.987
 2714WAT      O11561   6.247   6.165   5.943
 2714WAT     H111562   6.168   6.187   5.970
 2714WAT     H211563   6.273   6.105   6.001
 2714WAT    EPW11564   6.239   6.159   5.956
 2715WAT      O11565   5.637   6.646   5.388
 2715WAT     H111566   5.622   6.568   5.425
 2715WAT     H211567   5.706   6.631   5.336
 2715WAT    EPW11568   5.645   6.632   5.386
 2716WAT      O11569   5.604   5.020   5.187
 2716WAT     H111570   5.613   5.009   5.273
 2716WAT     H211571   5.533   5.071   5.180
 2716WAT    EPW11572   5.595   5.026   5.198
 2717WAT      O11573   5.866   6.597   5.228
 2717WAT     H111574   5.928   6.614   5.287
 2717WAT     H211575   5.869   6.666   5.175
 2717WAT    EPW11576   5.876   6.610   5.229
 2718WAT      O11577   6.573   5.964   6.428
 2718WAT     H111578   6.579   5.977   6.341
 2718WAT     H211579   6.649   5.996   6.458
 2718WAT    EPW11580   6.585   5.971   6.419
 2719WAT      O11581   6.193   6.499   6.855
 2719WAT     H111582   6.209   6.528   6.936
 2719WAT     H211583   6.219   6.565   6.805
 2719WAT    EPW11584   6.199   6.513   6.860
 2720WAT      O11585   6.677   4.994   6.726
 2720WAT     H111586   6.613   4.954   6.682
 2720WAT     H211587   6.679   4.951   6.802
 2720WAT    EPW11588   6.668   4.982   6.731
 2721WAT      O11589   5.316   5.851   5.311
 2721WAT     H111590   5.348   5.773   5.289
 2721WAT     H211591   5.381   5.888   5.356
 2721WAT    EPW11592   5.330   5.845   5.314
 2722WAT      O11593   6.147   5.945   6.388
 2722WAT     H111594   6.131   6.006   6.448
 2722WAT     H211595   6.200   5.889   6.428
 2722WAT    EPW11596   6.152   5.946   6.402
 2723WAT      O11597   5.016   5.017   5.408
 2723WAT     H111598   5.029   4.946   5.358
 2723WAT     H211599   4.979   4.985   5.480
 2723WAT    EPW11600   5.012   5.002   5.411
 2724WAT      O11601   5.985   5.785   5.453
 2724WAT     H111602   5.991   5.850   5.511
 2724WAT     H211603   5.966   5.715   5.502
 2724WAT    EPW11604   5.983   5.784   5.469
 2725WAT      O11605   6.508   6.218   6.040
 2725WAT     H111606   6.460   6.248   5.974
 2725WAT     H211607   6.472   6.140   6.058
 2725WAT    EPW11608   6.495   6.211   6.033
 2726WAT      O11609   5.435   5.237   5.105
 2726WAT     H111610   5.383   5.242   5.034
 2726WAT     H211611   5.513   5.261   5.075
 2726WAT    EPW11612   5.439   5.241   5.090
 2727WAT      O11613   5.907   5.990   5.896
 2727WAT     H111614   5.823   5.970   5.905
 2727WAT     H211615   5.940   5.973   5.976
 2727WAT    EPW11616   5.899   5.984   5.909
 2728WAT      O11617   5.582   6.663   4.985
 2728WAT     H111618   5.626   6.593   5.014
 2728WAT     H211619   5.603   6.725   5.042
 2728WAT    EPW11620   5.592   6.662   4.998
 2729WAT      O11621   5.292   5.959   6.128
 2729WAT     H111622   5.364   6.008   6.124
 2729WAT     H211623   5.265   5.956   6.045
 2729WAT    EPW11624   5.299   5.966   6.115
 2730WAT      O11625   5.615   5.476   5.802
 2730WAT     H111626   5.700   5.457   5.811
 2730WAT     H211627   5.578   5.398   5.788
 2730WAT    EPW11628   5.622   5.462   5.801
 2731WAT      O11629   6.877   6.634   5.234
 2731WAT     H111630   6.946   6.588   5.209
 2731WAT     H211631   6.823   6.575   5.268
 2731WAT    EPW11632   6.879   6.619   5.236
 2732WAT      O11633   5.097   5.610   5.467
 2732WAT     H111634   5.146   5.581   5.533
 2732WAT     H211635   5.110   5.551   5.404
 2732WAT    EPW11636   5.106   5.597   5.468
 2733WAT      O11637   6.601   5.912   6.152
 2733WAT     H111638   6.600   5.834   6.192
 2733WAT     H211639   6.517   5.935   6.151
 2733WAT    EPW11640   6.588   5.904   6.158
 2734WAT      O11641   5.550   5.753   5.016
 2734WAT     H111642   5.489   5.713   5.063
 2734WAT     H211643   5.511   5.765   4.938
 2734WAT    EPW11644   5.535   5.749   5.011
 2735WAT      O11645   5.232   6.064   6.556
 2735WAT     H111646   5.189   6.012   6.500
 2735WAT     H211647   5.196   6.143   6.542
 2735WAT    EPW11648   5.220   6.068   6.545
 2736WAT      O11649   6.726   5.919   5.896
 2736WAT     H111650   6.698   5.959   5.968
 2736WAT     H211651   6.812   5.913   5.909
 2736WAT    EPW11652   6.735   5.924   5.908
 2737WAT      O11653   5.695   5.599   5.287
 2737WAT     H111654   5.722   5.682   5.293
 2737WAT     H211655   5.609   5.607   5.277
 2737WAT    EPW11656   5.686   5.613   5.286
 2738WAT      O11657   6.492   5.312   6.750
 2738WAT     H111658   6.440   5.357   6.802
 2738WAT     H211659   6.456   5.232   6.749
 2738WAT    EPW11660   6.479   5.307   6.757
 2739WAT      O11661   5.043   5.196   5.940
 2739WAT     H111662   5.048   5.231   5.860
 2739WAT     H211663   5.119   5.220   5.977
 2739WAT    EPW11664   5.055   5.205   5.934
 2740WAT      O11665   6.839   6.482   5.949
 2740WAT     H111666   6.868   6.508   5.871
 2740WAT     H211667   6.909   6.492   6.001
 2740WAT    EPW11668   6.854   6.488   5.945
 2741WAT      O11669   6.342   5.668   6.757
 2741WAT     H111670   6.349   5.679   6.844
 2741WAT     H211671   6.278   5.724   6.735
 2741WAT    EPW11672   6.333   5.678   6.767
 2742WAT      O11673   6.568   5.700   6.594
 2742WAT     H111674   6.600   5.779   6.614
 2742WAT     H211675   6.531   5.673   6.668
 2742WAT    EPW11676   6.568   5.708   6.608
 2743WAT      O11677   6.500   6.343   5.147
 2743WAT     H111678   6.533   6.262   5.150
 2743WAT     H211679   6.424   6.336   5.190
 2743WAT    EPW11680   6.494   6.330   5.154
 2744WAT      O11681   6.548   5.526   5.713
 2744WAT     H111682   6.474   5.494   5.745
 2744WAT     H211683   6.548   5.609   5.741
 2744WAT    EPW11684   6.537   5.534   5.722
 2745WAT      O11685   6.838   5.755   6.867
 2745WAT     H111686   6.833   5.720   6.787
 2745WAT     H211687   6.912   5.801   6.865
 2745WAT    EPW11688   6.848   5.756   6.855
 2746WAT      O11689   6.792   6.122   6.488
 2746WAT     H111690   6.855   6.067   6.462
 2746WAT     H211691   6.786   6.179   6.422
 2746WAT    EPW11692   6.800   6.122   6.474
 2747WAT      O11693   6.237   6.130   5.087
 2747WAT     H111694   6.306   6.079   5.070
 2747WAT     H211695   6.196   6.135   5.011
 2747WAT    EPW11696   6.241   6.123   5.073
 2748WAT      O11697   5.705   6.245   6.218
 2748WAT     H111698   5.676   6.304   6.274
 2748WAT     H211699   5.711   6.289   6.143
 2748WAT    EPW11700   5.702   6.261   6.215
 2749WAT      O11701   5.503   6.140   6.557
 2749WAT     H111702   5.423   6.111   6.574
 2749WAT     H211703   5.494   6.227   6.558
 2749WAT    EPW11704   5.490   6.149   6.560
 2750WAT      O11705   6.439   5.159   6.459
 2750WAT     H111706   6.514   5.204   6.453
 2750WAT     H211707   6.383   5.206   6.412
 2750WAT    EPW11708   6.442   5.173   6.451
 2751WAT      O11709   5.957   5.888   6.167
 2751WAT     H111710   6.005   5.925   6.230
 2751WAT     H211711   5.875   5.901   6.193
 2751WAT    EPW11712   5.952   5.895   6.180
 2752WAT      O11713   5.628   5.448   6.441
 2752WAT     H111714   5.644   5.373   6.484
 2752WAT     H211715   5.624   5.423   6.357
 2752WAT    EPW11716   5.630   5.433   6.435
 2753WAT      O11717   5.883   6.627   5.690
 2753WAT     H111718   5.938   6.695   5.695
 2753WAT     H211719   5.848   6.635   5.610
 2753WAT    EPW11720   5.886   6.638   5.679
 2754WAT      O11721   6.568   4.957   6.226
 2754WAT     H111722   6.540   5.040   6.222
 2754WAT     H211723   6.639   4.962   6.276
 2754WAT    EPW11724   6.574   4.970   6.233
 2755WAT      O11725   5.803   5.029   6.429
 2755WAT     H111726   5.874   5.061   6.389
 2755WAT     H211727   5.827   4.948   6.452
 2755WAT    EPW11728   5.817   5.021   6.426
 2756WAT      O11729   5.702   6.450   6.028
 2756WAT     H111730   5.639   6.508   6.010
 2756WAT     H211731   5.727   6.421   5.950
 2756WAT    EPW11732   5.696   6.454   6.014
 2757WAT      O11733   6.133   6.113   6.727
 2757WAT     H111734   6.208   6.142   6.695
 2757WAT     H211735   6.078   6.118   6.660
 2757WAT    EPW11736   6.136   6.118   6.712
 2758WAT      O11737   6.524   6.368   6.578
 2758WAT     H111738   6.558   6.395   6.653
 2758WAT     H211739   6.553   6.426   6.520
 2758WAT    EPW11740   6.533   6.381   6.580
 2759WAT      O11741   6.710   5.583   5.112
 2759WAT     H111742   6.748   5.650   5.072
 2759WAT     H211743   6.626   5.605   5.115
 2759WAT    EPW11744   6.703   5.596   5.106
 2760WAT      O11745   5.861   5.927   5.020
 2760WAT     H111746   5.781   5.910   4.991
 2760WAT     H211747   5.858   6.012   5.039
 2760WAT    EPW11748   5.849   5.937   5.019
 2761WAT      O11749   5.454   5.534   6.035
 2761WAT     H111750   5.498   5.524   5.960
 2761WAT     H211751   5.509   5.503   6.095
 2761WAT    EPW11752   5.469   5.528   6.033
 2762WAT      O11753   6.256   5.444   6.594
 2762WAT     H111754   6.191   5.491   6.629
 2762WAT     H211755   6.312   5.435   6.660
 2762WAT    EPW11756   6.255   5.450   6.609
 2763WAT      O11757   6.225   5.598   6.224
 2763WAT     H111758   6.255   5.640   6.294
 2763WAT     H211759   6.228   5.514   6.247
 2763WAT    EPW11760   6.230   5.592   6.238
 2764WAT      O11761   5.967   6.615   6.616
 2764WAT     H111762   6.015   6.555   6.575
 2764WAT     H211763   5.932   6.570   6.683
 2764WAT    EPW11764   5.969   6.599   6.620
 2765WAT      O11765   6.479   5.543   5.449
 2765WAT     H111766   6.500   5.522   5.532
 2765WAT     H211767   6.555   5.569   5.415
 2765WAT    EPW11768   6.494   5.544   5.456
 2766WAT      O11769   5.809   5.032   6.040
 2766WAT     H111770   5.726   5.018   6.063
 2766WAT     H211771   5.805   5.036   5.953
 2766WAT    EPW11772   5.796   5.031   6.030
 2767WAT      O11773   6.582   5.151   5.597
 2767WAT     H111774   6.510   5.104   5.614
 2767WAT     H211775   6.565   5.185   5.518
 2767WAT    EPW11776   6.569   5.149   5.587
 2768WAT      O11777   6.626   5.945   5.435
 2768WAT     H111778   6.673   5.872   5.430
 2768WAT     H211779   6.544   5.917   5.427
 2768WAT    EPW11780   6.621   5.930   5.433
 2769WAT      O11781   5.973   6.136   6.518
 2769WAT     H111782   5.893   6.130   6.554
 2769WAT     H211783   5.980   6.221   6.499
 2769WAT    EPW11784   5.962   6.148   6.521
 2770WAT      O11785   5.065   5.072   6.643
 2770WAT     H111786   5.051   5.152   6.610
 2770WAT     H211787   4.987   5.048   6.672
 2770WAT    EPW11788   5.052   5.080   6.643
 2771WAT      O11789   5.556   6.757   6.050
 2771WAT     H111790   5.557   6.763   6.137
 2771WAT     H211791   5.513   6.682   6.035
 2771WAT    EPW11792   5.550   6.747   6.061
 2772WAT      O11793   5.372   5.347   5.366
 2772WAT     H111794   5.384   5.314   5.286
 2772WAT     H211795   5.291   5.322   5.386
 2772WAT    EPW11796   5.362   5.338   5.357
 2773WAT      O11797   6.247   6.062   5.670
 2773WAT     H111798   6.255   6.096   5.750
 2773WAT     H211799   6.264   5.977   5.682
 2773WAT    EPW11800   6.251   6.054   5.684
 2774WAT      O11801   6.000   5.989   5.627
 2774WAT     H111802   5.970   5.958   5.702
 2774WAT     H211803   6.069   6.037   5.650
 2774WAT    EPW11804   6.006   5.992   5.641
 2775WAT      O11805   6.022   6.401   6.429
 2775WAT     H111806   6.091   6.390   6.482
 2775WAT     H211807   6.035   6.480   6.395
 2775WAT    EPW11808   6.034   6.411   6.432
 2776WAT      O11809   6.839   5.662   6.610
 2776WAT     H111810   6.754   5.650   6.623
 2776WAT     H211811   6.855   5.623   6.534
 2776WAT    EPW11812   6.829   5.654   6.601
 2777WAT      O11813   6.291   5.729   6.468
 2777WAT     H111814   6.265   5.657   6.510
 2777WAT     H211815   6.373   5.740   6.495
 2777WAT    EPW11816   6.299   5.720   6.478
 2778WAT      O11817   5.232   6.707   6.594
 2778WAT     H111818   5.167   6.650   6.604
 2778WAT     H211819   5.195   6.784   6.609
 2778WAT    EPW11820   5.217   6.710   6.598
 2779WAT      O11821   6.084   5.848   6.787
 2779WAT     H111822   6.116   5.916   6.743
 2779WAT     H211823   6.014   5.880   6.827
 2779WAT    EPW11824   6.078   5.862   6.786
 2780WAT      O11825   6.393   6.685   5.880
 2780WAT     H111826   6.347   6.749   5.917
 2780WAT     H211827   6.463   6.677   5.930
 2780WAT    EPW11828   6.396   6.693   5.893
 2781WAT      O11829   6.063   6.194   6.173
 2781WAT     H111830   5.993   6.234   6.207
 2781WAT     H211831   6.130   6.237   6.206
 2781WAT    EPW11832   6.062   6.206   6.183
 2782WAT      O11833   6.600   6.453   6.831
 2782WAT     H111834   6.678   6.414   6.839
 2782WAT     H211835   6.553   6.420   6.896
 2782WAT    EPW11836   6.605   6.443   6.841
 2783WAT      O11837   5.369   5.548   6.407
 2783WAT     H111838   5.407   5.610   6.359
 2783WAT     H211839   5.437   5.500   6.436
 2783WAT    EPW11840   5.385   5.550   6.404
 2784WAT      O11841   5.147   5.393   6.335
 2784WAT     H111842   5.155   5.376   6.249
 2784WAT     H211843   5.222   5.433   6.354
 2784WAT    EPW11844   5.159   5.396   6.325
 2785WAT      O11845   6.703   5.657   5.379
 2785WAT     H111846   6.713   5.651   5.292
 2785WAT     H211847   6.777   5.623   5.411
 2785WAT    EPW11848   6.715   5.651   5.371
 2786WAT      O11849   5.402   5.134   6.576
 2786WAT     H111850   5.394   5.049   6.596
 2786WAT     H211851   5.371   5.138   6.495
 2786WAT    EPW11852   5.397   5.122   6.567
 2787WAT      O11853   6.095   6.353   5.489
 2787WAT     H111854   6.074   6.436   5.474
 2787WAT     H211855   6.017   6.315   5.502
 2787WAT    EPW11856   6.080   6.360   5.489
 2788WAT      O11857   6.613   5.671   6.314
 2788WAT     H111858   6.613   5.585   6.327
 2788WAT     H211859   6.620   5.704   6.395
 2788WAT    EPW11860   6.614   5.663   6.328
 2789WAT      O11861   5.087   5.915   6.357
 2789WAT     H111862   5.119   5.937   6.279
 2789WAT     H211863   5.077   5.829   6.352
 2789WAT    EPW11864   5.090   5.906   6.345
 2790WAT      O11865   5.232   5.509   5.019
 2790WAT     H111866   5.165   5.510   5.075
 2790WAT     H211867   5.242   5.424   5.001
 2790WAT    EPW11868   5.224   5.496   5.024
 2791WAT      O11869   6.201   5.151   6.693
 2791WAT     H111870   6.210   5.222   6.742
 2791WAT     H211871   6.137   5.107   6.732
 2791WAT    EPW11872   6.193   5.155   6.706
 2792WAT      O11873   6.100   5.170   5.778
 2792WAT     H111874   6.030   5.222   5.772
 2792WAT     H211875   6.104   5.132   5.700
 2792WAT    EPW11876   6.091   5.172   5.766
 2793WAT      O11877   5.631   6.379   5.130
 2793WAT     H111878   5.675   6.387   5.205
 2793WAT     H211879   5.551   6.358   5.156
 2793WAT    EPW11880   5.626   6.377   5.145
 2794WAT      O11881   6.460   5.222   6.058
 2794WAT     H111882   6.546   5.232   6.072
 2794WAT     H211883   6.423   5.277   6.114
 2794WAT    EPW11884   6.467   5.231   6.068
 2795WAT      O11885   5.563   5.844   6.496
 2795WAT     H111886   5.523   5.922   6.503
 2795WAT     H211887   5.522   5.807   6.428
 2795WAT    EPW11888   5.551   5.850   6.487
 2796WAT      O11889   6.491   5.750   5.907
 2796WAT     H111890   6.557   5.804   5.923
 2796WAT     H211891   6.456   5.781   5.833
 2796WAT    EPW11892   6.495   5.762   5.899
 2797WAT      O11893   6.522   6.556   5.488
 2797WAT     H111894   6.504   6.491   5.543
 2797WAT     H211895   6.593   6.529   5.445
 2797WAT    EPW11896   6.530   6.543   5.490
 2798WAT      O11897   5.364   6.286   5.190
 2798WAT     H111898   5.340   6.256   5.268
 2798WAT     H211899   5.361   6.216   5.139
 2798WAT    EPW11900   5.360   6.271   5.194
 2799WAT      O11901   5.646   6.111   5.065
 2799WAT     H111902   5.564   6.084   5.079
 2799WAT     H211903   5.643   6.196   5.083
 2799WAT    EPW11904   5.633   6.119   5.070
 2800WAT      O11905   5.606   5.142   6.241
 2800WAT     H111906   5.519   5.150   6.249
 2800WAT     H211907   5.628   5.091   6.308
 2800WAT    EPW11908   5.596   5.136   6.252
 2801WAT      O11909   6.808   5.006   6.374
 2801WAT     H111910   6.802   5.001   6.461
 2801WAT     H211911   6.876   4.955   6.355
 2801WAT    EPW11912   6.817   4.998   6.384
 2802WAT      O11913   6.016   5.217   6.078
 2802WAT     H111914   5.942   5.171   6.089
 2802WAT     H211915   6.073   5.177   6.130
 2802WAT    EPW11916   6.014   5.204   6.087
 2803WAT      O11917   6.289   6.302   6.257
 2803WAT     H111918   6.310   6.332   6.336
 2803WAT     H211919   6.283   6.374   6.208
 2803WAT    EPW11920   6.291   6.317   6.261
 2804WAT      O11921   6.243   6.723   6.681
 2804WAT     H111922   6.167   6.721   6.637
 2804WAT     H211923   6.260   6.808   6.690
 2804WAT    EPW11924   6.234   6.735   6.676
 2805WAT      O11925   5.766   5.650   6.598
 2805WAT     H111926   5.734   5.592   6.541
 2805WAT     H211927   5.731   5.725   6.574
 2805WAT    EPW11928   5.756   5.652   6.586
 2806WAT      O11929   5.846   4.975   5.061
 2806WAT     H111930   5.854   5.000   4.978
 2806WAT     H211931   5.772   5.013   5.087
 2806WAT    EPW11932   5.836   4.984   5.053
 2807WAT      O11933   6.771   6.166   6.203
 2807WAT     H111934   6.767   6.079   6.189
 2807WAT     H211935   6.701   6.196   6.159
 2807WAT    EPW11936   6.760   6.157   6.194
 2808WAT      O11937   5.610   6.685   6.623
 2808WAT     H111938   5.614   6.698   6.710
 2808WAT     H211939   5.675   6.629   6.608
 2808WAT    EPW11940   5.620   6.679   6.634
 2809WAT      O11941   6.581   6.492   6.082
 2809WAT     H111942   6.634   6.483   6.013
 2809WAT     H211943   6.542   6.414   6.088
 2809WAT    EPW11944   6.583   6.479   6.073
 2810WAT      O11945   5.328   5.150   6.305
 2810WAT     H111946   5.294   5.074   6.282
 2810WAT     H211947   5.258   5.203   6.312
 2810WAT    EPW11948   5.313   5.147   6.303
 2811WAT      O11949   6.232   5.036   6.003
 2811WAT     H111950   6.299   5.090   6.016
 2811WAT     H211951   6.182   5.078   5.946
 2811WAT    EPW11952   6.235   5.050   5.997
 2812WAT      O11953   5.369   6.524   6.759
 2812WAT     H111954   5.429   6.567   6.806
 2812WAT     H211955   5.333   6.586   6.710
 2812WAT    EPW11956   5.373   6.539   6.759
 2813WAT      O11957   6.168   5.617   5.752
 2813WAT     H111958   6.223   5.556   5.782
 2813WAT     H211959   6.126   5.643   5.824
 2813WAT    EPW11960   6.170   5.612   5.767
 2814WAT      O11961   5.193   5.482   5.701
 2814WAT     H111962   5.156   5.512   5.774
 2814WAT     H211963   5.247   5.419   5.729
 2814WAT    EPW11964   5.196   5.477   5.716
 2815WAT      O11965   5.162   6.323   6.452
 2815WAT     H111966   5.105   6.364   6.503
 2815WAT     H211967   5.235   6.369   6.462
 2815WAT    EPW11968   5.164   6.336   6.461
 2816WAT      O11969   6.365   5.800   5.409
 2816WAT     H111970   6.372   5.715   5.427
 2816WAT     H211971   6.283   5.808   5.381
 2816WAT    EPW11972   6.354   5.789   5.407
 2817WAT      O11973   5.341   6.649   5.330
 2817WAT     H111974   5.326   6.665   5.245
 2817WAT     H211975   5.427   6.657   5.337
 2817WAT    EPW11976   5.351   6.653   5.318
 2818WAT      O11977   5.757   5.889   5.302
 2818WAT     H111978   5.767   5.903   5.217
 2818WAT     H211979   5.839   5.883   5.332
 2818WAT    EPW11980   5.771   5.890   5.294
 2819WAT      O11981   6.673   6.695   5.050
 2819WAT     H111982   6.737   6.682   5.109
 2819WAT     H211983   6.639   6.616   5.039
 2819WAT    EPW11984   6.678   6.682   5.057
 2820WAT      O11985   6.693   5.937   6.724
 2820WAT     H111986   6.756   5.920   6.781
 2820WAT     H211987   6.734   5.977   6.659
 2820WAT    EPW11988   6.708   5.941   6.723
 2821WAT      O11989   6.281   6.322   5.283
 2821WAT     H111990   6.256   6.309   5.365
 2821WAT     H211991   6.249   6.252   5.241
 2821WAT    EPW11992   6.272   6.310   5.289
 2822WAT      O11993   6.755   5.394   6.798
 2822WAT     H111994   6.736   5.458   6.853
 2822WAT     H211995   6.683   5.345   6.797
 2822WAT    EPW11996   6.742   5.396   6.806
 2823WAT      O11997   6.745   5.488   6.095
 2823WAT     H111998   6.662   5.513   6.087
 2823WAT     H211999   6.740   5.404   6.118
 2823WAT    EPW12000   6.732   5.479   6.097
 2824WAT      O12001   5.671   5.186   6.614
 2824WAT     H112002   5.695   5.129   6.553
 2824WAT     H212003   5.587   5.168   6.628
 2824WAT    EPW12004   5.662   5.175   6.607
 2825WAT      O12005   6.434   5.948   6.859
 2825WAT     H112006   6.521   5.945   6.856
 2825WAT     H212007   6.412   5.990   6.786
 2825WAT    EPW12008   6.444   5.954   6.848
 2826WAT      O12009   5.409   6.531   5.977
 2826WAT     H112010   5.401   6.450   5.946
 2826WAT     H212011   5.365   6.579   5.920
 2826WAT    EPW12012   5.402   6.526   5.964
 2827WAT      O12013   5.969   6.143   5.226
 2827WAT     H112014   6.041   6.108   5.190
 2827WAT     H212015   5.966   6.223   5.191
 2827WAT    EPW12016   5.979   6.149   5.215
 2828WAT      O12017   5.166   6.755   6.335
 2828WAT     H112018   5.216   6.750   6.407
 2828WAT     H212019   5.185   6.682   6.292
 2828WAT    EPW12020   5.177   6.743   6.340
 2829WAT      O12021   6.110   5.007   3.650
 2829WAT     H112022   6.086   5.056   3.582
 2829WAT     H212023   6.197   4.999   3.640
 2829WAT    EPW12024   6.119   5.013   3.638
 2830WAT      O12025   6.091   5.698   4.117
 2830WAT     H112026   6.039   5.758   4.153
 2830WAT     H212027   6.131   5.662   4.185
 2830WAT    EPW12028   6.089   5.702   4.132
 2831WAT      O12029   5.078   6.112   3.662
 2831WAT     H112030   5.034   6.124   3.737
 2831WAT     H212031   5.050   6.035   3.634
 2831WAT    EPW12032   5.067   6.103   3.669
 2832WAT      O12033   6.706   6.442   3.414
 2832WAT     H112034   6.776   6.391   3.413
 2832WAT     H212035   6.647   6.398   3.367
 2832WAT    EPW12036   6.707   6.428   3.407
 2833WAT      O12037   5.052   5.492   3.313
 2833WAT     H112038   4.975   5.508   3.277
 2833WAT     H212039   5.056   5.404   3.315
 2833WAT    EPW12040   5.041   5.481   3.308
 2834WAT      O12041   5.366   6.018   3.180
 2834WAT     H112042   5.327   5.981   3.112
 2834WAT     H212043   5.358   5.958   3.243
 2834WAT    EPW12044   5.359   6.004   3.179
 2835WAT      O12045   6.358   5.805   3.784
 2835WAT     H112046   6.366   5.805   3.697
 2835WAT     H212047   6.300   5.742   3.799
 2835WAT    EPW12048   6.351   5.796   3.774
 2836WAT      O12049   5.329   6.182   3.570
 2836WAT     H112050   5.390   6.165   3.630
 2836WAT     H212051   5.254   6.168   3.612
 2836WAT    EPW12052   5.327   6.177   3.585
 2837WAT      O12053   5.757   5.115   3.565
 2837WAT     H112054   5.750   5.183   3.510
 2837WAT     H212055   5.831   5.077   3.540
 2837WAT    EPW12056   5.767   5.120   3.553
 2838WAT      O12057   5.218   6.491   3.178
 2838WAT     H112058   5.265   6.499   3.105
 2838WAT     H212059   5.264   6.433   3.225
 2838WAT    EPW12060   5.232   6.484   3.174
 2839WAT      O12061   5.072   6.386   4.288
 2839WAT     H112062   5.085   6.358   4.369
 2839WAT     H212063   5.011   6.332   4.257
 2839WAT    EPW12064   5.065   6.374   4.295
 2840WAT      O12065   5.729   6.138   4.794
 2840WAT     H112066   5.706   6.138   4.878
 2840WAT     H212067   5.655   6.124   4.752
 2840WAT    EPW12068   5.715   6.136   4.801
 2841WAT      O12069   5.217   5.838   3.708
 2841WAT     H112070   5.170   5.799   3.645
 2841WAT     H212071   5.287   5.787   3.717
 2841WAT    EPW12072   5.220   5.825   3.700
 2842WAT      O12073   5.667   5.399   4.243
 2842WAT     H112074   5.735   5.401   4.188
 2842WAT     H212075   5.663   5.315   4.267
 2842WAT    EPW12076   5.677   5.387   4.238
 2843WAT      O12077   5.728   6.458   4.521
 2843WAT     H112078   5.741   6.534   4.480
 2843WAT     H212079   5.807   6.421   4.523
 2843WAT    EPW12080   5.741   6.463   4.515
 2844WAT      O12081   5.417   5.648   3.710
 2844WAT     H112082   5.498   5.629   3.735
 2844WAT     H212083   5.369   5.587   3.750
 2844WAT    EPW12084   5.422   5.636   3.720
 2845WAT      O12085   5.837   6.246   3.971
 2845WAT     H112086   5.872   6.166   3.974
 2845WAT     H212087   5.904   6.296   3.946
 2845WAT    EPW12088   5.852   6.242   3.968
 2846WAT      O12089   5.843   6.191   3.592
 2846WAT     H112090   5.876   6.127   3.641
 2846WAT     H212091   5.867   6.170   3.511
 2846WAT    EPW12092   5.851   6.178   3.588
 2847WAT      O12093   6.040   5.604   4.726
 2847WAT     H112094   5.955   5.594   4.708
 2847WAT     H212095   6.043   5.679   4.772
 2847WAT    EPW12096   6.028   5.614   4.730
 2848WAT      O12097   5.476   5.157   3.637
 2848WAT     H112098   5.447   5.207   3.572
 2848WAT     H212099   5.563   5.165   3.631
 2848WAT    EPW12100   5.485   5.166   3.626
 2849WAT      O12101   6.495   4.900   4.638
 2849WAT     H112102   6.480   4.977   4.599
 2849WAT     H212103   6.418   4.878   4.672
 2849WAT    EPW12104   6.482   4.908   4.637
 2850WAT      O12105   5.774   5.072   3.859
 2850WAT     H112106   5.782   5.158   3.872
 2850WAT     H212107   5.771   5.064   3.772
 2850WAT    EPW12108   5.775   5.083   3.848
 2851WAT      O12109   6.242   5.364   3.089
 2851WAT     H112110   6.197   5.432   3.120
 2851WAT     H212111   6.253   5.314   3.159
 2851WAT    EPW12112   6.237   5.367   3.104
 2852WAT      O12113   5.062   5.614   4.009
 2852WAT     H112114   5.037   5.697   4.002
 2852WAT     H212115   4.996   5.576   4.051
 2852WAT    EPW12116   5.049   5.621   4.014
 2853WAT      O12117   5.053   6.585   3.799
 2853WAT     H112118   4.994   6.641   3.768
 2853WAT     H212119   5.096   6.558   3.728
 2853WAT    EPW12120   5.051   6.589   3.784
 2854WAT      O12121   5.637   6.369   3.547
 2854WAT     H112122   5.579   6.342   3.606
 2854WAT     H212123   5.700   6.309   3.550
 2854WAT    EPW12124   5.638   6.356   3.556
 2855WAT      O12125   6.252   6.598   3.299
 2855WAT     H112126   6.324   6.645   3.310
 2855WAT     H212127   6.274   6.519   3.327
 2855WAT    EPW12128   6.266   6.594   3.305
 2856WAT      O12129   6.068   6.637   3.498
 2856WAT     H112130   6.090   6.690   3.565
 2856WAT     H212131   6.145   6.620   3.461
 2856WAT    EPW12132   6.083   6.643   3.503
 2857WAT      O12133   5.696   5.309   4.988
 2857WAT     H112134   5.707   5.264   4.915
 2857WAT     H212135   5.725   5.389   4.968
 2857WAT    EPW12136   5.702   5.314   4.974
 2858WAT      O12137   5.208   6.452   3.592
 2858WAT     H112138   5.273   6.395   3.594
 2858WAT     H212139   5.247   6.527   3.570
 2858WAT    EPW12140   5.223   6.455   3.589
 2859WAT      O12141   6.781   5.361   3.719
 2859WAT     H112142   6.746   5.429   3.761
 2859WAT     H212143   6.717   5.302   3.720
 2859WAT    EPW12144   6.767   5.363   3.725
 2860WAT      O12145   6.312   6.638   4.329
 2860WAT     H112146   6.387   6.684   4.328
 2860WAT     H212147   6.300   6.617   4.245
 2860WAT    EPW12148   6.321   6.642   4.316
 2861WAT      O12149   5.269   5.269   4.887
 2861WAT     H112150   5.191   5.230   4.879
 2861WAT     H212151   5.318   5.228   4.827
 2861WAT    EPW12152   5.265   5.257   4.877
 2862WAT      O12153   5.290   6.301   3.942
 2862WAT     H112154   5.332   6.265   3.875
 2862WAT     H212155   5.322   6.259   4.012
 2862WAT    EPW12156   5.301   6.289   3.943
 2863WAT      O12157   5.613   6.586   3.872
 2863WAT     H112158   5.697   6.596   3.852
 2863WAT     H212159   5.583   6.668   3.879
 2863WAT    EPW12160   5.621   6.600   3.870
 2864WAT      O12161   5.934   5.033   4.803
 2864WAT     H112162   5.952   4.952   4.776
 2864WAT     H212163   5.920   5.077   4.729
 2864WAT    EPW12164   5.934   5.028   4.788
 2865WAT      O12165   5.993   5.526   3.681
 2865WAT     H112166   6.022   5.502   3.602
 2865WAT     H212167   6.067   5.534   3.728
 2865WAT    EPW12168   6.008   5.523   3.676
 2866WAT      O12169   6.066   5.560   3.193
 2866WAT     H112170   6.094   5.638   3.218
 2866WAT     H212171   5.988   5.576   3.156
 2866WAT    EPW12172   6.058   5.574   3.191
 2867WAT      O12173   6.470   6.757   3.339
 2867WAT     H112174   6.536   6.742   3.285
 2867WAT     H212175   6.506   6.749   3.418
 2867WAT    EPW12176   6.485   6.754   3.343
 2868WAT      O12177   5.512   6.708   4.446
 2868WAT     H112178   5.542   6.701   4.528
 2868WAT     H212179   5.450   6.647   4.441
 2868WAT    EPW12180   5.508   6.698   4.457
 2869WAT      O12181   6.749   5.194   4.255
 2869WAT     H112182   6.824   5.201   4.213
 2869WAT     H212183   6.755   5.116   4.295
 2869WAT    EPW12184   6.761   5.183   4.255
 2870WAT      O12185   5.004   5.324   4.645
 2870WAT     H112186   5.003   5.382   4.710
 2870WAT     H212187   5.063   5.355   4.589
 2870WAT    EPW12188   5.013   5.337   4.646
 2871WAT      O12189   6.238   6.357   4.699
 2871WAT     H112190   6.234   6.395   4.778
 2871WAT     H212191   6.323   6.353   4.682
 2871WAT    EPW12192   6.250   6.362   4.708
 2872WAT      O12193   5.951   6.377   3.174
 2872WAT     H112194   5.933   6.431   3.240
 2872WAT     H212195   6.028   6.406   3.144
 2872WAT    EPW12196   5.960   6.389   3.180
 2873WAT      O12197   6.302   5.166   3.280
 2873WAT     H112198   6.356   5.098   3.287
 2873WAT     H212199   6.308   5.206   3.357
 2873WAT    EPW12200   6.311   5.162   3.292
 2874WAT      O12201   5.098   5.283   3.537
 2874WAT     H112202   5.086   5.197   3.540
 2874WAT     H212203   5.050   5.312   3.604
 2874WAT    EPW12204   5.089   5.275   3.547
 2875WAT      O12205   5.312   6.524   4.358
 2875WAT     H112206   5.242   6.473   4.371
 2875WAT     H212207   5.338   6.504   4.277
 2875WAT    EPW12208   5.305   6.514   4.348
 2876WAT      O12209   6.028   5.404   3.411
 2876WAT     H112210   5.977   5.338   3.386
 2876WAT     H212211   6.033   5.454   3.340
 2876WAT    EPW12212   6.021   5.402   3.397
 2877WAT      O12213   6.083   6.673   4.449
 2877WAT     H112214   6.160   6.665   4.409
 2877WAT     H212215   6.025   6.661   4.385
 2877WAT    EPW12216   6.086   6.670   4.434
 2878WAT      O12217   6.028   5.098   3.400
 2878WAT     H112218   5.982   5.058   3.338
 2878WAT     H212219   6.105   5.113   3.363
 2878WAT    EPW12220   6.033   5.094   3.385
 2879WAT      O12221   6.711   6.734   3.739
 2879WAT     H112222   6.665   6.805   3.759
 2879WAT     H212223   6.649   6.677   3.715
 2879WAT    EPW12224   6.695   6.736   3.739
 2880WAT      O12225   5.888   5.335   3.852
 2880WAT     H112226   5.895   5.391   3.787
 2880WAT     H212227   5.900   5.384   3.923
 2880WAT    EPW12228   5.891   5.350   3.853
 2881WAT      O12229   6.410   6.318   3.694
 2881WAT     H112230   6.480   6.270   3.713
 2881WAT     H212231   6.344   6.261   3.698
 2881WAT    EPW12232   6.411   6.303   3.697
 2882WAT      O12233   5.448   6.409   4.615
 2882WAT     H112234   5.532   6.415   4.593
 2882WAT     H212235   5.444   6.449   4.692
 2882WAT    EPW12236   5.460   6.416   4.623
 2883WAT      O12237   5.349   4.917   3.687
 2883WAT     H112238   5.402   4.986   3.686
 2883WAT     H212239   5.349   4.890   3.604
 2883WAT    EPW12240   5.356   4.923   3.675
 2884WAT      O12241   5.644   5.960   4.090
 2884WAT     H112242   5.661   5.939   4.173
 2884WAT     H212243   5.579   5.907   4.068
 2884WAT    EPW12244   5.637   5.949   4.099
 2885WAT      O12245   6.267   5.352   4.441
 2885WAT     H112246   6.257   5.384   4.522
 2885WAT     H212247   6.208   5.288   4.437
 2885WAT    EPW12248   6.257   5.347   4.453
 2886WAT      O12249   5.719   5.954   4.349
 2886WAT     H112250   5.724   6.039   4.369
 2886WAT     H212251   5.691   5.917   4.422
 2886WAT    EPW12252   5.716   5.961   4.363
 2887WAT      O12253   6.337   6.024   4.262
 2887WAT     H112254   6.285   5.982   4.319
 2887WAT     H212255   6.324   6.108   4.280
 2887WAT    EPW12256   6.327   6.030   4.273
 2888WAT      O12257   6.393   4.946   3.725
 2888WAT     H112258   6.397   4.914   3.806
 2888WAT     H212259   6.425   4.882   3.676
 2888WAT    EPW12260   6.398   4.932   3.730
 2889WAT      O12261   5.001   6.391   4.970
 2889WAT     H112262   5.077   6.426   4.996
 2889WAT     H212263   5.019   6.306   4.964
 2889WAT    EPW12264   5.015   6.384   4.973
 2890WAT      O12265   6.639   5.370   4.556
 2890WAT     H112266   6.716   5.347   4.589
 2890WAT     H212267   6.591   5.391   4.626
 2890WAT    EPW12268   6.643   5.370   4.571
 2891WAT      O12269   5.393   5.298   3.853
 2891WAT     H112270   5.421   5.255   3.782
 2891WAT     H212271   5.376   5.234   3.910
 2891WAT    EPW12272   5.395   5.282   3.851
 2892WAT      O12273   6.662   6.067   3.274
 2892WAT     H112274   6.674   6.039   3.356
 2892WAT     H212275   6.743   6.070   3.241
 2892WAT    EPW12276   6.676   6.064   3.282
 2893WAT      O12277   5.376   6.041   3.808
 2893WAT     H112278   5.461   6.033   3.790
 2893WAT     H212279   5.340   5.972   3.766
 2893WAT    EPW12280   5.383   6.029   3.799
 2894WAT      O12281   5.252   6.713   3.931
 2894WAT     H112282   5.185   6.663   3.907
 2894WAT     H212283   5.293   6.732   3.856
 2894WAT    EPW12284   5.248   6.709   3.917
 2895WAT      O12285   5.207   5.408   4.161
 2895WAT     H112286   5.292   5.430   4.157
 2895WAT     H212287   5.169   5.465   4.108
 2895WAT    EPW12288   5.214   5.420   4.152
 2896WAT      O12289   6.886   6.518   4.700
 2896WAT     H112290   6.817   6.549   4.655
 2896WAT     H212291   6.849   6.473   4.764
 2896WAT    EPW12292   6.870   6.516   4.703
 2897WAT      O12293   6.452   5.721   3.233
 2897WAT     H112294   6.430   5.794   3.191
 2897WAT     H212295   6.407   5.726   3.308
 2897WAT    EPW12296   6.442   5.733   3.238
 2898WAT      O12297   5.613   6.041   3.631
 2898WAT     H112298   5.684   6.091   3.640
 2898WAT     H212299   5.635   5.985   3.568
 2898WAT    EPW12300   5.626   6.040   3.623
 2899WAT      O12301   6.870   5.207   3.178
 2899WAT     H112302   6.804   5.150   3.181
 2899WAT     H212303   6.851   5.258   3.110
 2899WAT    EPW12304   6.858   5.206   3.169
 2900WAT      O12305   5.028   6.206   3.963
 2900WAT     H112306   4.961   6.254   3.991
 2900WAT     H212307   5.096   6.260   3.966
 2900WAT    EPW12308   5.028   6.221   3.968
 2901WAT      O12309   5.793   5.577   4.973
 2901WAT     H112310   5.744   5.634   5.017
 2901WAT     H212311   5.790   5.606   4.891
 2901WAT    EPW12312   5.785   5.590   4.967
 2902WAT      O12313   6.903   5.645   4.434
 2902WAT     H112314   6.924   5.565   4.406
 2902WAT     H212315   6.818   5.651   4.415
 2902WAT    EPW12316   6.893   5.634   4.427
 2903WAT      O12317   5.035   5.874   3.473
 2903WAT     H112318   5.016   5.790   3.489
 2903WAT     H212319   5.101   5.870   3.416
 2903WAT    EPW12320   5.042   5.861   3.467
 2904WAT      O12321   6.671   5.163   3.406
 2904WAT     H112322   6.745   5.122   3.426
 2904WAT     H212323   6.697   5.235   3.364
 2904WAT    EPW12324   6.685   5.168   3.403
 2905WAT      O12325   6.065   6.412   3.864
 2905WAT     H112326   6.013   6.475   3.834
 2905WAT     H212327   6.096   6.375   3.791
 2905WAT    EPW12328   6.062   6.416   3.849
 2906WAT      O12329   5.052   6.290   3.431
 2906WAT     H112330   5.107   6.347   3.467
 2906WAT     H212331   5.029   6.239   3.497
 2906WAT    EPW12332   5.057   6.291   3.446
 2907WAT      O12333   5.472   6.190   4.140
 2907WAT     H112334   5.519   6.219   4.208
 2907WAT     H212335   5.530   6.143   4.094
 2907WAT    EPW12336   5.488   6.188   4.143
 2908WAT      O12337   6.316   5.392   3.913
 2908WAT     H112338   6.350   5.407   3.992
 2908WAT     H212339   6.271   5.318   3.925
 2908WAT    EPW12340   6.314   5.383   3.927
 2909WAT      O12341   5.035   6.135   3.194
 2909WAT     H112342   5.111   6.092   3.199
 2909WAT     H212343   5.036   6.189   3.263
 2909WAT    EPW12344   5.046   6.137   3.205
 2910WAT      O12345   5.129   5.957   3.994
 2910WAT     H112346   5.172   5.945   3.919
 2910WAT     H212347   5.108   6.042   3.992
 2910WAT    EPW12348   5.132   5.968   3.983
 2911WAT      O12349   5.764   5.314   3.359
 2911WAT     H112350   5.763   5.302   3.273
 2911WAT     H212351   5.745   5.399   3.368
 2911WAT    EPW12352   5.761   5.325   3.348
 2912WAT      O12353   6.669   6.557   4.509
 2912WAT     H112354   6.602   6.608   4.531
 2912WAT     H212355   6.675   6.567   4.422
 2912WAT    EPW12356   6.660   6.566   4.499
 2913WAT      O12357   5.537   6.309   3.822
 2913WAT     H112358   5.550   6.393   3.841
 2913WAT     H212359   5.604   6.269   3.862
 2913WAT    EPW12360   5.549   6.316   3.831
 2914WAT      O12361   5.350   5.657   4.809
 2914WAT     H112362   5.297   5.607   4.855
 2914WAT     H212363   5.352   5.618   4.731
 2914WAT    EPW12364   5.343   5.644   4.804
 2915WAT      O12365   5.399   5.597   3.323
 2915WAT     H112366   5.386   5.552   3.396
 2915WAT     H212367   5.341   5.563   3.267
 2915WAT    EPW12368   5.388   5.585   3.325
 2916WAT      O12369   5.416   5.780   3.982
 2916WAT     H112370   5.337   5.774   3.944
 2916WAT     H212371   5.423   5.705   4.026
 2916WAT    EPW12372   5.405   5.768   3.983
 2917WAT      O12373   5.459   5.754   4.329
 2917WAT     H112374   5.461   5.686   4.274
 2917WAT     H212375   5.394   5.803   4.298
 2917WAT    EPW12376   5.449   5.751   4.317
 2918WAT      O12377   6.448   5.525   4.169
 2918WAT     H112378   6.382   5.558   4.215
 2918WAT     H212379   6.467   5.588   4.112
 2918WAT    EPW12380   6.441   5.539   4.167
 2919WAT      O12381   5.869   6.631   4.268
 2919WAT     H112382   5.841   6.567   4.216
 2919WAT     H212383   5.848   6.704   4.225
 2919WAT    EPW12384   5.861   6.633   4.254
 2920WAT      O12385   6.113   5.116   4.512
 2920WAT     H112386   6.127   5.033   4.487
 2920WAT     H212387   6.150   5.121   4.590
 2920WAT    EPW12388   6.120   5.104   4.520
 2921WAT      O12389   6.267   5.322   3.520
 2921WAT     H112390   6.316   5.394   3.512
 2921WAT     H212391   6.188   5.348   3.494
 2921WAT    EPW12392   6.263   5.336   3.515
 2922WAT      O12393   5.238   5.889   4.885
 2922WAT     H112394   5.235   5.939   4.814
 2922WAT     H212395   5.272   5.814   4.856
 2922WAT    EPW12396   5.243   5.885   4.870
 2923WAT      O12397   6.399   6.110   4.711
 2923WAT     H112398   6.447   6.182   4.721
 2923WAT     H212399   6.438   6.067   4.646
 2923WAT    EPW12400   6.412   6.114   4.703
 2924WAT      O12401   5.828   6.394   4.829
 2924WAT     H112402   5.864   6.376   4.906
 2924WAT     H212403   5.785   6.321   4.809
 2924WAT    EPW12404   5.827   6.381   4.837
 2925WAT      O12405   5.926   5.469   4.092
 2925WAT     H112406   5.974   5.539   4.113
 2925WAT     H212407   5.963   5.404   4.138
 2925WAT    EPW12408   5.938   5.470   4.102
 2926WAT      O12409   6.144   5.786   3.320
 2926WAT     H112410   6.144   5.858   3.271
 2926WAT     H212411   6.081   5.799   3.378
 2926WAT    EPW12412   6.135   5.799   3.321
 2927WAT      O12413   6.642   6.173   3.718
 2927WAT     H112414   6.677   6.138   3.789
 2927WAT     H212415   6.641   6.107   3.661
 2927WAT    EPW12416   6.647   6.158   3.720
 2928WAT      O12417   6.246   6.479   4.102
 2928WAT     H112418   6.186   6.450   4.047
 2928WAT     H212419   6.301   6.525   4.051
 2928WAT    EPW12420   6.245   6.482   4.087
 2929WAT      O12421   6.247   6.165   4.042
 2929WAT     H112422   6.168   6.187   4.070
 2929WAT     H212423   6.273   6.105   4.101
 2929WAT    EPW12424   6.239   6.159   4.055
 2930WAT      O12425   5.637   6.646   3.487
 2930WAT     H112426   5.622   6.568   3.524
 2930WAT     H212427   5.706   6.631   3.436
 2930WAT    EPW12428   5.645   6.632   3.485
 2931WAT      O12429   5.604   5.020   3.286
 2931WAT     H112430   5.613   5.009   3.372
 2931WAT     H212431   5.533   5.071   3.279
 2931WAT    EPW12432   5.595   5.026   3.298
 2932WAT      O12433   5.866   6.597   3.327
 2932WAT     H112434   5.928   6.614   3.386
 2932WAT     H212435   5.869   6.666   3.274
 2932WAT    EPW12436   5.876   6.610   3.328
 2933WAT      O12437   6.573   5.964   4.527
 2933WAT     H112438   6.579   5.977   4.441
 2933WAT     H212439   6.649   5.996   4.557
 2933WAT    EPW12440   6.585   5.971   4.519
 2934WAT      O12441   6.193   6.499   4.955
 2934WAT     H112442   6.209   6.528   5.036
 2934WAT     H212443   6.219   6.565   4.904
 2934WAT    EPW12444   6.199   6.513   4.959
 2935WAT      O12445   6.677   4.994   4.826
 2935WAT     H112446   6.613   4.954   4.781
 2935WAT     H212447   6.679   4.951   4.901
 2935WAT    EPW12448   6.668   4.982   4.830
 2936WAT      O12449   5.316   5.851   3.410
 2936WAT     H112450   5.348   5.773   3.388
 2936WAT     H212451   5.381   5.888   3.456
 2936WAT    EPW12452   5.330   5.845   3.414
 2937WAT      O12453   6.147   5.945   4.487
 2937WAT     H112454   6.131   6.006   4.547
 2937WAT     H212455   6.200   5.889   4.528
 2937WAT    EPW12456   6.152   5.946   4.502
 2938WAT      O12457   5.016   5.017   3.507
 2938WAT     H112458   5.029   4.946   3.458
 2938WAT     H212459   4.979   4.985   3.580
 2938WAT    EPW12460   5.012   5.002   3.511
 2939WAT      O12461   5.985   5.785   3.553
 2939WAT     H112462   5.991   5.850   3.611
 2939WAT     H212463   5.966   5.715   3.602
 2939WAT    EPW12464   5.983   5.784   3.569
 2940WAT      O12465   6.508   6.218   4.140
 2940WAT     H112466   6.460   6.248   4.073
 2940WAT     H212467   6.472   6.140   4.157
 2940WAT    EPW12468   6.495   6.211   4.132
 2941WAT      O12469   5.435   5.237   3.204
 2941WAT     H112470   5.383   5.242   3.133
 2941WAT     H212471   5.513   5.261   3.174
 2941WAT    EPW12472   5.439   5.241   3.189
 2942WAT      O12473   5.907   5.990   3.996
 2942WAT     H112474   5.823   5.970   4.004
 2942WAT     H212475   5.940   5.973   4.075
 2942WAT    EPW12476   5.899   5.984   4.009
 2943WAT      O12477   5.582   6.663   3.084
 2943WAT     H112478   5.626   6.593   3.113
 2943WAT     H212479   5.603   6.725   3.142
 2943WAT    EPW12480   5.592   6.662   3.097
 2944WAT      O12481   5.292   5.959   4.227
 2944WAT     H112482   5.364   6.008   4.224
 2944WAT     H212483   5.265   5.956   4.145
 2944WAT    EPW12484   5.299   5.966   4.215
 2945WAT      O12485   5.615   5.476   3.901
 2945WAT     H112486   5.700   5.457   3.911
 2945WAT     H212487   5.578   5.398   3.887
 2945WAT    EPW12488   5.622   5.462   3.900
 2946WAT      O12489   6.877   6.634   3.334
 2946WAT     H112490   6.946   6.588   3.309
 2946WAT     H212491   6.823   6.575   3.367
 2946WAT    EPW12492   6.879   6.619   3.335
 2947WAT      O12493   5.097   5.610   3.566
 2947WAT     H112494   5.146   5.581   3.633
 2947WAT     H212495   5.110   5.551   3.504
 2947WAT    EPW12496   5.106   5.597   3.567
 2948WAT      O12497   6.601   5.912   4.252
 2948WAT     H112498   6.600   5.834   4.291
 2948WAT     H212499   6.517   5.935   4.251
 2948WAT    EPW12500   6.588   5.904   4.257
 2949WAT      O12501   5.550   5.753   3.115
 2949WAT     H112502   5.489   5.713   3.162
 2949WAT     H212503   5.511   5.765   3.038
 2949WAT    EPW12504   5.535   5.749   3.111
 2950WAT      O12505   5.232   6.064   4.655
 2950WAT     H112506   5.189   6.012   4.599
 2950WAT     H212507   5.196   6.143   4.641
 2950WAT    EPW12508   5.220   6.068   4.645
 2951WAT      O12509   6.726   5.919   3.995
 2951WAT     H112510   6.698   5.959   4.067
 2951WAT     H212511   6.812   5.913   4.008
 2951WAT    EPW12512   6.735   5.924   4.008
 2952WAT      O12513   5.695   5.599   3.386
 2952WAT     H112514   5.722   5.682   3.393
 2952WAT     H212515   5.609   5.607   3.376
 2952WAT    EPW12516   5.686   5.613   3.386
 2953WAT      O12517   6.492   5.312   4.849
 2953WAT     H112518   6.440   5.357   4.902
 2953WAT     H212519   6.456   5.232   4.849
 2953WAT    EPW12520   6.479   5.307   4.857
 2954WAT      O12521   5.043   5.196   4.040
 2954WAT     H112522   5.048   5.231   3.960
 2954WAT     H212523   5.119   5.220   4.076
 2954WAT    EPW12524   5.055   5.205   4.033
 2955WAT      O12525   6.839   6.482   4.048
 2955WAT     H112526   6.868   6.508   3.970
 2955WAT     H212527   6.909   6.492   4.100
 2955WAT    EPW12528   6.854   6.488   4.044
 2956WAT      O12529   6.342   5.668   4.857
 2956WAT     H112530   6.349   5.679   4.943
 2956WAT     H212531   6.278   5.724   4.835
 2956WAT    EPW12532   6.333   5.678   4.866
 2957WAT      O12533   6.568   5.700   4.693
 2957WAT     H112534   6.600   5.779   4.714
 2957WAT     H212535   6.531   5.673   4.768
 2957WAT    EPW12536   6.568   5.708   4.707
 2958WAT      O12537   6.500   6.343   3.246
 2958WAT     H112538   6.533   6.262   3.250
 2958WAT     H212539   6.424   6.336   3.289
 2958WAT    EPW12540   6.494   6.330   3.253
 2959WAT      O12541   6.548   5.526   3.812
 2959WAT     H112542   6.474   5.494   3.844
 2959WAT     H212543   6.548   5.609   3.840
 2959WAT    EPW12544   6.537   5.534   3.821
 2960WAT      O12545   6.838   5.755   4.967
 2960WAT     H112546   6.833   5.720   4.887
 2960WAT     H212547   6.912   5.801   4.965
 2960WAT    EPW12548   6.848   5.756   4.955
 2961WAT      O12549   6.792   6.122   4.587
 2961WAT     H112550   6.855   6.067   4.562
 2961WAT     H212551   6.786   6.179   4.521
 2961WAT    EPW12552   6.800   6.122   4.574
 2962WAT      O12553   6.237   6.130   3.187
 2962WAT     H112554   6.306   6.079   3.170
 2962WAT     H212555   6.196   6.135   3.110
 2962WAT    EPW12556   6.241   6.123   3.173
 2963WAT      O12557   5.705   6.245   4.317
 2963WAT     H112558   5.676   6.304   4.374
 2963WAT     H212559   5.711   6.289   4.242
 2963WAT    EPW12560   5.702   6.261   4.314
 2964WAT      O12561   5.503   6.140   4.657
 2964WAT     H112562   5.423   6.111   4.674
 2964WAT     H212563   5.494   6.227   4.657
 2964WAT    EPW12564   5.490   6.149   4.659
 2965WAT      O12565   6.439   5.159   4.558
 2965WAT     H112566   6.514   5.204   4.552
 2965WAT     H212567   6.383   5.206   4.511
 2965WAT    EPW12568   6.442   5.173   4.551
 2966WAT      O12569   5.957   5.888   4.266
 2966WAT     H112570   6.005   5.925   4.329
 2966WAT     H212571   5.875   5.901   4.292
 2966WAT    EPW12572   5.952   5.895   4.279
 2967WAT      O12573   5.628   5.448   4.540
 2967WAT     H112574   5.644   5.373   4.583
 2967WAT     H212575   5.624   5.423   4.457
 2967WAT    EPW12576   5.630   5.433   4.534
 2968WAT      O12577   5.883   6.627   3.789
 2968WAT     H112578   5.938   6.695   3.794
 2968WAT     H212579   5.848   6.635   3.709
 2968WAT    EPW12580   5.886   6.638   3.778
 2969WAT      O12581   6.568   4.957   4.325
 2969WAT     H112582   6.540   5.040   4.321
 2969WAT     H212583   6.639   4.962   4.375
 2969WAT    EPW12584   6.574   4.970   4.332
 2970WAT      O12585   5.803   5.029   4.528
 2970WAT     H112586   5.874   5.061   4.488
 2970WAT     H212587   5.827   4.948   4.551
 2970WAT    EPW12588   5.817   5.021   4.526
 2971WAT      O12589   5.702   6.450   4.128
 2971WAT     H112590   5.639   6.508   4.110
 2971WAT     H212591   5.727   6.421   4.049
 2971WAT    EPW12592   5.696   6.454   4.114
 2972WAT      O12593   6.133   6.113   4.827
 2972WAT     H112594   6.208   6.142   4.794
 2972WAT     H212595   6.078   6.118   4.759
 2972WAT    EPW12596   6.136   6.118   4.812
 2973WAT      O12597   6.524   6.368   4.677
 2973WAT     H112598   6.558   6.395   4.753
 2973WAT     H212599   6.553   6.426   4.619
 2973WAT    EPW12600   6.533   6.381   4.680
 2974WAT      O12601   6.710   5.583   3.211
 2974WAT     H112602   6.748   5.650   3.171
 2974WAT     H212603   6.626   5.605   3.214
 2974WAT    EPW12604   6.703   5.596   3.206
 2975WAT      O12605   5.861   5.927   3.119
 2975WAT     H112606   5.781   5.910   3.091
 2975WAT     H212607   5.858   6.012   3.139
 2975WAT    EPW12608   5.849   5.937   3.118
 2976WAT      O12609   5.454   5.534   4.134
 2976WAT     H112610   5.498   5.524   4.060
 2976WAT     H212611   5.509   5.503   4.195
 2976WAT    EPW12612   5.469   5.528   4.132
 2977WAT      O12613   6.256   5.444   4.694
 2977WAT     H112614   6.191   5.491   4.728
 2977WAT     H212615   6.312   5.435   4.759
 2977WAT    EPW12616   6.255   5.450   4.708
 2978WAT      O12617   6.225   5.598   4.323
 2978WAT     H112618   6.255   5.640   4.394
 2978WAT     H212619   6.228   5.514   4.347
 2978WAT    EPW12620   6.230   5.592   4.337
 2979WAT      O12621   5.967   6.615   4.716
 2979WAT     H112622   6.015   6.555   4.674
 2979WAT     H212623   5.932   6.570   4.782
 2979WAT    EPW12624   5.969   6.599   4.720
 2980WAT      O12625   6.479   5.543   3.549
 2980WAT     H112626   6.500   5.522   3.631
 2980WAT     H212627   6.555   5.569   3.514
 2980WAT    EPW12628   6.494   5.544   3.556
 2981WAT      O12629   5.809   5.032   4.139
 2981WAT     H112630   5.726   5.018   4.163
 2981WAT     H212631   5.805   5.036   4.052
 2981WAT    EPW12632   5.796   5.031   4.130
 2982WAT      O12633   6.582   5.151   3.696
 2982WAT     H112634   6.510   5.104   3.713
 2982WAT     H212635   6.565   5.185   3.617
 2982WAT    EPW12636   6.569   5.149   3.687
 2983WAT      O12637   6.626   5.945   3.534
 2983WAT     H112638   6.673   5.872   3.529
 2983WAT     H212639   6.544   5.917   3.526
 2983WAT    EPW12640   6.621   5.930   3.532
 2984WAT      O12641   5.973   6.136   4.618
 2984WAT     H112642   5.893   6.130   4.653
 2984WAT     H212643   5.980   6.221   4.598
 2984WAT    EPW12644   5.962   6.148   4.620
 2985WAT      O12645   5.065   5.072   4.743
 2985WAT     H112646   5.051   5.152   4.709
 2985WAT     H212647   4.987   5.048   4.771
 2985WAT    EPW12648   5.052   5.080   4.742
 2986WAT      O12649   5.556   6.757   4.150
 2986WAT     H112650   5.557   6.763   4.237
 2986WAT     H212651   5.513   6.682   4.135
 2986WAT    EPW12652   5.550   6.747   4.160
 2987WAT      O12653   5.372   5.347   3.465
 2987WAT     H112654   5.384   5.314   3.385
 2987WAT     H212655   5.291   5.322   3.485
 2987WAT    EPW12656   5.362   5.338   3.456
 2988WAT      O12657   6.247   6.062   3.769
 2988WAT     H112658   6.255   6.096   3.849
 2988WAT     H212659   6.264   5.977   3.782
 2988WAT    EPW12660   6.251   6.054   3.783
 2989WAT      O12661   6.000   5.989   3.726
 2989WAT     H112662   5.970   5.958   3.802
 2989WAT     H212663   6.069   6.037   3.749
 2989WAT    EPW12664   6.006   5.992   3.741
 2990WAT      O12665   6.022   6.401   4.529
 2990WAT     H112666   6.091   6.390   4.581
 2990WAT     H212667   6.035   6.480   4.494
 2990WAT    EPW12668   6.034   6.411   4.531
 2991WAT      O12669   6.839   5.662   4.710
 2991WAT     H112670   6.754   5.650   4.722
 2991WAT     H212671   6.855   5.623   4.633
 2991WAT    EPW12672   6.829   5.654   4.700
 2992WAT      O12673   6.291   5.729   4.567
 2992WAT     H112674   6.265   5.657   4.610
 2992WAT     H212675   6.373   5.740   4.594
 2992WAT    EPW12676   6.299   5.720   4.578
 2993WAT      O12677   5.232   6.707   4.694
 2993WAT     H112678   5.167   6.650   4.704
 2993WAT     H212679   5.195   6.784   4.709
 2993WAT    EPW12680   5.217   6.710   4.697
 2994WAT      O12681   6.084   5.848   4.886
 2994WAT     H112682   6.116   5.916   4.843
 2994WAT     H212683   6.014   5.880   4.926
 2994WAT    EPW12684   6.078   5.862   4.886
 2995WAT      O12685   6.393   6.685   3.979
 2995WAT     H112686   6.347   6.749   4.017
 2995WAT     H212687   6.463   6.677   4.029
 2995WAT    EPW12688   6.396   6.693   3.992
 2996WAT      O12689   6.063   6.194   4.272
 2996WAT     H112690   5.993   6.234   4.306
 2996WAT     H212691   6.130   6.237   4.306
 2996WAT    EPW12692   6.062   6.206   4.282
 2997WAT      O12693   6.600   6.453   4.930
 2997WAT     H112694   6.678   6.414   4.938
 2997WAT     H212695   6.553   6.420   4.995
 2997WAT    EPW12696   6.605   6.443   4.941
 2998WAT      O12697   5.369   5.548   4.507
 2998WAT     H112698   5.407   5.610   4.458
 2998WAT     H212699   5.437   5.500   4.535
 2998WAT    EPW12700   5.385   5.550   4.504
 2999WAT      O12701   5.147   5.393   4.434
 2999WAT     H112702   5.155   5.376   4.349
 2999WAT     H212703   5.222   5.433   4.454
 2999WAT    EPW12704   5.159   5.396   4.424
 3000WAT      O12705   6.703   5.657   3.478
 3000WAT     H112706   6.713   5.651   3.392
 3000WAT     H212707   6.777   5.623   3.510
 3000WAT    EPW12708   6.715   5.651   3.470
 3001WAT      O12709   5.402   5.134   4.675
 3001WAT     H112710   5.394   5.049   4.696
 3001WAT     H212711   5.371   5.138   4.594
 3001WAT    EPW12712   5.397   5.122   4.666
 3002WAT      O12713   6.095   6.353   3.589
 3002WAT     H112714   6.074   6.436   3.573
 3002WAT     H212715   6.017   6.315   3.601
 3002WAT    EPW12716   6.080   6.360   3.588
 3003WAT      O12717   6.613   5.671   4.414
 3003WAT     H112718   6.613   5.585   4.426
 3003WAT     H212719   6.620   5.704   4.494
 3003WAT    EPW12720   6.614   5.663   4.427
 3004WAT      O12721   5.087   5.915   4.457
 3004WAT     H112722   5.119   5.937   4.378
 3004WAT     H212723   5.077   5.829   4.451
 3004WAT    EPW12724   5.090   5.906   4.444
 3005WAT      O12725   5.232   5.509   3.118
 3005WAT     H112726   5.165   5.510   3.174
 3005WAT     H212727   5.242   5.424   3.100
 3005WAT    EPW12728   5.224   5.496   3.124
 3006WAT      O12729   6.201   5.151   4.792
 3006WAT     H112730   6.210   5.222   4.841
 3006WAT     H212731   6.137   5.107   4.832
 3006WAT    EPW12732   6.193   5.155   4.805
 3007WAT      O12733   6.100   5.170   3.877
 3007WAT     H112734   6.030   5.222   3.872
 3007WAT     H212735   6.104   5.132   3.799
 3007WAT    EPW12736   6.091   5.172   3.865
 3008WAT      O12737   5.631   6.379   3.230
 3008WAT     H112738   5.675   6.387   3.305
 3008WAT     H212739   5.551   6.358   3.256
 3008WAT    EPW12740   5.626   6.377   3.245
 3009WAT      O12741   6.460   5.222   4.157
 3009WAT     H112742   6.546   5.232   4.172
 3009WAT     H212743   6.423   5.277   4.214
 3009WAT    EPW12744   6.467   5.231   4.168
 3010WAT      O12745   5.563   5.844   4.595
 3010WAT     H112746   5.523   5.922   4.603
 3010WAT     H212747   5.522   5.807   4.527
 3010WAT    EPW12748   5.551   5.850   4.586
 3011WAT      O12749   6.491   5.750   4.006
 3011WAT     H112750   6.557   5.804   4.022
 3011WAT     H212751   6.456   5.781   3.933
 3011WAT    EPW12752   6.495   5.762   3.998
 3012WAT      O12753   6.522   6.556   3.587
 3012WAT     H112754   6.504   6.491   3.642
 3012WAT     H212755   6.593   6.529   3.545
 3012WAT    EPW12756   6.530   6.543   3.589
 3013WAT      O12757   5.364   6.286   3.290
 3013WAT     H112758   5.340   6.256   3.368
 3013WAT     H212759   5.361   6.216   3.238
 3013WAT    EPW12760   5.360   6.271   3.294
 3014WAT      O12761   5.646   6.111   3.164
 3014WAT     H112762   5.564   6.084   3.178
 3014WAT     H212763   5.643   6.196   3.183
 3014WAT    EPW12764   5.633   6.119   3.169
 3015WAT      O12765   5.606   5.142   4.340
 3015WAT     H112766   5.519   5.150   4.348
 3015WAT     H212767   5.628   5.091   4.407
 3015WAT    EPW12768   5.596   5.136   4.351
 3016WAT      O12769   6.808   5.006   4.473
 3016WAT     H112770   6.802   5.001   4.560
 3016WAT     H212771   6.876   4.955   4.454
 3016WAT    EPW12772   6.817   4.998   4.483
 3017WAT      O12773   6.016   5.217   4.177
 3017WAT     H112774   5.942   5.171   4.189
 3017WAT     H212775   6.073   5.177   4.230
 3017WAT    EPW12776   6.014   5.204   4.187
 3018WAT      O12777   6.289   6.302   4.356
 3018WAT     H112778   6.310   6.332   4.435
 3018WAT     H212779   6.283   6.374   4.308
 3018WAT    EPW12780   6.291   6.317   4.361
 3019WAT      O12781   6.243   6.723   4.781
 3019WAT     H112782   6.167   6.721   4.737
 3019WAT     H212783   6.260   6.808   4.789
 3019WAT    EPW12784   6.234   6.735   4.776
 3020WAT      O12785   5.766   5.650   4.698
 3020WAT     H112786   5.734   5.592   4.641
 3020WAT     H212787   5.731   5.725   4.673
 3020WAT    EPW12788   5.756   5.652   4.686
 3021WAT      O12789   5.846   4.975   3.161
 3021WAT     H112790   5.854   5.000   3.077
 3021WAT     H212791   5.772   5.013   3.186
 3021WAT    EPW12792   5.836   4.984   3.152
 3022WAT      O12793   6.771   6.166   4.302
 3022WAT     H112794   6.767   6.079   4.289
 3022WAT     H212795   6.701   6.196   4.259
 3022WAT    EPW12796   6.760   6.157   4.294
 3023WAT      O12797   5.610   6.685   4.723
 3023WAT     H112798   5.614   6.698   4.809
 3023WAT     H212799   5.675   6.629   4.707
 3023WAT    EPW12800   5.620   6.679   4.733
 3024WAT      O12801   6.581   6.492   4.182
 3024WAT     H112802   6.634   6.483   4.113
 3024WAT     H212803   6.542   6.414   4.187
 3024WAT    EPW12804   6.583   6.479   4.172
 3025WAT      O12805   5.328   5.150   4.405
 3025WAT     H112806   5.294   5.074   4.381
 3025WAT     H212807   5.258   5.203   4.411
 3025WAT    EPW12808   5.313   5.147   4.402
 3026WAT      O12809   6.232   5.036   4.103
 3026WAT     H112810   6.299   5.090   4.115
 3026WAT     H212811   6.182   5.078   4.045
 3026WAT    EPW12812   6.235   5.050   4.096
 3027WAT      O12813   5.369   6.524   4.859
 3027WAT     H112814   5.429   6.567   4.906
 3027WAT     H212815   5.333   6.586   4.810
 3027WAT    EPW12816   5.373   6.539   4.858
 3028WAT      O12817   6.168   5.617   3.852
 3028WAT     H112818   6.223   5.556   3.882
 3028WAT     H212819   6.126   5.643   3.923
 3028WAT    EPW12820   6.170   5.612   3.867
 3029WAT      O12821   5.193   5.482   3.800
 3029WAT     H112822   5.156   5.512   3.874
 3029WAT     H212823   5.247   5.419   3.829
 3029WAT    EPW12824   5.196   5.477   3.815
 3030WAT      O12825   5.162   6.323   4.552
 3030WAT     H112826   5.105   6.364   4.602
 3030WAT     H212827   5.235   6.369   4.561
 3030WAT    EPW12828   5.164   6.336   4.560
 3031WAT      O12829   6.365   5.800   3.508
 3031WAT     H112830   6.372   5.715   3.526
 3031WAT     H212831   6.283   5.808   3.480
 3031WAT    EPW12832   6.354   5.789   3.507
 3032WAT      O12833   5.341   6.649   3.429
 3032WAT     H112834   5.326   6.665   3.344
 3032WAT     H212835   5.427   6.657   3.437
 3032WAT    EPW12836   5.351   6.653   3.418
 3033WAT      O12837   5.757   5.889   3.402
 3033WAT     H112838   5.767   5.903   3.316
 3033WAT     H212839   5.839   5.883   3.431
 3033WAT    EPW12840   5.771   5.890   3.394
 3034WAT      O12841   6.673   6.695   3.150
 3034WAT     H112842   6.737   6.682   3.208
 3034WAT     H212843   6.639   6.616   3.138
 3034WAT    EPW12844   6.678   6.682   3.157
 3035WAT      O12845   6.693   5.937   4.823
 3035WAT     H112846   6.756   5.920   4.881
 3035WAT     H212847   6.734   5.977   4.758
 3035WAT    EPW12848   6.708   5.941   4.822
 3036WAT      O12849   6.281   6.322   3.382
 3036WAT     H112850   6.256   6.309   3.465
 3036WAT     H212851   6.249   6.252   3.340
 3036WAT    EPW12852   6.272   6.310   3.388
 3037WAT      O12853   6.755   5.394   4.897
 3037WAT     H112854   6.736   5.458   4.952
 3037WAT     H212855   6.683   5.345   4.896
 3037WAT    EPW12856   6.742   5.396   4.905
 3038WAT      O12857   6.745   5.488   4.194
 3038WAT     H112858   6.662   5.513   4.187
 3038WAT     H212859   6.740   5.404   4.217
 3038WAT    EPW12860   6.732   5.479   4.196
 3039WAT      O12861   5.671   5.186   4.713
 3039WAT     H112862   5.695   5.129   4.652
 3039WAT     H212863   5.587   5.168   4.728
 3039WAT    EPW12864   5.662   5.175   4.706
 3040WAT      O12865   6.434   5.948   4.959
 3040WAT     H112866   6.521   5.945   4.955
 3040WAT     H212867   6.412   5.990   4.885
 3040WAT    EPW12868   6.444   5.954   4.947
 3041WAT      O12869   5.409   6.531   4.077
 3041WAT     H112870   5.401   6.450   4.045
 3041WAT     H212871   5.365   6.579   4.020
 3041WAT    EPW12872   5.402   6.526   4.064
 3042WAT      O12873   5.969   6.143   3.325
 3042WAT     H112874   6.041   6.108   3.289
 3042WAT     H212875   5.966   6.223   3.290
 3042WAT    EPW12876   5.979   6.149   3.315
 3043WAT      O12877   5.166   6.755   4.435
 3043WAT     H112878   5.216   6.750   4.507
 3043WAT     H212879   5.185   6.682   4.391
 3043WAT    EPW12880   5.177   6.743   4.439
 3044WAT      O12881   6.110   5.007   1.749
 3044WAT     H112882   6.086   5.056   1.681
 3044WAT     H212883   6.197   4.999   1.739
 3044WAT    EPW12884   6.119   5.013   1.737
 3045WAT      O12885   6.091   5.698   2.216
 3045WAT     H112886   6.039   5.758   2.252
 3045WAT     H212887   6.131   5.662   2.284
 3045WAT    EPW12888   6.089   5.702   2.232
 3046WAT      O12889   5.078   6.112   1.762
 3046WAT     H112890   5.034   6.124   1.836
 3046WAT     H212891   5.050   6.035   1.733
 3046WAT    EPW12892   5.067   6.103   1.768
 3047WAT      O12893   6.706   6.442   1.513
 3047WAT     H112894   6.776   6.391   1.513
 3047WAT     H212895   6.647   6.398   1.466
 3047WAT    EPW12896   6.707   6.428   1.506
 3048WAT      O12897   5.052   5.492   1.412
 3048WAT     H112898   4.975   5.508   1.376
 3048WAT     H212899   5.056   5.404   1.415
 3048WAT    EPW12900   5.041   5.481   1.407
 3049WAT      O12901   5.366   6.018   1.280
 3049WAT     H112902   5.327   5.981   1.211
 3049WAT     H212903   5.358   5.958   1.342
 3049WAT    EPW12904   5.359   6.004   1.279
 3050WAT      O12905   6.358   5.805   1.884
 3050WAT     H112906   6.366   5.805   1.797
 3050WAT     H212907   6.300   5.742   1.899
 3050WAT    EPW12908   6.351   5.796   1.873
 3051WAT      O12909   5.329   6.182   1.670
 3051WAT     H112910   5.390   6.165   1.730
 3051WAT     H212911   5.254   6.168   1.712
 3051WAT    EPW12912   5.327   6.177   1.685
 3052WAT      O12913   5.757   5.115   1.664
 3052WAT     H112914   5.750   5.183   1.610
 3052WAT     H212915   5.831   5.077   1.640
 3052WAT    EPW12916   5.767   5.120   1.653
 3053WAT      O12917   5.218   6.491   1.277
 3053WAT     H112918   5.265   6.499   1.204
 3053WAT     H212919   5.264   6.433   1.324
 3053WAT    EPW12920   5.232   6.484   1.273
 3054WAT      O12921   5.072   6.386   2.387
 3054WAT     H112922   5.085   6.358   2.469
 3054WAT     H212923   5.011   6.332   2.356
 3054WAT    EPW12924   5.065   6.374   2.395
 3055WAT      O12925   5.729   6.138   2.894
 3055WAT     H112926   5.706   6.138   2.978
 3055WAT     H212927   5.655   6.124   2.851
 3055WAT    EPW12928   5.715   6.136   2.900
 3056WAT      O12929   5.217   5.838   1.807
 3056WAT     H112930   5.170   5.799   1.745
 3056WAT     H212931   5.287   5.787   1.817
 3056WAT    EPW12932   5.220   5.825   1.799
 3057WAT      O12933   5.667   5.399   2.342
 3057WAT     H112934   5.735   5.401   2.287
 3057WAT     H212935   5.663   5.315   2.367
 3057WAT    EPW12936   5.677   5.387   2.338
 3058WAT      O12937   5.728   6.458   2.620
 3058WAT     H112938   5.741   6.534   2.579
 3058WAT     H212939   5.807   6.421   2.623
 3058WAT    EPW12940   5.741   6.463   2.615
 3059WAT      O12941   5.417   5.648   1.810
 3059WAT     H112942   5.498   5.629   1.834
 3059WAT     H212943   5.369   5.587   1.849
 3059WAT    EPW12944   5.422   5.636   1.819
 3060WAT      O12945   5.837   6.246   2.071
 3060WAT     H112946   5.872   6.166   2.074
 3060WAT     H212947   5.904   6.296   2.045
 3060WAT    EPW12948   5.852   6.242   2.067
 3061WAT      O12949   5.843   6.191   1.692
 3061WAT     H112950   5.876   6.127   1.740
 3061WAT     H212951   5.867   6.170   1.611
 3061WAT    EPW12952   5.851   6.178   1.687
 3062WAT      O12953   6.040   5.604   2.826
 3062WAT     H112954   5.955   5.594   2.808
 3062WAT     H212955   6.043   5.679   2.871
 3062WAT    EPW12956   6.028   5.614   2.830
 3063WAT      O12957   5.476   5.157   1.736
 3063WAT     H112958   5.447   5.207   1.671
 3063WAT     H212959   5.563   5.165   1.731
 3063WAT    EPW12960   5.485   5.166   1.726
 3064WAT      O12961   6.495   4.900   2.737
 3064WAT     H112962   6.480   4.977   2.699
 3064WAT     H212963   6.418   4.878   2.771
 3064WAT    EPW12964   6.482   4.908   2.737
 3065WAT      O12965   5.774   5.072   1.959
 3065WAT     H112966   5.782   5.158   1.971
 3065WAT     H212967   5.771   5.064   1.872
 3065WAT    EPW12968   5.775   5.083   1.948
 3066WAT      O12969   6.242   5.364   1.188
 3066WAT     H112970   6.197   5.432   1.219
 3066WAT     H212971   6.253   5.314   1.259
 3066WAT    EPW12972   6.237   5.367   1.203
 3067WAT      O12973   5.062   5.614   2.109
 3067WAT     H112974   5.037   5.697   2.101
 3067WAT     H212975   4.996   5.576   2.150
 3067WAT    EPW12976   5.049   5.621   2.114
 3068WAT      O12977   5.053   6.585   1.899
 3068WAT     H112978   4.994   6.641   1.867
 3068WAT     H212979   5.096   6.558   1.827
 3068WAT    EPW12980   5.051   6.589   1.884
 3069WAT      O12981   5.637   6.369   1.647
 3069WAT     H112982   5.579   6.342   1.706
 3069WAT     H212983   5.700   6.309   1.649
 3069WAT    EPW12984   5.638   6.356   1.656
 3070WAT      O12985   6.252   6.598   1.399
 3070WAT     H112986   6.324   6.645   1.409
 3070WAT     H212987   6.274   6.519   1.427
 3070WAT    EPW12988   6.266   6.594   1.405
 3071WAT      O12989   6.068   6.637   1.598
 3071WAT     H112990   6.090   6.690   1.664
 3071WAT     H212991   6.145   6.620   1.560
 3071WAT    EPW12992   6.083   6.643   1.602
 3072WAT      O12993   5.365   5.096   2.158
 3072WAT     H112994   5.313   5.033   2.127
 3072WAT     H212995   5.424   5.052   2.205
 3072WAT    EPW12996   5.366   5.080   2.160
 3073WAT      O12997   5.696   5.309   3.088
 3073WAT     H112998   5.707   5.264   3.014
 3073WAT     H212999   5.725   5.389   3.067
 3073WAT    EPW13000   5.702   5.314   3.074
 3074WAT      O13001   5.208   6.452   1.692
 3074WAT     H113002   5.273   6.395   1.693
 3074WAT     H213003   5.247   6.527   1.670
 3074WAT    EPW13004   5.223   6.455   1.689
 3075WAT      O13005   6.781   5.361   1.818
 3075WAT     H113006   6.746   5.429   1.861
 3075WAT     H213007   6.717   5.302   1.820
 3075WAT    EPW13008   6.767   5.363   1.824
 3076WAT      O13009   6.312   6.638   2.428
 3076WAT     H113010   6.387   6.684   2.427
 3076WAT     H213011   6.300   6.617   2.345
 3076WAT    EPW13012   6.321   6.642   2.416
 3077WAT      O13013   5.269   5.269   2.986
 3077WAT     H113014   5.191   5.230   2.979
 3077WAT     H213015   5.318   5.228   2.927
 3077WAT    EPW13016   5.265   5.257   2.976
 3078WAT      O13017   5.290   6.301   2.042
 3078WAT     H113018   5.332   6.265   1.974
 3078WAT     H213019   5.322   6.259   2.111
 3078WAT    EPW13020   5.301   6.289   2.042
 3079WAT      O13021   5.613   6.586   1.971
 3079WAT     H113022   5.697   6.596   1.952
 3079WAT     H213023   5.583   6.668   1.978
 3079WAT    EPW13024   5.621   6.600   1.969
 3080WAT      O13025   5.934   5.033   2.903
 3080WAT     H113026   5.952   4.952   2.875
 3080WAT     H213027   5.920   5.077   2.829
 3080WAT    EPW13028   5.934   5.028   2.888
 3081WAT      O13029   5.993   5.526   1.780
 3081WAT     H113030   6.022   5.502   1.701
 3081WAT     H213031   6.067   5.534   1.827
 3081WAT    EPW13032   6.008   5.523   1.775
 3082WAT      O13033   6.066   5.560   1.292
 3082WAT     H113034   6.094   5.638   1.317
 3082WAT     H213035   5.988   5.576   1.256
 3082WAT    EPW13036   6.058   5.574   1.290
 3083WAT      O13037   6.470   6.757   1.439
 3083WAT     H113038   6.536   6.742   1.384
 3083WAT     H213039   6.506   6.749   1.518
 3083WAT    EPW13040   6.485   6.754   1.442
 3084WAT      O13041   5.512   6.708   2.545
 3084WAT     H113042   5.542   6.701   2.627
 3084WAT     H213043   5.450   6.647   2.541
 3084WAT    EPW13044   5.508   6.698   2.557
 3085WAT      O13045   6.749   5.194   2.355
 3085WAT     H113046   6.824   5.201   2.312
 3085WAT     H213047   6.755   5.116   2.395
 3085WAT    EPW13048   6.761   5.183   2.354
 3086WAT      O13049   5.004   5.324   2.745
 3086WAT     H113050   5.003   5.382   2.809
 3086WAT     H213051   5.063   5.355   2.689
 3086WAT    EPW13052   5.013   5.337   2.746
 3087WAT      O13053   6.238   6.357   2.799
 3087WAT     H113054   6.234   6.395   2.877
 3087WAT     H213055   6.323   6.353   2.782
 3087WAT    EPW13056   6.250   6.362   2.808
 3088WAT      O13057   5.951   6.377   1.274
 3088WAT     H113058   5.933   6.431   1.339
 3088WAT     H213059   6.028   6.406   1.244
 3088WAT    EPW13060   5.960   6.389   1.279
 3089WAT      O13061   6.302   5.166   1.379
 3089WAT     H113062   6.356   5.098   1.387
 3089WAT     H213063   6.308   5.206   1.457
 3089WAT    EPW13064   6.311   5.162   1.392
 3090WAT      O13065   5.098   5.283   1.636
 3090WAT     H113066   5.086   5.197   1.639
 3090WAT     H213067   5.050   5.312   1.703
 3090WAT    EPW13068   5.089   5.275   1.646
 3091WAT      O13069   5.312   6.524   2.458
 3091WAT     H113070   5.242   6.473   2.470
 3091WAT     H213071   5.338   6.504   2.377
 3091WAT    EPW13072   5.305   6.514   2.447
 3092WAT      O13073   6.028   5.404   1.511
 3092WAT     H113074   5.977   5.338   1.485
 3092WAT     H213075   6.033   5.454   1.440
 3092WAT    EPW13076   6.021   5.402   1.496
 3093WAT      O13077   6.083   6.673   2.549
 3093WAT     H113078   6.160   6.665   2.508
 3093WAT     H213079   6.025   6.661   2.485
 3093WAT    EPW13080   6.086   6.670   2.533
 3094WAT      O13081   6.028   5.098   1.500
 3094WAT     H113082   5.982   5.058   1.437
 3094WAT     H213083   6.105   5.113   1.462
 3094WAT    EPW13084   6.033   5.094   1.485
 3095WAT      O13085   6.711   6.734   1.839
 3095WAT     H113086   6.665   6.805   1.859
 3095WAT     H213087   6.649   6.677   1.814
 3095WAT    EPW13088   6.695   6.736   1.838
 3096WAT      O13089   5.888   5.335   1.952
 3096WAT     H113090   5.895   5.391   1.886
 3096WAT     H213091   5.900   5.384   2.023
 3096WAT    EPW13092   5.891   5.350   1.953
 3097WAT      O13093   6.410   6.318   1.793
 3097WAT     H113094   6.480   6.270   1.812
 3097WAT     H213095   6.344   6.261   1.798
 3097WAT    EPW13096   6.411   6.303   1.796
 3098WAT      O13097   5.448   6.409   2.714
 3098WAT     H113098   5.532   6.415   2.692
 3098WAT     H213099   5.444   6.449   2.792
 3098WAT    EPW13100   5.460   6.416   2.722
 3099WAT      O13101   5.349   4.917   1.787
 3099WAT     H113102   5.402   4.986   1.786
 3099WAT     H213103   5.349   4.890   1.704
 3099WAT    EPW13104   5.356   4.923   1.774
 3100WAT      O13105   5.644   5.960   2.189
 3100WAT     H113106   5.661   5.939   2.272
 3100WAT     H213107   5.579   5.907   2.168
 3100WAT    EPW13108   5.637   5.949   2.198
 3101WAT      O13109   5.719   5.954   2.448
 3101WAT     H113110   5.724   6.039   2.468
 3101WAT     H213111   5.691   5.917   2.522
 3101WAT    EPW13112   5.716   5.961   2.462
 3102WAT      O13113   6.337   6.024   2.361
 3102WAT     H113114   6.285   5.982   2.418
 3102WAT     H213115   6.324   6.108   2.379
 3102WAT    EPW13116   6.327   6.030   2.372
 3103WAT      O13117   6.393   4.946   1.824
 3103WAT     H113118   6.397   4.914   1.905
 3103WAT     H213119   6.425   4.882   1.775
 3103WAT    EPW13120   6.398   4.932   1.829
 3104WAT      O13121   5.001   6.391   3.069
 3104WAT     H113122   5.077   6.426   3.095
 3104WAT     H213123   5.019   6.306   3.064
 3104WAT    EPW13124   5.015   6.384   3.072
 3105WAT      O13125   6.639   5.370   2.655
 3105WAT     H113126   6.716   5.347   2.689
 3105WAT     H213127   6.591   5.391   2.725
 3105WAT    EPW13128   6.643   5.370   2.670
 3106WAT      O13129   5.393   5.298   1.952
 3106WAT     H113130   5.421   5.255   1.881
 3106WAT     H213131   5.376   5.234   2.009
 3106WAT    EPW13132   5.395   5.282   1.950
 3107WAT      O13133   6.662   6.067   1.374
 3107WAT     H113134   6.674   6.039   1.455
 3107WAT     H213135   6.743   6.070   1.341
 3107WAT    EPW13136   6.676   6.064   1.381
 3108WAT      O13137   5.376   6.041   1.907
 3108WAT     H113138   5.461   6.033   1.890
 3108WAT     H213139   5.340   5.972   1.866
 3108WAT    EPW13140   5.383   6.029   1.898
 3109WAT      O13141   5.252   6.713   2.031
 3109WAT     H113142   5.185   6.663   2.006
 3109WAT     H213143   5.293   6.732   1.956
 3109WAT    EPW13144   5.248   6.709   2.016
 3110WAT      O13145   5.207   5.408   2.260
 3110WAT     H113146   5.292   5.430   2.256
 3110WAT     H213147   5.169   5.465   2.207
 3110WAT    EPW13148   5.214   5.420   2.252
 3111WAT      O13149   6.886   6.518   2.799
 3111WAT     H113150   6.817   6.549   2.755
 3111WAT     H213151   6.849   6.473   2.864
 3111WAT    EPW13152   6.870   6.516   2.802
 3112WAT      O13153   6.452   5.721   1.332
 3112WAT     H113154   6.430   5.794   1.290
 3112WAT     H213155   6.407   5.726   1.407
 3112WAT    EPW13156   6.442   5.733   1.337
 3113WAT      O13157   5.613   6.041   1.730
 3113WAT     H113158   5.684   6.091   1.739
 3113WAT     H213159   5.635   5.985   1.668
 3113WAT    EPW13160   5.626   6.040   1.723
 3114WAT      O13161   6.870   5.207   1.278
 3114WAT     H113162   6.804   5.150   1.280
 3114WAT     H213163   6.851   5.258   1.210
 3114WAT    EPW13164   6.858   5.206   1.268
 3115WAT      O13165   5.028   6.206   2.062
 3115WAT     H113166   4.961   6.254   2.090
 3115WAT     H213167   5.096   6.260   2.065
 3115WAT    EPW13168   5.028   6.221   2.067
 3116WAT      O13169   5.793   5.577   3.072
 3116WAT     H113170   5.744   5.634   3.116
 3116WAT     H213171   5.790   5.606   2.990
 3116WAT    EPW13172   5.785   5.590   3.066
 3117WAT      O13173   6.903   5.645   2.533
 3117WAT     H113174   6.924   5.565   2.506
 3117WAT     H213175   6.818   5.651   2.514
 3117WAT    EPW13176   6.893   5.634   2.526
 3118WAT      O13177   5.035   5.874   1.573
 3118WAT     H113178   5.016   5.790   1.588
 3118WAT     H213179   5.101   5.870   1.516
 3118WAT    EPW13180   5.042   5.861   1.567
 3119WAT      O13181   6.671   5.163   1.506
 3119WAT     H113182   6.745   5.122   1.525
 3119WAT     H213183   6.697   5.235   1.463
 3119WAT    EPW13184   6.685   5.168   1.502
 3120WAT      O13185   6.065   6.412   1.963
 3120WAT     H113186   6.013   6.475   1.934
 3120WAT     H213187   6.096   6.375   1.890
 3120WAT    EPW13188   6.062   6.416   1.948
 3121WAT      O13189   5.052   6.290   1.530
 3121WAT     H113190   5.107   6.347   1.567
 3121WAT     H213191   5.029   6.239   1.597
 3121WAT    EPW13192   5.057   6.291   1.545
 3122WAT      O13193   5.472   6.190   2.239
 3122WAT     H113194   5.519   6.219   2.307
 3122WAT     H213195   5.530   6.143   2.194
 3122WAT    EPW13196   5.488   6.188   2.242
 3123WAT      O13197   6.316   5.392   2.013
 3123WAT     H113198   6.350   5.407   2.092
 3123WAT     H213199   6.271   5.318   2.024
 3123WAT    EPW13200   6.314   5.383   2.026
 3124WAT      O13201   5.035   6.135   1.293
 3124WAT     H113202   5.111   6.092   1.299
 3124WAT     H213203   5.036   6.189   1.362
 3124WAT    EPW13204   5.046   6.137   1.304
 3125WAT      O13205   5.129   5.957   2.094
 3125WAT     H113206   5.172   5.945   2.019
 3125WAT     H213207   5.108   6.042   2.091
 3125WAT    EPW13208   5.132   5.968   2.082
 3126WAT      O13209   5.764   5.314   1.459
 3126WAT     H113210   5.763   5.302   1.372
 3126WAT     H213211   5.745   5.399   1.468
 3126WAT    EPW13212   5.761   5.325   1.447
 3127WAT      O13213   6.669   6.557   2.608
 3127WAT     H113214   6.602   6.608   2.630
 3127WAT     H213215   6.675   6.567   2.522
 3127WAT    EPW13216   6.660   6.566   2.599
 3128WAT      O13217   5.537   6.309   1.922
 3128WAT     H113218   5.550   6.393   1.940
 3128WAT     H213219   5.604   6.269   1.961
 3128WAT    EPW13220   5.549   6.316   1.930
 3129WAT      O13221   5.350   5.657   2.908
 3129WAT     H113222   5.297   5.607   2.955
 3129WAT     H213223   5.352   5.618   2.830
 3129WAT    EPW13224   5.343   5.644   2.903
 3130WAT      O13225   5.399   5.597   1.422
 3130WAT     H113226   5.386   5.552   1.496
 3130WAT     H213227   5.341   5.563   1.367
 3130WAT    EPW13228   5.388   5.585   1.425
 3131WAT      O13229   5.416   5.780   2.082
 3131WAT     H113230   5.337   5.774   2.044
 3131WAT     H213231   5.423   5.705   2.126
 3131WAT    EPW13232   5.405   5.768   2.083
 3132WAT      O13233   5.459   5.754   2.429
 3132WAT     H113234   5.461   5.686   2.374
 3132WAT     H213235   5.394   5.803   2.397
 3132WAT    EPW13236   5.449   5.751   2.416
 3133WAT      O13237   6.448   5.525   2.268
 3133WAT     H113238   6.382   5.558   2.315
 3133WAT     H213239   6.467   5.588   2.211
 3133WAT    EPW13240   6.441   5.539   2.267
 3134WAT      O13241   5.869   6.631   2.368
 3134WAT     H113242   5.841   6.567   2.316
 3134WAT     H213243   5.848   6.704   2.324
 3134WAT    EPW13244   5.861   6.633   2.354
 3135WAT      O13245   6.113   5.116   2.611
 3135WAT     H113246   6.127   5.033   2.587
 3135WAT     H213247   6.150   5.121   2.690
 3135WAT    EPW13248   6.120   5.104   2.619
 3136WAT      O13249   6.267   5.322   1.619
 3136WAT     H113250   6.316   5.394   1.612
 3136WAT     H213251   6.188   5.348   1.593
 3136WAT    EPW13252   6.263   5.336   1.614
 3137WAT      O13253   5.238   5.889   2.985
 3137WAT     H113254   5.235   5.939   2.913
 3137WAT     H213255   5.272   5.814   2.955
 3137WAT    EPW13256   5.243   5.885   2.970
 3138WAT      O13257   6.399   6.110   2.810
 3138WAT     H113258   6.447   6.182   2.820
 3138WAT     H213259   6.438   6.067   2.745
 3138WAT    EPW13260   6.412   6.114   2.802
 3139WAT      O13261   5.828   6.394   2.928
 3139WAT     H113262   5.864   6.376   3.006
 3139WAT     H213263   5.785   6.321   2.908
 3139WAT    EPW13264   5.827   6.381   2.937
 3140WAT      O13265   5.926   5.469   2.192
 3140WAT     H113266   5.974   5.539   2.213
 3140WAT     H213267   5.963   5.404   2.237
 3140WAT    EPW13268   5.938   5.470   2.202
 3141WAT      O13269   6.144   5.786   1.419
 3141WAT     H113270   6.144   5.858   1.370
 3141WAT     H213271   6.081   5.799   1.477
 3141WAT    EPW13272   6.135   5.799   1.421
 3142WAT      O13273   6.642   6.173   1.817
 3142WAT     H113274   6.677   6.138   1.889
 3142WAT     H213275   6.641   6.107   1.760
 3142WAT    EPW13276   6.647   6.158   1.819
 3143WAT      O13277   6.246   6.479   2.202
 3143WAT     H113278   6.186   6.450   2.146
 3143WAT     H213279   6.301   6.525   2.151
 3143WAT    EPW13280   6.245   6.482   2.186
 3144WAT      O13281   6.247   6.165   2.142
 3144WAT     H113282   6.168   6.187   2.169
 3144WAT     H213283   6.273   6.105   2.200
 3144WAT    EPW13284   6.239   6.159   2.154
 3145WAT      O13285   5.637   6.646   1.587
 3145WAT     H113286   5.622   6.568   1.624
 3145WAT     H213287   5.706   6.631   1.535
 3145WAT    EPW13288   5.645   6.632   1.584
 3146WAT      O13289   5.604   5.020   1.385
 3146WAT     H113290   5.613   5.009   1.471
 3146WAT     H213291   5.533   5.071   1.379
 3146WAT    EPW13292   5.595   5.026   1.397
 3147WAT      O13293   5.866   6.597   1.427
 3147WAT     H113294   5.928   6.614   1.486
 3147WAT     H213295   5.869   6.666   1.374
 3147WAT    EPW13296   5.876   6.610   1.428
 3148WAT      O13297   6.573   5.964   2.626
 3148WAT     H113298   6.579   5.977   2.540
 3148WAT     H213299   6.649   5.996   2.657
 3148WAT    EPW13300   6.585   5.971   2.618
 3149WAT      O13301   6.193   6.499   3.054
 3149WAT     H113302   6.209   6.528   3.135
 3149WAT     H213303   6.219   6.565   3.004
 3149WAT    EPW13304   6.199   6.513   3.059
 3150WAT      O13305   6.677   4.994   2.925
 3150WAT     H113306   6.613   4.954   2.881
 3150WAT     H213307   6.679   4.951   3.001
 3150WAT    EPW13308   6.668   4.982   2.930
 3151WAT      O13309   5.316   5.851   1.510
 3151WAT     H113310   5.348   5.773   1.487
 3151WAT     H213311   5.381   5.888   1.555
 3151WAT    EPW13312   5.330   5.845   1.513
 3152WAT      O13313   6.147   5.945   2.586
 3152WAT     H113314   6.131   6.006   2.647
 3152WAT     H213315   6.200   5.889   2.627
 3152WAT    EPW13316   6.152   5.946   2.601
 3153WAT      O13317   5.016   5.017   1.606
 3153WAT     H113318   5.029   4.946   1.557
 3153WAT     H213319   4.979   4.985   1.679
 3153WAT    EPW13320   5.012   5.002   1.610
 3154WAT      O13321   5.985   5.785   1.652
 3154WAT     H113322   5.991   5.850   1.710
 3154WAT     H213323   5.966   5.715   1.701
 3154WAT    EPW13324   5.983   5.784   1.668
 3155WAT      O13325   6.508   6.218   2.239
 3155WAT     H113326   6.460   6.248   2.172
 3155WAT     H213327   6.472   6.140   2.257
 3155WAT    EPW13328   6.495   6.211   2.232
 3156WAT      O13329   5.435   5.237   1.303
 3156WAT     H113330   5.383   5.242   1.233
 3156WAT     H213331   5.513   5.261   1.274
 3156WAT    EPW13332   5.439   5.241   1.289
 3157WAT      O13333   5.907   5.990   2.095
 3157WAT     H113334   5.823   5.970   2.103
 3157WAT     H213335   5.940   5.973   2.175
 3157WAT    EPW13336   5.899   5.984   2.108
 3158WAT      O13337   5.582   6.663   1.184
 3158WAT     H113338   5.626   6.593   1.213
 3158WAT     H213339   5.603   6.725   1.241
 3158WAT    EPW13340   5.592   6.662   1.197
 3159WAT      O13341   5.292   5.959   2.327
 3159WAT     H113342   5.364   6.008   2.323
 3159WAT     H213343   5.265   5.956   2.244
 3159WAT    EPW13344   5.299   5.966   2.314
 3160WAT      O13345   5.615   5.476   2.000
 3160WAT     H113346   5.700   5.457   2.010
 3160WAT     H213347   5.578   5.398   1.987
 3160WAT    EPW13348   5.622   5.462   2.000
 3161WAT      O13349   6.877   6.634   1.433
 3161WAT     H113350   6.946   6.588   1.408
 3161WAT     H213351   6.823   6.575   1.467
 3161WAT    EPW13352   6.879   6.619   1.434
 3162WAT      O13353   5.097   5.610   1.666
 3162WAT     H113354   5.146   5.581   1.732
 3162WAT     H213355   5.110   5.551   1.603
 3162WAT    EPW13356   5.106   5.597   1.666
 3163WAT      O13357   6.601   5.912   2.351
 3163WAT     H113358   6.600   5.834   2.391
 3163WAT     H213359   6.517   5.935   2.350
 3163WAT    EPW13360   6.588   5.904   2.357
 3164WAT      O13361   5.550   5.753   1.214
 3164WAT     H113362   5.489   5.713   1.262
 3164WAT     H213363   5.511   5.765   1.137
 3164WAT    EPW13364   5.535   5.749   1.210
 3165WAT      O13365   5.232   6.064   2.755
 3165WAT     H113366   5.189   6.012   2.699
 3165WAT     H213367   5.196   6.143   2.740
 3165WAT    EPW13368   5.220   6.068   2.744
 3166WAT      O13369   6.726   5.919   2.095
 3166WAT     H113370   6.698   5.959   2.167
 3166WAT     H213371   6.812   5.913   2.107
 3166WAT    EPW13372   6.735   5.924   2.107
 3167WAT      O13373   5.695   5.599   1.485
 3167WAT     H113374   5.722   5.682   1.492
 3167WAT     H213375   5.609   5.607   1.476
 3167WAT    EPW13376   5.686   5.613   1.485
 3168WAT      O13377   6.492   5.312   2.949
 3168WAT     H113378   6.440   5.357   3.001
 3168WAT     H213379   6.456   5.232   2.948
 3168WAT    EPW13380   6.479   5.307   2.956
 3169WAT      O13381   5.043   5.196   2.139
 3169WAT     H113382   5.048   5.231   2.059
 3169WAT     H213383   5.119   5.220   2.176
 3169WAT    EPW13384   5.055   5.205   2.133
 3170WAT      O13385   6.839   6.482   2.148
 3170WAT     H113386   6.868   6.508   2.069
 3170WAT     H213387   6.909   6.492   2.199
 3170WAT    EPW13388   6.854   6.488   2.144
 3171WAT      O13389   6.342   5.668   2.956
 3171WAT     H113390   6.349   5.679   3.043
 3171WAT     H213391   6.278   5.724   2.934
 3171WAT    EPW13392   6.333   5.678   2.966
 3172WAT      O13393   6.568   5.700   2.793
 3172WAT     H113394   6.600   5.779   2.813
 3172WAT     H213395   6.531   5.673   2.867
 3172WAT    EPW13396   6.568   5.708   2.807
 3173WAT      O13397   6.500   6.343   1.346
 3173WAT     H113398   6.533   6.262   1.349
 3173WAT     H213399   6.424   6.336   1.389
 3173WAT    EPW13400   6.494   6.330   1.353
 3174WAT      O13401   6.548   5.526   1.912
 3174WAT     H113402   6.474   5.494   1.943
 3174WAT     H213403   6.548   5.609   1.940
 3174WAT    EPW13404   6.537   5.534   1.920
 3175WAT      O13405   6.838   5.755   3.066
 3175WAT     H113406   6.833   5.720   2.986
 3175WAT     H213407   6.912   5.801   3.064
 3175WAT    EPW13408   6.848   5.756   3.054
 3176WAT      O13409   6.792   6.122   2.687
 3176WAT     H113410   6.855   6.067   2.661
 3176WAT     H213411   6.786   6.179   2.621
 3176WAT    EPW13412   6.800   6.122   2.673
 3177WAT      O13413   6.237   6.130   1.286
 3177WAT     H113414   6.306   6.079   1.269
 3177WAT     H213415   6.196   6.135   1.210
 3177WAT    EPW13416   6.241   6.123   1.272
 3178WAT      O13417   5.705   6.245   2.416
 3178WAT     H113418   5.676   6.304   2.473
 3178WAT     H213419   5.711   6.289   2.342
 3178WAT    EPW13420   5.702   6.261   2.414
 3179WAT      O13421   5.503   6.140   2.756
 3179WAT     H113422   5.423   6.111   2.773
 3179WAT     H213423   5.494   6.227   2.757
 3179WAT    EPW13424   5.490   6.149   2.759
 3180WAT      O13425   6.439   5.159   2.658
 3180WAT     H113426   6.514   5.204   2.651
 3180WAT     H213427   6.383   5.206   2.611
 3180WAT    EPW13428   6.442   5.173   2.650
 3181WAT      O13429   5.957   5.888   2.366
 3181WAT     H113430   6.005   5.925   2.428
 3181WAT     H213431   5.875   5.901   2.391
 3181WAT    EPW13432   5.952   5.895   2.379
 3182WAT      O13433   5.628   5.448   2.640
 3182WAT     H113434   5.644   5.373   2.682
 3182WAT     H213435   5.624   5.423   2.556
 3182WAT    EPW13436   5.630   5.433   2.634
 3183WAT      O13437   5.883   6.627   1.888
 3183WAT     H113438   5.938   6.695   1.894
 3183WAT     H213439   5.848   6.635   1.809
 3183WAT    EPW13440   5.886   6.638   1.877
 3184WAT      O13441   6.568   4.957   2.425
 3184WAT     H113442   6.540   5.040   2.420
 3184WAT     H213443   6.639   4.962   2.474
 3184WAT    EPW13444   6.574   4.970   2.431
 3185WAT      O13445   5.803   5.029   2.628
 3185WAT     H113446   5.874   5.061   2.587
 3185WAT     H213447   5.827   4.948   2.650
 3185WAT    EPW13448   5.817   5.021   2.625
 3186WAT      O13449   5.702   6.450   2.227
 3186WAT     H113450   5.639   6.508   2.209
 3186WAT     H213451   5.727   6.421   2.149
 3186WAT    EPW13452   5.696   6.454   2.213
 3187WAT      O13453   6.133   6.113   2.926
 3187WAT     H113454   6.208   6.142   2.894
 3187WAT     H213455   6.078   6.118   2.858
 3187WAT    EPW13456   6.136   6.118   2.911
 3188WAT      O13457   6.524   6.368   2.777
 3188WAT     H113458   6.558   6.395   2.852
 3188WAT     H213459   6.553   6.426   2.719
 3188WAT    EPW13460   6.533   6.381   2.779
 3189WAT      O13461   6.710   5.583   1.310
 3189WAT     H113462   6.748   5.650   1.270
 3189WAT     H213463   6.626   5.605   1.314
 3189WAT    EPW13464   6.703   5.596   1.305
 3190WAT      O13465   5.861   5.927   1.219
 3190WAT     H113466   5.781   5.910   1.190
 3190WAT     H213467   5.858   6.012   1.238
 3190WAT    EPW13468   5.849   5.937   1.217
 3191WAT      O13469   5.454   5.534   2.234
 3191WAT     H113470   5.498   5.524   2.159
 3191WAT     H213471   5.509   5.503   2.294
 3191WAT    EPW13472   5.469   5.528   2.232
 3192WAT      O13473   6.256   5.444   2.793
 3192WAT     H113474   6.191   5.491   2.828
 3192WAT     H213475   6.312   5.435   2.859
 3192WAT    EPW13476   6.255   5.450   2.808
 3193WAT      O13477   6.225   5.598   2.423
 3193WAT     H113478   6.255   5.640   2.493
 3193WAT     H213479   6.228   5.514   2.446
 3193WAT    EPW13480   6.230   5.592   2.437
 3194WAT      O13481   5.967   6.615   2.815
 3194WAT     H113482   6.015   6.555   2.774
 3194WAT     H213483   5.932   6.570   2.882
 3194WAT    EPW13484   5.969   6.599   2.819
 3195WAT      O13485   6.479   5.543   1.648
 3195WAT     H113486   6.500   5.522   1.730
 3195WAT     H213487   6.555   5.569   1.614
 3195WAT    EPW13488   6.494   5.544   1.655
 3196WAT      O13489   5.809   5.032   2.238
 3196WAT     H113490   5.726   5.018   2.262
 3196WAT     H213491   5.805   5.036   2.151
 3196WAT    EPW13492   5.796   5.031   2.229
 3197WAT      O13493   6.582   5.151   1.795
 3197WAT     H113494   6.510   5.104   1.812
 3197WAT     H213495   6.565   5.185   1.717
 3197WAT    EPW13496   6.569   5.149   1.786
 3198WAT      O13497   6.626   5.945   1.633
 3198WAT     H113498   6.673   5.872   1.629
 3198WAT     H213499   6.544   5.917   1.626
 3198WAT    EPW13500   6.621   5.930   1.631
 3199WAT      O13501   5.973   6.136   2.717
 3199WAT     H113502   5.893   6.130   2.752
 3199WAT     H213503   5.980   6.221   2.698
 3199WAT    EPW13504   5.962   6.148   2.720
 3200WAT      O13505   5.065   5.072   2.842
 3200WAT     H113506   5.051   5.152   2.809
 3200WAT     H213507   4.987   5.048   2.871
 3200WAT    EPW13508   5.052   5.080   2.841
 3201WAT      O13509   5.556   6.757   2.249
 3201WAT     H113510   5.557   6.763   2.336
 3201WAT     H213511   5.513   6.682   2.234
 3201WAT    EPW13512   5.550   6.747   2.260
 3202WAT      O13513   5.372   5.347   1.564
 3202WAT     H113514   5.384   5.314   1.485
 3202WAT     H213515   5.291   5.322   1.584
 3202WAT    EPW13516   5.362   5.338   1.556
 3203WAT      O13517   6.247   6.062   1.869
 3203WAT     H113518   6.255   6.096   1.949
 3203WAT     H213519   6.264   5.977   1.881
 3203WAT    EPW13520   6.251   6.054   1.882
 3204WAT      O13521   6.000   5.989   1.825
 3204WAT     H113522   5.970   5.958   1.901
 3204WAT     H213523   6.069   6.037   1.849
 3204WAT    EPW13524   6.006   5.992   1.840
 3205WAT      O13525   6.022   6.401   2.628
 3205WAT     H113526   6.091   6.390   2.681
 3205WAT     H213527   6.035   6.480   2.594
 3205WAT    EPW13528   6.034   6.411   2.631
 3206WAT      O13529   6.839   5.662   2.809
 3206WAT     H113530   6.754   5.650   2.822
 3206WAT     H213531   6.855   5.623   2.733
 3206WAT    EPW13532   6.829   5.654   2.800
 3207WAT      O13533   6.291   5.729   2.667
 3207WAT     H113534   6.265   5.657   2.709
 3207WAT     H213535   6.373   5.740   2.694
 3207WAT    EPW13536   6.299   5.720   2.677
 3208WAT      O13537   5.232   6.707   2.793
 3208WAT     H113538   5.167   6.650   2.803
 3208WAT     H213539   5.195   6.784   2.808
 3208WAT    EPW13540   5.217   6.710   2.797
 3209WAT      O13541   6.084   5.848   2.985
 3209WAT     H113542   6.116   5.916   2.942
 3209WAT     H213543   6.014   5.880   3.026
 3209WAT    EPW13544   6.078   5.862   2.985
 3210WAT      O13545   6.393   6.685   2.078
 3210WAT     H113546   6.347   6.749   2.116
 3210WAT     H213547   6.463   6.677   2.129
 3210WAT    EPW13548   6.396   6.693   2.091
 3211WAT      O13549   6.063   6.194   2.371
 3211WAT     H113550   5.993   6.234   2.406
 3211WAT     H213551   6.130   6.237   2.405
 3211WAT    EPW13552   6.062   6.206   2.381
 3212WAT      O13553   6.600   6.453   3.029
 3212WAT     H113554   6.678   6.414   3.038
 3212WAT     H213555   6.553   6.420   3.095
 3212WAT    EPW13556   6.605   6.443   3.040
 3213WAT      O13557   5.369   5.548   2.606
 3213WAT     H113558   5.407   5.610   2.557
 3213WAT     H213559   5.437   5.500   2.635
 3213WAT    EPW13560   5.385   5.550   2.603
 3214WAT      O13561   5.147   5.393   2.534
 3214WAT     H113562   5.155   5.376   2.448
 3214WAT     H213563   5.222   5.433   2.553
 3214WAT    EPW13564   5.159   5.396   2.524
 3215WAT      O13565   6.703   5.657   1.578
 3215WAT     H113566   6.713   5.651   1.491
 3215WAT     H213567   6.777   5.623   1.609
 3215WAT    EPW13568   6.715   5.651   1.569
 3216WAT      O13569   5.402   5.134   2.775
 3216WAT     H113570   5.394   5.049   2.795
 3216WAT     H213571   5.371   5.138   2.693
 3216WAT    EPW13572   5.397   5.122   2.766
 3217WAT      O13573   6.095   6.353   1.688
 3217WAT     H113574   6.074   6.436   1.672
 3217WAT     H213575   6.017   6.315   1.700
 3217WAT    EPW13576   6.080   6.360   1.688
 3218WAT      O13577   6.613   5.671   2.513
 3218WAT     H113578   6.613   5.585   2.526
 3218WAT     H213579   6.620   5.704   2.594
 3218WAT    EPW13580   6.614   5.663   2.527
 3219WAT      O13581   5.087   5.915   2.556
 3219WAT     H113582   5.119   5.937   2.478
 3219WAT     H213583   5.077   5.829   2.550
 3219WAT    EPW13584   5.090   5.906   2.544
 3220WAT      O13585   5.232   5.509   1.218
 3220WAT     H113586   5.165   5.510   1.273
 3220WAT     H213587   5.242   5.424   1.199
 3220WAT    EPW13588   5.224   5.496   1.223
 3221WAT      O13589   6.201   5.151   2.891
 3221WAT     H113590   6.210   5.222   2.941
 3221WAT     H213591   6.137   5.107   2.931
 3221WAT    EPW13592   6.193   5.155   2.905
 3222WAT      O13593   6.100   5.170   1.977
 3222WAT     H113594   6.030   5.222   1.971
 3222WAT     H213595   6.104   5.132   1.898
 3222WAT    EPW13596   6.091   5.172   1.964
 3223WAT      O13597   5.631   6.379   1.329
 3223WAT     H113598   5.675   6.387   1.404
 3223WAT     H213599   5.551   6.358   1.355
 3223WAT    EPW13600   5.626   6.377   1.344
 3224WAT      O13601   6.460   5.222   2.257
 3224WAT     H113602   6.546   5.232   2.271
 3224WAT     H213603   6.423   5.277   2.313
 3224WAT    EPW13604   6.467   5.231   2.267
 3225WAT      O13605   5.563   5.844   2.694
 3225WAT     H113606   5.523   5.922   2.702
 3225WAT     H213607   5.522   5.807   2.627
 3225WAT    EPW13608   5.551   5.850   2.686
 3226WAT      O13609   6.491   5.750   2.106
 3226WAT     H113610   6.557   5.804   2.122
 3226WAT     H213611   6.456   5.781   2.032
 3226WAT    EPW13612   6.495   5.762   2.097
 3227WAT      O13613   6.522   6.556   1.687
 3227WAT     H113614   6.504   6.491   1.742
 3227WAT     H213615   6.593   6.529   1.644
 3227WAT    EPW13616   6.530   6.543   1.688
 3228WAT      O13617   5.364   6.286   1.389
 3228WAT     H113618   5.340   6.256   1.467
 3228WAT     H213619   5.361   6.216   1.338
 3228WAT    EPW13620   5.360   6.271   1.393
 3229WAT      O13621   5.646   6.111   1.264
 3229WAT     H113622   5.564   6.084   1.278
 3229WAT     H213623   5.643   6.196   1.282
 3229WAT    EPW13624   5.633   6.119   1.268
 3230WAT      O13625   5.606   5.142   2.439
 3230WAT     H113626   5.519   5.150   2.447
 3230WAT     H213627   5.628   5.091   2.506
 3230WAT    EPW13628   5.596   5.136   2.451
 3231WAT      O13629   6.808   5.006   2.572
 3231WAT     H113630   6.802   5.001   2.659
 3231WAT     H213631   6.876   4.955   2.553
 3231WAT    EPW13632   6.817   4.998   2.582
 3232WAT      O13633   6.016   5.217   2.277
 3232WAT     H113634   5.942   5.171   2.288
 3232WAT     H213635   6.073   5.177   2.329
 3232WAT    EPW13636   6.014   5.204   2.286
 3233WAT      O13637   6.289   6.302   2.456
 3233WAT     H113638   6.310   6.332   2.535
 3233WAT     H213639   6.283   6.374   2.407
 3233WAT    EPW13640   6.291   6.317   2.460
 3234WAT      O13641   6.243   6.723   2.880
 3234WAT     H113642   6.167   6.721   2.836
 3234WAT     H213643   6.260   6.808   2.889
 3234WAT    EPW13644   6.234   6.735   2.875
 3235WAT      O13645   5.766   5.650   2.797
 3235WAT     H113646   5.734   5.592   2.740
 3235WAT     H213647   5.731   5.725   2.773
 3235WAT    EPW13648   5.756   5.652   2.785
 3236WAT      O13649   5.846   4.975   1.260
 3236WAT     H113650   5.854   5.000   1.177
 3236WAT     H213651   5.772   5.013   1.286
 3236WAT    EPW13652   5.836   4.984   1.251
 3237WAT      O13653   6.771   6.166   2.401
 3237WAT     H113654   6.767   6.079   2.388
 3237WAT     H213655   6.701   6.196   2.358
 3237WAT    EPW13656   6.760   6.157   2.393
 3238WAT      O13657   5.610   6.685   2.822
 3238WAT     H113658   5.614   6.698   2.908
 3238WAT     H213659   5.675   6.629   2.806
 3238WAT    EPW13660   5.620   6.679   2.833
 3239WAT      O13661   6.581   6.492   2.281
 3239WAT     H113662   6.634   6.483   2.212
 3239WAT     H213663   6.542   6.414   2.287
 3239WAT    EPW13664   6.583   6.479   2.272
 3240WAT      O13665   5.328   5.150   2.504
 3240WAT     H113666   5.294   5.074   2.481
 3240WAT     H213667   5.258   5.203   2.511
 3240WAT    EPW13668   5.313   5.147   2.502
 3241WAT      O13669   6.232   5.036   2.202
 3241WAT     H113670   6.299   5.090   2.215
 3241WAT     H213671   6.182   5.078   2.145
 3241WAT    EPW13672   6.235   5.050   2.195
 3242WAT      O13673   5.369   6.524   2.958
 3242WAT     H113674   5.429   6.567   3.005
 3242WAT     H213675   5.333   6.586   2.909
 3242WAT    EPW13676   5.373   6.539   2.958
 3243WAT      O13677   6.168   5.617   1.951
 3243WAT     H113678   6.223   5.556   1.981
 3243WAT     H213679   6.126   5.643   2.023
 3243WAT    EPW13680   6.170   5.612   1.966
 3244WAT      O13681   5.193   5.482   1.900
 3244WAT     H113682   5.156   5.512   1.973
 3244WAT     H213683   5.247   5.419   1.928
 3244WAT    EPW13684   5.196   5.477   1.915
 3245WAT      O13685   5.162   6.323   2.651
 3245WAT     H113686   5.105   6.364   2.702
 3245WAT     H213687   5.235   6.369   2.660
 3245WAT    EPW13688   5.164   6.336   2.660
 3246WAT      O13689   6.365   5.800   1.607
 3246WAT     H113690   6.372   5.715   1.626
 3246WAT     H213691   6.283   5.808   1.580
 3246WAT    EPW13692   6.354   5.789   1.606
 3247WAT      O13693   5.341   6.649   1.528
 3247WAT     H113694   5.326   6.665   1.444
 3247WAT     H213695   5.427   6.657   1.536
 3247WAT    EPW13696   5.351   6.653   1.517
 3248WAT      O13697   5.757   5.889   1.501
 3248WAT     H113698   5.767   5.903   1.416
 3248WAT     H213699   5.839   5.883   1.531
 3248WAT    EPW13700   5.771   5.890   1.493
 3249WAT      O13701   6.673   6.695   1.249
 3249WAT     H113702   6.737   6.682   1.307
 3249WAT     H213703   6.639   6.616   1.238
 3249WAT    EPW13704   6.678   6.682   1.256
 3250WAT      O13705   6.693   5.937   2.923
 3250WAT     H113706   6.756   5.920   2.980
 3250WAT     H213707   6.734   5.977   2.857
 3250WAT    EPW13708   6.708   5.941   2.921
 3251WAT      O13709   6.281   6.322   1.481
 3251WAT     H113710   6.256   6.309   1.564
 3251WAT     H213711   6.249   6.252   1.439
 3251WAT    EPW13712   6.272   6.310   1.487
 3252WAT      O13713   6.755   5.394   2.996
 3252WAT     H113714   6.736   5.458   3.052
 3252WAT     H213715   6.683   5.345   2.996
 3252WAT    EPW13716   6.742   5.396   3.004
 3253WAT      O13717   6.745   5.488   2.293
 3253WAT     H113718   6.662   5.513   2.286
 3253WAT     H213719   6.740   5.404   2.316
 3253WAT    EPW13720   6.732   5.479   2.296
 3254WAT      O13721   5.671   5.186   2.813
 3254WAT     H113722   5.695   5.129   2.752
 3254WAT     H213723   5.587   5.168   2.827
 3254WAT    EPW13724   5.662   5.175   2.806
 3255WAT      O13725   6.434   5.948   3.058
 3255WAT     H113726   6.521   5.945   3.054
 3255WAT     H213727   6.412   5.990   2.985
 3255WAT    EPW13728   6.444   5.954   3.047
 3256WAT      O13729   5.409   6.531   2.176
 3256WAT     H113730   5.401   6.450   2.145
 3256WAT     H213731   5.365   6.579   2.119
 3256WAT    EPW13732   5.402   6.526   2.163
 3257WAT      O13733   5.969   6.143   1.424
 3257WAT     H113734   6.041   6.108   1.389
 3257WAT     H213735   5.966   6.223   1.390
 3257WAT    EPW13736   5.979   6.149   1.414
 3258WAT      O13737   5.166   6.755   2.534
 3258WAT     H113738   5.216   6.750   2.606
 3258WAT     H213739   5.185   6.682   2.491
 3258WAT    EPW13740   5.177   6.743   2.538
 3259WAT      O13741   6.091   5.698   0.315
 3259WAT     H113742   6.039   5.758   0.352
 3259WAT     H213743   6.131   5.662   0.384
 3259WAT    EPW13744   6.089   5.702   0.331
 3260WAT      O13745   5.072   6.386   0.487
 3260WAT     H113746   5.085   6.358   0.568
 3260WAT     H213747   5.011   6.332   0.456
 3260WAT    EPW13748   5.065   6.374   0.494
 3261WAT      O13749   5.729   6.138   0.993
 3261WAT     H113750   5.706   6.138   1.077
 3261WAT     H213751   5.655   6.124   0.951
 3261WAT    EPW13752   5.715   6.136   0.999
 3262WAT      O13753   5.667   5.399   0.441
 3262WAT     H113754   5.735   5.401   0.387
 3262WAT     H213755   5.663   5.315   0.466
 3262WAT    EPW13756   5.677   5.387   0.437
 3263WAT      O13757   5.728   6.458   0.720
 3263WAT     H113758   5.741   6.534   0.679
 3263WAT     H213759   5.807   6.421   0.722
 3263WAT    EPW13760   5.741   6.463   0.714
 3264WAT      O13761   6.040   5.604   0.925
 3264WAT     H113762   5.955   5.594   0.907
 3264WAT     H213763   6.043   5.679   0.970
 3264WAT    EPW13764   6.028   5.614   0.929
 3265WAT      O13765   6.495   4.900   0.836
 3265WAT     H113766   6.480   4.977   0.798
 3265WAT     H213767   6.418   4.878   0.871
 3265WAT    EPW13768   6.482   4.908   0.836
 3266WAT      O13769   5.062   5.614   0.208
 3266WAT     H113770   5.037   5.697   0.201
 3266WAT     H213771   4.996   5.576   0.250
 3266WAT    EPW13772   5.049   5.621   0.213
 3267WAT      O13773   5.365   5.096   0.257
 3267WAT     H113774   5.313   5.033   0.226
 3267WAT     H213775   5.424   5.052   0.304
 3267WAT    EPW13776   5.366   5.080   0.260
 3268WAT      O13777   5.696   5.309   1.187
 3268WAT     H113778   5.707   5.264   1.113
 3268WAT     H213779   5.725   5.389   1.167
 3268WAT    EPW13780   5.702   5.314   1.173
 3269WAT      O13781   6.312   6.638   0.528
 3269WAT     H113782   6.387   6.684   0.527
 3269WAT     H213783   6.300   6.617   0.444
 3269WAT    EPW13784   6.321   6.642   0.515
 3270WAT      O13785   5.269   5.269   1.085
 3270WAT     H113786   5.191   5.230   1.078
 3270WAT     H213787   5.318   5.228   1.026
 3270WAT    EPW13788   5.265   5.257   1.076
 3271WAT      O13789   5.934   5.033   1.002
 3271WAT     H113790   5.952   4.952   0.975
 3271WAT     H213791   5.920   5.077   0.928
 3271WAT    EPW13792   5.934   5.028   0.987
 3272WAT      O13793   5.512   6.708   0.645
 3272WAT     H113794   5.542   6.701   0.727
 3272WAT     H213795   5.450   6.647   0.640
 3272WAT    EPW13796   5.508   6.698   0.656
 3273WAT      O13797   6.749   5.194   0.454
 3273WAT     H113798   6.824   5.201   0.411
 3273WAT     H213799   6.755   5.116   0.494
 3273WAT    EPW13800   6.761   5.183   0.454
 3274WAT      O13801   5.004   5.324   0.844
 3274WAT     H113802   5.003   5.382   0.909
 3274WAT     H213803   5.063   5.355   0.788
 3274WAT    EPW13804   5.013   5.337   0.845
 3275WAT      O13805   6.238   6.357   0.898
 3275WAT     H113806   6.234   6.395   0.977
 3275WAT     H213807   6.323   6.353   0.881
 3275WAT    EPW13808   6.250   6.362   0.907
 3276WAT      O13809   5.312   6.524   0.557
 3276WAT     H113810   5.242   6.473   0.570
 3276WAT     H213811   5.338   6.504   0.476
 3276WAT    EPW13812   5.305   6.514   0.547
 3277WAT      O13813   6.083   6.673   0.648
 3277WAT     H113814   6.160   6.665   0.607
 3277WAT     H213815   6.025   6.661   0.584
 3277WAT    EPW13816   6.086   6.670   0.633
 3278WAT      O13817   5.448   6.409   0.814
 3278WAT     H113818   5.532   6.415   0.791
 3278WAT     H213819   5.444   6.449   0.891
 3278WAT    EPW13820   5.460   6.416   0.822
 3279WAT      O13821   5.644   5.960   0.289
 3279WAT     H113822   5.661   5.939   0.371
 3279WAT     H213823   5.579   5.907   0.267
 3279WAT    EPW13824   5.637   5.949   0.298
 3280WAT      O13825   6.267   5.352   0.640
 3280WAT     H113826   6.257   5.384   0.721
 3280WAT     H213827   6.208   5.288   0.636
 3280WAT    EPW13828   6.257   5.347   0.651
 3281WAT      O13829   5.719   5.954   0.548
 3281WAT     H113830   5.724   6.039   0.568
 3281WAT     H213831   5.691   5.917   0.621
 3281WAT    EPW13832   5.716   5.961   0.561
 3282WAT      O13833   6.337   6.024   0.461
 3282WAT     H113834   6.285   5.982   0.518
 3282WAT     H213835   6.324   6.108   0.479
 3282WAT    EPW13836   6.327   6.030   0.472
 3283WAT      O13837   5.001   6.391   1.169
 3283WAT     H113838   5.077   6.426   1.194
 3283WAT     H213839   5.019   6.306   1.163
 3283WAT    EPW13840   5.015   6.384   1.172
 3284WAT      O13841   6.639   5.370   0.754
 3284WAT     H113842   6.716   5.347   0.788
 3284WAT     H213843   6.591   5.391   0.824
 3284WAT    EPW13844   6.643   5.370   0.770
 3285WAT      O13845   5.207   5.408   0.360
 3285WAT     H113846   5.292   5.430   0.355
 3285WAT     H213847   5.169   5.465   0.307
 3285WAT    EPW13848   5.214   5.420   0.351
 3286WAT      O13849   6.886   6.518   0.899
 3286WAT     H113850   6.817   6.549   0.854
 3286WAT     H213851   6.849   6.473   0.963
 3286WAT    EPW13852   6.870   6.516   0.902
 3287WAT      O13853   5.793   5.577   1.171
 3287WAT     H113854   5.744   5.634   1.216
 3287WAT     H213855   5.790   5.606   1.089
 3287WAT    EPW13856   5.785   5.590   1.166
 3288WAT      O13857   6.903   5.645   0.633
 3288WAT     H113858   6.924   5.565   0.605
 3288WAT     H213859   6.818   5.651   0.614
 3288WAT    EPW13860   6.893   5.634   0.626
 3289WAT      O13861   5.472   6.190   0.339
 3289WAT     H113862   5.519   6.219   0.406
 3289WAT     H213863   5.530   6.143   0.293
 3289WAT    EPW13864   5.488   6.188   0.342
 3290WAT      O13865   6.669   6.557   0.708
 3290WAT     H113866   6.602   6.608   0.729
 3290WAT     H213867   6.675   6.567   0.621
 3290WAT    EPW13868   6.660   6.566   0.698
 3291WAT      O13869   5.350   5.657   1.007
 3291WAT     H113870   5.297   5.607   1.054
 3291WAT     H213871   5.352   5.618   0.929
 3291WAT    EPW13872   5.343   5.644   1.003
 3292WAT      O13873   5.459   5.754   0.528
 3292WAT     H113874   5.461   5.686   0.473
 3292WAT     H213875   5.394   5.803   0.497
 3292WAT    EPW13876   5.449   5.751   0.515
 3293WAT      O13877   6.448   5.525   0.368
 3293WAT     H113878   6.382   5.558   0.414
 3293WAT     H213879   6.467   5.588   0.311
 3293WAT    EPW13880   6.441   5.539   0.366
 3294WAT      O13881   5.869   6.631   0.467
 3294WAT     H113882   5.841   6.567   0.415
 3294WAT     H213883   5.848   6.704   0.423
 3294WAT    EPW13884   5.861   6.633   0.453
 3295WAT      O13885   6.113   5.116   0.711
 3295WAT     H113886   6.127   5.033   0.686
 3295WAT     H213887   6.150   5.121   0.789
 3295WAT    EPW13888   6.120   5.104   0.719
 3296WAT      O13889   5.238   5.889   1.084
 3296WAT     H113890   5.235   5.939   1.013
 3296WAT     H213891   5.272   5.814   1.054
 3296WAT    EPW13892   5.243   5.885   1.069
 3297WAT      O13893   6.399   6.110   0.910
 3297WAT     H113894   6.447   6.182   0.920
 3297WAT     H213895   6.438   6.067   0.845
 3297WAT    EPW13896   6.412   6.114   0.902
 3298WAT      O13897   5.828   6.394   1.027
 3298WAT     H113898   5.864   6.376   1.105
 3298WAT     H213899   5.785   6.321   1.008
 3298WAT    EPW13900   5.827   6.381   1.036
 3299WAT      O13901   5.926   5.469   0.291
 3299WAT     H113902   5.974   5.539   0.312
 3299WAT     H213903   5.963   5.404   0.336
 3299WAT    EPW13904   5.938   5.470   0.301
 3300WAT      O13905   6.246   6.479   0.301
 3300WAT     H113906   6.186   6.450   0.245
 3300WAT     H213907   6.301   6.525   0.250
 3300WAT    EPW13908   6.245   6.482   0.285
 3301WAT      O13909   6.247   6.165   0.241
 3301WAT     H113910   6.168   6.187   0.269
 3301WAT     H213911   6.273   6.105   0.300
 3301WAT    EPW13912   6.239   6.159   0.254
 3302WAT      O13913   6.573   5.964   0.726
 3302WAT     H113914   6.579   5.977   0.640
 3302WAT     H213915   6.649   5.996   0.756
 3302WAT    EPW13916   6.585   5.971   0.717
 3303WAT      O13917   6.193   6.499   1.153
 3303WAT     H113918   6.209   6.528   1.234
 3303WAT     H213919   6.219   6.565   1.103
 3303WAT    EPW13920   6.199   6.513   1.158
 3304WAT      O13921   6.677   4.994   1.024
 3304WAT     H113922   6.613   4.954   0.980
 3304WAT     H213923   6.679   4.951   1.100
 3304WAT    EPW13924   6.668   4.982   1.029
 3305WAT      O13925   6.147   5.945   0.686
 3305WAT     H113926   6.131   6.006   0.746
 3305WAT     H213927   6.200   5.889   0.726
 3305WAT    EPW13928   6.152   5.946   0.701
 3306WAT      O13929   6.508   6.218   0.338
 3306WAT     H113930   6.460   6.248   0.272
 3306WAT     H213931   6.472   6.140   0.356
 3306WAT    EPW13932   6.495   6.211   0.331
 3307WAT      O13933   5.907   5.990   0.195
 3307WAT     H113934   5.823   5.970   0.203
 3307WAT     H213935   5.940   5.973   0.274
 3307WAT    EPW13936   5.899   5.984   0.208
 3308WAT      O13937   5.292   5.959   0.426
 3308WAT     H113938   5.364   6.008   0.423
 3308WAT     H213939   5.265   5.956   0.343
 3308WAT    EPW13940   5.299   5.966   0.413
 3309WAT      O13941   6.601   5.912   0.450
 3309WAT     H113942   6.600   5.834   0.490
 3309WAT     H213943   6.517   5.935   0.450
 3309WAT    EPW13944   6.588   5.904   0.456
 3310WAT      O13945   5.232   6.064   0.854
 3310WAT     H113946   5.189   6.012   0.798
 3310WAT     H213947   5.196   6.143   0.840
 3310WAT    EPW13948   5.220   6.068   0.844
 3311WAT      O13949   6.726   5.919   0.194
 3311WAT     H113950   6.698   5.959   0.266
 3311WAT     H213951   6.812   5.913   0.207
 3311WAT    EPW13952   6.735   5.924   0.207
 3312WAT      O13953   6.492   5.312   1.048
 3312WAT     H113954   6.440   5.357   1.100
 3312WAT     H213955   6.456   5.232   1.047
 3312WAT    EPW13956   6.479   5.307   1.056
 3313WAT      O13957   6.839   6.482   0.247
 3313WAT     H113958   6.868   6.508   0.169
 3313WAT     H213959   6.909   6.492   0.299
 3313WAT    EPW13960   6.854   6.488   0.243
 3314WAT      O13961   6.342   5.668   1.056
 3314WAT     H113962   6.349   5.679   1.142
 3314WAT     H213963   6.278   5.724   1.034
 3314WAT    EPW13964   6.333   5.678   1.065
 3315WAT      O13965   6.568   5.700   0.892
 3315WAT     H113966   6.600   5.779   0.912
 3315WAT     H213967   6.531   5.673   0.966
 3315WAT    EPW13968   6.568   5.708   0.906
 3316WAT      O13969   6.838   5.755   1.166
 3316WAT     H113970   6.833   5.720   1.086
 3316WAT     H213971   6.912   5.801   1.163
 3316WAT    EPW13972   6.848   5.756   1.153
 3317WAT      O13973   6.792   6.122   0.786
 3317WAT     H113974   6.855   6.067   0.761
 3317WAT     H213975   6.786   6.179   0.720
 3317WAT    EPW13976   6.800   6.122   0.773
 3318WAT      O13977   5.705   6.245   0.516
 3318WAT     H113978   5.676   6.304   0.573
 3318WAT     H213979   5.711   6.289   0.441
 3318WAT    EPW13980   5.702   6.261   0.513
 3319WAT      O13981   5.503   6.140   0.856
 3319WAT     H113982   5.423   6.111   0.872
 3319WAT     H213983   5.494   6.227   0.856
 3319WAT    EPW13984   5.490   6.149   0.858
 3320WAT      O13985   6.439   5.159   0.757
 3320WAT     H113986   6.514   5.204   0.751
 3320WAT     H213987   6.383   5.206   0.710
 3320WAT    EPW13988   6.442   5.173   0.749
 3321WAT      O13989   5.957   5.888   0.465
 3321WAT     H113990   6.005   5.925   0.528
 3321WAT     H213991   5.875   5.901   0.491
 3321WAT    EPW13992   5.952   5.895   0.478
 3322WAT      O13993   5.628   5.448   0.739
 3322WAT     H113994   5.644   5.373   0.782
 3322WAT     H213995   5.624   5.423   0.656
 3322WAT    EPW13996   5.630   5.433   0.733
 3323WAT      O13997   6.568   4.957   0.524
 3323WAT     H113998   6.540   5.040   0.520
 3323WAT     H213999   6.639   4.962   0.574
 3323WAT    EPW14000   6.574   4.970   0.531
 3324WAT      O14001   5.803   5.029   0.727
 3324WAT     H114002   5.874   5.061   0.687
 3324WAT     H214003   5.827   4.948   0.750
 3324WAT    EPW14004   5.817   5.021   0.724
 3325WAT      O14005   5.702   6.450   0.327
 3325WAT     H114006   5.639   6.508   0.308
 3325WAT     H214007   5.727   6.421   0.248
 3325WAT    EPW14008   5.696   6.454   0.312
 3326WAT      O14009   6.133   6.113   1.026
 3326WAT     H114010   6.208   6.142   0.993
 3326WAT     H214011   6.078   6.118   0.958
 3326WAT    EPW14012   6.136   6.118   1.011
 3327WAT      O14013   6.524   6.368   0.876
 3327WAT     H114014   6.558   6.395   0.951
 3327WAT     H214015   6.553   6.426   0.818
 3327WAT    EPW14016   6.533   6.381   0.879
 3328WAT      O14017   5.454   5.534   0.333
 3328WAT     H114018   5.498   5.524   0.259
 3328WAT     H214019   5.509   5.503   0.394
 3328WAT    EPW14020   5.469   5.528   0.331
 3329WAT      O14021   6.256   5.444   0.892
 3329WAT     H114022   6.191   5.491   0.927
 3329WAT     H214023   6.312   5.435   0.958
 3329WAT    EPW14024   6.255   5.450   0.907
 3330WAT      O14025   6.225   5.598   0.522
 3330WAT     H114026   6.255   5.640   0.592
 3330WAT     H214027   6.228   5.514   0.545
 3330WAT    EPW14028   6.230   5.592   0.536
 3331WAT      O14029   5.967   6.615   0.915
 3331WAT     H114030   6.015   6.555   0.873
 3331WAT     H214031   5.932   6.570   0.981
 3331WAT    EPW14032   5.969   6.599   0.918
 3332WAT      O14033   5.809   5.032   0.338
 3332WAT     H114034   5.726   5.018   0.362
 3332WAT     H214035   5.805   5.036   0.251
 3332WAT    EPW14036   5.796   5.031   0.328
 3333WAT      O14037   5.973   6.136   0.817
 3333WAT     H114038   5.893   6.130   0.852
 3333WAT     H214039   5.980   6.221   0.797
 3333WAT    EPW14040   5.962   6.148   0.819
 3334WAT      O14041   5.065   5.072   0.941
 3334WAT     H114042   5.051   5.152   0.908
 3334WAT     H214043   4.987   5.048   0.970
 3334WAT    EPW14044   5.052   5.080   0.941
 3335WAT      O14045   5.556   6.757   0.348
 3335WAT     H114046   5.557   6.763   0.435
 3335WAT     H214047   5.513   6.682   0.333
 3335WAT    EPW14048   5.550   6.747   0.359
 3336WAT      O14049   6.022   6.401   0.727
 3336WAT     H114050   6.091   6.390   0.780
 3336WAT     H214051   6.035   6.480   0.693
 3336WAT    EPW14052   6.034   6.411   0.730
 3337WAT      O14053   6.839   5.662   0.909
 3337WAT     H114054   6.754   5.650   0.921
 3337WAT     H214055   6.855   5.623   0.832
 3337WAT    EPW14056   6.829   5.654   0.899
 3338WAT      O14057   6.291   5.729   0.766
 3338WAT     H114058   6.265   5.657   0.808
 3338WAT     H214059   6.373   5.740   0.793
 3338WAT    EPW14060   6.299   5.720   0.776
 3339WAT      O14061   5.232   6.707   0.893
 3339WAT     H114062   5.167   6.650   0.902
 3339WAT     H214063   5.195   6.784   0.908
 3339WAT    EPW14064   5.217   6.710   0.896
 3340WAT      O14065   6.084   5.848   1.085
 3340WAT     H114066   6.116   5.916   1.042
 3340WAT     H214067   6.014   5.880   1.125
 3340WAT    EPW14068   6.078   5.862   1.084
 3341WAT      O14069   6.393   6.685   0.178
 3341WAT     H114070   6.347   6.749   0.216
 3341WAT     H214071   6.463   6.677   0.228
 3341WAT    EPW14072   6.396   6.693   0.191
 3342WAT      O14073   6.063   6.194   0.471
 3342WAT     H114074   5.993   6.234   0.505
 3342WAT     H214075   6.130   6.237   0.505
 3342WAT    EPW14076   6.062   6.206   0.481
 3343WAT      O14077   6.600   6.453   1.129
 3343WAT     H114078   6.678   6.414   1.137
 3343WAT     H214079   6.553   6.420   1.194
 3343WAT    EPW14080   6.605   6.443   1.140
 3344WAT      O14081   5.369   5.548   0.705
 3344WAT     H114082   5.407   5.610   0.657
 3344WAT     H214083   5.437   5.500   0.734
 3344WAT    EPW14084   5.385   5.550   0.702
 3345WAT      O14085   5.147   5.393   0.633
 3345WAT     H114086   5.155   5.376   0.548
 3345WAT     H214087   5.222   5.433   0.653
 3345WAT    EPW14088   5.159   5.396   0.623
 3346WAT      O14089   5.402   5.134   0.874
 3346WAT     H114090   5.394   5.049   0.895
 3346WAT     H214091   5.371   5.138   0.793
 3346WAT    EPW14092   5.397   5.122   0.865
 3347WAT      O14093   6.613   5.671   0.613
 3347WAT     H114094   6.613   5.585   0.625
 3347WAT     H214095   6.620   5.704   0.693
 3347WAT    EPW14096   6.614   5.663   0.626
 3348WAT      O14097   5.087   5.915   0.655
 3348WAT     H114098   5.119   5.937   0.577
 3348WAT     H214099   5.077   5.829   0.650
 3348WAT    EPW14100   5.090   5.906   0.643
 3349WAT      O14101   6.201   5.151   0.991
 3349WAT     H114102   6.210   5.222   1.040
 3349WAT     H214103   6.137   5.107   1.030
 3349WAT    EPW14104   6.193   5.155   1.004
 3350WAT      O14105   6.460   5.222   0.356
 3350WAT     H114106   6.546   5.232   0.371
 3350WAT     H214107   6.423   5.277   0.413
 3350WAT    EPW14108   6.467   5.231   0.367
 3351WAT      O14109   5.563   5.844   0.794
 3351WAT     H114110   5.523   5.922   0.801
 3351WAT     H214111   5.522   5.807   0.726
 3351WAT    EPW14112   5.551   5.850   0.785
 3352WAT      O14113   5.606   5.142   0.539
 3352WAT     H114114   5.519   5.150   0.547
 3352WAT     H214115   5.628   5.091   0.606
 3352WAT    EPW14116   5.596   5.136   0.550
 3353WAT      O14117   6.808   5.006   0.672
 3353WAT     H114118   6.802   5.001   0.759
 3353WAT     H214119   6.876   4.955   0.653
 3353WAT    EPW14120   6.817   4.998   0.682
 3354WAT      O14121   6.016   5.217   0.376
 3354WAT     H114122   5.942   5.171   0.388
 3354WAT     H214123   6.073   5.177   0.429
 3354WAT    EPW14124   6.014   5.204   0.386
 3355WAT      O14125   6.289   6.302   0.555
 3355WAT     H114126   6.310   6.332   0.634
 3355WAT     H214127   6.283   6.374   0.507
 3355WAT    EPW14128   6.291   6.317   0.560
 3356WAT      O14129   6.243   6.723   0.980
 3356WAT     H114130   6.167   6.721   0.936
 3356WAT     H214131   6.260   6.808   0.988
 3356WAT    EPW14132   6.234   6.735   0.974
 3357WAT      O14133   5.766   5.650   0.897
 3357WAT     H114134   5.734   5.592   0.840
 3357WAT     H214135   5.731   5.725   0.872
 3357WAT    EPW14136   5.756   5.652   0.885
 3358WAT      O14137   6.771   6.166   0.501
 3358WAT     H114138   6.767   6.079   0.487
 3358WAT     H214139   6.701   6.196   0.457
 3358WAT    EPW14140   6.760   6.157   0.492
 3359WAT      O14141   5.610   6.685   0.921
 3359WAT     H114142   5.614   6.698   1.008
 3359WAT     H214143   5.675   6.629   0.906
 3359WAT    EPW14144   5.620   6.679   0.932
 3360WAT      O14145   6.581   6.492   0.381
 3360WAT     H114146   6.634   6.483   0.311
 3360WAT     H214147   6.542   6.414   0.386
 3360WAT    EPW14148   6.583   6.479   0.371
 3361WAT      O14149   5.328   5.150   0.604
 3361WAT     H114150   5.294   5.074   0.580
 3361WAT     H214151   5.258   5.203   0.610
 3361WAT    EPW14152   5.313   5.147   0.601
 3362WAT      O14153   6.232   5.036   0.301
 3362WAT     H114154   6.299   5.090   0.314
 3362WAT     H214155   6.182   5.078   0.244
 3362WAT    EPW14156   6.235   5.050   0.295
 3363WAT      O14157   5.369   6.524   1.057
 3363WAT     H114158   5.429   6.567   1.105
 3363WAT     H214159   5.333   6.586   1.009
 3363WAT    EPW14160   5.373   6.539   1.057
 3364WAT      O14161   5.162   6.323   0.750
 3364WAT     H114162   5.105   6.364   0.801
 3364WAT     H214163   5.235   6.369   0.760
 3364WAT    EPW14164   5.164   6.336   0.759
 3365WAT      O14165   6.693   5.937   1.022
 3365WAT     H114166   6.756   5.920   1.079
 3365WAT     H214167   6.734   5.977   0.957
 3365WAT    EPW14168   6.708   5.941   1.021
 3366WAT      O14169   6.755   5.394   1.096
 3366WAT     H114170   6.736   5.458   1.151
 3366WAT     H214171   6.683   5.345   1.095
 3366WAT    EPW14172   6.742   5.396   1.104
 3367WAT      O14173   6.745   5.488   0.393
 3367WAT     H114174   6.662   5.513   0.386
 3367WAT     H214175   6.740   5.404   0.416
 3367WAT    EPW14176   6.732   5.479   0.395
 3368WAT      O14177   5.671   5.186   0.912
 3368WAT     H114178   5.695   5.129   0.851
 3368WAT     H214179   5.587   5.168   0.926
 3368WAT    EPW14180   5.662   5.175   0.905
 3369WAT      O14181   6.434   5.948   1.157
 3369WAT     H114182   6.521   5.945   1.154
 3369WAT     H214183   6.412   5.990   1.084
 3369WAT    EPW14184   6.444   5.954   1.146
 3370WAT      O14185   5.409   6.531   0.276
 3370WAT     H114186   5.401   6.450   0.244
 3370WAT     H214187   5.365   6.579   0.218
 3370WAT    EPW14188   5.402   6.526   0.262
 3371WAT      O14189   5.166   6.755   0.634
 3371WAT     H114190   5.216   6.750   0.705
 3371WAT     H214191   5.185   6.682   0.590
 3371WAT    EPW14192   5.177   6.743   0.638
 3372WAT      O14193   6.110   3.159   7.451
 3372WAT     H114194   6.086   3.208   7.383
 3372WAT     H214195   6.197   3.152   7.441
 3372WAT    EPW14196   6.119   3.165   7.439
 3373WAT      O14197   5.078   4.265   7.464
 3373WAT     H114198   5.034   4.276   7.538
 3373WAT     H214199   5.050   4.187   7.435
 3373WAT    EPW14200   5.067   4.255   7.470
 3374WAT      O14201   6.706   4.595   7.215
 3374WAT     H114202   6.776   4.543   7.215
 3374WAT     H214203   6.647   4.550   7.168
 3374WAT    EPW14204   6.707   4.580   7.208
 3375WAT      O14205   5.052   3.644   7.114
 3375WAT     H114206   4.975   3.660   7.078
 3375WAT     H214207   5.056   3.557   7.116
 3375WAT    EPW14208   5.041   3.633   7.109
 3376WAT      O14209   5.366   4.170   6.981
 3376WAT     H114210   5.327   4.133   6.913
 3376WAT     H214211   5.358   4.110   7.044
 3376WAT    EPW14212   5.359   4.156   6.981
 3377WAT      O14213   6.358   3.957   7.586
 3377WAT     H114214   6.366   3.958   7.499
 3377WAT     H214215   6.300   3.894   7.600
 3377WAT    EPW14216   6.351   3.948   7.575
 3378WAT      O14217   5.329   4.334   7.371
 3378WAT     H114218   5.390   4.317   7.432
 3378WAT     H214219   5.254   4.320   7.414
 3378WAT    EPW14220   5.327   4.330   7.387
 3379WAT      O14221   5.757   3.268   7.366
 3379WAT     H114222   5.750   3.335   7.312
 3379WAT     H214223   5.831   3.229   7.341
 3379WAT    EPW14224   5.767   3.272   7.355
 3380WAT      O14225   5.218   4.643   6.979
 3380WAT     H114226   5.265   4.652   6.906
 3380WAT     H214227   5.264   4.585   7.026
 3380WAT    EPW14228   5.232   4.636   6.975
 3381WAT      O14229   5.217   3.990   7.509
 3381WAT     H114230   5.170   3.951   7.447
 3381WAT     H214231   5.287   3.939   7.518
 3381WAT    EPW14232   5.220   3.977   7.501
 3382WAT      O14233   5.417   3.800   7.512
 3382WAT     H114234   5.498   3.781   7.536
 3382WAT     H214235   5.369   3.739   7.551
 3382WAT    EPW14236   5.422   3.788   7.521
 3383WAT      O14237   5.837   4.398   7.773
 3383WAT     H114238   5.872   4.318   7.776
 3383WAT     H214239   5.904   4.449   7.747
 3383WAT    EPW14240   5.852   4.394   7.769
 3384WAT      O14241   5.843   4.343   7.394
 3384WAT     H114242   5.876   4.279   7.442
 3384WAT     H214243   5.867   4.322   7.313
 3384WAT    EPW14244   5.851   4.331   7.389
 3385WAT      O14245   5.476   3.310   7.438
 3385WAT     H114246   5.447   3.360   7.373
 3385WAT     H214247   5.563   3.317   7.432
 3385WAT    EPW14248   5.485   3.318   7.428
 3386WAT      O14249   5.774   3.224   7.660
 3386WAT     H114250   5.782   3.310   7.673
 3386WAT     H214251   5.771   3.216   7.574
 3386WAT    EPW14252   5.775   3.235   7.650
 3387WAT      O14253   6.242   3.516   6.890
 3387WAT     H114254   6.197   3.584   6.921
 3387WAT     H214255   6.253   3.466   6.961
 3387WAT    EPW14256   6.237   3.519   6.905
 3388WAT      O14257   5.062   3.766   7.811
 3388WAT     H114258   5.037   3.849   7.803
 3388WAT     H214259   4.996   3.728   7.852
 3388WAT    EPW14260   5.049   3.773   7.816
 3389WAT      O14261   5.053   4.737   7.601
 3389WAT     H114262   4.994   4.793   7.569
 3389WAT     H214263   5.096   4.710   7.529
 3389WAT    EPW14264   5.051   4.741   7.585
 3390WAT      O14265   5.637   4.522   7.349
 3390WAT     H114266   5.579   4.494   7.408
 3390WAT     H214267   5.700   4.461   7.351
 3390WAT    EPW14268   5.638   4.509   7.358
 3391WAT      O14269   6.252   4.750   7.101
 3391WAT     H114270   6.324   4.798   7.111
 3391WAT     H214271   6.274   4.671   7.129
 3391WAT    EPW14272   6.266   4.746   7.106
 3392WAT      O14273   6.068   4.790   7.300
 3392WAT     H114274   6.090   4.842   7.366
 3392WAT     H214275   6.145   4.772   7.262
 3392WAT    EPW14276   6.083   4.795   7.304
 3393WAT      O14277   5.208   4.604   7.394
 3393WAT     H114278   5.273   4.547   7.395
 3393WAT     H214279   5.247   4.679   7.372
 3393WAT    EPW14280   5.223   4.607   7.391
 3394WAT      O14281   6.781   3.514   7.520
 3394WAT     H114282   6.746   3.581   7.562
 3394WAT     H214283   6.717   3.454   7.521
 3394WAT    EPW14284   6.767   3.515   7.526
 3395WAT      O14285   5.290   4.453   7.744
 3395WAT     H114286   5.332   4.417   7.676
 3395WAT     H214287   5.322   4.411   7.813
 3395WAT    EPW14288   5.301   4.441   7.744
 3396WAT      O14289   5.613   4.738   7.673
 3396WAT     H114290   5.697   4.749   7.654
 3396WAT     H214291   5.583   4.820   7.680
 3396WAT    EPW14292   5.621   4.752   7.671
 3397WAT      O14293   5.993   3.678   7.482
 3397WAT     H114294   6.022   3.655   7.403
 3397WAT     H214295   6.067   3.686   7.529
 3397WAT    EPW14296   6.008   3.676   7.477
 3398WAT      O14297   6.066   3.712   6.994
 3398WAT     H114298   6.094   3.791   7.019
 3398WAT     H214299   5.988   3.728   6.958
 3398WAT    EPW14300   6.058   3.726   6.992
 3399WAT      O14301   6.470   4.909   7.141
 3399WAT     H114302   6.536   4.894   7.086
 3399WAT     H214303   6.506   4.901   7.220
 3399WAT    EPW14304   6.485   4.906   7.144
 3400WAT      O14305   5.951   4.529   6.976
 3400WAT     H114306   5.933   4.583   7.041
 3400WAT     H214307   6.028   4.558   6.946
 3400WAT    EPW14308   5.960   4.541   6.981
 3401WAT      O14309   6.302   3.318   7.081
 3401WAT     H114310   6.356   3.250   7.089
 3401WAT     H214311   6.308   3.358   7.158
 3401WAT    EPW14312   6.311   3.314   7.094
 3402WAT      O14313   5.098   3.435   7.338
 3402WAT     H114314   5.086   3.349   7.341
 3402WAT     H214315   5.050   3.465   7.405
 3402WAT    EPW14316   5.089   3.427   7.348
 3403WAT      O14317   6.028   3.556   7.212
 3403WAT     H114318   5.977   3.490   7.187
 3403WAT     H214319   6.033   3.606   7.141
 3403WAT    EPW14320   6.021   3.554   7.198
 3404WAT      O14321   6.028   3.250   7.202
 3404WAT     H114322   5.982   3.210   7.139
 3404WAT     H214323   6.105   3.266   7.164
 3404WAT    EPW14324   6.033   3.247   7.187
 3405WAT      O14325   6.711   4.886   7.541
 3405WAT     H114326   6.665   4.958   7.561
 3405WAT     H214327   6.649   4.829   7.516
 3405WAT    EPW14328   6.695   4.888   7.540
 3406WAT      O14329   5.888   3.487   7.654
 3406WAT     H114330   5.895   3.544   7.588
 3406WAT     H214331   5.900   3.536   7.725
 3406WAT    EPW14332   5.891   3.503   7.655
 3407WAT      O14333   6.410   4.470   7.495
 3407WAT     H114334   6.480   4.422   7.514
 3407WAT     H214335   6.344   4.413   7.499
 3407WAT    EPW14336   6.411   4.455   7.498
 3408WAT      O14337   5.349   3.069   7.489
 3408WAT     H114338   5.402   3.138   7.488
 3408WAT     H214339   5.349   3.042   7.406
 3408WAT    EPW14340   5.356   3.075   7.476
 3409WAT      O14341   6.393   3.098   7.526
 3409WAT     H114342   6.397   3.066   7.607
 3409WAT     H214343   6.425   3.034   7.477
 3409WAT    EPW14344   6.398   3.084   7.531
 3410WAT      O14345   5.393   3.450   7.654
 3410WAT     H114346   5.421   3.407   7.583
 3410WAT     H214347   5.376   3.387   7.711
 3410WAT    EPW14348   5.395   3.434   7.652
 3411WAT      O14349   6.662   4.220   7.076
 3411WAT     H114350   6.674   4.191   7.157
 3411WAT     H214351   6.743   4.222   7.043
 3411WAT    EPW14352   6.676   4.216   7.083
 3412WAT      O14353   5.376   4.193   7.609
 3412WAT     H114354   5.461   4.185   7.592
 3412WAT     H214355   5.340   4.125   7.568
 3412WAT    EPW14356   5.383   4.182   7.600
 3413WAT      O14357   5.252   4.865   7.733
 3413WAT     H114358   5.185   4.816   7.708
 3413WAT     H214359   5.293   4.884   7.657
 3413WAT    EPW14360   5.248   4.861   7.718
 3414WAT      O14361   6.452   3.873   7.034
 3414WAT     H114362   6.430   3.946   6.992
 3414WAT     H214363   6.407   3.878   7.109
 3414WAT    EPW14364   6.442   3.885   7.039
 3415WAT      O14365   5.613   4.194   7.432
 3415WAT     H114366   5.684   4.243   7.441
 3415WAT     H214367   5.635   4.137   7.370
 3415WAT    EPW14368   5.626   4.192   7.424
 3416WAT      O14369   6.870   3.359   6.980
 3416WAT     H114370   6.804   3.303   6.982
 3416WAT     H214371   6.851   3.411   6.912
 3416WAT    EPW14372   6.858   3.359   6.970
 3417WAT      O14373   5.028   4.358   7.764
 3417WAT     H114374   4.961   4.407   7.792
 3417WAT     H214375   5.096   4.412   7.767
 3417WAT    EPW14376   5.028   4.373   7.769
 3418WAT      O14377   5.035   4.026   7.275
 3418WAT     H114378   5.016   3.942   7.290
 3418WAT     H214379   5.101   4.023   7.218
 3418WAT    EPW14380   5.042   4.013   7.268
 3419WAT      O14381   6.671   3.315   7.207
 3419WAT     H114382   6.745   3.275   7.227
 3419WAT     H214383   6.697   3.387   7.165
 3419WAT    EPW14384   6.685   3.320   7.204
 3420WAT      O14385   6.065   4.564   7.665
 3420WAT     H114386   6.013   4.627   7.636
 3420WAT     H214387   6.096   4.527   7.592
 3420WAT    EPW14388   6.062   4.568   7.650
 3421WAT      O14389   5.052   4.443   7.232
 3421WAT     H114390   5.107   4.500   7.269
 3421WAT     H214391   5.029   4.391   7.299
 3421WAT    EPW14392   5.057   4.443   7.247
 3422WAT      O14393   6.316   3.544   7.715
 3422WAT     H114394   6.350   3.559   7.793
 3422WAT     H214395   6.271   3.470   7.726
 3422WAT    EPW14396   6.314   3.535   7.728
 3423WAT      O14397   5.035   4.288   6.995
 3423WAT     H114398   5.111   4.244   7.001
 3423WAT     H214399   5.036   4.341   7.064
 3423WAT    EPW14400   5.046   4.289   7.006
 3424WAT      O14401   5.129   4.110   7.795
 3424WAT     H114402   5.172   4.097   7.721
 3424WAT     H214403   5.108   4.194   7.793
 3424WAT    EPW14404   5.132   4.120   7.784
 3425WAT      O14405   5.764   3.466   7.160
 3425WAT     H114406   5.763   3.454   7.074
 3425WAT     H214407   5.745   3.551   7.170
 3425WAT    EPW14408   5.761   3.477   7.149
 3426WAT      O14409   5.537   4.461   7.624
 3426WAT     H114410   5.550   4.546   7.642
 3426WAT     H214411   5.604   4.421   7.663
 3426WAT    EPW14412   5.549   4.468   7.632
 3427WAT      O14413   5.399   3.749   7.124
 3427WAT     H114414   5.386   3.704   7.198
 3427WAT     H214415   5.341   3.715   7.069
 3427WAT    EPW14416   5.388   3.738   7.127
 3428WAT      O14417   5.416   3.932   7.784
 3428WAT     H114418   5.337   3.926   7.745
 3428WAT     H214419   5.423   3.857   7.827
 3428WAT    EPW14420   5.405   3.920   7.785
 3429WAT      O14421   6.267   3.474   7.321
 3429WAT     H114422   6.316   3.546   7.314
 3429WAT     H214423   6.188   3.500   7.295
 3429WAT    EPW14424   6.263   3.489   7.316
 3430WAT      O14425   6.144   3.938   7.121
 3430WAT     H114426   6.144   4.010   7.072
 3430WAT     H214427   6.081   3.952   7.179
 3430WAT    EPW14428   6.135   3.951   7.122
 3431WAT      O14429   6.642   4.325   7.519
 3431WAT     H114430   6.677   4.290   7.591
 3431WAT     H214431   6.641   4.259   7.462
 3431WAT    EPW14432   6.647   4.310   7.521
 3432WAT      O14433   6.247   4.317   7.844
 3432WAT     H114434   6.168   4.339   7.871
 3432WAT     H214435   6.273   4.257   7.902
 3432WAT    EPW14436   6.239   4.311   7.856
 3433WAT      O14437   5.637   4.798   7.288
 3433WAT     H114438   5.622   4.720   7.326
 3433WAT     H214439   5.706   4.783   7.237
 3433WAT    EPW14440   5.645   4.784   7.286
 3434WAT      O14441   5.604   3.172   7.087
 3434WAT     H114442   5.613   3.162   7.173
 3434WAT     H214443   5.533   3.223   7.081
 3434WAT    EPW14444   5.595   3.178   7.099
 3435WAT      O14445   5.866   4.750   7.129
 3435WAT     H114446   5.928   4.766   7.188
 3435WAT     H214447   5.869   4.819   7.075
 3435WAT    EPW14448   5.876   4.762   7.130
 3436WAT      O14449   5.316   4.003   7.212
 3436WAT     H114450   5.348   3.925   7.189
 3436WAT     H214451   5.381   4.040   7.257
 3436WAT    EPW14452   5.330   3.997   7.215
 3437WAT      O14453   5.016   3.169   7.308
 3437WAT     H114454   5.029   3.098   7.259
 3437WAT     H214455   4.979   3.137   7.381
 3437WAT    EPW14456   5.012   3.154   7.312
 3438WAT      O14457   5.985   3.937   7.354
 3438WAT     H114458   5.991   4.002   7.412
 3438WAT     H214459   5.966   3.868   7.403
 3438WAT    EPW14460   5.983   3.936   7.370
 3439WAT      O14461   5.435   3.389   7.005
 3439WAT     H114462   5.383   3.394   6.935
 3439WAT     H214463   5.513   3.413   6.976
 3439WAT    EPW14464   5.439   3.393   6.990
 3440WAT      O14465   5.907   4.142   7.797
 3440WAT     H114466   5.823   4.122   7.805
 3440WAT     H214467   5.940   4.125   7.876
 3440WAT    EPW14468   5.899   4.137   7.810
 3441WAT      O14469   5.582   4.815   6.886
 3441WAT     H114470   5.626   4.745   6.915
 3441WAT     H214471   5.603   4.877   6.943
 3441WAT    EPW14472   5.592   4.814   6.898
 3442WAT      O14473   5.615   3.628   7.702
 3442WAT     H114474   5.700   3.609   7.712
 3442WAT     H214475   5.578   3.551   7.688
 3442WAT    EPW14476   5.622   3.614   7.702
 3443WAT      O14477   6.877   4.787   7.135
 3443WAT     H114478   6.946   4.740   7.110
 3443WAT     H214479   6.823   4.727   7.169
 3443WAT    EPW14480   6.879   4.771   7.136
 3444WAT      O14481   5.097   3.762   7.368
 3444WAT     H114482   5.146   3.733   7.434
 3444WAT     H214483   5.110   3.703   7.305
 3444WAT    EPW14484   5.106   3.749   7.368
 3445WAT      O14485   5.550   3.905   6.916
 3445WAT     H114486   5.489   3.865   6.964
 3445WAT     H214487   5.511   3.917   6.839
 3445WAT    EPW14488   5.535   3.901   6.912
 3446WAT      O14489   6.726   4.071   7.797
 3446WAT     H114490   6.698   4.111   7.869
 3446WAT     H214491   6.812   4.065   7.809
 3446WAT    EPW14492   6.735   4.076   7.809
 3447WAT      O14493   5.695   3.752   7.187
 3447WAT     H114494   5.722   3.834   7.194
 3447WAT     H214495   5.609   3.759   7.178
 3447WAT    EPW14496   5.686   3.765   7.187
 3448WAT      O14497   5.043   3.349   7.841
 3448WAT     H114498   5.048   3.383   7.761
 3448WAT     H214499   5.119   3.372   7.878
 3448WAT    EPW14500   5.055   3.357   7.835
 3449WAT      O14501   6.839   4.635   7.849
 3449WAT     H114502   6.868   4.660   7.771
 3449WAT     H214503   6.909   4.644   7.901
 3449WAT    EPW14504   6.854   4.640   7.846
 3450WAT      O14505   6.500   4.495   7.048
 3450WAT     H114506   6.533   4.414   7.051
 3450WAT     H214507   6.424   4.488   7.091
 3450WAT    EPW14508   6.494   4.482   7.055
 3451WAT      O14509   6.548   3.678   7.614
 3451WAT     H114510   6.474   3.646   7.645
 3451WAT     H214511   6.548   3.761   7.642
 3451WAT    EPW14512   6.537   3.686   7.622
 3452WAT      O14513   6.237   4.282   6.988
 3452WAT     H114514   6.306   4.231   6.971
 3452WAT     H214515   6.196   4.287   6.911
 3452WAT    EPW14516   6.241   4.276   6.974
 3453WAT      O14517   5.883   4.779   7.590
 3453WAT     H114518   5.938   4.847   7.596
 3453WAT     H214519   5.848   4.787   7.511
 3453WAT    EPW14520   5.886   4.790   7.579
 3454WAT      O14521   6.710   3.735   7.012
 3454WAT     H114522   6.748   3.803   6.972
 3454WAT     H214523   6.626   3.757   7.015
 3454WAT    EPW14524   6.703   3.748   7.007
 3455WAT      O14525   5.861   4.079   6.921
 3455WAT     H114526   5.781   4.062   6.892
 3455WAT     H214527   5.858   4.165   6.940
 3455WAT    EPW14528   5.849   4.089   6.919
 3456WAT      O14529   6.479   3.695   7.350
 3456WAT     H114530   6.500   3.675   7.432
 3456WAT     H214531   6.555   3.722   7.316
 3456WAT    EPW14532   6.494   3.696   7.357
 3457WAT      O14533   6.582   3.303   7.497
 3457WAT     H114534   6.510   3.256   7.514
 3457WAT     H214535   6.565   3.337   7.419
 3457WAT    EPW14536   6.569   3.301   7.488
 3458WAT      O14537   6.626   4.097   7.335
 3458WAT     H114538   6.673   4.025   7.330
 3458WAT     H214539   6.544   4.069   7.328
 3458WAT    EPW14540   6.621   4.082   7.333
 3459WAT      O14541   5.372   3.499   7.266
 3459WAT     H114542   5.384   3.466   7.187
 3459WAT     H214543   5.291   3.474   7.286
 3459WAT    EPW14544   5.362   3.490   7.258
 3460WAT      O14545   6.247   4.214   7.571
 3460WAT     H114546   6.255   4.248   7.651
 3460WAT     H214547   6.264   4.129   7.583
 3460WAT    EPW14548   6.251   4.207   7.584
 3461WAT      O14549   6.000   4.142   7.527
 3461WAT     H114550   5.970   4.110   7.603
 3461WAT     H214551   6.069   4.189   7.551
 3461WAT    EPW14552   6.006   4.144   7.542
 3462WAT      O14553   6.393   4.837   7.780
 3462WAT     H114554   6.347   4.901   7.818
 3462WAT     H214555   6.463   4.829   7.831
 3462WAT    EPW14556   6.396   4.845   7.793
 3463WAT      O14557   6.703   3.809   7.279
 3463WAT     H114558   6.713   3.803   7.193
 3463WAT     H214559   6.777   3.776   7.311
 3463WAT    EPW14560   6.715   3.803   7.271
 3464WAT      O14561   6.095   4.505   7.390
 3464WAT     H114562   6.074   4.589   7.374
 3464WAT     H214563   6.017   4.467   7.402
 3464WAT    EPW14564   6.080   4.512   7.390
 3465WAT      O14565   5.232   3.661   6.920
 3465WAT     H114566   5.165   3.662   6.975
 3465WAT     H214567   5.242   3.576   6.901
 3465WAT    EPW14568   5.224   3.649   6.925
 3466WAT      O14569   6.100   3.322   7.679
 3466WAT     H114570   6.030   3.374   7.673
 3466WAT     H214571   6.104   3.284   7.600
 3466WAT    EPW14572   6.091   3.324   7.666
 3467WAT      O14573   5.631   4.531   7.031
 3467WAT     H114574   5.675   4.539   7.106
 3467WAT     H214575   5.551   4.510   7.057
 3467WAT    EPW14576   5.626   4.529   7.046
 3468WAT      O14577   6.491   3.902   7.808
 3468WAT     H114578   6.557   3.956   7.824
 3468WAT     H214579   6.456   3.933   7.734
 3468WAT    EPW14580   6.495   3.915   7.799
 3469WAT      O14581   6.522   4.709   7.388
 3469WAT     H114582   6.504   4.643   7.443
 3469WAT     H214583   6.593   4.681   7.346
 3469WAT    EPW14584   6.530   4.695   7.390
 3470WAT      O14585   5.364   4.438   7.091
 3470WAT     H114586   5.340   4.408   7.169
 3470WAT     H214587   5.361   4.368   7.040
 3470WAT    EPW14588   5.360   4.424   7.095
 3471WAT      O14589   5.646   4.263   6.965
 3471WAT     H114590   5.564   4.236   6.979
 3471WAT     H214591   5.643   4.348   6.984
 3471WAT    EPW14592   5.633   4.272   6.970
 3472WAT      O14593   5.846   3.127   6.962
 3472WAT     H114594   5.854   3.152   6.879
 3472WAT     H214595   5.772   3.165   6.988
 3472WAT    EPW14596   5.836   3.136   6.953
 3473WAT      O14597   6.168   3.769   7.653
 3473WAT     H114598   6.223   3.708   7.683
 3473WAT     H214599   6.126   3.795   7.725
 3473WAT    EPW14600   6.170   3.764   7.668
 3474WAT      O14601   5.193   3.634   7.602
 3474WAT     H114602   5.156   3.664   7.675
 3474WAT     H214603   5.247   3.571   7.630
 3474WAT    EPW14604   5.196   3.629   7.617
 3475WAT      O14605   6.365   3.952   7.309
 3475WAT     H114606   6.372   3.867   7.327
 3475WAT     H214607   6.283   3.961   7.282
 3475WAT    EPW14608   6.354   3.941   7.308
 3476WAT      O14609   5.341   4.801   7.230
 3476WAT     H114610   5.326   4.817   7.146
 3476WAT     H214611   5.427   4.809   7.238
 3476WAT    EPW14612   5.351   4.805   7.219
 3477WAT      O14613   5.757   4.041   7.203
 3477WAT     H114614   5.767   4.055   7.118
 3477WAT     H214615   5.839   4.035   7.233
 3477WAT    EPW14616   5.771   4.042   7.195
 3478WAT      O14617   6.673   4.848   6.951
 3478WAT     H114618   6.737   4.834   7.009
 3478WAT     H214619   6.639   4.768   6.939
 3478WAT    EPW14620   6.678   4.834   6.958
 3479WAT      O14621   6.281   4.474   7.183
 3479WAT     H114622   6.256   4.461   7.266
 3479WAT     H214623   6.249   4.405   7.141
 3479WAT    EPW14624   6.272   4.462   7.189
 3480WAT      O14625   5.409   4.683   7.878
 3480WAT     H114626   5.401   4.602   7.846
 3480WAT     H214627   5.365   4.732   7.821
 3480WAT    EPW14628   5.402   4.678   7.865
 3481WAT      O14629   5.969   4.295   7.126
 3481WAT     H114630   6.041   4.260   7.091
 3481WAT     H214631   5.966   4.375   7.092
 3481WAT    EPW14632   5.979   4.302   7.116
 3482WAT      O14633   6.110   3.159   5.550
 3482WAT     H114634   6.086   3.208   5.482
 3482WAT     H214635   6.197   3.152   5.540
 3482WAT    EPW14636   6.119   3.165   5.539
 3483WAT      O14637   6.091   3.851   6.017
 3483WAT     H114638   6.039   3.910   6.054
 3483WAT     H214639   6.131   3.814   6.086
 3483WAT    EPW14640   6.089   3.854   6.033
 3484WAT      O14641   5.078   4.265   5.563
 3484WAT     H114642   5.034   4.276   5.637
 3484WAT     H214643   5.050   4.187   5.534
 3484WAT    EPW14644   5.067   4.255   5.570
 3485WAT      O14645   6.706   4.595   5.314
 3485WAT     H114646   6.776   4.543   5.314
 3485WAT     H214647   6.647   4.550   5.267
 3485WAT    EPW14648   6.707   4.580   5.307
 3486WAT      O14649   5.052   3.644   5.214
 3486WAT     H114650   4.975   3.660   5.178
 3486WAT     H214651   5.056   3.557   5.216
 3486WAT    EPW14652   5.041   3.633   5.209
 3487WAT      O14653   5.366   4.170   5.081
 3487WAT     H114654   5.327   4.133   5.012
 3487WAT     H214655   5.358   4.110   5.144
 3487WAT    EPW14656   5.359   4.156   5.080
 3488WAT      O14657   6.358   3.957   5.685
 3488WAT     H114658   6.366   3.958   5.598
 3488WAT     H214659   6.300   3.894   5.700
 3488WAT    EPW14660   6.351   3.948   5.674
 3489WAT      O14661   5.329   4.334   5.471
 3489WAT     H114662   5.390   4.317   5.531
 3489WAT     H214663   5.254   4.320   5.513
 3489WAT    EPW14664   5.327   4.330   5.486
 3490WAT      O14665   5.757   3.268   5.466
 3490WAT     H114666   5.750   3.335   5.411
 3490WAT     H214667   5.831   3.229   5.441
 3490WAT    EPW14668   5.767   3.272   5.454
 3491WAT      O14669   5.218   4.643   5.078
 3491WAT     H114670   5.265   4.652   5.005
 3491WAT     H214671   5.264   4.585   5.125
 3491WAT    EPW14672   5.232   4.636   5.075
 3492WAT      O14673   5.072   4.538   6.188
 3492WAT     H114674   5.085   4.510   6.270
 3492WAT     H214675   5.011   4.484   6.157
 3492WAT    EPW14676   5.065   4.526   6.196
 3493WAT      O14677   5.729   4.291   6.695
 3493WAT     H114678   5.706   4.290   6.779
 3493WAT     H214679   5.655   4.276   6.653
 3493WAT    EPW14680   5.715   4.288   6.701
 3494WAT      O14681   5.217   3.990   5.609
 3494WAT     H114682   5.170   3.951   5.546
 3494WAT     H214683   5.287   3.939   5.618
 3494WAT    EPW14684   5.220   3.977   5.601
 3495WAT      O14685   5.667   3.551   6.143
 3495WAT     H114686   5.735   3.553   6.088
 3495WAT     H214687   5.663   3.468   6.168
 3495WAT    EPW14688   5.677   3.539   6.139
 3496WAT      O14689   5.728   4.610   6.421
 3496WAT     H114690   5.741   4.686   6.381
 3496WAT     H214691   5.807   4.573   6.424
 3496WAT    EPW14692   5.741   4.616   6.416
 3497WAT      O14693   5.417   3.800   5.611
 3497WAT     H114694   5.498   3.781   5.635
 3497WAT     H214695   5.369   3.739   5.650
 3497WAT    EPW14696   5.422   3.788   5.620
 3498WAT      O14697   5.837   4.398   5.872
 3498WAT     H114698   5.872   4.318   5.875
 3498WAT     H214699   5.904   4.449   5.846
 3498WAT    EPW14700   5.852   4.394   5.869
 3499WAT      O14701   5.843   4.343   5.493
 3499WAT     H114702   5.876   4.279   5.542
 3499WAT     H214703   5.867   4.322   5.412
 3499WAT    EPW14704   5.851   4.331   5.488
 3500WAT      O14705   6.040   3.756   6.627
 3500WAT     H114706   5.955   3.746   6.609
 3500WAT     H214707   6.043   3.831   6.672
 3500WAT    EPW14708   6.028   3.766   6.631
 3501WAT      O14709   5.476   3.310   5.537
 3501WAT     H114710   5.447   3.360   5.472
 3501WAT     H214711   5.563   3.317   5.532
 3501WAT    EPW14712   5.485   3.318   5.527
 3502WAT      O14713   6.495   3.052   6.538
 3502WAT     H114714   6.480   3.129   6.500
 3502WAT     H214715   6.418   3.030   6.573
 3502WAT    EPW14716   6.482   3.060   6.538
 3503WAT      O14717   5.774   3.224   5.760
 3503WAT     H114718   5.782   3.310   5.773
 3503WAT     H214719   5.771   3.216   5.673
 3503WAT    EPW14720   5.775   3.235   5.749
 3504WAT      O14721   6.242   3.516   4.990
 3504WAT     H114722   6.197   3.584   5.020
 3504WAT     H214723   6.253   3.466   5.060
 3504WAT    EPW14724   6.237   3.519   5.005
 3505WAT      O14725   5.062   3.766   5.910
 3505WAT     H114726   5.037   3.849   5.902
 3505WAT     H214727   4.996   3.728   5.952
 3505WAT    EPW14728   5.049   3.773   5.915
 3506WAT      O14729   5.053   4.737   5.700
 3506WAT     H114730   4.994   4.793   5.669
 3506WAT     H214731   5.096   4.710   5.629
 3506WAT    EPW14732   5.051   4.741   5.685
 3507WAT      O14733   5.637   4.522   5.448
 3507WAT     H114734   5.579   4.494   5.507
 3507WAT     H214735   5.700   4.461   5.450
 3507WAT    EPW14736   5.638   4.509   5.457
 3508WAT      O14737   6.252   4.750   5.200
 3508WAT     H114738   6.324   4.798   5.210
 3508WAT     H214739   6.274   4.671   5.228
 3508WAT    EPW14740   6.266   4.746   5.206
 3509WAT      O14741   6.068   4.790   5.399
 3509WAT     H114742   6.090   4.842   5.465
 3509WAT     H214743   6.145   4.772   5.361
 3509WAT    EPW14744   6.083   4.795   5.403
 3510WAT      O14745   5.365   3.248   5.959
 3510WAT     H114746   5.313   3.185   5.928
 3510WAT     H214747   5.424   3.204   6.006
 3510WAT    EPW14748   5.366   3.232   5.961
 3511WAT      O14749   5.696   3.461   6.889
 3511WAT     H114750   5.707   3.416   6.815
 3511WAT     H214751   5.725   3.541   6.868
 3511WAT    EPW14752   5.702   3.466   6.875
 3512WAT      O14753   5.208   4.604   5.493
 3512WAT     H114754   5.273   4.547   5.494
 3512WAT     H214755   5.247   4.679   5.471
 3512WAT    EPW14756   5.223   4.607   5.490
 3513WAT      O14757   6.781   3.514   5.619
 3513WAT     H114758   6.746   3.581   5.662
 3513WAT     H214759   6.717   3.454   5.621
 3513WAT    EPW14760   6.767   3.515   5.626
 3514WAT      O14761   6.312   4.791   6.230
 3514WAT     H114762   6.387   4.836   6.229
 3514WAT     H214763   6.300   4.769   6.146
 3514WAT    EPW14764   6.321   4.794   6.217
 3515WAT      O14765   5.269   3.421   6.787
 3515WAT     H114766   5.191   3.382   6.780
 3515WAT     H214767   5.318   3.380   6.728
 3515WAT    EPW14768   5.265   3.409   6.777
 3516WAT      O14769   5.290   4.453   5.843
 3516WAT     H114770   5.332   4.417   5.776
 3516WAT     H214771   5.322   4.411   5.912
 3516WAT    EPW14772   5.301   4.441   5.843
 3517WAT      O14773   5.613   4.738   5.773
 3517WAT     H114774   5.697   4.749   5.753
 3517WAT     H214775   5.583   4.820   5.779
 3517WAT    EPW14776   5.621   4.752   5.771
 3518WAT      O14777   5.934   3.185   6.704
 3518WAT     H114778   5.952   3.104   6.676
 3518WAT     H214779   5.920   3.229   6.630
 3518WAT    EPW14780   5.934   3.180   6.689
 3519WAT      O14781   5.993   3.678   5.581
 3519WAT     H114782   6.022   3.655   5.502
 3519WAT     H214783   6.067   3.686   5.628
 3519WAT    EPW14784   6.008   3.676   5.577
 3520WAT      O14785   6.066   3.712   5.093
 3520WAT     H114786   6.094   3.791   5.118
 3520WAT     H214787   5.988   3.728   5.057
 3520WAT    EPW14788   6.058   3.726   5.092
 3521WAT      O14789   6.470   4.909   5.240
 3521WAT     H114790   6.536   4.894   5.186
 3521WAT     H214791   6.506   4.901   5.319
 3521WAT    EPW14792   6.485   4.906   5.244
 3522WAT      O14793   5.512   4.860   6.347
 3522WAT     H114794   5.542   4.853   6.429
 3522WAT     H214795   5.450   4.800   6.342
 3522WAT    EPW14796   5.508   4.850   6.358
 3523WAT      O14797   6.749   3.346   6.156
 3523WAT     H114798   6.824   3.353   6.113
 3523WAT     H214799   6.755   3.269   6.196
 3523WAT    EPW14800   6.761   3.336   6.156
 3524WAT      O14801   5.004   3.476   6.546
 3524WAT     H114802   5.003   3.534   6.610
 3524WAT     H214803   5.063   3.507   6.490
 3524WAT    EPW14804   5.013   3.489   6.547
 3525WAT      O14805   6.238   4.509   6.600
 3525WAT     H114806   6.234   4.547   6.678
 3525WAT     H214807   6.323   4.505   6.583
 3525WAT    EPW14808   6.250   4.514   6.609
 3526WAT      O14809   5.951   4.529   5.075
 3526WAT     H114810   5.933   4.583   5.141
 3526WAT     H214811   6.028   4.558   5.045
 3526WAT    EPW14812   5.960   4.541   5.080
 3527WAT      O14813   6.302   3.318   5.180
 3527WAT     H114814   6.356   3.250   5.188
 3527WAT     H214815   6.308   3.358   5.258
 3527WAT    EPW14816   6.311   3.314   5.193
 3528WAT      O14817   5.098   3.435   5.437
 3528WAT     H114818   5.086   3.349   5.440
 3528WAT     H214819   5.050   3.465   5.504
 3528WAT    EPW14820   5.089   3.427   5.448
 3529WAT      O14821   5.312   4.676   6.259
 3529WAT     H114822   5.242   4.625   6.271
 3529WAT     H214823   5.338   4.656   6.178
 3529WAT    EPW14824   5.305   4.666   6.249
 3530WAT      O14825   6.028   3.556   5.312
 3530WAT     H114826   5.977   3.490   5.286
 3530WAT     H214827   6.033   3.606   5.241
 3530WAT    EPW14828   6.021   3.554   5.298
 3531WAT      O14829   6.083   4.826   6.350
 3531WAT     H114830   6.160   4.818   6.309
 3531WAT     H214831   6.025   4.813   6.286
 3531WAT    EPW14832   6.086   4.823   6.334
 3532WAT      O14833   6.028   3.250   5.301
 3532WAT     H114834   5.982   3.210   5.238
 3532WAT     H214835   6.105   3.266   5.263
 3532WAT    EPW14836   6.033   3.247   5.286
 3533WAT      O14837   6.711   4.886   5.640
 3533WAT     H114838   6.665   4.958   5.660
 3533WAT     H214839   6.649   4.829   5.616
 3533WAT    EPW14840   6.695   4.888   5.639
 3534WAT      O14841   5.888   3.487   5.753
 3534WAT     H114842   5.895   3.544   5.687
 3534WAT     H214843   5.900   3.536   5.824
 3534WAT    EPW14844   5.891   3.503   5.754
 3535WAT      O14845   6.410   4.470   5.594
 3535WAT     H114846   6.480   4.422   5.613
 3535WAT     H214847   6.344   4.413   5.599
 3535WAT    EPW14848   6.411   4.455   5.598
 3536WAT      O14849   5.448   4.561   6.515
 3536WAT     H114850   5.532   4.568   6.493
 3536WAT     H214851   5.444   4.601   6.593
 3536WAT    EPW14852   5.460   4.568   6.524
 3537WAT      O14853   5.349   3.069   5.588
 3537WAT     H114854   5.402   3.138   5.587
 3537WAT     H214855   5.349   3.042   5.505
 3537WAT    EPW14856   5.356   3.075   5.575
 3538WAT      O14857   5.644   4.112   5.990
 3538WAT     H114858   5.661   4.091   6.073
 3538WAT     H214859   5.579   4.059   5.969
 3538WAT    EPW14860   5.637   4.101   5.999
 3539WAT      O14861   6.267   3.504   6.342
 3539WAT     H114862   6.257   3.536   6.422
 3539WAT     H214863   6.208   3.440   6.338
 3539WAT    EPW14864   6.257   3.499   6.353
 3540WAT      O14865   5.719   4.106   6.249
 3540WAT     H114866   5.724   4.191   6.270
 3540WAT     H214867   5.691   4.069   6.323
 3540WAT    EPW14868   5.716   4.113   6.263
 3541WAT      O14869   6.337   4.176   6.162
 3541WAT     H114870   6.285   4.135   6.219
 3541WAT     H214871   6.324   4.260   6.180
 3541WAT    EPW14872   6.327   4.182   6.173
 3542WAT      O14873   6.393   3.098   5.625
 3542WAT     H114874   6.397   3.066   5.707
 3542WAT     H214875   6.425   3.034   5.576
 3542WAT    EPW14876   6.398   3.084   5.630
 3543WAT      O14877   5.001   4.543   6.870
 3543WAT     H114878   5.077   4.578   6.896
 3543WAT     H214879   5.019   4.458   6.865
 3543WAT    EPW14880   5.015   4.536   6.873
 3544WAT      O14881   6.639   3.522   6.456
 3544WAT     H114882   6.716   3.499   6.490
 3544WAT     H214883   6.591   3.544   6.526
 3544WAT    EPW14884   6.643   3.522   6.472
 3545WAT      O14885   5.393   3.450   5.753
 3545WAT     H114886   5.421   3.407   5.682
 3545WAT     H214887   5.376   3.387   5.810
 3545WAT    EPW14888   5.395   3.434   5.751
 3546WAT      O14889   6.662   4.220   5.175
 3546WAT     H114890   6.674   4.191   5.257
 3546WAT     H214891   6.743   4.222   5.142
 3546WAT    EPW14892   6.676   4.216   5.182
 3547WAT      O14893   5.376   4.193   5.708
 3547WAT     H114894   5.461   4.185   5.691
 3547WAT     H214895   5.340   4.125   5.667
 3547WAT    EPW14896   5.383   4.182   5.699
 3548WAT      O14897   5.252   4.865   5.832
 3548WAT     H114898   5.185   4.816   5.807
 3548WAT     H214899   5.293   4.884   5.757
 3548WAT    EPW14900   5.248   4.861   5.817
 3549WAT      O14901   5.207   3.560   6.061
 3549WAT     H114902   5.292   3.582   6.057
 3549WAT     H214903   5.169   3.618   6.008
 3549WAT    EPW14904   5.214   3.572   6.053
 3550WAT      O14905   6.886   4.671   6.600
 3550WAT     H114906   6.817   4.702   6.556
 3550WAT     H214907   6.849   4.625   6.665
 3550WAT    EPW14908   6.870   4.668   6.603
 3551WAT      O14909   6.452   3.873   5.134
 3551WAT     H114910   6.430   3.946   5.091
 3551WAT     H214911   6.407   3.878   5.208
 3551WAT    EPW14912   6.442   3.885   5.138
 3552WAT      O14913   5.613   4.194   5.532
 3552WAT     H114914   5.684   4.243   5.541
 3552WAT     H214915   5.635   4.137   5.469
 3552WAT    EPW14916   5.626   4.192   5.524
 3553WAT      O14917   6.870   3.359   5.079
 3553WAT     H114918   6.804   3.303   5.081
 3553WAT     H214919   6.851   3.411   5.011
 3553WAT    EPW14920   6.858   3.359   5.069
 3554WAT      O14921   5.028   4.358   5.864
 3554WAT     H114922   4.961   4.407   5.891
 3554WAT     H214923   5.096   4.412   5.867
 3554WAT    EPW14924   5.028   4.373   5.868
 3555WAT      O14925   5.793   3.729   6.873
 3555WAT     H114926   5.744   3.787   6.917
 3555WAT     H214927   5.790   3.758   6.791
 3555WAT    EPW14928   5.785   3.742   6.868
 3556WAT      O14929   6.903   3.797   6.334
 3556WAT     H114930   6.924   3.717   6.307
 3556WAT     H214931   6.818   3.803   6.316
 3556WAT    EPW14932   6.893   3.786   6.328
 3557WAT      O14933   5.035   4.026   5.374
 3557WAT     H114934   5.016   3.942   5.389
 3557WAT     H214935   5.101   4.023   5.317
 3557WAT    EPW14936   5.042   4.013   5.368
 3558WAT      O14937   6.671   3.315   5.307
 3558WAT     H114938   6.745   3.275   5.327
 3558WAT     H214939   6.697   3.387   5.264
 3558WAT    EPW14940   6.685   3.320   5.303
 3559WAT      O14941   6.065   4.564   5.764
 3559WAT     H114942   6.013   4.627   5.735
 3559WAT     H214943   6.096   4.527   5.691
 3559WAT    EPW14944   6.062   4.568   5.749
 3560WAT      O14945   5.052   4.443   5.331
 3560WAT     H114946   5.107   4.500   5.368
 3560WAT     H214947   5.029   4.391   5.398
 3560WAT    EPW14948   5.057   4.443   5.347
 3561WAT      O14949   5.472   4.343   6.040
 3561WAT     H114950   5.519   4.372   6.108
 3561WAT     H214951   5.530   4.295   5.995
 3561WAT    EPW14952   5.488   4.340   6.044
 3562WAT      O14953   6.316   3.544   5.814
 3562WAT     H114954   6.350   3.559   5.893
 3562WAT     H214955   6.271   3.470   5.825
 3562WAT    EPW14956   6.314   3.535   5.827
 3563WAT      O14957   5.035   4.288   5.094
 3563WAT     H114958   5.111   4.244   5.100
 3563WAT     H214959   5.036   4.341   5.163
 3563WAT    EPW14960   5.046   4.289   5.105
 3564WAT      O14961   5.129   4.110   5.895
 3564WAT     H114962   5.172   4.097   5.820
 3564WAT     H214963   5.108   4.194   5.892
 3564WAT    EPW14964   5.132   4.120   5.883
 3565WAT      O14965   5.764   3.466   5.260
 3565WAT     H114966   5.763   3.454   5.173
 3565WAT     H214967   5.745   3.551   5.269
 3565WAT    EPW14968   5.761   3.477   5.248
 3566WAT      O14969   6.669   4.709   6.409
 3566WAT     H114970   6.602   4.760   6.431
 3566WAT     H214971   6.675   4.719   6.323
 3566WAT    EPW14972   6.660   4.718   6.400
 3567WAT      O14973   5.537   4.461   5.723
 3567WAT     H114974   5.550   4.546   5.742
 3567WAT     H214975   5.604   4.421   5.763
 3567WAT    EPW14976   5.549   4.468   5.732
 3568WAT      O14977   5.350   3.810   6.709
 3568WAT     H114978   5.297   3.759   6.756
 3568WAT     H214979   5.352   3.771   6.631
 3568WAT    EPW14980   5.343   3.796   6.705
 3569WAT      O14981   5.399   3.749   5.223
 3569WAT     H114982   5.386   3.704   5.297
 3569WAT     H214983   5.341   3.715   5.168
 3569WAT    EPW14984   5.388   3.738   5.226
 3570WAT      O14985   5.416   3.932   5.883
 3570WAT     H114986   5.337   3.926   5.845
 3570WAT     H214987   5.423   3.857   5.927
 3570WAT    EPW14988   5.405   3.920   5.884
 3571WAT      O14989   5.459   3.906   6.230
 3571WAT     H114990   5.461   3.838   6.175
 3571WAT     H214991   5.394   3.956   6.199
 3571WAT    EPW14992   5.449   3.903   6.217
 3572WAT      O14993   6.448   3.677   6.069
 3572WAT     H114994   6.382   3.710   6.116
 3572WAT     H214995   6.467   3.741   6.013
 3572WAT    EPW14996   6.441   3.691   6.068
 3573WAT      O14997   5.869   4.784   6.169
 3573WAT     H114998   5.841   4.720   6.117
 3573WAT     H214999   5.848   4.856   6.125
 3573WAT    EPW15000   5.861   4.785   6.155
 3574WAT      O15001   6.113   3.268   6.412
 3574WAT     H115002   6.127   3.185   6.388
 3574WAT     H215003   6.150   3.273   6.491
 3574WAT    EPW15004   6.120   3.256   6.420
 3575WAT      O15005   6.267   3.474   5.421
 3575WAT     H115006   6.316   3.546   5.413
 3575WAT     H215007   6.188   3.500   5.394
 3575WAT    EPW15008   6.263   3.489   5.416
 3576WAT      O15009   5.238   4.041   6.786
 3576WAT     H115010   5.235   4.092   6.714
 3576WAT     H215011   5.272   3.966   6.756
 3576WAT    EPW15012   5.243   4.038   6.771
 3577WAT      O15013   6.399   4.262   6.612
 3577WAT     H115014   6.447   4.334   6.621
 3577WAT     H215015   6.438   4.219   6.546
 3577WAT    EPW15016   6.412   4.266   6.603
 3578WAT      O15017   5.828   4.546   6.729
 3578WAT     H115018   5.864   4.529   6.807
 3578WAT     H215019   5.785   4.474   6.709
 3578WAT    EPW15020   5.827   4.533   6.738
 3579WAT      O15021   5.926   3.621   5.993
 3579WAT     H115022   5.974   3.691   6.014
 3579WAT     H215023   5.963   3.556   6.038
 3579WAT    EPW15024   5.938   3.622   6.003
 3580WAT      O15025   6.144   3.938   5.220
 3580WAT     H115026   6.144   4.010   5.171
 3580WAT     H215027   6.081   3.952   5.278
 3580WAT    EPW15028   6.135   3.951   5.222
 3581WAT      O15029   6.642   4.325   5.619
 3581WAT     H115030   6.677   4.290   5.690
 3581WAT     H215031   6.641   4.259   5.562
 3581WAT    EPW15032   6.647   4.310   5.621
 3582WAT      O15033   6.246   4.632   6.003
 3582WAT     H115034   6.186   4.602   5.947
 3582WAT     H215035   6.301   4.677   5.952
 3582WAT    EPW15036   6.245   4.634   5.987
 3583WAT      O15037   6.247   4.317   5.943
 3583WAT     H115038   6.168   4.339   5.970
 3583WAT     H215039   6.273   4.257   6.001
 3583WAT    EPW15040   6.239   4.311   5.956
 3584WAT      O15041   5.637   4.798   5.388
 3584WAT     H115042   5.622   4.720   5.425
 3584WAT     H215043   5.706   4.783   5.336
 3584WAT    EPW15044   5.645   4.784   5.386
 3585WAT      O15045   5.604   3.172   5.187
 3585WAT     H115046   5.613   3.162   5.273
 3585WAT     H215047   5.533   3.223   5.180
 3585WAT    EPW15048   5.595   3.178   5.198
 3586WAT      O15049   5.866   4.750   5.228
 3586WAT     H115050   5.928   4.766   5.287
 3586WAT     H215051   5.869   4.819   5.175
 3586WAT    EPW15052   5.876   4.762   5.229
 3587WAT      O15053   6.573   4.117   6.428
 3587WAT     H115054   6.579   4.129   6.341
 3587WAT     H215055   6.649   4.149   6.458
 3587WAT    EPW15056   6.585   4.123   6.419
 3588WAT      O15057   6.193   4.651   6.855
 3588WAT     H115058   6.209   4.680   6.936
 3588WAT     H215059   6.219   4.718   6.805
 3588WAT    EPW15060   6.199   4.665   6.860
 3589WAT      O15061   6.677   3.146   6.726
 3589WAT     H115062   6.613   3.106   6.682
 3589WAT     H215063   6.679   3.103   6.802
 3589WAT    EPW15064   6.668   3.134   6.731
 3590WAT      O15065   5.316   4.003   5.311
 3590WAT     H115066   5.348   3.925   5.289
 3590WAT     H215067   5.381   4.040   5.356
 3590WAT    EPW15068   5.330   3.997   5.314
 3591WAT      O15069   6.147   4.097   6.388
 3591WAT     H115070   6.131   4.158   6.448
 3591WAT     H215071   6.200   4.041   6.428
 3591WAT    EPW15072   6.152   4.098   6.402
 3592WAT      O15073   5.016   3.169   5.408
 3592WAT     H115074   5.029   3.098   5.358
 3592WAT     H215075   4.979   3.137   5.480
 3592WAT    EPW15076   5.012   3.154   5.411
 3593WAT      O15077   5.985   3.937   5.453
 3593WAT     H115078   5.991   4.002   5.511
 3593WAT     H215079   5.966   3.868   5.502
 3593WAT    EPW15080   5.983   3.936   5.469
 3594WAT      O15081   6.508   4.370   6.040
 3594WAT     H115082   6.460   4.400   5.974
 3594WAT     H215083   6.472   4.292   6.058
 3594WAT    EPW15084   6.495   4.363   6.033
 3595WAT      O15085   5.435   3.389   5.105
 3595WAT     H115086   5.383   3.394   5.034
 3595WAT     H215087   5.513   3.413   5.075
 3595WAT    EPW15088   5.439   3.393   5.090
 3596WAT      O15089   5.907   4.142   5.896
 3596WAT     H115090   5.823   4.122   5.905
 3596WAT     H215091   5.940   4.125   5.976
 3596WAT    EPW15092   5.899   4.137   5.909
 3597WAT      O15093   5.582   4.815   4.985
 3597WAT     H115094   5.626   4.745   5.014
 3597WAT     H215095   5.603   4.877   5.042
 3597WAT    EPW15096   5.592   4.814   4.998
 3598WAT      O15097   5.292   4.111   6.128
 3598WAT     H115098   5.364   4.160   6.124
 3598WAT     H215099   5.265   4.108   6.045
 3598WAT    EPW15100   5.299   4.118   6.115
 3599WAT      O15101   5.615   3.628   5.802
 3599WAT     H115102   5.700   3.609   5.811
 3599WAT     H215103   5.578   3.551   5.788
 3599WAT    EPW15104   5.622   3.614   5.801
 3600WAT      O15105   6.877   4.787   5.234
 3600WAT     H115106   6.946   4.740   5.209
 3600WAT     H215107   6.823   4.727   5.268
 3600WAT    EPW15108   6.879   4.771   5.236
 3601WAT      O15109   5.097   3.762   5.467
 3601WAT     H115110   5.146   3.733   5.533
 3601WAT     H215111   5.110   3.703   5.404
 3601WAT    EPW15112   5.106   3.749   5.468
 3602WAT      O15113   6.601   4.064   6.152
 3602WAT     H115114   6.600   3.987   6.192
 3602WAT     H215115   6.517   4.088   6.151
 3602WAT    EPW15116   6.588   4.056   6.158
 3603WAT      O15117   5.550   3.905   5.016
 3603WAT     H115118   5.489   3.865   5.063
 3603WAT     H215119   5.511   3.917   4.938
 3603WAT    EPW15120   5.535   3.901   5.011
 3604WAT      O15121   5.232   4.216   6.556
 3604WAT     H115122   5.189   4.165   6.500
 3604WAT     H215123   5.196   4.295   6.542
 3604WAT    EPW15124   5.220   4.220   6.545
 3605WAT      O15125   6.726   4.071   5.896
 3605WAT     H115126   6.698   4.111   5.968
 3605WAT     H215127   6.812   4.065   5.909
 3605WAT    EPW15128   6.735   4.076   5.908
 3606WAT      O15129   5.695   3.752   5.287
 3606WAT     H115130   5.722   3.834   5.293
 3606WAT     H215131   5.609   3.759   5.277
 3606WAT    EPW15132   5.686   3.765   5.286
 3607WAT      O15133   6.492   3.464   6.750
 3607WAT     H115134   6.440   3.510   6.802
 3607WAT     H215135   6.456   3.384   6.749
 3607WAT    EPW15136   6.479   3.459   6.757
 3608WAT      O15137   5.043   3.349   5.940
 3608WAT     H115138   5.048   3.383   5.860
 3608WAT     H215139   5.119   3.372   5.977
 3608WAT    EPW15140   5.055   3.357   5.934
 3609WAT      O15141   6.839   4.635   5.949
 3609WAT     H115142   6.868   4.660   5.871
 3609WAT     H215143   6.909   4.644   6.001
 3609WAT    EPW15144   6.854   4.640   5.945
 3610WAT      O15145   6.342   3.821   6.757
 3610WAT     H115146   6.349   3.831   6.844
 3610WAT     H215147   6.278   3.876   6.735
 3610WAT    EPW15148   6.333   3.830   6.767
 3611WAT      O15149   6.568   3.853   6.594
 3611WAT     H115150   6.600   3.931   6.614
 3611WAT     H215151   6.531   3.826   6.668
 3611WAT    EPW15152   6.568   3.860   6.608
 3612WAT      O15153   6.500   4.495   5.147
 3612WAT     H115154   6.533   4.414   5.150
 3612WAT     H215155   6.424   4.488   5.190
 3612WAT    EPW15156   6.494   4.482   5.154
 3613WAT      O15157   6.548   3.678   5.713
 3613WAT     H115158   6.474   3.646   5.745
 3613WAT     H215159   6.548   3.761   5.741
 3613WAT    EPW15160   6.537   3.686   5.722
 3614WAT      O15161   6.838   3.907   6.867
 3614WAT     H115162   6.833   3.873   6.787
 3614WAT     H215163   6.912   3.953   6.865
 3614WAT    EPW15164   6.848   3.909   6.855
 3615WAT      O15165   6.792   4.274   6.488
 3615WAT     H115166   6.855   4.219   6.462
 3615WAT     H215167   6.786   4.331   6.422
 3615WAT    EPW15168   6.800   4.275   6.474
 3616WAT      O15169   6.237   4.282   5.087
 3616WAT     H115170   6.306   4.231   5.070
 3616WAT     H215171   6.196   4.287   5.011
 3616WAT    EPW15172   6.241   4.276   5.073
 3617WAT      O15173   5.705   4.397   6.218
 3617WAT     H115174   5.676   4.457   6.274
 3617WAT     H215175   5.711   4.442   6.143
 3617WAT    EPW15176   5.702   4.413   6.215
 3618WAT      O15177   5.503   4.292   6.557
 3618WAT     H115178   5.423   4.263   6.574
 3618WAT     H215179   5.494   4.379   6.558
 3618WAT    EPW15180   5.490   4.301   6.560
 3619WAT      O15181   6.439   3.311   6.459
 3619WAT     H115182   6.514   3.357   6.453
 3619WAT     H215183   6.383   3.358   6.412
 3619WAT    EPW15184   6.442   3.325   6.451
 3620WAT      O15185   5.957   4.040   6.167
 3620WAT     H115186   6.005   4.077   6.230
 3620WAT     H215187   5.875   4.053   6.193
 3620WAT    EPW15188   5.952   4.047   6.180
 3621WAT      O15189   5.628   3.600   6.441
 3621WAT     H115190   5.644   3.526   6.484
 3621WAT     H215191   5.624   3.575   6.357
 3621WAT    EPW15192   5.630   3.585   6.435
 3622WAT      O15193   5.883   4.779   5.690
 3622WAT     H115194   5.938   4.847   5.695
 3622WAT     H215195   5.848   4.787   5.610
 3622WAT    EPW15196   5.886   4.790   5.679
 3623WAT      O15197   6.568   3.109   6.226
 3623WAT     H115198   6.540   3.192   6.222
 3623WAT     H215199   6.639   3.115   6.276
 3623WAT    EPW15200   6.574   3.122   6.233
 3624WAT      O15201   5.803   3.181   6.429
 3624WAT     H115202   5.874   3.213   6.389
 3624WAT     H215203   5.827   3.100   6.452
 3624WAT    EPW15204   5.817   3.174   6.426
 3625WAT      O15205   5.702   4.602   6.028
 3625WAT     H115206   5.639   4.660   6.010
 3625WAT     H215207   5.727   4.573   5.950
 3625WAT    EPW15208   5.696   4.606   6.014
 3626WAT      O15209   6.133   4.265   6.727
 3626WAT     H115210   6.208   4.294   6.695
 3626WAT     H215211   6.078   4.270   6.660
 3626WAT    EPW15212   6.136   4.270   6.712
 3627WAT      O15213   6.524   4.520   6.578
 3627WAT     H115214   6.558   4.547   6.653
 3627WAT     H215215   6.553   4.578   6.520
 3627WAT    EPW15216   6.533   4.533   6.580
 3628WAT      O15217   6.710   3.735   5.112
 3628WAT     H115218   6.748   3.803   5.072
 3628WAT     H215219   6.626   3.757   5.115
 3628WAT    EPW15220   6.703   3.748   5.106
 3629WAT      O15221   5.861   4.079   5.020
 3629WAT     H115222   5.781   4.062   4.991
 3629WAT     H215223   5.858   4.165   5.039
 3629WAT    EPW15224   5.849   4.089   5.019
 3630WAT      O15225   5.454   3.686   6.035
 3630WAT     H115226   5.498   3.676   5.960
 3630WAT     H215227   5.509   3.655   6.095
 3630WAT    EPW15228   5.469   3.680   6.033
 3631WAT      O15229   6.256   3.596   6.594
 3631WAT     H115230   6.191   3.643   6.629
 3631WAT     H215231   6.312   3.587   6.660
 3631WAT    EPW15232   6.255   3.602   6.609
 3632WAT      O15233   6.225   3.750   6.224
 3632WAT     H115234   6.255   3.792   6.294
 3632WAT     H215235   6.228   3.666   6.247
 3632WAT    EPW15236   6.230   3.744   6.238
 3633WAT      O15237   5.967   4.767   6.616
 3633WAT     H115238   6.015   4.707   6.575
 3633WAT     H215239   5.932   4.722   6.683
 3633WAT    EPW15240   5.969   4.751   6.620
 3634WAT      O15241   6.479   3.695   5.449
 3634WAT     H115242   6.500   3.675   5.532
 3634WAT     H215243   6.555   3.722   5.415
 3634WAT    EPW15244   6.494   3.696   5.456
 3635WAT      O15245   5.809   3.185   6.040
 3635WAT     H115246   5.726   3.170   6.063
 3635WAT     H215247   5.805   3.188   5.953
 3635WAT    EPW15248   5.796   3.183   6.030
 3636WAT      O15249   6.582   3.303   5.597
 3636WAT     H115250   6.510   3.256   5.614
 3636WAT     H215251   6.565   3.337   5.518
 3636WAT    EPW15252   6.569   3.301   5.587
 3637WAT      O15253   6.626   4.097   5.435
 3637WAT     H115254   6.673   4.025   5.430
 3637WAT     H215255   6.544   4.069   5.427
 3637WAT    EPW15256   6.621   4.082   5.433
 3638WAT      O15257   5.973   4.289   6.518
 3638WAT     H115258   5.893   4.282   6.554
 3638WAT     H215259   5.980   4.373   6.499
 3638WAT    EPW15260   5.962   4.300   6.521
 3639WAT      O15261   5.065   3.224   6.643
 3639WAT     H115262   5.051   3.304   6.610
 3639WAT     H215263   4.987   3.200   6.672
 3639WAT    EPW15264   5.052   3.233   6.643
 3640WAT      O15265   5.556   4.909   6.050
 3640WAT     H115266   5.557   4.915   6.137
 3640WAT     H215267   5.513   4.835   6.035
 3640WAT    EPW15268   5.550   4.899   6.061
 3641WAT      O15269   5.372   3.499   5.366
 3641WAT     H115270   5.384   3.466   5.286
 3641WAT     H215271   5.291   3.474   5.386
 3641WAT    EPW15272   5.362   3.490   5.357
 3642WAT      O15273   6.247   4.214   5.670
 3642WAT     H115274   6.255   4.248   5.750
 3642WAT     H215275   6.264   4.129   5.682
 3642WAT    EPW15276   6.251   4.207   5.684
 3643WAT      O15277   6.000   4.142   5.627
 3643WAT     H115278   5.970   4.110   5.702
 3643WAT     H215279   6.069   4.189   5.650
 3643WAT    EPW15280   6.006   4.144   5.641
 3644WAT      O15281   6.022   4.553   6.429
 3644WAT     H115282   6.091   4.542   6.482
 3644WAT     H215283   6.035   4.632   6.395
 3644WAT    EPW15284   6.034   4.563   6.432
 3645WAT      O15285   6.839   3.814   6.610
 3645WAT     H115286   6.754   3.802   6.623
 3645WAT     H215287   6.855   3.775   6.534
 3645WAT    EPW15288   6.829   3.807   6.601
 3646WAT      O15289   6.291   3.881   6.468
 3646WAT     H115290   6.265   3.809   6.510
 3646WAT     H215291   6.373   3.892   6.495
 3646WAT    EPW15292   6.299   3.872   6.478
 3647WAT      O15293   5.232   4.859   6.594
 3647WAT     H115294   5.167   4.802   6.604
 3647WAT     H215295   5.195   4.936   6.609
 3647WAT    EPW15296   5.217   4.862   6.598
 3648WAT      O15297   6.084   4.000   6.787
 3648WAT     H115298   6.116   4.068   6.743
 3648WAT     H215299   6.014   4.032   6.827
 3648WAT    EPW15300   6.078   4.015   6.786
 3649WAT      O15301   6.393   4.837   5.880
 3649WAT     H115302   6.347   4.901   5.917
 3649WAT     H215303   6.463   4.829   5.930
 3649WAT    EPW15304   6.396   4.845   5.893
 3650WAT      O15305   6.063   4.346   6.173
 3650WAT     H115306   5.993   4.386   6.207
 3650WAT     H215307   6.130   4.389   6.206
 3650WAT    EPW15308   6.062   4.358   6.183
 3651WAT      O15309   6.600   4.605   6.831
 3651WAT     H115310   6.678   4.566   6.839
 3651WAT     H215311   6.553   4.572   6.896
 3651WAT    EPW15312   6.605   4.595   6.841
 3652WAT      O15313   5.369   3.700   6.407
 3652WAT     H115314   5.407   3.762   6.359
 3652WAT     H215315   5.437   3.653   6.436
 3652WAT    EPW15316   5.385   3.702   6.404
 3653WAT      O15317   5.147   3.545   6.335
 3653WAT     H115318   5.155   3.528   6.249
 3653WAT     H215319   5.222   3.585   6.354
 3653WAT    EPW15320   5.159   3.548   6.325
 3654WAT      O15321   6.703   3.809   5.379
 3654WAT     H115322   6.713   3.803   5.292
 3654WAT     H215323   6.777   3.776   5.411
 3654WAT    EPW15324   6.715   3.803   5.371
 3655WAT      O15325   5.402   3.286   6.576
 3655WAT     H115326   5.394   3.201   6.596
 3655WAT     H215327   5.371   3.290   6.495
 3655WAT    EPW15328   5.397   3.274   6.567
 3656WAT      O15329   6.095   4.505   5.489
 3656WAT     H115330   6.074   4.589   5.474
 3656WAT     H215331   6.017   4.467   5.502
 3656WAT    EPW15332   6.080   4.512   5.489
 3657WAT      O15333   6.613   3.823   6.314
 3657WAT     H115334   6.613   3.737   6.327
 3657WAT     H215335   6.620   3.856   6.395
 3657WAT    EPW15336   6.614   3.815   6.328
 3658WAT      O15337   5.087   4.067   6.357
 3658WAT     H115338   5.119   4.089   6.279
 3658WAT     H215339   5.077   3.981   6.352
 3658WAT    EPW15340   5.090   4.058   6.345
 3659WAT      O15341   5.232   3.661   5.019
 3659WAT     H115342   5.165   3.662   5.075
 3659WAT     H215343   5.242   3.576   5.001
 3659WAT    EPW15344   5.224   3.649   5.024
 3660WAT      O15345   6.201   3.303   6.693
 3660WAT     H115346   6.210   3.375   6.742
 3660WAT     H215347   6.137   3.259   6.732
 3660WAT    EPW15348   6.193   3.307   6.706
 3661WAT      O15349   6.100   3.322   5.778
 3661WAT     H115350   6.030   3.374   5.772
 3661WAT     H215351   6.104   3.284   5.700
 3661WAT    EPW15352   6.091   3.324   5.766
 3662WAT      O15353   5.631   4.531   5.130
 3662WAT     H115354   5.675   4.539   5.205
 3662WAT     H215355   5.551   4.510   5.156
 3662WAT    EPW15356   5.626   4.529   5.145
 3663WAT      O15357   6.460   3.374   6.058
 3663WAT     H115358   6.546   3.384   6.072
 3663WAT     H215359   6.423   3.429   6.114
 3663WAT    EPW15360   6.467   3.384   6.068
 3664WAT      O15361   5.563   3.997   6.496
 3664WAT     H115362   5.523   4.074   6.503
 3664WAT     H215363   5.522   3.959   6.428
 3664WAT    EPW15364   5.551   4.002   6.487
 3665WAT      O15365   6.491   3.902   5.907
 3665WAT     H115366   6.557   3.956   5.923
 3665WAT     H215367   6.456   3.933   5.833
 3665WAT    EPW15368   6.495   3.915   5.899
 3666WAT      O15369   6.522   4.709   5.488
 3666WAT     H115370   6.504   4.643   5.543
 3666WAT     H215371   6.593   4.681   5.445
 3666WAT    EPW15372   6.530   4.695   5.490
 3667WAT      O15373   5.364   4.438   5.190
 3667WAT     H115374   5.340   4.408   5.268
 3667WAT     H215375   5.361   4.368   5.139
 3667WAT    EPW15376   5.360   4.424   5.194
 3668WAT      O15377   5.646   4.263   5.065
 3668WAT     H115378   5.564   4.236   5.079
 3668WAT     H215379   5.643   4.348   5.083
 3668WAT    EPW15380   5.633   4.272   5.070
 3669WAT      O15381   5.606   3.294   6.241
 3669WAT     H115382   5.519   3.303   6.249
 3669WAT     H215383   5.628   3.243   6.308
 3669WAT    EPW15384   5.596   3.288   6.252
 3670WAT      O15385   6.808   3.158   6.374
 3670WAT     H115386   6.802   3.153   6.461
 3670WAT     H215387   6.876   3.107   6.355
 3670WAT    EPW15388   6.817   3.150   6.384
 3671WAT      O15389   6.016   3.369   6.078
 3671WAT     H115390   5.942   3.324   6.089
 3671WAT     H215391   6.073   3.329   6.130
 3671WAT    EPW15392   6.014   3.356   6.087
 3672WAT      O15393   6.289   4.454   6.257
 3672WAT     H115394   6.310   4.484   6.336
 3672WAT     H215395   6.283   4.526   6.208
 3672WAT    EPW15396   6.291   4.469   6.261
 3673WAT      O15397   6.243   4.875   6.681
 3673WAT     H115398   6.167   4.873   6.637
 3673WAT     H215399   6.260   4.960   6.690
 3673WAT    EPW15400   6.234   4.888   6.676
 3674WAT      O15401   5.766   3.802   6.598
 3674WAT     H115402   5.734   3.744   6.541
 3674WAT     H215403   5.731   3.877   6.574
 3674WAT    EPW15404   5.756   3.805   6.586
 3675WAT      O15405   5.846   3.127   5.061
 3675WAT     H115406   5.854   3.152   4.978
 3675WAT     H215407   5.772   3.165   5.087
 3675WAT    EPW15408   5.836   3.136   5.053
 3676WAT      O15409   6.771   4.318   6.203
 3676WAT     H115410   6.767   4.232   6.189
 3676WAT     H215411   6.701   4.348   6.159
 3676WAT    EPW15412   6.760   4.309   6.194
 3677WAT      O15413   5.610   4.838   6.623
 3677WAT     H115414   5.614   4.850   6.710
 3677WAT     H215415   5.675   4.782   6.608
 3677WAT    EPW15416   5.620   4.831   6.634
 3678WAT      O15417   6.581   4.644   6.082
 3678WAT     H115418   6.634   4.635   6.013
 3678WAT     H215419   6.542   4.566   6.088
 3678WAT    EPW15420   6.583   4.631   6.073
 3679WAT      O15421   5.328   3.303   6.305
 3679WAT     H115422   5.294   3.226   6.282
 3679WAT     H215423   5.258   3.355   6.312
 3679WAT    EPW15424   5.313   3.299   6.303
 3680WAT      O15425   6.232   3.188   6.003
 3680WAT     H115426   6.299   3.243   6.016
 3680WAT     H215427   6.182   3.231   5.946
 3680WAT    EPW15428   6.235   3.202   5.997
 3681WAT      O15429   5.369   4.676   6.759
 3681WAT     H115430   5.429   4.719   6.806
 3681WAT     H215431   5.333   4.738   6.710
 3681WAT    EPW15432   5.373   4.691   6.759
 3682WAT      O15433   6.168   3.769   5.752
 3682WAT     H115434   6.223   3.708   5.782
 3682WAT     H215435   6.126   3.795   5.824
 3682WAT    EPW15436   6.170   3.764   5.767
 3683WAT      O15437   5.193   3.634   5.701
 3683WAT     H115438   5.156   3.664   5.774
 3683WAT     H215439   5.247   3.571   5.729
 3683WAT    EPW15440   5.196   3.629   5.716
 3684WAT      O15441   5.162   4.475   6.452
 3684WAT     H115442   5.105   4.516   6.503
 3684WAT     H215443   5.235   4.521   6.462
 3684WAT    EPW15444   5.164   4.488   6.461
 3685WAT      O15445   6.365   3.952   5.409
 3685WAT     H115446   6.372   3.867   5.427
 3685WAT     H215447   6.283   3.961   5.381
 3685WAT    EPW15448   6.354   3.941   5.407
 3686WAT      O15449   5.341   4.801   5.330
 3686WAT     H115450   5.326   4.817   5.245
 3686WAT     H215451   5.427   4.809   5.337
 3686WAT    EPW15452   5.351   4.805   5.318
 3687WAT      O15453   5.757   4.041   5.302
 3687WAT     H115454   5.767   4.055   5.217
 3687WAT     H215455   5.839   4.035   5.332
 3687WAT    EPW15456   5.771   4.042   5.294
 3688WAT      O15457   6.673   4.848   5.050
 3688WAT     H115458   6.737   4.834   5.109
 3688WAT     H215459   6.639   4.768   5.039
 3688WAT    EPW15460   6.678   4.834   5.057
 3689WAT      O15461   6.693   4.089   6.724
 3689WAT     H115462   6.756   4.072   6.781
 3689WAT     H215463   6.734   4.130   6.659
 3689WAT    EPW15464   6.708   4.093   6.723
 3690WAT      O15465   6.281   4.474   5.283
 3690WAT     H115466   6.256   4.461   5.365
 3690WAT     H215467   6.249   4.405   5.241
 3690WAT    EPW15468   6.272   4.462   5.289
 3691WAT      O15469   6.755   3.546   6.798
 3691WAT     H115470   6.736   3.610   6.853
 3691WAT     H215471   6.683   3.497   6.797
 3691WAT    EPW15472   6.742   3.548   6.806
 3692WAT      O15473   6.745   3.640   6.095
 3692WAT     H115474   6.662   3.665   6.087
 3692WAT     H215475   6.740   3.556   6.118
 3692WAT    EPW15476   6.732   3.631   6.097
 3693WAT      O15477   5.671   3.339   6.614
 3693WAT     H115478   5.695   3.281   6.553
 3693WAT     H215479   5.587   3.321   6.628
 3693WAT    EPW15480   5.662   3.327   6.607
 3694WAT      O15481   6.434   4.100   6.859
 3694WAT     H115482   6.521   4.097   6.856
 3694WAT     H215483   6.412   4.142   6.786
 3694WAT    EPW15484   6.444   4.106   6.848
 3695WAT      O15485   5.409   4.683   5.977
 3695WAT     H115486   5.401   4.602   5.946
 3695WAT     H215487   5.365   4.732   5.920
 3695WAT    EPW15488   5.402   4.678   5.964
 3696WAT      O15489   5.969   4.295   5.226
 3696WAT     H115490   6.041   4.260   5.190
 3696WAT     H215491   5.966   4.375   5.191
 3696WAT    EPW15492   5.979   4.302   5.215
 3697WAT      O15493   5.166   4.907   6.335
 3697WAT     H115494   5.216   4.902   6.407
 3697WAT     H215495   5.185   4.834   6.292
 3697WAT    EPW15496   5.177   4.896   6.340
 3698WAT      O15497   6.110   3.159   3.650
 3698WAT     H115498   6.086   3.208   3.582
 3698WAT     H215499   6.197   3.152   3.640
 3698WAT    EPW15500   6.119   3.165   3.638
 3699WAT      O15501   5.078   4.265   3.662
 3699WAT     H115502   5.034   4.276   3.737
 3699WAT     H215503   5.050   4.187   3.634
 3699WAT    EPW15504   5.067   4.255   3.669
 3700WAT      O15505   6.706   4.595   3.414
 3700WAT     H115506   6.776   4.543   3.413
 3700WAT     H215507   6.647   4.550   3.367
 3700WAT    EPW15508   6.707   4.580   3.407
 3701WAT      O15509   5.366   4.170   3.180
 3701WAT     H115510   5.327   4.133   3.112
 3701WAT     H215511   5.358   4.110   3.243
 3701WAT    EPW15512   5.359   4.156   3.179
 3702WAT      O15513   6.358   3.957   3.784
 3702WAT     H115514   6.366   3.958   3.697
 3702WAT     H215515   6.300   3.894   3.799
 3702WAT    EPW15516   6.351   3.948   3.774
 3703WAT      O15517   5.329   4.334   3.570
 3703WAT     H115518   5.390   4.317   3.630
 3703WAT     H215519   5.254   4.320   3.612
 3703WAT    EPW15520   5.327   4.330   3.585
 3704WAT      O15521   5.757   3.268   3.565
 3704WAT     H115522   5.750   3.335   3.510
 3704WAT     H215523   5.831   3.229   3.540
 3704WAT    EPW15524   5.767   3.272   3.553
 3705WAT      O15525   5.072   4.538   4.288
 3705WAT     H115526   5.085   4.510   4.369
 3705WAT     H215527   5.011   4.484   4.257
 3705WAT    EPW15528   5.065   4.526   4.295
 3706WAT      O15529   5.729   4.291   4.794
 3706WAT     H115530   5.706   4.290   4.878
 3706WAT     H215531   5.655   4.276   4.752
 3706WAT    EPW15532   5.715   4.288   4.801
 3707WAT      O15533   5.667   3.551   4.243
 3707WAT     H115534   5.735   3.553   4.188
 3707WAT     H215535   5.663   3.468   4.267
 3707WAT    EPW15536   5.677   3.539   4.238
 3708WAT      O15537   5.728   4.610   4.521
 3708WAT     H115538   5.741   4.686   4.480
 3708WAT     H215539   5.807   4.573   4.523
 3708WAT    EPW15540   5.741   4.616   4.515
 3709WAT      O15541   5.417   3.800   3.710
 3709WAT     H115542   5.498   3.781   3.735
 3709WAT     H215543   5.369   3.739   3.750
 3709WAT    EPW15544   5.422   3.788   3.720
 3710WAT      O15545   5.837   4.398   3.971
 3710WAT     H115546   5.872   4.318   3.974
 3710WAT     H215547   5.904   4.449   3.946
 3710WAT    EPW15548   5.852   4.394   3.968
 3711WAT      O15549   5.843   4.343   3.592
 3711WAT     H115550   5.876   4.279   3.641
 3711WAT     H215551   5.867   4.322   3.511
 3711WAT    EPW15552   5.851   4.331   3.588
 3712WAT      O15553   6.040   3.756   4.726
 3712WAT     H115554   5.955   3.746   4.708
 3712WAT     H215555   6.043   3.831   4.772
 3712WAT    EPW15556   6.028   3.766   4.730
 3713WAT      O15557   5.476   3.310   3.637
 3713WAT     H115558   5.447   3.360   3.572
 3713WAT     H215559   5.563   3.317   3.631
 3713WAT    EPW15560   5.485   3.318   3.626
 3714WAT      O15561   6.495   3.052   4.638
 3714WAT     H115562   6.480   3.129   4.599
 3714WAT     H215563   6.418   3.030   4.672
 3714WAT    EPW15564   6.482   3.060   4.637
 3715WAT      O15565   5.774   3.224   3.859
 3715WAT     H115566   5.782   3.310   3.872
 3715WAT     H215567   5.771   3.216   3.772
 3715WAT    EPW15568   5.775   3.235   3.848
 3716WAT      O15569   6.242   3.516   3.089
 3716WAT     H115570   6.197   3.584   3.120
 3716WAT     H215571   6.253   3.466   3.159
 3716WAT    EPW15572   6.237   3.519   3.104
 3717WAT      O15573   5.062   3.766   4.009
 3717WAT     H115574   5.037   3.849   4.002
 3717WAT     H215575   4.996   3.728   4.051
 3717WAT    EPW15576   5.049   3.773   4.014
 3718WAT      O15577   5.053   4.737   3.799
 3718WAT     H115578   4.994   4.793   3.768
 3718WAT     H215579   5.096   4.710   3.728
 3718WAT    EPW15580   5.051   4.741   3.784
 3719WAT      O15581   5.637   4.522   3.547
 3719WAT     H115582   5.579   4.494   3.606
 3719WAT     H215583   5.700   4.461   3.550
 3719WAT    EPW15584   5.638   4.509   3.556
 3720WAT      O15585   6.252   4.750   3.299
 3720WAT     H115586   6.324   4.798   3.310
 3720WAT     H215587   6.274   4.671   3.327
 3720WAT    EPW15588   6.266   4.746   3.305
 3721WAT      O15589   6.068   4.790   3.498
 3721WAT     H115590   6.090   4.842   3.565
 3721WAT     H215591   6.145   4.772   3.461
 3721WAT    EPW15592   6.083   4.795   3.503
 3722WAT      O15593   5.365   3.248   4.058
 3722WAT     H115594   5.313   3.185   4.028
 3722WAT     H215595   5.424   3.204   4.105
 3722WAT    EPW15596   5.366   3.232   4.061
 3723WAT      O15597   5.696   3.461   4.988
 3723WAT     H115598   5.707   3.416   4.915
 3723WAT     H215599   5.725   3.541   4.968
 3723WAT    EPW15600   5.702   3.466   4.974
 3724WAT      O15601   5.208   4.604   3.592
 3724WAT     H115602   5.273   4.547   3.594
 3724WAT     H215603   5.247   4.679   3.570
 3724WAT    EPW15604   5.223   4.607   3.589
 3725WAT      O15605   6.781   3.514   3.719
 3725WAT     H115606   6.746   3.581   3.761
 3725WAT     H215607   6.717   3.454   3.720
 3725WAT    EPW15608   6.767   3.515   3.725
 3726WAT      O15609   6.312   4.791   4.329
 3726WAT     H115610   6.387   4.836   4.328
 3726WAT     H215611   6.300   4.769   4.245
 3726WAT    EPW15612   6.321   4.794   4.316
 3727WAT      O15613   5.269   3.421   4.887
 3727WAT     H115614   5.191   3.382   4.879
 3727WAT     H215615   5.318   3.380   4.827
 3727WAT    EPW15616   5.265   3.409   4.877
 3728WAT      O15617   5.290   4.453   3.942
 3728WAT     H115618   5.332   4.417   3.875
 3728WAT     H215619   5.322   4.411   4.012
 3728WAT    EPW15620   5.301   4.441   3.943
 3729WAT      O15621   5.613   4.738   3.872
 3729WAT     H115622   5.697   4.749   3.852
 3729WAT     H215623   5.583   4.820   3.879
 3729WAT    EPW15624   5.621   4.752   3.870
 3730WAT      O15625   5.934   3.185   4.803
 3730WAT     H115626   5.952   3.104   4.776
 3730WAT     H215627   5.920   3.229   4.729
 3730WAT    EPW15628   5.934   3.180   4.788
 3731WAT      O15629   5.993   3.678   3.681
 3731WAT     H115630   6.022   3.655   3.602
 3731WAT     H215631   6.067   3.686   3.728
 3731WAT    EPW15632   6.008   3.676   3.676
 3732WAT      O15633   6.066   3.712   3.193
 3732WAT     H115634   6.094   3.791   3.218
 3732WAT     H215635   5.988   3.728   3.156
 3732WAT    EPW15636   6.058   3.726   3.191
 3733WAT      O15637   6.470   4.909   3.339
 3733WAT     H115638   6.536   4.894   3.285
 3733WAT     H215639   6.506   4.901   3.418
 3733WAT    EPW15640   6.485   4.906   3.343
 3734WAT      O15641   5.512   4.860   4.446
 3734WAT     H115642   5.542   4.853   4.528
 3734WAT     H215643   5.450   4.800   4.441
 3734WAT    EPW15644   5.508   4.850   4.457
 3735WAT      O15645   6.749   3.346   4.255
 3735WAT     H115646   6.824   3.353   4.213
 3735WAT     H215647   6.755   3.269   4.295
 3735WAT    EPW15648   6.761   3.336   4.255
 3736WAT      O15649   5.004   3.476   4.645
 3736WAT     H115650   5.003   3.534   4.710
 3736WAT     H215651   5.063   3.507   4.589
 3736WAT    EPW15652   5.013   3.489   4.646
 3737WAT      O15653   6.238   4.509   4.699
 3737WAT     H115654   6.234   4.547   4.778
 3737WAT     H215655   6.323   4.505   4.682
 3737WAT    EPW15656   6.250   4.514   4.708
 3738WAT      O15657   5.951   4.529   3.174
 3738WAT     H115658   5.933   4.583   3.240
 3738WAT     H215659   6.028   4.558   3.144
 3738WAT    EPW15660   5.960   4.541   3.180
 3739WAT      O15661   6.302   3.318   3.280
 3739WAT     H115662   6.356   3.250   3.287
 3739WAT     H215663   6.308   3.358   3.357
 3739WAT    EPW15664   6.311   3.314   3.292
 3740WAT      O15665   5.312   4.676   4.358
 3740WAT     H115666   5.242   4.625   4.371
 3740WAT     H215667   5.338   4.656   4.277
 3740WAT    EPW15668   5.305   4.666   4.348
 3741WAT      O15669   6.028   3.556   3.411
 3741WAT     H115670   5.977   3.490   3.386
 3741WAT     H215671   6.033   3.606   3.340
 3741WAT    EPW15672   6.021   3.554   3.397
 3742WAT      O15673   6.083   4.826   4.449
 3742WAT     H115674   6.160   4.818   4.409
 3742WAT     H215675   6.025   4.813   4.385
 3742WAT    EPW15676   6.086   4.823   4.434
 3743WAT      O15677   6.028   3.250   3.400
 3743WAT     H115678   5.982   3.210   3.338
 3743WAT     H215679   6.105   3.266   3.363
 3743WAT    EPW15680   6.033   3.247   3.385
 3744WAT      O15681   6.711   4.886   3.739
 3744WAT     H115682   6.665   4.958   3.759
 3744WAT     H215683   6.649   4.829   3.715
 3744WAT    EPW15684   6.695   4.888   3.739
 3745WAT      O15685   5.888   3.487   3.852
 3745WAT     H115686   5.895   3.544   3.787
 3745WAT     H215687   5.900   3.536   3.923
 3745WAT    EPW15688   5.891   3.503   3.853
 3746WAT      O15689   6.410   4.470   3.694
 3746WAT     H115690   6.480   4.422   3.713
 3746WAT     H215691   6.344   4.413   3.698
 3746WAT    EPW15692   6.411   4.455   3.697
 3747WAT      O15693   5.448   4.561   4.615
 3747WAT     H115694   5.532   4.568   4.593
 3747WAT     H215695   5.444   4.601   4.692
 3747WAT    EPW15696   5.460   4.568   4.623
 3748WAT      O15697   5.644   4.112   4.090
 3748WAT     H115698   5.661   4.091   4.173
 3748WAT     H215699   5.579   4.059   4.068
 3748WAT    EPW15700   5.637   4.101   4.099
 3749WAT      O15701   6.267   3.504   4.441
 3749WAT     H115702   6.257   3.536   4.522
 3749WAT     H215703   6.208   3.440   4.437
 3749WAT    EPW15704   6.257   3.499   4.453
 3750WAT      O15705   5.719   4.106   4.349
 3750WAT     H115706   5.724   4.191   4.369
 3750WAT     H215707   5.691   4.069   4.422
 3750WAT    EPW15708   5.716   4.113   4.363
 3751WAT      O15709   6.337   4.176   4.262
 3751WAT     H115710   6.285   4.135   4.319
 3751WAT     H215711   6.324   4.260   4.280
 3751WAT    EPW15712   6.327   4.182   4.273
 3752WAT      O15713   6.393   3.098   3.725
 3752WAT     H115714   6.397   3.066   3.806
 3752WAT     H215715   6.425   3.034   3.676
 3752WAT    EPW15716   6.398   3.084   3.730
 3753WAT      O15717   5.001   4.543   4.970
 3753WAT     H115718   5.077   4.578   4.996
 3753WAT     H215719   5.019   4.458   4.964
 3753WAT    EPW15720   5.015   4.536   4.973
 3754WAT      O15721   6.639   3.522   4.556
 3754WAT     H115722   6.716   3.499   4.589
 3754WAT     H215723   6.591   3.544   4.626
 3754WAT    EPW15724   6.643   3.522   4.571
 3755WAT      O15725   5.393   3.450   3.853
 3755WAT     H115726   5.421   3.407   3.782
 3755WAT     H215727   5.376   3.387   3.910
 3755WAT    EPW15728   5.395   3.434   3.851
 3756WAT      O15729   6.662   4.220   3.274
 3756WAT     H115730   6.674   4.191   3.356
 3756WAT     H215731   6.743   4.222   3.241
 3756WAT    EPW15732   6.676   4.216   3.282
 3757WAT      O15733   5.376   4.193   3.808
 3757WAT     H115734   5.461   4.185   3.790
 3757WAT     H215735   5.340   4.125   3.766
 3757WAT    EPW15736   5.383   4.182   3.799
 3758WAT      O15737   5.252   4.865   3.931
 3758WAT     H115738   5.185   4.816   3.907
 3758WAT     H215739   5.293   4.884   3.856
 3758WAT    EPW15740   5.248   4.861   3.917
 3759WAT      O15741   5.207   3.560   4.161
 3759WAT     H115742   5.292   3.582   4.157
 3759WAT     H215743   5.169   3.618   4.108
 3759WAT    EPW15744   5.214   3.572   4.152
 3760WAT      O15745   6.886   4.671   4.700
 3760WAT     H115746   6.817   4.702   4.655
 3760WAT     H215747   6.849   4.625   4.764
 3760WAT    EPW15748   6.870   4.668   4.703
 3761WAT      O15749   6.452   3.873   3.233
 3761WAT     H115750   6.430   3.946   3.191
 3761WAT     H215751   6.407   3.878   3.308
 3761WAT    EPW15752   6.442   3.885   3.238
 3762WAT      O15753   5.613   4.194   3.631
 3762WAT     H115754   5.684   4.243   3.640
 3762WAT     H215755   5.635   4.137   3.568
 3762WAT    EPW15756   5.626   4.192   3.623
 3763WAT      O15757   6.870   3.359   3.178
 3763WAT     H115758   6.804   3.303   3.181
 3763WAT     H215759   6.851   3.411   3.110
 3763WAT    EPW15760   6.858   3.359   3.169
 3764WAT      O15761   5.028   4.358   3.963
 3764WAT     H115762   4.961   4.407   3.991
 3764WAT     H215763   5.096   4.412   3.966
 3764WAT    EPW15764   5.028   4.373   3.968
 3765WAT      O15765   5.793   3.729   4.973
 3765WAT     H115766   5.744   3.787   5.017
 3765WAT     H215767   5.790   3.758   4.891
 3765WAT    EPW15768   5.785   3.742   4.967
 3766WAT      O15769   6.903   3.797   4.434
 3766WAT     H115770   6.924   3.717   4.406
 3766WAT     H215771   6.818   3.803   4.415
 3766WAT    EPW15772   6.893   3.786   4.427
 3767WAT      O15773   6.671   3.315   3.406
 3767WAT     H115774   6.745   3.275   3.426
 3767WAT     H215775   6.697   3.387   3.364
 3767WAT    EPW15776   6.685   3.320   3.403
 3768WAT      O15777   6.065   4.564   3.864
 3768WAT     H115778   6.013   4.627   3.834
 3768WAT     H215779   6.096   4.527   3.791
 3768WAT    EPW15780   6.062   4.568   3.849
 3769WAT      O15781   5.472   4.343   4.140
 3769WAT     H115782   5.519   4.372   4.208
 3769WAT     H215783   5.530   4.295   4.094
 3769WAT    EPW15784   5.488   4.340   4.143
 3770WAT      O15785   6.316   3.544   3.913
 3770WAT     H115786   6.350   3.559   3.992
 3770WAT     H215787   6.271   3.470   3.925
 3770WAT    EPW15788   6.314   3.535   3.927
 3771WAT      O15789   5.129   4.110   3.994
 3771WAT     H115790   5.172   4.097   3.919
 3771WAT     H215791   5.108   4.194   3.992
 3771WAT    EPW15792   5.132   4.120   3.983
 3772WAT      O15793   5.764   3.466   3.359
 3772WAT     H115794   5.763   3.454   3.273
 3772WAT     H215795   5.745   3.551   3.368
 3772WAT    EPW15796   5.761   3.477   3.348
 3773WAT      O15797   6.669   4.709   4.509
 3773WAT     H115798   6.602   4.760   4.531
 3773WAT     H215799   6.675   4.719   4.422
 3773WAT    EPW15800   6.660   4.718   4.499
 3774WAT      O15801   5.537   4.461   3.822
 3774WAT     H115802   5.550   4.546   3.841
 3774WAT     H215803   5.604   4.421   3.862
 3774WAT    EPW15804   5.549   4.468   3.831
 3775WAT      O15805   5.399   3.749   3.323
 3775WAT     H115806   5.386   3.704   3.396
 3775WAT     H215807   5.341   3.715   3.267
 3775WAT    EPW15808   5.388   3.738   3.325
 3776WAT      O15809   5.416   3.932   3.982
 3776WAT     H115810   5.337   3.926   3.944
 3776WAT     H215811   5.423   3.857   4.026
 3776WAT    EPW15812   5.405   3.920   3.983
 3777WAT      O15813   5.459   3.906   4.329
 3777WAT     H115814   5.461   3.838   4.274
 3777WAT     H215815   5.394   3.956   4.298
 3777WAT    EPW15816   5.449   3.903   4.317
 3778WAT      O15817   6.448   3.677   4.169
 3778WAT     H115818   6.382   3.710   4.215
 3778WAT     H215819   6.467   3.741   4.112
 3778WAT    EPW15820   6.441   3.691   4.167
 3779WAT      O15821   5.869   4.784   4.268
 3779WAT     H115822   5.841   4.720   4.216
 3779WAT     H215823   5.848   4.856   4.225
 3779WAT    EPW15824   5.861   4.785   4.254
 3780WAT      O15825   6.113   3.268   4.512
 3780WAT     H115826   6.127   3.185   4.487
 3780WAT     H215827   6.150   3.273   4.590
 3780WAT    EPW15828   6.120   3.256   4.520
 3781WAT      O15829   5.238   4.041   4.885
 3781WAT     H115830   5.235   4.092   4.814
 3781WAT     H215831   5.272   3.966   4.856
 3781WAT    EPW15832   5.243   4.038   4.870
 3782WAT      O15833   6.399   4.262   4.711
 3782WAT     H115834   6.447   4.334   4.721
 3782WAT     H215835   6.438   4.219   4.646
 3782WAT    EPW15836   6.412   4.266   4.703
 3783WAT      O15837   5.828   4.546   4.829
 3783WAT     H115838   5.864   4.529   4.906
 3783WAT     H215839   5.785   4.474   4.809
 3783WAT    EPW15840   5.827   4.533   4.837
 3784WAT      O15841   5.926   3.621   4.092
 3784WAT     H115842   5.974   3.691   4.113
 3784WAT     H215843   5.963   3.556   4.138
 3784WAT    EPW15844   5.938   3.622   4.102
 3785WAT      O15845   6.144   3.938   3.320
 3785WAT     H115846   6.144   4.010   3.271
 3785WAT     H215847   6.081   3.952   3.378
 3785WAT    EPW15848   6.135   3.951   3.321
 3786WAT      O15849   6.642   4.325   3.718
 3786WAT     H115850   6.677   4.290   3.789
 3786WAT     H215851   6.641   4.259   3.661
 3786WAT    EPW15852   6.647   4.310   3.720
 3787WAT      O15853   6.246   4.632   4.102
 3787WAT     H115854   6.186   4.602   4.047
 3787WAT     H215855   6.301   4.677   4.051
 3787WAT    EPW15856   6.245   4.634   4.087
 3788WAT      O15857   6.247   4.317   4.042
 3788WAT     H115858   6.168   4.339   4.070
 3788WAT     H215859   6.273   4.257   4.101
 3788WAT    EPW15860   6.239   4.311   4.055
 3789WAT      O15861   5.637   4.798   3.487
 3789WAT     H115862   5.622   4.720   3.524
 3789WAT     H215863   5.706   4.783   3.436
 3789WAT    EPW15864   5.645   4.784   3.485
 3790WAT      O15865   5.604   3.172   3.286
 3790WAT     H115866   5.613   3.162   3.372
 3790WAT     H215867   5.533   3.223   3.279
 3790WAT    EPW15868   5.595   3.178   3.298
 3791WAT      O15869   5.866   4.750   3.327
 3791WAT     H115870   5.928   4.766   3.386
 3791WAT     H215871   5.869   4.819   3.274
 3791WAT    EPW15872   5.876   4.762   3.328
 3792WAT      O15873   6.573   4.117   4.527
 3792WAT     H115874   6.579   4.129   4.441
 3792WAT     H215875   6.649   4.149   4.557
 3792WAT    EPW15876   6.585   4.123   4.519
 3793WAT      O15877   6.193   4.651   4.955
 3793WAT     H115878   6.209   4.680   5.036
 3793WAT     H215879   6.219   4.718   4.904
 3793WAT    EPW15880   6.199   4.665   4.959
 3794WAT      O15881   6.677   3.146   4.826
 3794WAT     H115882   6.613   3.106   4.781
 3794WAT     H215883   6.679   3.103   4.901
 3794WAT    EPW15884   6.668   3.134   4.830
 3795WAT      O15885   5.316   4.003   3.410
 3795WAT     H115886   5.348   3.925   3.388
 3795WAT     H215887   5.381   4.040   3.456
 3795WAT    EPW15888   5.330   3.997   3.414
 3796WAT      O15889   6.147   4.097   4.487
 3796WAT     H115890   6.131   4.158   4.547
 3796WAT     H215891   6.200   4.041   4.528
 3796WAT    EPW15892   6.152   4.098   4.502
 3797WAT      O15893   5.985   3.937   3.553
 3797WAT     H115894   5.991   4.002   3.611
 3797WAT     H215895   5.966   3.868   3.602
 3797WAT    EPW15896   5.983   3.936   3.569
 3798WAT      O15897   6.508   4.370   4.140
 3798WAT     H115898   6.460   4.400   4.073
 3798WAT     H215899   6.472   4.292   4.157
 3798WAT    EPW15900   6.495   4.363   4.132
 3799WAT      O15901   5.435   3.389   3.204
 3799WAT     H115902   5.383   3.394   3.133
 3799WAT     H215903   5.513   3.413   3.174
 3799WAT    EPW15904   5.439   3.393   3.189
 3800WAT      O15905   5.907   4.142   3.996
 3800WAT     H115906   5.823   4.122   4.004
 3800WAT     H215907   5.940   4.125   4.075
 3800WAT    EPW15908   5.899   4.137   4.009
 3801WAT      O15909   5.582   4.815   3.084
 3801WAT     H115910   5.626   4.745   3.113
 3801WAT     H215911   5.603   4.877   3.142
 3801WAT    EPW15912   5.592   4.814   3.097
 3802WAT      O15913   5.615   3.628   3.901
 3802WAT     H115914   5.700   3.609   3.911
 3802WAT     H215915   5.578   3.551   3.887
 3802WAT    EPW15916   5.622   3.614   3.900
 3803WAT      O15917   6.877   4.787   3.334
 3803WAT     H115918   6.946   4.740   3.309
 3803WAT     H215919   6.823   4.727   3.367
 3803WAT    EPW15920   6.879   4.771   3.335
 3804WAT      O15921   6.601   4.064   4.252
 3804WAT     H115922   6.600   3.987   4.291
 3804WAT     H215923   6.517   4.088   4.251
 3804WAT    EPW15924   6.588   4.056   4.257
 3805WAT      O15925   5.550   3.905   3.115
 3805WAT     H115926   5.489   3.865   3.162
 3805WAT     H215927   5.511   3.917   3.038
 3805WAT    EPW15928   5.535   3.901   3.111
 3806WAT      O15929   5.232   4.216   4.655
 3806WAT     H115930   5.189   4.165   4.599
 3806WAT     H215931   5.196   4.295   4.641
 3806WAT    EPW15932   5.220   4.220   4.645
 3807WAT      O15933   6.726   4.071   3.995
 3807WAT     H115934   6.698   4.111   4.067
 3807WAT     H215935   6.812   4.065   4.008
 3807WAT    EPW15936   6.735   4.076   4.008
 3808WAT      O15937   5.695   3.752   3.386
 3808WAT     H115938   5.722   3.834   3.393
 3808WAT     H215939   5.609   3.759   3.376
 3808WAT    EPW15940   5.686   3.765   3.386
 3809WAT      O15941   6.492   3.464   4.849
 3809WAT     H115942   6.440   3.510   4.902
 3809WAT     H215943   6.456   3.384   4.849
 3809WAT    EPW15944   6.479   3.459   4.857
 3810WAT      O15945   6.839   4.635   4.048
 3810WAT     H115946   6.868   4.660   3.970
 3810WAT     H215947   6.909   4.644   4.100
 3810WAT    EPW15948   6.854   4.640   4.044
 3811WAT      O15949   6.342   3.821   4.857
 3811WAT     H115950   6.349   3.831   4.943
 3811WAT     H215951   6.278   3.876   4.835
 3811WAT    EPW15952   6.333   3.830   4.866
 3812WAT      O15953   6.568   3.853   4.693
 3812WAT     H115954   6.600   3.931   4.714
 3812WAT     H215955   6.531   3.826   4.768
 3812WAT    EPW15956   6.568   3.860   4.707
 3813WAT      O15957   6.500   4.495   3.246
 3813WAT     H115958   6.533   4.414   3.250
 3813WAT     H215959   6.424   4.488   3.289
 3813WAT    EPW15960   6.494   4.482   3.253
 3814WAT      O15961   6.548   3.678   3.812
 3814WAT     H115962   6.474   3.646   3.844
 3814WAT     H215963   6.548   3.761   3.840
 3814WAT    EPW15964   6.537   3.686   3.821
 3815WAT      O15965   6.838   3.907   4.967
 3815WAT     H115966   6.833   3.873   4.887
 3815WAT     H215967   6.912   3.953   4.965
 3815WAT    EPW15968   6.848   3.909   4.955
 3816WAT      O15969   6.792   4.274   4.587
 3816WAT     H115970   6.855   4.219   4.562
 3816WAT     H215971   6.786   4.331   4.521
 3816WAT    EPW15972   6.800   4.275   4.574
 3817WAT      O15973   6.237   4.282   3.187
 3817WAT     H115974   6.306   4.231   3.170
 3817WAT     H215975   6.196   4.287   3.110
 3817WAT    EPW15976   6.241   4.276   3.173
 3818WAT      O15977   5.705   4.397   4.317
 3818WAT     H115978   5.676   4.457   4.374
 3818WAT     H215979   5.711   4.442   4.242
 3818WAT    EPW15980   5.702   4.413   4.314
 3819WAT      O15981   5.503   4.292   4.657
 3819WAT     H115982   5.423   4.263   4.674
 3819WAT     H215983   5.494   4.379   4.657
 3819WAT    EPW15984   5.490   4.301   4.659
 3820WAT      O15985   6.439   3.311   4.558
 3820WAT     H115986   6.514   3.357   4.552
 3820WAT     H215987   6.383   3.358   4.511
 3820WAT    EPW15988   6.442   3.325   4.551
 3821WAT      O15989   5.957   4.040   4.266
 3821WAT     H115990   6.005   4.077   4.329
 3821WAT     H215991   5.875   4.053   4.292
 3821WAT    EPW15992   5.952   4.047   4.279
 3822WAT      O15993   5.628   3.600   4.540
 3822WAT     H115994   5.644   3.526   4.583
 3822WAT     H215995   5.624   3.575   4.457
 3822WAT    EPW15996   5.630   3.585   4.534
 3823WAT      O15997   5.883   4.779   3.789
 3823WAT     H115998   5.938   4.847   3.794
 3823WAT     H215999   5.848   4.787   3.709
 3823WAT    EPW16000   5.886   4.790   3.778
 3824WAT      O16001   6.568   3.109   4.325
 3824WAT     H116002   6.540   3.192   4.321
 3824WAT     H216003   6.639   3.115   4.375
 3824WAT    EPW16004   6.574   3.122   4.332
 3825WAT      O16005   5.803   3.181   4.528
 3825WAT     H116006   5.874   3.213   4.488
 3825WAT     H216007   5.827   3.100   4.551
 3825WAT    EPW16008   5.817   3.174   4.526
 3826WAT      O16009   5.702   4.602   4.128
 3826WAT     H116010   5.639   4.660   4.110
 3826WAT     H216011   5.727   4.573   4.049
 3826WAT    EPW16012   5.696   4.606   4.114
 3827WAT      O16013   6.133   4.265   4.827
 3827WAT     H116014   6.208   4.294   4.794
 3827WAT     H216015   6.078   4.270   4.759
 3827WAT    EPW16016   6.136   4.270   4.812
 3828WAT      O16017   6.524   4.520   4.677
 3828WAT     H116018   6.558   4.547   4.753
 3828WAT     H216019   6.553   4.578   4.619
 3828WAT    EPW16020   6.533   4.533   4.680
 3829WAT      O16021   6.710   3.735   3.211
 3829WAT     H116022   6.748   3.803   3.171
 3829WAT     H216023   6.626   3.757   3.214
 3829WAT    EPW16024   6.703   3.748   3.206
 3830WAT      O16025   5.861   4.079   3.119
 3830WAT     H116026   5.781   4.062   3.091
 3830WAT     H216027   5.858   4.165   3.139
 3830WAT    EPW16028   5.849   4.089   3.118
 3831WAT      O16029   5.454   3.686   4.134
 3831WAT     H116030   5.498   3.676   4.060
 3831WAT     H216031   5.509   3.655   4.195
 3831WAT    EPW16032   5.469   3.680   4.132
 3832WAT      O16033   6.256   3.596   4.694
 3832WAT     H116034   6.191   3.643   4.728
 3832WAT     H216035   6.312   3.587   4.759
 3832WAT    EPW16036   6.255   3.602   4.708
 3833WAT      O16037   6.225   3.750   4.323
 3833WAT     H116038   6.255   3.792   4.394
 3833WAT     H216039   6.228   3.666   4.347
 3833WAT    EPW16040   6.230   3.744   4.337
 3834WAT      O16041   5.967   4.767   4.716
 3834WAT     H116042   6.015   4.707   4.674
 3834WAT     H216043   5.932   4.722   4.782
 3834WAT    EPW16044   5.969   4.751   4.720
 3835WAT      O16045   6.479   3.695   3.549
 3835WAT     H116046   6.500   3.675   3.631
 3835WAT     H216047   6.555   3.722   3.514
 3835WAT    EPW16048   6.494   3.696   3.556
 3836WAT      O16049   5.809   3.185   4.139
 3836WAT     H116050   5.726   3.170   4.163
 3836WAT     H216051   5.805   3.188   4.052
 3836WAT    EPW16052   5.796   3.183   4.130
 3837WAT      O16053   6.582   3.303   3.696
 3837WAT     H116054   6.510   3.256   3.713
 3837WAT     H216055   6.565   3.337   3.617
 3837WAT    EPW16056   6.569   3.301   3.687
 3838WAT      O16057   6.626   4.097   3.534
 3838WAT     H116058   6.673   4.025   3.529
 3838WAT     H216059   6.544   4.069   3.526
 3838WAT    EPW16060   6.621   4.082   3.532
 3839WAT      O16061   5.973   4.289   4.618
 3839WAT     H116062   5.893   4.282   4.653
 3839WAT     H216063   5.980   4.373   4.598
 3839WAT    EPW16064   5.962   4.300   4.620
 3840WAT      O16065   5.065   3.224   4.743
 3840WAT     H116066   5.051   3.304   4.709
 3840WAT     H216067   4.987   3.200   4.771
 3840WAT    EPW16068   5.052   3.233   4.742
 3841WAT      O16069   5.556   4.909   4.150
 3841WAT     H116070   5.557   4.915   4.237
 3841WAT     H216071   5.513   4.835   4.135
 3841WAT    EPW16072   5.550   4.899   4.160
 3842WAT      O16073   6.247   4.214   3.769
 3842WAT     H116074   6.255   4.248   3.849
 3842WAT     H216075   6.264   4.129   3.782
 3842WAT    EPW16076   6.251   4.207   3.783
 3843WAT      O16077   6.000   4.142   3.726
 3843WAT     H116078   5.970   4.110   3.802
 3843WAT     H216079   6.069   4.189   3.749
 3843WAT    EPW16080   6.006   4.144   3.741
 3844WAT      O16081   6.022   4.553   4.529
 3844WAT     H116082   6.091   4.542   4.581
 3844WAT     H216083   6.035   4.632   4.494
 3844WAT    EPW16084   6.034   4.563   4.531
 3845WAT      O16085   6.839   3.814   4.710
 3845WAT     H116086   6.754   3.802   4.722
 3845WAT     H216087   6.855   3.775   4.633
 3845WAT    EPW16088   6.829   3.807   4.700
 3846WAT      O16089   6.291   3.881   4.567
 3846WAT     H116090   6.265   3.809   4.610
 3846WAT     H216091   6.373   3.892   4.594
 3846WAT    EPW16092   6.299   3.872   4.578
 3847WAT      O16093   5.232   4.859   4.694
 3847WAT     H116094   5.167   4.802   4.704
 3847WAT     H216095   5.195   4.936   4.709
 3847WAT    EPW16096   5.217   4.862   4.697
 3848WAT      O16097   6.084   4.000   4.886
 3848WAT     H116098   6.116   4.068   4.843
 3848WAT     H216099   6.014   4.032   4.926
 3848WAT    EPW16100   6.078   4.015   4.886
 3849WAT      O16101   6.393   4.837   3.979
 3849WAT     H116102   6.347   4.901   4.017
 3849WAT     H216103   6.463   4.829   4.029
 3849WAT    EPW16104   6.396   4.845   3.992
 3850WAT      O16105   6.063   4.346   4.272
 3850WAT     H116106   5.993   4.386   4.306
 3850WAT     H216107   6.130   4.389   4.306
 3850WAT    EPW16108   6.062   4.358   4.282
 3851WAT      O16109   6.600   4.605   4.930
 3851WAT     H116110   6.678   4.566   4.938
 3851WAT     H216111   6.553   4.572   4.995
 3851WAT    EPW16112   6.605   4.595   4.941
 3852WAT      O16113   5.369   3.700   4.507
 3852WAT     H116114   5.407   3.762   4.458
 3852WAT     H216115   5.437   3.653   4.535
 3852WAT    EPW16116   5.385   3.702   4.504
 3853WAT      O16117   5.147   3.545   4.434
 3853WAT     H116118   5.155   3.528   4.349
 3853WAT     H216119   5.222   3.585   4.454
 3853WAT    EPW16120   5.159   3.548   4.424
 3854WAT      O16121   6.703   3.809   3.478
 3854WAT     H116122   6.713   3.803   3.392
 3854WAT     H216123   6.777   3.776   3.510
 3854WAT    EPW16124   6.715   3.803   3.470
 3855WAT      O16125   5.402   3.286   4.675
 3855WAT     H116126   5.394   3.201   4.696
 3855WAT     H216127   5.371   3.290   4.594
 3855WAT    EPW16128   5.397   3.274   4.666
 3856WAT      O16129   6.095   4.505   3.589
 3856WAT     H116130   6.074   4.589   3.573
 3856WAT     H216131   6.017   4.467   3.601
 3856WAT    EPW16132   6.080   4.512   3.588
 3857WAT      O16133   6.613   3.823   4.414
 3857WAT     H116134   6.613   3.737   4.426
 3857WAT     H216135   6.620   3.856   4.494
 3857WAT    EPW16136   6.614   3.815   4.427
 3858WAT      O16137   5.087   4.067   4.457
 3858WAT     H116138   5.119   4.089   4.378
 3858WAT     H216139   5.077   3.981   4.451
 3858WAT    EPW16140   5.090   4.058   4.444
 3859WAT      O16141   6.201   3.303   4.792
 3859WAT     H116142   6.210   3.375   4.841
 3859WAT     H216143   6.137   3.259   4.832
 3859WAT    EPW16144   6.193   3.307   4.805
 3860WAT      O16145   6.100   3.322   3.877
 3860WAT     H116146   6.030   3.374   3.872
 3860WAT     H216147   6.104   3.284   3.799
 3860WAT    EPW16148   6.091   3.324   3.865
 3861WAT      O16149   5.631   4.531   3.230
 3861WAT     H116150   5.675   4.539   3.305
 3861WAT     H216151   5.551   4.510   3.256
 3861WAT    EPW16152   5.626   4.529   3.245
 3862WAT      O16153   6.460   3.374   4.157
 3862WAT     H116154   6.546   3.384   4.172
 3862WAT     H216155   6.423   3.429   4.214
 3862WAT    EPW16156   6.467   3.384   4.168
 3863WAT      O16157   5.563   3.997   4.595
 3863WAT     H116158   5.523   4.074   4.603
 3863WAT     H216159   5.522   3.959   4.527
 3863WAT    EPW16160   5.551   4.002   4.586
 3864WAT      O16161   6.491   3.902   4.006
 3864WAT     H116162   6.557   3.956   4.022
 3864WAT     H216163   6.456   3.933   3.933
 3864WAT    EPW16164   6.495   3.915   3.998
 3865WAT      O16165   6.522   4.709   3.587
 3865WAT     H116166   6.504   4.643   3.642
 3865WAT     H216167   6.593   4.681   3.545
 3865WAT    EPW16168   6.530   4.695   3.589
 3866WAT      O16169   5.364   4.438   3.290
 3866WAT     H116170   5.340   4.408   3.368
 3866WAT     H216171   5.361   4.368   3.238
 3866WAT    EPW16172   5.360   4.424   3.294
 3867WAT      O16173   5.646   4.263   3.164
 3867WAT     H116174   5.564   4.236   3.178
 3867WAT     H216175   5.643   4.348   3.183
 3867WAT    EPW16176   5.633   4.272   3.169
 3868WAT      O16177   5.606   3.294   4.340
 3868WAT     H116178   5.519   3.303   4.348
 3868WAT     H216179   5.628   3.243   4.407
 3868WAT    EPW16180   5.596   3.288   4.351
 3869WAT      O16181   6.808   3.158   4.473
 3869WAT     H116182   6.802   3.153   4.560
 3869WAT     H216183   6.876   3.107   4.454
 3869WAT    EPW16184   6.817   3.150   4.483
 3870WAT      O16185   6.016   3.369   4.177
 3870WAT     H116186   5.942   3.324   4.189
 3870WAT     H216187   6.073   3.329   4.230
 3870WAT    EPW16188   6.014   3.356   4.187
 3871WAT      O16189   6.289   4.454   4.356
 3871WAT     H116190   6.310   4.484   4.435
 3871WAT     H216191   6.283   4.526   4.308
 3871WAT    EPW16192   6.291   4.469   4.361
 3872WAT      O16193   6.243   4.875   4.781
 3872WAT     H116194   6.167   4.873   4.737
 3872WAT     H216195   6.260   4.960   4.789
 3872WAT    EPW16196   6.234   4.888   4.776
 3873WAT      O16197   5.766   3.802   4.698
 3873WAT     H116198   5.734   3.744   4.641
 3873WAT     H216199   5.731   3.877   4.673
 3873WAT    EPW16200   5.756   3.805   4.686
 3874WAT      O16201   5.846   3.127   3.161
 3874WAT     H116202   5.854   3.152   3.077
 3874WAT     H216203   5.772   3.165   3.186
 3874WAT    EPW16204   5.836   3.136   3.152
 3875WAT      O16205   6.771   4.318   4.302
 3875WAT     H116206   6.767   4.232   4.289
 3875WAT     H216207   6.701   4.348   4.259
 3875WAT    EPW16208   6.760   4.309   4.294
 3876WAT      O16209   5.610   4.838   4.723
 3876WAT     H116210   5.614   4.850   4.809
 3876WAT     H216211   5.675   4.782   4.707
 3876WAT    EPW16212   5.620   4.831   4.733
 3877WAT      O16213   6.581   4.644   4.182
 3877WAT     H116214   6.634   4.635   4.113
 3877WAT     H216215   6.542   4.566   4.187
 3877WAT    EPW16216   6.583   4.631   4.172
 3878WAT      O16217   5.328   3.303   4.405
 3878WAT     H116218   5.294   3.226   4.381
 3878WAT     H216219   5.258   3.355   4.411
 3878WAT    EPW16220   5.313   3.299   4.402
 3879WAT      O16221   6.232   3.188   4.103
 3879WAT     H116222   6.299   3.243   4.115
 3879WAT     H216223   6.182   3.231   4.045
 3879WAT    EPW16224   6.235   3.202   4.096
 3880WAT      O16225   5.369   4.676   4.859
 3880WAT     H116226   5.429   4.719   4.906
 3880WAT     H216227   5.333   4.738   4.810
 3880WAT    EPW16228   5.373   4.691   4.858
 3881WAT      O16229   6.168   3.769   3.852
 3881WAT     H116230   6.223   3.708   3.882
 3881WAT     H216231   6.126   3.795   3.923
 3881WAT    EPW16232   6.170   3.764   3.867
 3882WAT      O16233   5.193   3.634   3.800
 3882WAT     H116234   5.156   3.664   3.874
 3882WAT     H216235   5.247   3.571   3.829
 3882WAT    EPW16236   5.196   3.629   3.815
 3883WAT      O16237   5.162   4.475   4.552
 3883WAT     H116238   5.105   4.516   4.602
 3883WAT     H216239   5.235   4.521   4.561
 3883WAT    EPW16240   5.164   4.488   4.560
 3884WAT      O16241   6.365   3.952   3.508
 3884WAT     H116242   6.372   3.867   3.526
 3884WAT     H216243   6.283   3.961   3.480
 3884WAT    EPW16244   6.354   3.941   3.507
 3885WAT      O16245   5.341   4.801   3.429
 3885WAT     H116246   5.326   4.817   3.344
 3885WAT     H216247   5.427   4.809   3.437
 3885WAT    EPW16248   5.351   4.805   3.418
 3886WAT      O16249   6.673   4.848   3.150
 3886WAT     H116250   6.737   4.834   3.208
 3886WAT     H216251   6.639   4.768   3.138
 3886WAT    EPW16252   6.678   4.834   3.157
 3887WAT      O16253   6.693   4.089   4.823
 3887WAT     H116254   6.756   4.072   4.881
 3887WAT     H216255   6.734   4.130   4.758
 3887WAT    EPW16256   6.708   4.093   4.822
 3888WAT      O16257   6.281   4.474   3.382
 3888WAT     H116258   6.256   4.461   3.465
 3888WAT     H216259   6.249   4.405   3.340
 3888WAT    EPW16260   6.272   4.462   3.388
 3889WAT      O16261   6.755   3.546   4.897
 3889WAT     H116262   6.736   3.610   4.952
 3889WAT     H216263   6.683   3.497   4.896
 3889WAT    EPW16264   6.742   3.548   4.905
 3890WAT      O16265   6.745   3.640   4.194
 3890WAT     H116266   6.662   3.665   4.187
 3890WAT     H216267   6.740   3.556   4.217
 3890WAT    EPW16268   6.732   3.631   4.196
 3891WAT      O16269   5.671   3.339   4.713
 3891WAT     H116270   5.695   3.281   4.652
 3891WAT     H216271   5.587   3.321   4.728
 3891WAT    EPW16272   5.662   3.327   4.706
 3892WAT      O16273   6.434   4.100   4.959
 3892WAT     H116274   6.521   4.097   4.955
 3892WAT     H216275   6.412   4.142   4.885
 3892WAT    EPW16276   6.444   4.106   4.947
 3893WAT      O16277   5.409   4.683   4.077
 3893WAT     H116278   5.401   4.602   4.045
 3893WAT     H216279   5.365   4.732   4.020
 3893WAT    EPW16280   5.402   4.678   4.064
 3894WAT      O16281   5.969   4.295   3.325
 3894WAT     H116282   6.041   4.260   3.289
 3894WAT     H216283   5.966   4.375   3.290
 3894WAT    EPW16284   5.979   4.302   3.315
 3895WAT      O16285   5.166   4.907   4.435
 3895WAT     H116286   5.216   4.902   4.507
 3895WAT     H216287   5.185   4.834   4.391
 3895WAT    EPW16288   5.177   4.896   4.439
 3896WAT      O16289   6.110   3.159   1.749
 3896WAT     H116290   6.086   3.208   1.681
 3896WAT     H216291   6.197   3.152   1.739
 3896WAT    EPW16292   6.119   3.165   1.737
 3897WAT      O16293   6.091   3.851   2.216
 3897WAT     H116294   6.039   3.910   2.252
 3897WAT     H216295   6.131   3.814   2.284
 3897WAT    EPW16296   6.089   3.854   2.232
 3898WAT      O16297   5.078   4.265   1.762
 3898WAT     H116298   5.034   4.276   1.836
 3898WAT     H216299   5.050   4.187   1.733
 3898WAT    EPW16300   5.067   4.255   1.768
 3899WAT      O16301   6.706   4.595   1.513
 3899WAT     H116302   6.776   4.543   1.513
 3899WAT     H216303   6.647   4.550   1.466
 3899WAT    EPW16304   6.707   4.580   1.506
 3900WAT      O16305   5.052   3.644   1.412
 3900WAT     H116306   4.975   3.660   1.376
 3900WAT     H216307   5.056   3.557   1.415
 3900WAT    EPW16308   5.041   3.633   1.407
 3901WAT      O16309   5.366   4.170   1.280
 3901WAT     H116310   5.327   4.133   1.211
 3901WAT     H216311   5.358   4.110   1.342
 3901WAT    EPW16312   5.359   4.156   1.279
 3902WAT      O16313   6.358   3.957   1.884
 3902WAT     H116314   6.366   3.958   1.797
 3902WAT     H216315   6.300   3.894   1.899
 3902WAT    EPW16316   6.351   3.948   1.873
 3903WAT      O16317   5.329   4.334   1.670
 3903WAT     H116318   5.390   4.317   1.730
 3903WAT     H216319   5.254   4.320   1.712
 3903WAT    EPW16320   5.327   4.330   1.685
 3904WAT      O16321   5.757   3.268   1.664
 3904WAT     H116322   5.750   3.335   1.610
 3904WAT     H216323   5.831   3.229   1.640
 3904WAT    EPW16324   5.767   3.272   1.653
 3905WAT      O16325   5.218   4.643   1.277
 3905WAT     H116326   5.265   4.652   1.204
 3905WAT     H216327   5.264   4.585   1.324
 3905WAT    EPW16328   5.232   4.636   1.273
 3906WAT      O16329   5.072   4.538   2.387
 3906WAT     H116330   5.085   4.510   2.469
 3906WAT     H216331   5.011   4.484   2.356
 3906WAT    EPW16332   5.065   4.526   2.395
 3907WAT      O16333   5.729   4.291   2.894
 3907WAT     H116334   5.706   4.290   2.978
 3907WAT     H216335   5.655   4.276   2.851
 3907WAT    EPW16336   5.715   4.288   2.900
 3908WAT      O16337   5.217   3.990   1.807
 3908WAT     H116338   5.170   3.951   1.745
 3908WAT     H216339   5.287   3.939   1.817
 3908WAT    EPW16340   5.220   3.977   1.799
 3909WAT      O16341   5.667   3.551   2.342
 3909WAT     H116342   5.735   3.553   2.287
 3909WAT     H216343   5.663   3.468   2.367
 3909WAT    EPW16344   5.677   3.539   2.338
 3910WAT      O16345   5.728   4.610   2.620
 3910WAT     H116346   5.741   4.686   2.579
 3910WAT     H216347   5.807   4.573   2.623
 3910WAT    EPW16348   5.741   4.616   2.615
 3911WAT      O16349   5.417   3.800   1.810
 3911WAT     H116350   5.498   3.781   1.834
 3911WAT     H216351   5.369   3.739   1.849
 3911WAT    EPW16352   5.422   3.788   1.819
 3912WAT      O16353   5.837   4.398   2.071
 3912WAT     H116354   5.872   4.318   2.074
 3912WAT     H216355   5.904   4.449   2.045
 3912WAT    EPW16356   5.852   4.394   2.067
 3913WAT      O16357   5.843   4.343   1.692
 3913WAT     H116358   5.876   4.279   1.740
 3913WAT     H216359   5.867   4.322   1.611
 3913WAT    EPW16360   5.851   4.331   1.687
 3914WAT      O16361   6.040   3.756   2.826
 3914WAT     H116362   5.955   3.746   2.808
 3914WAT     H216363   6.043   3.831   2.871
 3914WAT    EPW16364   6.028   3.766   2.830
 3915WAT      O16365   5.476   3.310   1.736
 3915WAT     H116366   5.447   3.360   1.671
 3915WAT     H216367   5.563   3.317   1.731
 3915WAT    EPW16368   5.485   3.318   1.726
 3916WAT      O16369   6.495   3.052   2.737
 3916WAT     H116370   6.480   3.129   2.699
 3916WAT     H216371   6.418   3.030   2.771
 3916WAT    EPW16372   6.482   3.060   2.737
 3917WAT      O16373   5.774   3.224   1.959
 3917WAT     H116374   5.782   3.310   1.971
 3917WAT     H216375   5.771   3.216   1.872
 3917WAT    EPW16376   5.775   3.235   1.948
 3918WAT      O16377   6.242   3.516   1.188
 3918WAT     H116378   6.197   3.584   1.219
 3918WAT     H216379   6.253   3.466   1.259
 3918WAT    EPW16380   6.237   3.519   1.203
 3919WAT      O16381   5.053   4.737   1.899
 3919WAT     H116382   4.994   4.793   1.867
 3919WAT     H216383   5.096   4.710   1.827
 3919WAT    EPW16384   5.051   4.741   1.884
 3920WAT      O16385   5.637   4.522   1.647
 3920WAT     H116386   5.579   4.494   1.706
 3920WAT     H216387   5.700   4.461   1.649
 3920WAT    EPW16388   5.638   4.509   1.656
 3921WAT      O16389   6.252   4.750   1.399
 3921WAT     H116390   6.324   4.798   1.409
 3921WAT     H216391   6.274   4.671   1.427
 3921WAT    EPW16392   6.266   4.746   1.405
 3922WAT      O16393   6.068   4.790   1.598
 3922WAT     H116394   6.090   4.842   1.664
 3922WAT     H216395   6.145   4.772   1.560
 3922WAT    EPW16396   6.083   4.795   1.602
 3923WAT      O16397   5.696   3.461   3.088
 3923WAT     H116398   5.707   3.416   3.014
 3923WAT     H216399   5.725   3.541   3.067
 3923WAT    EPW16400   5.702   3.466   3.074
 3924WAT      O16401   5.208   4.604   1.692
 3924WAT     H116402   5.273   4.547   1.693
 3924WAT     H216403   5.247   4.679   1.670
 3924WAT    EPW16404   5.223   4.607   1.689
 3925WAT      O16405   6.781   3.514   1.818
 3925WAT     H116406   6.746   3.581   1.861
 3925WAT     H216407   6.717   3.454   1.820
 3925WAT    EPW16408   6.767   3.515   1.824
 3926WAT      O16409   6.312   4.791   2.428
 3926WAT     H116410   6.387   4.836   2.427
 3926WAT     H216411   6.300   4.769   2.345
 3926WAT    EPW16412   6.321   4.794   2.416
 3927WAT      O16413   5.290   4.453   2.042
 3927WAT     H116414   5.332   4.417   1.974
 3927WAT     H216415   5.322   4.411   2.111
 3927WAT    EPW16416   5.301   4.441   2.042
 3928WAT      O16417   5.613   4.738   1.971
 3928WAT     H116418   5.697   4.749   1.952
 3928WAT     H216419   5.583   4.820   1.978
 3928WAT    EPW16420   5.621   4.752   1.969
 3929WAT      O16421   5.934   3.185   2.903
 3929WAT     H116422   5.952   3.104   2.875
 3929WAT     H216423   5.920   3.229   2.829
 3929WAT    EPW16424   5.934   3.180   2.888
 3930WAT      O16425   5.993   3.678   1.780
 3930WAT     H116426   6.022   3.655   1.701
 3930WAT     H216427   6.067   3.686   1.827
 3930WAT    EPW16428   6.008   3.676   1.775
 3931WAT      O16429   6.470   4.909   1.439
 3931WAT     H116430   6.536   4.894   1.384
 3931WAT     H216431   6.506   4.901   1.518
 3931WAT    EPW16432   6.485   4.906   1.442
 3932WAT      O16433   5.512   4.860   2.545
 3932WAT     H116434   5.542   4.853   2.627
 3932WAT     H216435   5.450   4.800   2.541
 3932WAT    EPW16436   5.508   4.850   2.557
 3933WAT      O16437   6.749   3.346   2.355
 3933WAT     H116438   6.824   3.353   2.312
 3933WAT     H216439   6.755   3.269   2.395
 3933WAT    EPW16440   6.761   3.336   2.354
 3934WAT      O16441   6.238   4.509   2.799
 3934WAT     H116442   6.234   4.547   2.877
 3934WAT     H216443   6.323   4.505   2.782
 3934WAT    EPW16444   6.250   4.514   2.808
 3935WAT      O16445   5.951   4.529   1.274
 3935WAT     H116446   5.933   4.583   1.339
 3935WAT     H216447   6.028   4.558   1.244
 3935WAT    EPW16448   5.960   4.541   1.279
 3936WAT      O16449   6.302   3.318   1.379
 3936WAT     H116450   6.356   3.250   1.387
 3936WAT     H216451   6.308   3.358   1.457
 3936WAT    EPW16452   6.311   3.314   1.392
 3937WAT      O16453   5.098   3.435   1.636
 3937WAT     H116454   5.086   3.349   1.639
 3937WAT     H216455   5.050   3.465   1.703
 3937WAT    EPW16456   5.089   3.427   1.646
 3938WAT      O16457   5.312   4.676   2.458
 3938WAT     H116458   5.242   4.625   2.470
 3938WAT     H216459   5.338   4.656   2.377
 3938WAT    EPW16460   5.305   4.666   2.447
 3939WAT      O16461   6.028   3.556   1.511
 3939WAT     H116462   5.977   3.490   1.485
 3939WAT     H216463   6.033   3.606   1.440
 3939WAT    EPW16464   6.021   3.554   1.496
 3940WAT      O16465   6.083   4.826   2.549
 3940WAT     H116466   6.160   4.818   2.508
 3940WAT     H216467   6.025   4.813   2.485
 3940WAT    EPW16468   6.086   4.823   2.533
 3941WAT      O16469   6.028   3.250   1.500
 3941WAT     H116470   5.982   3.210   1.437
 3941WAT     H216471   6.105   3.266   1.462
 3941WAT    EPW16472   6.033   3.247   1.485
 3942WAT      O16473   6.711   4.886   1.839
 3942WAT     H116474   6.665   4.958   1.859
 3942WAT     H216475   6.649   4.829   1.814
 3942WAT    EPW16476   6.695   4.888   1.838
 3943WAT      O16477   5.888   3.487   1.952
 3943WAT     H116478   5.895   3.544   1.886
 3943WAT     H216479   5.900   3.536   2.023
 3943WAT    EPW16480   5.891   3.503   1.953
 3944WAT      O16481   6.410   4.470   1.793
 3944WAT     H116482   6.480   4.422   1.812
 3944WAT     H216483   6.344   4.413   1.798
 3944WAT    EPW16484   6.411   4.455   1.796
 3945WAT      O16485   5.448   4.561   2.714
 3945WAT     H116486   5.532   4.568   2.692
 3945WAT     H216487   5.444   4.601   2.792
 3945WAT    EPW16488   5.460   4.568   2.722
 3946WAT      O16489   5.349   3.069   1.787
 3946WAT     H116490   5.402   3.138   1.786
 3946WAT     H216491   5.349   3.042   1.704
 3946WAT    EPW16492   5.356   3.075   1.774
 3947WAT      O16493   5.644   4.112   2.189
 3947WAT     H116494   5.661   4.091   2.272
 3947WAT     H216495   5.579   4.059   2.168
 3947WAT    EPW16496   5.637   4.101   2.198
 3948WAT      O16497   6.267   3.504   2.541
 3948WAT     H116498   6.257   3.536   2.621
 3948WAT     H216499   6.208   3.440   2.537
 3948WAT    EPW16500   6.257   3.499   2.552
 3949WAT      O16501   5.719   4.106   2.448
 3949WAT     H116502   5.724   4.191   2.468
 3949WAT     H216503   5.691   4.069   2.522
 3949WAT    EPW16504   5.716   4.113   2.462
 3950WAT      O16505   6.337   4.176   2.361
 3950WAT     H116506   6.285   4.135   2.418
 3950WAT     H216507   6.324   4.260   2.379
 3950WAT    EPW16508   6.327   4.182   2.372
 3951WAT      O16509   6.393   3.098   1.824
 3951WAT     H116510   6.397   3.066   1.905
 3951WAT     H216511   6.425   3.034   1.775
 3951WAT    EPW16512   6.398   3.084   1.829
 3952WAT      O16513   6.639   3.522   2.655
 3952WAT     H116514   6.716   3.499   2.689
 3952WAT     H216515   6.591   3.544   2.725
 3952WAT    EPW16516   6.643   3.522   2.670
 3953WAT      O16517   6.662   4.220   1.374
 3953WAT     H116518   6.674   4.191   1.455
 3953WAT     H216519   6.743   4.222   1.341
 3953WAT    EPW16520   6.676   4.216   1.381
 3954WAT      O16521   5.376   4.193   1.907
 3954WAT     H116522   5.461   4.185   1.890
 3954WAT     H216523   5.340   4.125   1.866
 3954WAT    EPW16524   5.383   4.182   1.898
 3955WAT      O16525   5.252   4.865   2.031
 3955WAT     H116526   5.185   4.816   2.006
 3955WAT     H216527   5.293   4.884   1.956
 3955WAT    EPW16528   5.248   4.861   2.016
 3956WAT      O16529   6.886   4.671   2.799
 3956WAT     H116530   6.817   4.702   2.755
 3956WAT     H216531   6.849   4.625   2.864
 3956WAT    EPW16532   6.870   4.668   2.802
 3957WAT      O16533   6.452   3.873   1.332
 3957WAT     H116534   6.430   3.946   1.290
 3957WAT     H216535   6.407   3.878   1.407
 3957WAT    EPW16536   6.442   3.885   1.337
 3958WAT      O16537   5.613   4.194   1.730
 3958WAT     H116538   5.684   4.243   1.739
 3958WAT     H216539   5.635   4.137   1.668
 3958WAT    EPW16540   5.626   4.192   1.723
 3959WAT      O16541   6.870   3.359   1.278
 3959WAT     H116542   6.804   3.303   1.280
 3959WAT     H216543   6.851   3.411   1.210
 3959WAT    EPW16544   6.858   3.359   1.268
 3960WAT      O16545   5.028   4.358   2.062
 3960WAT     H116546   4.961   4.407   2.090
 3960WAT     H216547   5.096   4.412   2.065
 3960WAT    EPW16548   5.028   4.373   2.067
 3961WAT      O16549   5.793   3.729   3.072
 3961WAT     H116550   5.744   3.787   3.116
 3961WAT     H216551   5.790   3.758   2.990
 3961WAT    EPW16552   5.785   3.742   3.066
 3962WAT      O16553   6.903   3.797   2.533
 3962WAT     H116554   6.924   3.717   2.506
 3962WAT     H216555   6.818   3.803   2.514
 3962WAT    EPW16556   6.893   3.786   2.526
 3963WAT      O16557   5.035   4.026   1.573
 3963WAT     H116558   5.016   3.942   1.588
 3963WAT     H216559   5.101   4.023   1.516
 3963WAT    EPW16560   5.042   4.013   1.567
 3964WAT      O16561   6.671   3.315   1.506
 3964WAT     H116562   6.745   3.275   1.525
 3964WAT     H216563   6.697   3.387   1.463
 3964WAT    EPW16564   6.685   3.320   1.502
 3965WAT      O16565   6.065   4.564   1.963
 3965WAT     H116566   6.013   4.627   1.934
 3965WAT     H216567   6.096   4.527   1.890
 3965WAT    EPW16568   6.062   4.568   1.948
 3966WAT      O16569   5.052   4.443   1.530
 3966WAT     H116570   5.107   4.500   1.567
 3966WAT     H216571   5.029   4.391   1.597
 3966WAT    EPW16572   5.057   4.443   1.545
 3967WAT      O16573   5.472   4.343   2.239
 3967WAT     H116574   5.519   4.372   2.307
 3967WAT     H216575   5.530   4.295   2.194
 3967WAT    EPW16576   5.488   4.340   2.242
 3968WAT      O16577   6.316   3.544   2.013
 3968WAT     H116578   6.350   3.559   2.092
 3968WAT     H216579   6.271   3.470   2.024
 3968WAT    EPW16580   6.314   3.535   2.026
 3969WAT      O16581   5.035   4.288   1.293
 3969WAT     H116582   5.111   4.244   1.299
 3969WAT     H216583   5.036   4.341   1.362
 3969WAT    EPW16584   5.046   4.289   1.304
 3970WAT      O16585   5.129   4.110   2.094
 3970WAT     H116586   5.172   4.097   2.019
 3970WAT     H216587   5.108   4.194   2.091
 3970WAT    EPW16588   5.132   4.120   2.082
 3971WAT      O16589   5.764   3.466   1.459
 3971WAT     H116590   5.763   3.454   1.372
 3971WAT     H216591   5.745   3.551   1.468
 3971WAT    EPW16592   5.761   3.477   1.447
 3972WAT      O16593   6.669   4.709   2.608
 3972WAT     H116594   6.602   4.760   2.630
 3972WAT     H216595   6.675   4.719   2.522
 3972WAT    EPW16596   6.660   4.718   2.599
 3973WAT      O16597   5.537   4.461   1.922
 3973WAT     H116598   5.550   4.546   1.940
 3973WAT     H216599   5.604   4.421   1.961
 3973WAT    EPW16600   5.549   4.468   1.930
 3974WAT      O16601   5.350   3.810   2.908
 3974WAT     H116602   5.297   3.759   2.955
 3974WAT     H216603   5.352   3.771   2.830
 3974WAT    EPW16604   5.343   3.796   2.903
 3975WAT      O16605   5.399   3.749   1.422
 3975WAT     H116606   5.386   3.704   1.496
 3975WAT     H216607   5.341   3.715   1.367
 3975WAT    EPW16608   5.388   3.738   1.425
 3976WAT      O16609   5.416   3.932   2.082
 3976WAT     H116610   5.337   3.926   2.044
 3976WAT     H216611   5.423   3.857   2.126
 3976WAT    EPW16612   5.405   3.920   2.083
 3977WAT      O16613   5.459   3.906   2.429
 3977WAT     H116614   5.461   3.838   2.374
 3977WAT     H216615   5.394   3.956   2.397
 3977WAT    EPW16616   5.449   3.903   2.416
 3978WAT      O16617   6.448   3.677   2.268
 3978WAT     H116618   6.382   3.710   2.315
 3978WAT     H216619   6.467   3.741   2.211
 3978WAT    EPW16620   6.441   3.691   2.267
 3979WAT      O16621   5.869   4.784   2.368
 3979WAT     H116622   5.841   4.720   2.316
 3979WAT     H216623   5.848   4.856   2.324
 3979WAT    EPW16624   5.861   4.785   2.354
 3980WAT      O16625   6.113   3.268   2.611
 3980WAT     H116626   6.127   3.185   2.587
 3980WAT     H216627   6.150   3.273   2.690
 3980WAT    EPW16628   6.120   3.256   2.619
 3981WAT      O16629   6.267   3.474   1.619
 3981WAT     H116630   6.316   3.546   1.612
 3981WAT     H216631   6.188   3.500   1.593
 3981WAT    EPW16632   6.263   3.489   1.614
 3982WAT      O16633   5.238   4.041   2.985
 3982WAT     H116634   5.235   4.092   2.913
 3982WAT     H216635   5.272   3.966   2.955
 3982WAT    EPW16636   5.243   4.038   2.970
 3983WAT      O16637   6.399   4.262   2.810
 3983WAT     H116638   6.447   4.334   2.820
 3983WAT     H216639   6.438   4.219   2.745
 3983WAT    EPW16640   6.412   4.266   2.802
 3984WAT      O16641   5.828   4.546   2.928
 3984WAT     H116642   5.864   4.529   3.006
 3984WAT     H216643   5.785   4.474   2.908
 3984WAT    EPW16644   5.827   4.533   2.937
 3985WAT      O16645   5.926   3.621   2.192
 3985WAT     H116646   5.974   3.691   2.213
 3985WAT     H216647   5.963   3.556   2.237
 3985WAT    EPW16648   5.938   3.622   2.202
 3986WAT      O16649   6.144   3.938   1.419
 3986WAT     H116650   6.144   4.010   1.370
 3986WAT     H216651   6.081   3.952   1.477
 3986WAT    EPW16652   6.135   3.951   1.421
 3987WAT      O16653   6.642   4.325   1.817
 3987WAT     H116654   6.677   4.290   1.889
 3987WAT     H216655   6.641   4.259   1.760
 3987WAT    EPW16656   6.647   4.310   1.819
 3988WAT      O16657   6.246   4.632   2.202
 3988WAT     H116658   6.186   4.602   2.146
 3988WAT     H216659   6.301   4.677   2.151
 3988WAT    EPW16660   6.245   4.634   2.186
 3989WAT      O16661   6.247   4.317   2.142
 3989WAT     H116662   6.168   4.339   2.169
 3989WAT     H216663   6.273   4.257   2.200
 3989WAT    EPW16664   6.239   4.311   2.154
 3990WAT      O16665   5.637   4.798   1.587
 3990WAT     H116666   5.622   4.720   1.624
 3990WAT     H216667   5.706   4.783   1.535
 3990WAT    EPW16668   5.645   4.784   1.584
 3991WAT      O16669   5.604   3.172   1.385
 3991WAT     H116670   5.613   3.162   1.471
 3991WAT     H216671   5.533   3.223   1.379
 3991WAT    EPW16672   5.595   3.178   1.397
 3992WAT      O16673   5.866   4.750   1.427
 3992WAT     H116674   5.928   4.766   1.486
 3992WAT     H216675   5.869   4.819   1.374
 3992WAT    EPW16676   5.876   4.762   1.428
 3993WAT      O16677   6.573   4.117   2.626
 3993WAT     H116678   6.579   4.129   2.540
 3993WAT     H216679   6.649   4.149   2.657
 3993WAT    EPW16680   6.585   4.123   2.618
 3994WAT      O16681   6.677   3.146   2.925
 3994WAT     H116682   6.613   3.106   2.881
 3994WAT     H216683   6.679   3.103   3.001
 3994WAT    EPW16684   6.668   3.134   2.930
 3995WAT      O16685   5.316   4.003   1.510
 3995WAT     H116686   5.348   3.925   1.487
 3995WAT     H216687   5.381   4.040   1.555
 3995WAT    EPW16688   5.330   3.997   1.513
 3996WAT      O16689   6.147   4.097   2.586
 3996WAT     H116690   6.131   4.158   2.647
 3996WAT     H216691   6.200   4.041   2.627
 3996WAT    EPW16692   6.152   4.098   2.601
 3997WAT      O16693   5.016   3.169   1.606
 3997WAT     H116694   5.029   3.098   1.557
 3997WAT     H216695   4.979   3.137   1.679
 3997WAT    EPW16696   5.012   3.154   1.610
 3998WAT      O16697   5.985   3.937   1.652
 3998WAT     H116698   5.991   4.002   1.710
 3998WAT     H216699   5.966   3.868   1.701
 3998WAT    EPW16700   5.983   3.936   1.668
 3999WAT      O16701   6.508   4.370   2.239
 3999WAT     H116702   6.460   4.400   2.172
 3999WAT     H216703   6.472   4.292   2.257
 3999WAT    EPW16704   6.495   4.363   2.232
 4000WAT      O16705   5.435   3.389   1.303
 4000WAT     H116706   5.383   3.394   1.233
 4000WAT     H216707   5.513   3.413   1.274
 4000WAT    EPW16708   5.439   3.393   1.289
 4001WAT      O16709   5.907   4.142   2.095
 4001WAT     H116710   5.823   4.122   2.103
 4001WAT     H216711   5.940   4.125   2.175
 4001WAT    EPW16712   5.899   4.137   2.108
 4002WAT      O16713   5.582   4.815   1.184
 4002WAT     H116714   5.626   4.745   1.213
 4002WAT     H216715   5.603   4.877   1.241
 4002WAT    EPW16716   5.592   4.814   1.197
 4003WAT      O16717   5.292   4.111   2.327
 4003WAT     H116718   5.364   4.160   2.323
 4003WAT     H216719   5.265   4.108   2.244
 4003WAT    EPW16720   5.299   4.118   2.314
 4004WAT      O16721   5.615   3.628   2.000
 4004WAT     H116722   5.700   3.609   2.010
 4004WAT     H216723   5.578   3.551   1.987
 4004WAT    EPW16724   5.622   3.614   2.000
 4005WAT      O16725   6.877   4.787   1.433
 4005WAT     H116726   6.946   4.740   1.408
 4005WAT     H216727   6.823   4.727   1.467
 4005WAT    EPW16728   6.879   4.771   1.434
 4006WAT      O16729   5.097   3.762   1.666
 4006WAT     H116730   5.146   3.733   1.732
 4006WAT     H216731   5.110   3.703   1.603
 4006WAT    EPW16732   5.106   3.749   1.666
 4007WAT      O16733   6.601   4.064   2.351
 4007WAT     H116734   6.600   3.987   2.391
 4007WAT     H216735   6.517   4.088   2.350
 4007WAT    EPW16736   6.588   4.056   2.357
 4008WAT      O16737   5.550   3.905   1.214
 4008WAT     H116738   5.489   3.865   1.262
 4008WAT     H216739   5.511   3.917   1.137
 4008WAT    EPW16740   5.535   3.901   1.210
 4009WAT      O16741   6.726   4.071   2.095
 4009WAT     H116742   6.698   4.111   2.167
 4009WAT     H216743   6.812   4.065   2.107
 4009WAT    EPW16744   6.735   4.076   2.107
 4010WAT      O16745   5.695   3.752   1.485
 4010WAT     H116746   5.722   3.834   1.492
 4010WAT     H216747   5.609   3.759   1.476
 4010WAT    EPW16748   5.686   3.765   1.485
 4011WAT      O16749   6.492   3.464   2.949
 4011WAT     H116750   6.440   3.510   3.001
 4011WAT     H216751   6.456   3.384   2.948
 4011WAT    EPW16752   6.479   3.459   2.956
 4012WAT      O16753   6.839   4.635   2.148
 4012WAT     H116754   6.868   4.660   2.069
 4012WAT     H216755   6.909   4.644   2.199
 4012WAT    EPW16756   6.854   4.640   2.144
 4013WAT      O16757   6.342   3.821   2.956
 4013WAT     H116758   6.349   3.831   3.043
 4013WAT     H216759   6.278   3.876   2.934
 4013WAT    EPW16760   6.333   3.830   2.966
 4014WAT      O16761   6.568   3.853   2.793
 4014WAT     H116762   6.600   3.931   2.813
 4014WAT     H216763   6.531   3.826   2.867
 4014WAT    EPW16764   6.568   3.860   2.807
 4015WAT      O16765   6.500   4.495   1.346
 4015WAT     H116766   6.533   4.414   1.349
 4015WAT     H216767   6.424   4.488   1.389
 4015WAT    EPW16768   6.494   4.482   1.353
 4016WAT      O16769   6.548   3.678   1.912
 4016WAT     H116770   6.474   3.646   1.943
 4016WAT     H216771   6.548   3.761   1.940
 4016WAT    EPW16772   6.537   3.686   1.920
 4017WAT      O16773   6.838   3.907   3.066
 4017WAT     H116774   6.833   3.873   2.986
 4017WAT     H216775   6.912   3.953   3.064
 4017WAT    EPW16776   6.848   3.909   3.054
 4018WAT      O16777   6.792   4.274   2.687
 4018WAT     H116778   6.855   4.219   2.661
 4018WAT     H216779   6.786   4.331   2.621
 4018WAT    EPW16780   6.800   4.275   2.673
 4019WAT      O16781   6.237   4.282   1.286
 4019WAT     H116782   6.306   4.231   1.269
 4019WAT     H216783   6.196   4.287   1.210
 4019WAT    EPW16784   6.241   4.276   1.272
 4020WAT      O16785   5.705   4.397   2.416
 4020WAT     H116786   5.676   4.457   2.473
 4020WAT     H216787   5.711   4.442   2.342
 4020WAT    EPW16788   5.702   4.413   2.414
 4021WAT      O16789   5.503   4.292   2.756
 4021WAT     H116790   5.423   4.263   2.773
 4021WAT     H216791   5.494   4.379   2.757
 4021WAT    EPW16792   5.490   4.301   2.759
 4022WAT      O16793   6.439   3.311   2.658
 4022WAT     H116794   6.514   3.357   2.651
 4022WAT     H216795   6.383   3.358   2.611
 4022WAT    EPW16796   6.442   3.325   2.650
 4023WAT      O16797   5.957   4.040   2.366
 4023WAT     H116798   6.005   4.077   2.428
 4023WAT     H216799   5.875   4.053   2.391
 4023WAT    EPW16800   5.952   4.047   2.379
 4024WAT      O16801   5.628   3.600   2.640
 4024WAT     H116802   5.644   3.526   2.682
 4024WAT     H216803   5.624   3.575   2.556
 4024WAT    EPW16804   5.630   3.585   2.634
 4025WAT      O16805   5.883   4.779   1.888
 4025WAT     H116806   5.938   4.847   1.894
 4025WAT     H216807   5.848   4.787   1.809
 4025WAT    EPW16808   5.886   4.790   1.877
 4026WAT      O16809   6.568   3.109   2.425
 4026WAT     H116810   6.540   3.192   2.420
 4026WAT     H216811   6.639   3.115   2.474
 4026WAT    EPW16812   6.574   3.122   2.431
 4027WAT      O16813   5.803   3.181   2.628
 4027WAT     H116814   5.874   3.213   2.587
 4027WAT     H216815   5.827   3.100   2.650
 4027WAT    EPW16816   5.817   3.174   2.625
 4028WAT      O16817   5.702   4.602   2.227
 4028WAT     H116818   5.639   4.660   2.209
 4028WAT     H216819   5.727   4.573   2.149
 4028WAT    EPW16820   5.696   4.606   2.213
 4029WAT      O16821   6.133   4.265   2.926
 4029WAT     H116822   6.208   4.294   2.894
 4029WAT     H216823   6.078   4.270   2.858
 4029WAT    EPW16824   6.136   4.270   2.911
 4030WAT      O16825   6.524   4.520   2.777
 4030WAT     H116826   6.558   4.547   2.852
 4030WAT     H216827   6.553   4.578   2.719
 4030WAT    EPW16828   6.533   4.533   2.779
 4031WAT      O16829   6.710   3.735   1.310
 4031WAT     H116830   6.748   3.803   1.270
 4031WAT     H216831   6.626   3.757   1.314
 4031WAT    EPW16832   6.703   3.748   1.305
 4032WAT      O16833   5.861   4.079   1.219
 4032WAT     H116834   5.781   4.062   1.190
 4032WAT     H216835   5.858   4.165   1.238
 4032WAT    EPW16836   5.849   4.089   1.217
 4033WAT      O16837   5.454   3.686   2.234
 4033WAT     H116838   5.498   3.676   2.159
 4033WAT     H216839   5.509   3.655   2.294
 4033WAT    EPW16840   5.469   3.680   2.232
 4034WAT      O16841   6.256   3.596   2.793
 4034WAT     H116842   6.191   3.643   2.828
 4034WAT     H216843   6.312   3.587   2.859
 4034WAT    EPW16844   6.255   3.602   2.808
 4035WAT      O16845   6.225   3.750   2.423
 4035WAT     H116846   6.255   3.792   2.493
 4035WAT     H216847   6.228   3.666   2.446
 4035WAT    EPW16848   6.230   3.744   2.437
 4036WAT      O16849   5.967   4.767   2.815
 4036WAT     H116850   6.015   4.707   2.774
 4036WAT     H216851   5.932   4.722   2.882
 4036WAT    EPW16852   5.969   4.751   2.819
 4037WAT      O16853   6.479   3.695   1.648
 4037WAT     H116854   6.500   3.675   1.730
 4037WAT     H216855   6.555   3.722   1.614
 4037WAT    EPW16856   6.494   3.696   1.655
 4038WAT      O16857   5.809   3.185   2.238
 4038WAT     H116858   5.726   3.170   2.262
 4038WAT     H216859   5.805   3.188   2.151
 4038WAT    EPW16860   5.796   3.183   2.229
 4039WAT      O16861   6.582   3.303   1.795
 4039WAT     H116862   6.510   3.256   1.812
 4039WAT     H216863   6.565   3.337   1.717
 4039WAT    EPW16864   6.569   3.301   1.786
 4040WAT      O16865   6.626   4.097   1.633
 4040WAT     H116866   6.673   4.025   1.629
 4040WAT     H216867   6.544   4.069   1.626
 4040WAT    EPW16868   6.621   4.082   1.631
 4041WAT      O16869   5.973   4.289   2.717
 4041WAT     H116870   5.893   4.282   2.752
 4041WAT     H216871   5.980   4.373   2.698
 4041WAT    EPW16872   5.962   4.300   2.720
 4042WAT      O16873   5.556   4.909   2.249
 4042WAT     H116874   5.557   4.915   2.336
 4042WAT     H216875   5.513   4.835   2.234
 4042WAT    EPW16876   5.550   4.899   2.260
 4043WAT      O16877   5.372   3.499   1.564
 4043WAT     H116878   5.384   3.466   1.485
 4043WAT     H216879   5.291   3.474   1.584
 4043WAT    EPW16880   5.362   3.490   1.556
 4044WAT      O16881   6.247   4.214   1.869
 4044WAT     H116882   6.255   4.248   1.949
 4044WAT     H216883   6.264   4.129   1.881
 4044WAT    EPW16884   6.251   4.207   1.882
 4045WAT      O16885   6.000   4.142   1.825
 4045WAT     H116886   5.970   4.110   1.901
 4045WAT     H216887   6.069   4.189   1.849
 4045WAT    EPW16888   6.006   4.144   1.840
 4046WAT      O16889   6.022   4.553   2.628
 4046WAT     H116890   6.091   4.542   2.681
 4046WAT     H216891   6.035   4.632   2.594
 4046WAT    EPW16892   6.034   4.563   2.631
 4047WAT      O16893   6.839   3.814   2.809
 4047WAT     H116894   6.754   3.802   2.822
 4047WAT     H216895   6.855   3.775   2.733
 4047WAT    EPW16896   6.829   3.807   2.800
 4048WAT      O16897   6.291   3.881   2.667
 4048WAT     H116898   6.265   3.809   2.709
 4048WAT     H216899   6.373   3.892   2.694
 4048WAT    EPW16900   6.299   3.872   2.677
 4049WAT      O16901   6.084   4.000   2.985
 4049WAT     H116902   6.116   4.068   2.942
 4049WAT     H216903   6.014   4.032   3.026
 4049WAT    EPW16904   6.078   4.015   2.985
 4050WAT      O16905   6.393   4.837   2.078
 4050WAT     H116906   6.347   4.901   2.116
 4050WAT     H216907   6.463   4.829   2.129
 4050WAT    EPW16908   6.396   4.845   2.091
 4051WAT      O16909   6.063   4.346   2.371
 4051WAT     H116910   5.993   4.386   2.406
 4051WAT     H216911   6.130   4.389   2.405
 4051WAT    EPW16912   6.062   4.358   2.381
 4052WAT      O16913   6.600   4.605   3.029
 4052WAT     H116914   6.678   4.566   3.038
 4052WAT     H216915   6.553   4.572   3.095
 4052WAT    EPW16916   6.605   4.595   3.040
 4053WAT      O16917   5.369   3.700   2.606
 4053WAT     H116918   5.407   3.762   2.557
 4053WAT     H216919   5.437   3.653   2.635
 4053WAT    EPW16920   5.385   3.702   2.603
 4054WAT      O16921   6.703   3.809   1.578
 4054WAT     H116922   6.713   3.803   1.491
 4054WAT     H216923   6.777   3.776   1.609
 4054WAT    EPW16924   6.715   3.803   1.569
 4055WAT      O16925   5.402   3.286   2.775
 4055WAT     H116926   5.394   3.201   2.795
 4055WAT     H216927   5.371   3.290   2.693
 4055WAT    EPW16928   5.397   3.274   2.766
 4056WAT      O16929   6.095   4.505   1.688
 4056WAT     H116930   6.074   4.589   1.672
 4056WAT     H216931   6.017   4.467   1.700
 4056WAT    EPW16932   6.080   4.512   1.688
 4057WAT      O16933   6.613   3.823   2.513
 4057WAT     H116934   6.613   3.737   2.526
 4057WAT     H216935   6.620   3.856   2.594
 4057WAT    EPW16936   6.614   3.815   2.527
 4058WAT      O16937   5.232   3.661   1.218
 4058WAT     H116938   5.165   3.662   1.273
 4058WAT     H216939   5.242   3.576   1.199
 4058WAT    EPW16940   5.224   3.649   1.223
 4059WAT      O16941   6.201   3.303   2.891
 4059WAT     H116942   6.210   3.375   2.941
 4059WAT     H216943   6.137   3.259   2.931
 4059WAT    EPW16944   6.193   3.307   2.905
 4060WAT      O16945   5.631   4.531   1.329
 4060WAT     H116946   5.675   4.539   1.404
 4060WAT     H216947   5.551   4.510   1.355
 4060WAT    EPW16948   5.626   4.529   1.344
 4061WAT      O16949   6.460   3.374   2.257
 4061WAT     H116950   6.546   3.384   2.271
 4061WAT     H216951   6.423   3.429   2.313
 4061WAT    EPW16952   6.467   3.384   2.267
 4062WAT      O16953   5.563   3.997   2.694
 4062WAT     H116954   5.523   4.074   2.702
 4062WAT     H216955   5.522   3.959   2.627
 4062WAT    EPW16956   5.551   4.002   2.686
 4063WAT      O16957   6.491   3.902   2.106
 4063WAT     H116958   6.557   3.956   2.122
 4063WAT     H216959   6.456   3.933   2.032
 4063WAT    EPW16960   6.495   3.915   2.097
 4064WAT      O16961   6.522   4.709   1.687
 4064WAT     H116962   6.504   4.643   1.742
 4064WAT     H216963   6.593   4.681   1.644
 4064WAT    EPW16964   6.530   4.695   1.688
 4065WAT      O16965   5.364   4.438   1.389
 4065WAT     H116966   5.340   4.408   1.467
 4065WAT     H216967   5.361   4.368   1.338
 4065WAT    EPW16968   5.360   4.424   1.393
 4066WAT      O16969   5.646   4.263   1.264
 4066WAT     H116970   5.564   4.236   1.278
 4066WAT     H216971   5.643   4.348   1.282
 4066WAT    EPW16972   5.633   4.272   1.268
 4067WAT      O16973   5.606   3.294   2.439
 4067WAT     H116974   5.519   3.303   2.447
 4067WAT     H216975   5.628   3.243   2.506
 4067WAT    EPW16976   5.596   3.288   2.451
 4068WAT      O16977   6.808   3.158   2.572
 4068WAT     H116978   6.802   3.153   2.659
 4068WAT     H216979   6.876   3.107   2.553
 4068WAT    EPW16980   6.817   3.150   2.582
 4069WAT      O16981   6.016   3.369   2.277
 4069WAT     H116982   5.942   3.324   2.288
 4069WAT     H216983   6.073   3.329   2.329
 4069WAT    EPW16984   6.014   3.356   2.286
 4070WAT      O16985   6.289   4.454   2.456
 4070WAT     H116986   6.310   4.484   2.535
 4070WAT     H216987   6.283   4.526   2.407
 4070WAT    EPW16988   6.291   4.469   2.460
 4071WAT      O16989   6.243   4.875   2.880
 4071WAT     H116990   6.167   4.873   2.836
 4071WAT     H216991   6.260   4.960   2.889
 4071WAT    EPW16992   6.234   4.888   2.875
 4072WAT      O16993   5.766   3.802   2.797
 4072WAT     H116994   5.734   3.744   2.740
 4072WAT     H216995   5.731   3.877   2.773
 4072WAT    EPW16996   5.756   3.805   2.785
 4073WAT      O16997   5.846   3.127   1.260
 4073WAT     H116998   5.854   3.152   1.177
 4073WAT     H216999   5.772   3.165   1.286
 4073WAT    EPW17000   5.836   3.136   1.251
 4074WAT      O17001   6.771   4.318   2.401
 4074WAT     H117002   6.767   4.232   2.388
 4074WAT     H217003   6.701   4.348   2.358
 4074WAT    EPW17004   6.760   4.309   2.393
 4075WAT      O17005   5.610   4.838   2.822
 4075WAT     H117006   5.614   4.850   2.908
 4075WAT     H217007   5.675   4.782   2.806
 4075WAT    EPW17008   5.620   4.831   2.833
 4076WAT      O17009   6.581   4.644   2.281
 4076WAT     H117010   6.634   4.635   2.212
 4076WAT     H217011   6.542   4.566   2.287
 4076WAT    EPW17012   6.583   4.631   2.272
 4077WAT      O17013   6.232   3.188   2.202
 4077WAT     H117014   6.299   3.243   2.215
 4077WAT     H217015   6.182   3.231   2.145
 4077WAT    EPW17016   6.235   3.202   2.195
 4078WAT      O17017   6.168   3.769   1.951
 4078WAT     H117018   6.223   3.708   1.981
 4078WAT     H217019   6.126   3.795   2.023
 4078WAT    EPW17020   6.170   3.764   1.966
 4079WAT      O17021   5.193   3.634   1.900
 4079WAT     H117022   5.156   3.664   1.973
 4079WAT     H217023   5.247   3.571   1.928
 4079WAT    EPW17024   5.196   3.629   1.915
 4080WAT      O17025   6.365   3.952   1.607
 4080WAT     H117026   6.372   3.867   1.626
 4080WAT     H217027   6.283   3.961   1.580
 4080WAT    EPW17028   6.354   3.941   1.606
 4081WAT      O17029   5.341   4.801   1.528
 4081WAT     H117030   5.326   4.817   1.444
 4081WAT     H217031   5.427   4.809   1.536
 4081WAT    EPW17032   5.351   4.805   1.517
 4082WAT      O17033   5.757   4.041   1.501
 4082WAT     H117034   5.767   4.055   1.416
 4082WAT     H217035   5.839   4.035   1.531
 4082WAT    EPW17036   5.771   4.042   1.493
 4083WAT      O17037   6.673   4.848   1.249
 4083WAT     H117038   6.737   4.834   1.307
 4083WAT     H217039   6.639   4.768   1.238
 4083WAT    EPW17040   6.678   4.834   1.256
 4084WAT      O17041   6.693   4.089   2.923
 4084WAT     H117042   6.756   4.072   2.980
 4084WAT     H217043   6.734   4.130   2.857
 4084WAT    EPW17044   6.708   4.093   2.921
 4085WAT      O17045   6.281   4.474   1.481
 4085WAT     H117046   6.256   4.461   1.564
 4085WAT     H217047   6.249   4.405   1.439
 4085WAT    EPW17048   6.272   4.462   1.487
 4086WAT      O17049   6.755   3.546   2.996
 4086WAT     H117050   6.736   3.610   3.052
 4086WAT     H217051   6.683   3.497   2.996
 4086WAT    EPW17052   6.742   3.548   3.004
 4087WAT      O17053   6.745   3.640   2.293
 4087WAT     H117054   6.662   3.665   2.286
 4087WAT     H217055   6.740   3.556   2.316
 4087WAT    EPW17056   6.732   3.631   2.296
 4088WAT      O17057   5.671   3.339   2.813
 4088WAT     H117058   5.695   3.281   2.752
 4088WAT     H217059   5.587   3.321   2.827
 4088WAT    EPW17060   5.662   3.327   2.806
 4089WAT      O17061   6.434   4.100   3.058
 4089WAT     H117062   6.521   4.097   3.054
 4089WAT     H217063   6.412   4.142   2.985
 4089WAT    EPW17064   6.444   4.106   3.047
 4090WAT      O17065   5.409   4.683   2.176
 4090WAT     H117066   5.401   4.602   2.145
 4090WAT     H217067   5.365   4.732   2.119
 4090WAT    EPW17068   5.402   4.678   2.163
 4091WAT      O17069   5.969   4.295   1.424
 4091WAT     H117070   6.041   4.260   1.389
 4091WAT     H217071   5.966   4.375   1.390
 4091WAT    EPW17072   5.979   4.302   1.414
 4092WAT      O17073   5.166   4.907   2.534
 4092WAT     H117074   5.216   4.902   2.606
 4092WAT     H217075   5.185   4.834   2.491
 4092WAT    EPW17076   5.177   4.896   2.538
 4093WAT      O17077   6.091   3.851   0.315
 4093WAT     H117078   6.039   3.910   0.352
 4093WAT     H217079   6.131   3.814   0.384
 4093WAT    EPW17080   6.089   3.854   0.331
 4094WAT      O17081   5.072   4.538   0.487
 4094WAT     H117082   5.085   4.510   0.568
 4094WAT     H217083   5.011   4.484   0.456
 4094WAT    EPW17084   5.065   4.526   0.494
 4095WAT      O17085   5.729   4.291   0.993
 4095WAT     H117086   5.706   4.290   1.077
 4095WAT     H217087   5.655   4.276   0.951
 4095WAT    EPW17088   5.715   4.288   0.999
 4096WAT      O17089   5.667   3.551   0.441
 4096WAT     H117090   5.735   3.553   0.387
 4096WAT     H217091   5.663   3.468   0.466
 4096WAT    EPW17092   5.677   3.539   0.437
 4097WAT      O17093   5.728   4.610   0.720
 4097WAT     H117094   5.741   4.686   0.679
 4097WAT     H217095   5.807   4.573   0.722
 4097WAT    EPW17096   5.741   4.616   0.714
 4098WAT      O17097   6.040   3.756   0.925
 4098WAT     H117098   5.955   3.746   0.907
 4098WAT     H217099   6.043   3.831   0.970
 4098WAT    EPW17100   6.028   3.766   0.929
 4099WAT      O17101   6.495   3.052   0.836
 4099WAT     H117102   6.480   3.129   0.798
 4099WAT     H217103   6.418   3.030   0.871
 4099WAT    EPW17104   6.482   3.060   0.836
 4100WAT      O17105   5.062   3.766   0.208
 4100WAT     H117106   5.037   3.849   0.201
 4100WAT     H217107   4.996   3.728   0.250
 4100WAT    EPW17108   5.049   3.773   0.213
 4101WAT      O17109   5.365   3.248   0.257
 4101WAT     H117110   5.313   3.185   0.226
 4101WAT     H217111   5.424   3.204   0.304
 4101WAT    EPW17112   5.366   3.232   0.260
 4102WAT      O17113   5.696   3.461   1.187
 4102WAT     H117114   5.707   3.416   1.113
 4102WAT     H217115   5.725   3.541   1.167
 4102WAT    EPW17116   5.702   3.466   1.173
 4103WAT      O17117   6.312   4.791   0.528
 4103WAT     H117118   6.387   4.836   0.527
 4103WAT     H217119   6.300   4.769   0.444
 4103WAT    EPW17120   6.321   4.794   0.515
 4104WAT      O17121   5.269   3.421   1.085
 4104WAT     H117122   5.191   3.382   1.078
 4104WAT     H217123   5.318   3.380   1.026
 4104WAT    EPW17124   5.265   3.409   1.076
 4105WAT      O17125   5.934   3.185   1.002
 4105WAT     H117126   5.952   3.104   0.975
 4105WAT     H217127   5.920   3.229   0.928
 4105WAT    EPW17128   5.934   3.180   0.987
 4106WAT      O17129   5.512   4.860   0.645
 4106WAT     H117130   5.542   4.853   0.727
 4106WAT     H217131   5.450   4.800   0.640
 4106WAT    EPW17132   5.508   4.850   0.656
 4107WAT      O17133   6.749   3.346   0.454
 4107WAT     H117134   6.824   3.353   0.411
 4107WAT     H217135   6.755   3.269   0.494
 4107WAT    EPW17136   6.761   3.336   0.454
 4108WAT      O17137   5.004   3.476   0.844
 4108WAT     H117138   5.003   3.534   0.909
 4108WAT     H217139   5.063   3.507   0.788
 4108WAT    EPW17140   5.013   3.489   0.845
 4109WAT      O17141   6.238   4.509   0.898
 4109WAT     H117142   6.234   4.547   0.977
 4109WAT     H217143   6.323   4.505   0.881
 4109WAT    EPW17144   6.250   4.514   0.907
 4110WAT      O17145   5.312   4.676   0.557
 4110WAT     H117146   5.242   4.625   0.570
 4110WAT     H217147   5.338   4.656   0.476
 4110WAT    EPW17148   5.305   4.666   0.547
 4111WAT      O17149   6.083   4.826   0.648
 4111WAT     H117150   6.160   4.818   0.607
 4111WAT     H217151   6.025   4.813   0.584
 4111WAT    EPW17152   6.086   4.823   0.633
 4112WAT      O17153   5.448   4.561   0.814
 4112WAT     H117154   5.532   4.568   0.791
 4112WAT     H217155   5.444   4.601   0.891
 4112WAT    EPW17156   5.460   4.568   0.822
 4113WAT      O17157   5.644   4.112   0.289
 4113WAT     H117158   5.661   4.091   0.371
 4113WAT     H217159   5.579   4.059   0.267
 4113WAT    EPW17160   5.637   4.101   0.298
 4114WAT      O17161   6.267   3.504   0.640
 4114WAT     H117162   6.257   3.536   0.721
 4114WAT     H217163   6.208   3.440   0.636
 4114WAT    EPW17164   6.257   3.499   0.651
 4115WAT      O17165   5.719   4.106   0.548
 4115WAT     H117166   5.724   4.191   0.568
 4115WAT     H217167   5.691   4.069   0.621
 4115WAT    EPW17168   5.716   4.113   0.561
 4116WAT      O17169   6.337   4.176   0.461
 4116WAT     H117170   6.285   4.135   0.518
 4116WAT     H217171   6.324   4.260   0.479
 4116WAT    EPW17172   6.327   4.182   0.472
 4117WAT      O17173   5.001   4.543   1.169
 4117WAT     H117174   5.077   4.578   1.194
 4117WAT     H217175   5.019   4.458   1.163
 4117WAT    EPW17176   5.015   4.536   1.172
 4118WAT      O17177   6.639   3.522   0.754
 4118WAT     H117178   6.716   3.499   0.788
 4118WAT     H217179   6.591   3.544   0.824
 4118WAT    EPW17180   6.643   3.522   0.770
 4119WAT      O17181   5.207   3.560   0.360
 4119WAT     H117182   5.292   3.582   0.355
 4119WAT     H217183   5.169   3.618   0.307
 4119WAT    EPW17184   5.214   3.572   0.351
 4120WAT      O17185   6.886   4.671   0.899
 4120WAT     H117186   6.817   4.702   0.854
 4120WAT     H217187   6.849   4.625   0.963
 4120WAT    EPW17188   6.870   4.668   0.902
 4121WAT      O17189   5.793   3.729   1.171
 4121WAT     H117190   5.744   3.787   1.216
 4121WAT     H217191   5.790   3.758   1.089
 4121WAT    EPW17192   5.785   3.742   1.166
 4122WAT      O17193   6.903   3.797   0.633
 4122WAT     H117194   6.924   3.717   0.605
 4122WAT     H217195   6.818   3.803   0.614
 4122WAT    EPW17196   6.893   3.786   0.626
 4123WAT      O17197   5.472   4.343   0.339
 4123WAT     H117198   5.519   4.372   0.406
 4123WAT     H217199   5.530   4.295   0.293
 4123WAT    EPW17200   5.488   4.340   0.342
 4124WAT      O17201   6.669   4.709   0.708
 4124WAT     H117202   6.602   4.760   0.729
 4124WAT     H217203   6.675   4.719   0.621
 4124WAT    EPW17204   6.660   4.718   0.698
 4125WAT      O17205   5.350   3.810   1.007
 4125WAT     H117206   5.297   3.759   1.054
 4125WAT     H217207   5.352   3.771   0.929
 4125WAT    EPW17208   5.343   3.796   1.003
 4126WAT      O17209   5.459   3.906   0.528
 4126WAT     H117210   5.461   3.838   0.473
 4126WAT     H217211   5.394   3.956   0.497
 4126WAT    EPW17212   5.449   3.903   0.515
 4127WAT      O17213   6.448   3.677   0.368
 4127WAT     H117214   6.382   3.710   0.414
 4127WAT     H217215   6.467   3.741   0.311
 4127WAT    EPW17216   6.441   3.691   0.366
 4128WAT      O17217   5.869   4.784   0.467
 4128WAT     H117218   5.841   4.720   0.415
 4128WAT     H217219   5.848   4.856   0.423
 4128WAT    EPW17220   5.861   4.785   0.453
 4129WAT      O17221   6.113   3.268   0.711
 4129WAT     H117222   6.127   3.185   0.686
 4129WAT     H217223   6.150   3.273   0.789
 4129WAT    EPW17224   6.120   3.256   0.719
 4130WAT      O17225   5.238   4.041   1.084
 4130WAT     H117226   5.235   4.092   1.013
 4130WAT     H217227   5.272   3.966   1.054
 4130WAT    EPW17228   5.243   4.038   1.069
 4131WAT      O17229   6.399   4.262   0.910
 4131WAT     H117230   6.447   4.334   0.920
 4131WAT     H217231   6.438   4.219   0.845
 4131WAT    EPW17232   6.412   4.266   0.902
 4132WAT      O17233   5.828   4.546   1.027
 4132WAT     H117234   5.864   4.529   1.105
 4132WAT     H217235   5.785   4.474   1.008
 4132WAT    EPW17236   5.827   4.533   1.036
 4133WAT      O17237   5.926   3.621   0.291
 4133WAT     H117238   5.974   3.691   0.312
 4133WAT     H217239   5.963   3.556   0.336
 4133WAT    EPW17240   5.938   3.622   0.301
 4134WAT      O17241   6.246   4.632   0.301
 4134WAT     H117242   6.186   4.602   0.245
 4134WAT     H217243   6.301   4.677   0.250
 4134WAT    EPW17244   6.245   4.634   0.285
 4135WAT      O17245   6.247   4.317   0.241
 4135WAT     H117246   6.168   4.339   0.269
 4135WAT     H217247   6.273   4.257   0.300
 4135WAT    EPW17248   6.239   4.311   0.254
 4136WAT      O17249   6.573   4.117   0.726
 4136WAT     H117250   6.579   4.129   0.640
 4136WAT     H217251   6.649   4.149   0.756
 4136WAT    EPW17252   6.585   4.123   0.717
 4137WAT      O17253   6.193   4.651   1.153
 4137WAT     H117254   6.209   4.680   1.234
 4137WAT     H217255   6.219   4.718   1.103
 4137WAT    EPW17256   6.199   4.665   1.158
 4138WAT      O17257   6.677   3.146   1.024
 4138WAT     H117258   6.613   3.106   0.980
 4138WAT     H217259   6.679   3.103   1.100
 4138WAT    EPW17260   6.668   3.134   1.029
 4139WAT      O17261   6.147   4.097   0.686
 4139WAT     H117262   6.131   4.158   0.746
 4139WAT     H217263   6.200   4.041   0.726
 4139WAT    EPW17264   6.152   4.098   0.701
 4140WAT      O17265   6.508   4.370   0.338
 4140WAT     H117266   6.460   4.400   0.272
 4140WAT     H217267   6.472   4.292   0.356
 4140WAT    EPW17268   6.495   4.363   0.331
 4141WAT      O17269   5.907   4.142   0.195
 4141WAT     H117270   5.823   4.122   0.203
 4141WAT     H217271   5.940   4.125   0.274
 4141WAT    EPW17272   5.899   4.137   0.208
 4142WAT      O17273   5.292   4.111   0.426
 4142WAT     H117274   5.364   4.160   0.423
 4142WAT     H217275   5.265   4.108   0.343
 4142WAT    EPW17276   5.299   4.118   0.413
 4143WAT      O17277   6.601   4.064   0.450
 4143WAT     H117278   6.600   3.987   0.490
 4143WAT     H217279   6.517   4.088   0.450
 4143WAT    EPW17280   6.588   4.056   0.456
 4144WAT      O17281   5.232   4.216   0.854
 4144WAT     H117282   5.189   4.165   0.798
 4144WAT     H217283   5.196   4.295   0.840
 4144WAT    EPW17284   5.220   4.220   0.844
 4145WAT      O17285   6.726   4.071   0.194
 4145WAT     H117286   6.698   4.111   0.266
 4145WAT     H217287   6.812   4.065   0.207
 4145WAT    EPW17288   6.735   4.076   0.207
 4146WAT      O17289   6.492   3.464   1.048
 4146WAT     H117290   6.440   3.510   1.100
 4146WAT     H217291   6.456   3.384   1.047
 4146WAT    EPW17292   6.479   3.459   1.056
 4147WAT      O17293   6.839   4.635   0.247
 4147WAT     H117294   6.868   4.660   0.169
 4147WAT     H217295   6.909   4.644   0.299
 4147WAT    EPW17296   6.854   4.640   0.243
 4148WAT      O17297   6.342   3.821   1.056
 4148WAT     H117298   6.349   3.831   1.142
 4148WAT     H217299   6.278   3.876   1.034
 4148WAT    EPW17300   6.333   3.830   1.065
 4149WAT      O17301   6.568   3.853   0.892
 4149WAT     H117302   6.600   3.931   0.912
 4149WAT     H217303   6.531   3.826   0.966
 4149WAT    EPW17304   6.568   3.860   0.906
 4150WAT      O17305   6.838   3.907   1.166
 4150WAT     H117306   6.833   3.873   1.086
 4150WAT     H217307   6.912   3.953   1.163
 4150WAT    EPW17308   6.848   3.909   1.153
 4151WAT      O17309   6.792   4.274   0.786
 4151WAT     H117310   6.855   4.219   0.761
 4151WAT     H217311   6.786   4.331   0.720
 4151WAT    EPW17312   6.800   4.275   0.773
 4152WAT      O17313   5.705   4.397   0.516
 4152WAT     H117314   5.676   4.457   0.573
 4152WAT     H217315   5.711   4.442   0.441
 4152WAT    EPW17316   5.702   4.413   0.513
 4153WAT      O17317   5.503   4.292   0.856
 4153WAT     H117318   5.423   4.263   0.872
 4153WAT     H217319   5.494   4.379   0.856
 4153WAT    EPW17320   5.490   4.301   0.858
 4154WAT      O17321   6.439   3.311   0.757
 4154WAT     H117322   6.514   3.357   0.751
 4154WAT     H217323   6.383   3.358   0.710
 4154WAT    EPW17324   6.442   3.325   0.749
 4155WAT      O17325   5.957   4.040   0.465
 4155WAT     H117326   6.005   4.077   0.528
 4155WAT     H217327   5.875   4.053   0.491
 4155WAT    EPW17328   5.952   4.047   0.478
 4156WAT      O17329   5.628   3.600   0.739
 4156WAT     H117330   5.644   3.526   0.782
 4156WAT     H217331   5.624   3.575   0.656
 4156WAT    EPW17332   5.630   3.585   0.733
 4157WAT      O17333   6.568   3.109   0.524
 4157WAT     H117334   6.540   3.192   0.520
 4157WAT     H217335   6.639   3.115   0.574
 4157WAT    EPW17336   6.574   3.122   0.531
 4158WAT      O17337   5.803   3.181   0.727
 4158WAT     H117338   5.874   3.213   0.687
 4158WAT     H217339   5.827   3.100   0.750
 4158WAT    EPW17340   5.817   3.174   0.724
 4159WAT      O17341   5.702   4.602   0.327
 4159WAT     H117342   5.639   4.660   0.308
 4159WAT     H217343   5.727   4.573   0.248
 4159WAT    EPW17344   5.696   4.606   0.312
 4160WAT      O17345   6.133   4.265   1.026
 4160WAT     H117346   6.208   4.294   0.993
 4160WAT     H217347   6.078   4.270   0.958
 4160WAT    EPW17348   6.136   4.270   1.011
 4161WAT      O17349   6.524   4.520   0.876
 4161WAT     H117350   6.558   4.547   0.951
 4161WAT     H217351   6.553   4.578   0.818
 4161WAT    EPW17352   6.533   4.533   0.879
 4162WAT      O17353   5.454   3.686   0.333
 4162WAT     H117354   5.498   3.676   0.259
 4162WAT     H217355   5.509   3.655   0.394
 4162WAT    EPW17356   5.469   3.680   0.331
 4163WAT      O17357   6.256   3.596   0.892
 4163WAT     H117358   6.191   3.643   0.927
 4163WAT     H217359   6.312   3.587   0.958
 4163WAT    EPW17360   6.255   3.602   0.907
 4164WAT      O17361   6.225   3.750   0.522
 4164WAT     H117362   6.255   3.792   0.592
 4164WAT     H217363   6.228   3.666   0.545
 4164WAT    EPW17364   6.230   3.744   0.536
 4165WAT      O17365   5.967   4.767   0.915
 4165WAT     H117366   6.015   4.707   0.873
 4165WAT     H217367   5.932   4.722   0.981
 4165WAT    EPW17368   5.969   4.751   0.918
 4166WAT      O17369   5.809   3.185   0.338
 4166WAT     H117370   5.726   3.170   0.362
 4166WAT     H217371   5.805   3.188   0.251
 4166WAT    EPW17372   5.796   3.183   0.328
 4167WAT      O17373   5.973   4.289   0.817
 4167WAT     H117374   5.893   4.282   0.852
 4167WAT     H217375   5.980   4.373   0.797
 4167WAT    EPW17376   5.962   4.300   0.819
 4168WAT      O17377   5.065   3.224   0.941
 4168WAT     H117378   5.051   3.304   0.908
 4168WAT     H217379   4.987   3.200   0.970
 4168WAT    EPW17380   5.052   3.233   0.941
 4169WAT      O17381   5.556   4.909   0.348
 4169WAT     H117382   5.557   4.915   0.435
 4169WAT     H217383   5.513   4.835   0.333
 4169WAT    EPW17384   5.550   4.899   0.359
 4170WAT      O17385   6.022   4.553   0.727
 4170WAT     H117386   6.091   4.542   0.780
 4170WAT     H217387   6.035   4.632   0.693
 4170WAT    EPW17388   6.034   4.563   0.730
 4171WAT      O17389   6.839   3.814   0.909
 4171WAT     H117390   6.754   3.802   0.921
 4171WAT     H217391   6.855   3.775   0.832
 4171WAT    EPW17392   6.829   3.807   0.899
 4172WAT      O17393   6.291   3.881   0.766
 4172WAT     H117394   6.265   3.809   0.808
 4172WAT     H217395   6.373   3.892   0.793
 4172WAT    EPW17396   6.299   3.872   0.776
 4173WAT      O17397   5.232   4.859   0.893
 4173WAT     H117398   5.167   4.802   0.902
 4173WAT     H217399   5.195   4.936   0.908
 4173WAT    EPW17400   5.217   4.862   0.896
 4174WAT      O17401   6.084   4.000   1.085
 4174WAT     H117402   6.116   4.068   1.042
 4174WAT     H217403   6.014   4.032   1.125
 4174WAT    EPW17404   6.078   4.015   1.084
 4175WAT      O17405   6.393   4.837   0.178
 4175WAT     H117406   6.347   4.901   0.216
 4175WAT     H217407   6.463   4.829   0.228
 4175WAT    EPW17408   6.396   4.845   0.191
 4176WAT      O17409   6.063   4.346   0.471
 4176WAT     H117410   5.993   4.386   0.505
 4176WAT     H217411   6.130   4.389   0.505
 4176WAT    EPW17412   6.062   4.358   0.481
 4177WAT      O17413   6.600   4.605   1.129
 4177WAT     H117414   6.678   4.566   1.137
 4177WAT     H217415   6.553   4.572   1.194
 4177WAT    EPW17416   6.605   4.595   1.140
 4178WAT      O17417   5.369   3.700   0.705
 4178WAT     H117418   5.407   3.762   0.657
 4178WAT     H217419   5.437   3.653   0.734
 4178WAT    EPW17420   5.385   3.702   0.702
 4179WAT      O17421   5.147   3.545   0.633
 4179WAT     H117422   5.155   3.528   0.548
 4179WAT     H217423   5.222   3.585   0.653
 4179WAT    EPW17424   5.159   3.548   0.623
 4180WAT      O17425   5.402   3.286   0.874
 4180WAT     H117426   5.394   3.201   0.895
 4180WAT     H217427   5.371   3.290   0.793
 4180WAT    EPW17428   5.397   3.274   0.865
 4181WAT      O17429   6.613   3.823   0.613
 4181WAT     H117430   6.613   3.737   0.625
 4181WAT     H217431   6.620   3.856   0.693
 4181WAT    EPW17432   6.614   3.815   0.626
 4182WAT      O17433   5.087   4.067   0.655
 4182WAT     H117434   5.119   4.089   0.577
 4182WAT     H217435   5.077   3.981   0.650
 4182WAT    EPW17436   5.090   4.058   0.643
 4183WAT      O17437   6.201   3.303   0.991
 4183WAT     H117438   6.210   3.375   1.040
 4183WAT     H217439   6.137   3.259   1.030
 4183WAT    EPW17440   6.193   3.307   1.004
 4184WAT      O17441   6.460   3.374   0.356
 4184WAT     H117442   6.546   3.384   0.371
 4184WAT     H217443   6.423   3.429   0.413
 4184WAT    EPW17444   6.467   3.384   0.367
 4185WAT      O17445   5.563   3.997   0.794
 4185WAT     H117446   5.523   4.074   0.801
 4185WAT     H217447   5.522   3.959   0.726
 4185WAT    EPW17448   5.551   4.002   0.785
 4186WAT      O17449   5.606   3.294   0.539
 4186WAT     H117450   5.519   3.303   0.547
 4186WAT     H217451   5.628   3.243   0.606
 4186WAT    EPW17452   5.596   3.288   0.550
 4187WAT      O17453   6.808   3.158   0.672
 4187WAT     H117454   6.802   3.153   0.759
 4187WAT     H217455   6.876   3.107   0.653
 4187WAT    EPW17456   6.817   3.150   0.682
 4188WAT      O17457   6.016   3.369   0.376
 4188WAT     H117458   5.942   3.324   0.388
 4188WAT     H217459   6.073   3.329   0.429
 4188WAT    EPW17460   6.014   3.356   0.386
 4189WAT      O17461   6.289   4.454   0.555
 4189WAT     H117462   6.310   4.484   0.634
 4189WAT     H217463   6.283   4.526   0.507
 4189WAT    EPW17464   6.291   4.469   0.560
 4190WAT      O17465   6.243   4.875   0.980
 4190WAT     H117466   6.167   4.873   0.936
 4190WAT     H217467   6.260   4.960   0.988
 4190WAT    EPW17468   6.234   4.888   0.974
 4191WAT      O17469   5.766   3.802   0.897
 4191WAT     H117470   5.734   3.744   0.840
 4191WAT     H217471   5.731   3.877   0.872
 4191WAT    EPW17472   5.756   3.805   0.885
 4192WAT      O17473   6.771   4.318   0.501
 4192WAT     H117474   6.767   4.232   0.487
 4192WAT     H217475   6.701   4.348   0.457
 4192WAT    EPW17476   6.760   4.309   0.492
 4193WAT      O17477   5.610   4.838   0.921
 4193WAT     H117478   5.614   4.850   1.008
 4193WAT     H217479   5.675   4.782   0.906
 4193WAT    EPW17480   5.620   4.831   0.932
 4194WAT      O17481   6.581   4.644   0.381
 4194WAT     H117482   6.634   4.635   0.311
 4194WAT     H217483   6.542   4.566   0.386
 4194WAT    EPW17484   6.583   4.631   0.371
 4195WAT      O17485   5.328   3.303   0.604
 4195WAT     H117486   5.294   3.226   0.580
 4195WAT     H217487   5.258   3.355   0.610
 4195WAT    EPW17488   5.313   3.299   0.601
 4196WAT      O17489   6.232   3.188   0.301
 4196WAT     H117490   6.299   3.243   0.314
 4196WAT     H217491   6.182   3.231   0.244
 4196WAT    EPW17492   6.235   3.202   0.295
 4197WAT      O17493   5.369   4.676   1.057
 4197WAT     H117494   5.429   4.719   1.105
 4197WAT     H217495   5.333   4.738   1.009
 4197WAT    EPW17496   5.373   4.691   1.057
 4198WAT      O17497   5.162   4.475   0.750
 4198WAT     H117498   5.105   4.516   0.801
 4198WAT     H217499   5.235   4.521   0.760
 4198WAT    EPW17500   5.164   4.488   0.759
 4199WAT      O17501   6.693   4.089   1.022
 4199WAT     H117502   6.756   4.072   1.079
 4199WAT     H217503   6.734   4.130   0.957
 4199WAT    EPW17504   6.708   4.093   1.021
 4200WAT      O17505   6.755   3.546   1.096
 4200WAT     H117506   6.736   3.610   1.151
 4200WAT     H217507   6.683   3.497   1.095
 4200WAT    EPW17508   6.742   3.548   1.104
 4201WAT      O17509   6.745   3.640   0.393
 4201WAT     H117510   6.662   3.665   0.386
 4201WAT     H217511   6.740   3.556   0.416
 4201WAT    EPW17512   6.732   3.631   0.395
 4202WAT      O17513   5.671   3.339   0.912
 4202WAT     H117514   5.695   3.281   0.851
 4202WAT     H217515   5.587   3.321   0.926
 4202WAT    EPW17516   5.662   3.327   0.905
 4203WAT      O17517   6.434   4.100   1.157
 4203WAT     H117518   6.521   4.097   1.154
 4203WAT     H217519   6.412   4.142   1.084
 4203WAT    EPW17520   6.444   4.106   1.146
 4204WAT      O17521   5.409   4.683   0.276
 4204WAT     H117522   5.401   4.602   0.244
 4204WAT     H217523   5.365   4.732   0.218
 4204WAT    EPW17524   5.402   4.678   0.262
 4205WAT      O17525   5.166   4.907   0.634
 4205WAT     H117526   5.216   4.902   0.705
 4205WAT     H217527   5.185   4.834   0.590
 4205WAT    EPW17528   5.177   4.896   0.638
 4206WAT      O17529   6.110   1.311   7.451
 4206WAT     H117530   6.086   1.360   7.383
 4206WAT     H217531   6.197   1.304   7.441
 4206WAT    EPW17532   6.119   1.317   7.439
 4207WAT      O17533   5.078   2.417   7.464
 4207WAT     H117534   5.034   2.429   7.538
 4207WAT     H217535   5.050   2.339   7.435
 4207WAT    EPW17536   5.067   2.407   7.470
 4208WAT      O17537   6.706   2.747   7.215
 4208WAT     H117538   6.776   2.695   7.215
 4208WAT     H217539   6.647   2.702   7.168
 4208WAT    EPW17540   6.707   2.733   7.208
 4209WAT      O17541   5.052   1.796   7.114
 4209WAT     H117542   4.975   1.812   7.078
 4209WAT     H217543   5.056   1.709   7.116
 4209WAT    EPW17544   5.041   1.785   7.109
 4210WAT      O17545   5.366   2.322   6.981
 4210WAT     H117546   5.327   2.285   6.913
 4210WAT     H217547   5.358   2.262   7.044
 4210WAT    EPW17548   5.359   2.308   6.981
 4211WAT      O17549   6.358   2.109   7.586
 4211WAT     H117550   6.366   2.110   7.499
 4211WAT     H217551   6.300   2.046   7.600
 4211WAT    EPW17552   6.351   2.100   7.575
 4212WAT      O17553   5.329   2.486   7.371
 4212WAT     H117554   5.390   2.469   7.432
 4212WAT     H217555   5.254   2.472   7.414
 4212WAT    EPW17556   5.327   2.482   7.387
 4213WAT      O17557   5.757   1.420   7.366
 4213WAT     H117558   5.750   1.488   7.312
 4213WAT     H217559   5.831   1.381   7.341
 4213WAT    EPW17560   5.767   1.424   7.355
 4214WAT      O17561   5.218   2.795   6.979
 4214WAT     H117562   5.265   2.804   6.906
 4214WAT     H217563   5.264   2.738   7.026
 4214WAT    EPW17564   5.232   2.788   6.975
 4215WAT      O17565   5.217   2.142   7.509
 4215WAT     H117566   5.170   2.103   7.447
 4215WAT     H217567   5.287   2.091   7.518
 4215WAT    EPW17568   5.220   2.129   7.501
 4216WAT      O17569   5.417   1.952   7.512
 4216WAT     H117570   5.498   1.934   7.536
 4216WAT     H217571   5.369   1.891   7.551
 4216WAT    EPW17572   5.422   1.941   7.521
 4217WAT      O17573   5.837   2.550   7.773
 4217WAT     H117574   5.872   2.471   7.776
 4217WAT     H217575   5.904   2.601   7.747
 4217WAT    EPW17576   5.852   2.546   7.769
 4218WAT      O17577   5.843   2.495   7.394
 4218WAT     H117578   5.876   2.431   7.442
 4218WAT     H217579   5.867   2.474   7.313
 4218WAT    EPW17580   5.851   2.483   7.389
 4219WAT      O17581   5.476   1.462   7.438
 4219WAT     H117582   5.447   1.512   7.373
 4219WAT     H217583   5.563   1.470   7.432
 4219WAT    EPW17584   5.485   1.470   7.428
 4220WAT      O17585   5.774   1.376   7.660
 4220WAT     H117586   5.782   1.462   7.673
 4220WAT     H217587   5.771   1.368   7.574
 4220WAT    EPW17588   5.775   1.388   7.650
 4221WAT      O17589   6.242   1.669   6.890
 4221WAT     H117590   6.197   1.737   6.921
 4221WAT     H217591   6.253   1.618   6.961
 4221WAT    EPW17592   6.237   1.671   6.905
 4222WAT      O17593   5.062   1.918   7.811
 4222WAT     H117594   5.037   2.002   7.803
 4222WAT     H217595   4.996   1.880   7.852
 4222WAT    EPW17596   5.049   1.925   7.816
 4223WAT      O17597   5.053   2.889   7.601
 4223WAT     H117598   4.994   2.945   7.569
 4223WAT     H217599   5.096   2.863   7.529
 4223WAT    EPW17600   5.051   2.894   7.585
 4224WAT      O17601   5.637   2.674   7.349
 4224WAT     H117602   5.579   2.646   7.408
 4224WAT     H217603   5.700   2.613   7.351
 4224WAT    EPW17604   5.638   2.661   7.358
 4225WAT      O17605   6.252   2.903   7.101
 4225WAT     H117606   6.324   2.950   7.111
 4225WAT     H217607   6.274   2.823   7.129
 4225WAT    EPW17608   6.266   2.898   7.106
 4226WAT      O17609   6.068   2.942   7.300
 4226WAT     H117610   6.090   2.995   7.366
 4226WAT     H217611   6.145   2.924   7.262
 4226WAT    EPW17612   6.083   2.947   7.304
 4227WAT      O17613   5.208   2.756   7.394
 4227WAT     H117614   5.273   2.699   7.395
 4227WAT     H217615   5.247   2.831   7.372
 4227WAT    EPW17616   5.223   2.759   7.391
 4228WAT      O17617   6.781   1.666   7.520
 4228WAT     H117618   6.746   1.734   7.562
 4228WAT     H217619   6.717   1.606   7.521
 4228WAT    EPW17620   6.767   1.667   7.526
 4229WAT      O17621   5.290   2.605   7.744
 4229WAT     H117622   5.332   2.570   7.676
 4229WAT     H217623   5.322   2.563   7.813
 4229WAT    EPW17624   5.301   2.594   7.744
 4230WAT      O17625   5.613   2.890   7.673
 4230WAT     H117626   5.697   2.901   7.654
 4230WAT     H217627   5.583   2.972   7.680
 4230WAT    EPW17628   5.621   2.904   7.671
 4231WAT      O17629   5.993   1.830   7.482
 4231WAT     H117630   6.022   1.807   7.403
 4231WAT     H217631   6.067   1.838   7.529
 4231WAT    EPW17632   6.008   1.828   7.477
 4232WAT      O17633   6.066   1.864   6.994
 4232WAT     H117634   6.094   1.943   7.019
 4232WAT     H217635   5.988   1.880   6.958
 4232WAT    EPW17636   6.058   1.878   6.992
 4233WAT      O17637   6.470   3.061   7.141
 4233WAT     H117638   6.536   3.047   7.086
 4233WAT     H217639   6.506   3.053   7.220
 4233WAT    EPW17640   6.485   3.058   7.144
 4234WAT      O17641   5.951   2.681   6.976
 4234WAT     H117642   5.933   2.736   7.041
 4234WAT     H217643   6.028   2.710   6.946
 4234WAT    EPW17644   5.960   2.693   6.981
 4235WAT      O17645   6.302   1.471   7.081
 4235WAT     H117646   6.356   1.402   7.089
 4235WAT     H217647   6.308   1.510   7.158
 4235WAT    EPW17648   6.311   1.466   7.094
 4236WAT      O17649   5.098   1.587   7.338
 4236WAT     H117650   5.086   1.501   7.341
 4236WAT     H217651   5.050   1.617   7.405
 4236WAT    EPW17652   5.089   1.579   7.348
 4237WAT      O17653   6.028   1.708   7.212
 4237WAT     H117654   5.977   1.642   7.187
 4237WAT     H217655   6.033   1.759   7.141
 4237WAT    EPW17656   6.021   1.706   7.198
 4238WAT      O17657   6.028   1.402   7.202
 4238WAT     H117658   5.982   1.362   7.139
 4238WAT     H217659   6.105   1.418   7.164
 4238WAT    EPW17660   6.033   1.399   7.187
 4239WAT      O17661   6.711   3.038   7.541
 4239WAT     H117662   6.665   3.110   7.561
 4239WAT     H217663   6.649   2.981   7.516
 4239WAT    EPW17664   6.695   3.040   7.540
 4240WAT      O17665   5.888   1.639   7.654
 4240WAT     H117666   5.895   1.696   7.588
 4240WAT     H217667   5.900   1.688   7.725
 4240WAT    EPW17668   5.891   1.655   7.655
 4241WAT      O17669   6.410   2.623   7.495
 4241WAT     H117670   6.480   2.574   7.514
 4241WAT     H217671   6.344   2.566   7.499
 4241WAT    EPW17672   6.411   2.607   7.498
 4242WAT      O17673   5.349   1.221   7.489
 4242WAT     H117674   5.402   1.290   7.488
 4242WAT     H217675   5.349   1.194   7.406
 4242WAT    EPW17676   5.356   1.227   7.476
 4243WAT      O17677   6.393   1.250   7.526
 4243WAT     H117678   6.397   1.219   7.607
 4243WAT     H217679   6.425   1.186   7.477
 4243WAT    EPW17680   6.398   1.236   7.531
 4244WAT      O17681   5.393   1.602   7.654
 4244WAT     H117682   5.421   1.559   7.583
 4244WAT     H217683   5.376   1.539   7.711
 4244WAT    EPW17684   5.395   1.587   7.652
 4245WAT      O17685   6.662   2.372   7.076
 4245WAT     H117686   6.674   2.343   7.157
 4245WAT     H217687   6.743   2.374   7.043
 4245WAT    EPW17688   6.676   2.368   7.083
 4246WAT      O17689   5.376   2.345   7.609
 4246WAT     H117690   5.461   2.337   7.592
 4246WAT     H217691   5.340   2.277   7.568
 4246WAT    EPW17692   5.383   2.334   7.600
 4247WAT      O17693   5.252   3.018   7.733
 4247WAT     H117694   5.185   2.968   7.708
 4247WAT     H217695   5.293   3.036   7.657
 4247WAT    EPW17696   5.248   3.013   7.718
 4248WAT      O17697   6.452   2.026   7.034
 4248WAT     H117698   6.430   2.099   6.992
 4248WAT     H217699   6.407   2.031   7.109
 4248WAT    EPW17700   6.442   2.037   7.039
 4249WAT      O17701   5.613   2.346   7.432
 4249WAT     H117702   5.684   2.395   7.441
 4249WAT     H217703   5.635   2.289   7.370
 4249WAT    EPW17704   5.626   2.345   7.424
 4250WAT      O17705   6.870   1.512   6.980
 4250WAT     H117706   6.804   1.455   6.982
 4250WAT     H217707   6.851   1.563   6.912
 4250WAT    EPW17708   6.858   1.511   6.970
 4251WAT      O17709   5.028   2.510   7.764
 4251WAT     H117710   4.961   2.559   7.792
 4251WAT     H217711   5.096   2.565   7.767
 4251WAT    EPW17712   5.028   2.525   7.769
 4252WAT      O17713   5.035   2.178   7.275
 4252WAT     H117714   5.016   2.095   7.290
 4252WAT     H217715   5.101   2.175   7.218
 4252WAT    EPW17716   5.042   2.166   7.268
 4253WAT      O17717   6.671   1.467   7.207
 4253WAT     H117718   6.745   1.427   7.227
 4253WAT     H217719   6.697   1.539   7.165
 4253WAT    EPW17720   6.685   1.472   7.204
 4254WAT      O17721   6.065   2.716   7.665
 4254WAT     H117722   6.013   2.779   7.636
 4254WAT     H217723   6.096   2.680   7.592
 4254WAT    EPW17724   6.062   2.720   7.650
 4255WAT      O17725   5.052   2.595   7.232
 4255WAT     H117726   5.107   2.652   7.269
 4255WAT     H217727   5.029   2.543   7.299
 4255WAT    EPW17728   5.057   2.596   7.247
 4256WAT      O17729   6.316   1.696   7.715
 4256WAT     H117730   6.350   1.711   7.793
 4256WAT     H217731   6.271   1.622   7.726
 4256WAT    EPW17732   6.314   1.688   7.728
 4257WAT      O17733   5.035   2.440   6.995
 4257WAT     H117734   5.111   2.397   7.001
 4257WAT     H217735   5.036   2.493   7.064
 4257WAT    EPW17736   5.046   2.441   7.006
 4258WAT      O17737   5.129   2.262   7.795
 4258WAT     H117738   5.172   2.249   7.721
 4258WAT     H217739   5.108   2.347   7.793
 4258WAT    EPW17740   5.132   2.272   7.784
 4259WAT      O17741   5.764   1.618   7.160
 4259WAT     H117742   5.763   1.607   7.074
 4259WAT     H217743   5.745   1.703   7.170
 4259WAT    EPW17744   5.761   1.629   7.149
 4260WAT      O17745   5.537   2.613   7.624
 4260WAT     H117746   5.550   2.698   7.642
 4260WAT     H217747   5.604   2.574   7.663
 4260WAT    EPW17748   5.549   2.620   7.632
 4261WAT      O17749   5.399   1.901   7.124
 4261WAT     H117750   5.386   1.857   7.198
 4261WAT     H217751   5.341   1.867   7.069
 4261WAT    EPW17752   5.388   1.890   7.127
 4262WAT      O17753   5.416   2.084   7.784
 4262WAT     H117754   5.337   2.079   7.745
 4262WAT     H217755   5.423   2.009   7.827
 4262WAT    EPW17756   5.405   2.073   7.785
 4263WAT      O17757   6.267   1.626   7.321
 4263WAT     H117758   6.316   1.698   7.314
 4263WAT     H217759   6.188   1.652   7.295
 4263WAT    EPW17760   6.263   1.641   7.316
 4264WAT      O17761   6.144   2.090   7.121
 4264WAT     H117762   6.144   2.162   7.072
 4264WAT     H217763   6.081   2.104   7.179
 4264WAT    EPW17764   6.135   2.103   7.122
 4265WAT      O17765   6.642   2.477   7.519
 4265WAT     H117766   6.677   2.442   7.591
 4265WAT     H217767   6.641   2.411   7.462
 4265WAT    EPW17768   6.647   2.462   7.521
 4266WAT      O17769   6.247   2.469   7.844
 4266WAT     H117770   6.168   2.491   7.871
 4266WAT     H217771   6.273   2.410   7.902
 4266WAT    EPW17772   6.239   2.463   7.856
 4267WAT      O17773   5.637   2.950   7.288
 4267WAT     H117774   5.622   2.873   7.326
 4267WAT     H217775   5.706   2.935   7.237
 4267WAT    EPW17776   5.645   2.936   7.286
 4268WAT      O17777   5.604   1.324   7.087
 4268WAT     H117778   5.613   1.314   7.173
 4268WAT     H217779   5.533   1.375   7.081
 4268WAT    EPW17780   5.595   1.330   7.099
 4269WAT      O17781   5.866   2.902   7.129
 4269WAT     H117782   5.928   2.918   7.188
 4269WAT     H217783   5.869   2.971   7.075
 4269WAT    EPW17784   5.876   2.914   7.130
 4270WAT      O17785   5.316   2.155   7.212
 4270WAT     H117786   5.348   2.077   7.189
 4270WAT     H217787   5.381   2.192   7.257
 4270WAT    EPW17788   5.330   2.149   7.215
 4271WAT      O17789   5.016   1.321   7.308
 4271WAT     H117790   5.029   1.250   7.259
 4271WAT     H217791   4.979   1.289   7.381
 4271WAT    EPW17792   5.012   1.306   7.312
 4272WAT      O17793   5.985   2.089   7.354
 4272WAT     H117794   5.991   2.154   7.412
 4272WAT     H217795   5.966   2.020   7.403
 4272WAT    EPW17796   5.983   2.089   7.370
 4273WAT      O17797   5.435   1.541   7.005
 4273WAT     H117798   5.383   1.546   6.935
 4273WAT     H217799   5.513   1.565   6.976
 4273WAT    EPW17800   5.439   1.545   6.990
 4274WAT      O17801   5.907   2.294   7.797
 4274WAT     H117802   5.823   2.275   7.805
 4274WAT     H217803   5.940   2.278   7.876
 4274WAT    EPW17804   5.899   2.289   7.810
 4275WAT      O17805   5.582   2.967   6.886
 4275WAT     H117806   5.626   2.897   6.915
 4275WAT     H217807   5.603   3.029   6.943
 4275WAT    EPW17808   5.592   2.966   6.898
 4276WAT      O17809   5.615   1.780   7.702
 4276WAT     H117810   5.700   1.761   7.712
 4276WAT     H217811   5.578   1.703   7.688
 4276WAT    EPW17812   5.622   1.766   7.702
 4277WAT      O17813   6.877   2.939   7.135
 4277WAT     H117814   6.946   2.892   7.110
 4277WAT     H217815   6.823   2.879   7.169
 4277WAT    EPW17816   6.879   2.923   7.136
 4278WAT      O17817   5.097   1.914   7.368
 4278WAT     H117818   5.146   1.885   7.434
 4278WAT     H217819   5.110   1.855   7.305
 4278WAT    EPW17820   5.106   1.901   7.368
 4279WAT      O17821   5.550   2.058   6.916
 4279WAT     H117822   5.489   2.017   6.964
 4279WAT     H217823   5.511   2.069   6.839
 4279WAT    EPW17824   5.535   2.053   6.912
 4280WAT      O17825   6.726   2.224   7.797
 4280WAT     H117826   6.698   2.264   7.869
 4280WAT     H217827   6.812   2.217   7.809
 4280WAT    EPW17828   6.735   2.229   7.809
 4281WAT      O17829   5.695   1.904   7.187
 4281WAT     H117830   5.722   1.986   7.194
 4281WAT     H217831   5.609   1.911   7.178
 4281WAT    EPW17832   5.686   1.917   7.187
 4282WAT      O17833   5.043   1.501   7.841
 4282WAT     H117834   5.048   1.535   7.761
 4282WAT     H217835   5.119   1.524   7.878
 4282WAT    EPW17836   5.055   1.509   7.835
 4283WAT      O17837   6.839   2.787   7.849
 4283WAT     H117838   6.868   2.813   7.771
 4283WAT     H217839   6.909   2.796   7.901
 4283WAT    EPW17840   6.854   2.792   7.846
 4284WAT      O17841   6.500   2.647   7.048
 4284WAT     H117842   6.533   2.567   7.051
 4284WAT     H217843   6.424   2.640   7.091
 4284WAT    EPW17844   6.494   2.634   7.055
 4285WAT      O17845   6.548   1.831   7.614
 4285WAT     H117846   6.474   1.798   7.645
 4285WAT     H217847   6.548   1.913   7.642
 4285WAT    EPW17848   6.537   1.838   7.622
 4286WAT      O17849   6.237   2.435   6.988
 4286WAT     H117850   6.306   2.383   6.971
 4286WAT     H217851   6.196   2.439   6.911
 4286WAT    EPW17852   6.241   2.428   6.974
 4287WAT      O17853   5.883   2.931   7.590
 4287WAT     H117854   5.938   2.999   7.596
 4287WAT     H217855   5.848   2.939   7.511
 4287WAT    EPW17856   5.886   2.943   7.579
 4288WAT      O17857   6.710   1.887   7.012
 4288WAT     H117858   6.748   1.955   6.972
 4288WAT     H217859   6.626   1.909   7.015
 4288WAT    EPW17860   6.703   1.900   7.007
 4289WAT      O17861   5.861   2.232   6.921
 4289WAT     H117862   5.781   2.214   6.892
 4289WAT     H217863   5.858   2.317   6.940
 4289WAT    EPW17864   5.849   2.242   6.919
 4290WAT      O17865   6.479   1.847   7.350
 4290WAT     H117866   6.500   1.827   7.432
 4290WAT     H217867   6.555   1.874   7.316
 4290WAT    EPW17868   6.494   1.848   7.357
 4291WAT      O17869   6.582   1.455   7.497
 4291WAT     H117870   6.510   1.408   7.514
 4291WAT     H217871   6.565   1.489   7.419
 4291WAT    EPW17872   6.569   1.453   7.488
 4292WAT      O17873   6.626   2.250   7.335
 4292WAT     H117874   6.673   2.177   7.330
 4292WAT     H217875   6.544   2.221   7.328
 4292WAT    EPW17876   6.621   2.235   7.333
 4293WAT      O17877   5.372   1.651   7.266
 4293WAT     H117878   5.384   1.618   7.187
 4293WAT     H217879   5.291   1.626   7.286
 4293WAT    EPW17880   5.362   1.643   7.258
 4294WAT      O17881   6.247   2.366   7.571
 4294WAT     H117882   6.255   2.400   7.651
 4294WAT     H217883   6.264   2.282   7.583
 4294WAT    EPW17884   6.251   2.359   7.584
 4295WAT      O17885   6.000   2.294   7.527
 4295WAT     H117886   5.970   2.262   7.603
 4295WAT     H217887   6.069   2.341   7.551
 4295WAT    EPW17888   6.006   2.296   7.542
 4296WAT      O17889   6.393   2.989   7.780
 4296WAT     H117890   6.347   3.054   7.818
 4296WAT     H217891   6.463   2.981   7.831
 4296WAT    EPW17892   6.396   2.998   7.793
 4297WAT      O17893   6.703   1.961   7.279
 4297WAT     H117894   6.713   1.955   7.193
 4297WAT     H217895   6.777   1.928   7.311
 4297WAT    EPW17896   6.715   1.955   7.271
 4298WAT      O17897   6.095   2.657   7.390
 4298WAT     H117898   6.074   2.741   7.374
 4298WAT     H217899   6.017   2.619   7.402
 4298WAT    EPW17900   6.080   2.664   7.390
 4299WAT      O17901   5.232   1.813   6.920
 4299WAT     H117902   5.165   1.815   6.975
 4299WAT     H217903   5.242   1.728   6.901
 4299WAT    EPW17904   5.224   1.801   6.925
 4300WAT      O17905   6.100   1.475   7.679
 4300WAT     H117906   6.030   1.526   7.673
 4300WAT     H217907   6.104   1.437   7.600
 4300WAT    EPW17908   6.091   1.477   7.666
 4301WAT      O17909   5.631   2.684   7.031
 4301WAT     H117910   5.675   2.692   7.106
 4301WAT     H217911   5.551   2.662   7.057
 4301WAT    EPW17912   5.626   2.682   7.046
 4302WAT      O17913   6.491   2.054   7.808
 4302WAT     H117914   6.557   2.108   7.824
 4302WAT     H217915   6.456   2.085   7.734
 4302WAT    EPW17916   6.495   2.067   7.799
 4303WAT      O17917   6.522   2.861   7.388
 4303WAT     H117918   6.504   2.795   7.443
 4303WAT     H217919   6.593   2.834   7.346
 4303WAT    EPW17920   6.530   2.847   7.390
 4304WAT      O17921   5.364   2.591   7.091
 4304WAT     H117922   5.340   2.560   7.169
 4304WAT     H217923   5.361   2.520   7.040
 4304WAT    EPW17924   5.360   2.576   7.095
 4305WAT      O17925   5.646   2.415   6.965
 4305WAT     H117926   5.564   2.388   6.979
 4305WAT     H217927   5.643   2.500   6.984
 4305WAT    EPW17928   5.633   2.424   6.970
 4306WAT      O17929   5.846   1.279   6.962
 4306WAT     H117930   5.854   1.304   6.879
 4306WAT     H217931   5.772   1.317   6.988
 4306WAT    EPW17932   5.836   1.289   6.953
 4307WAT      O17933   6.168   1.921   7.653
 4307WAT     H117934   6.223   1.860   7.683
 4307WAT     H217935   6.126   1.947   7.725
 4307WAT    EPW17936   6.170   1.916   7.668
 4308WAT      O17937   5.193   1.786   7.602
 4308WAT     H117938   5.156   1.816   7.675
 4308WAT     H217939   5.247   1.723   7.630
 4308WAT    EPW17940   5.196   1.781   7.617
 4309WAT      O17941   6.365   2.104   7.309
 4309WAT     H117942   6.372   2.019   7.327
 4309WAT     H217943   6.283   2.113   7.282
 4309WAT    EPW17944   6.354   2.093   7.308
 4310WAT      O17945   5.341   2.954   7.230
 4310WAT     H117946   5.326   2.969   7.146
 4310WAT     H217947   5.427   2.962   7.238
 4310WAT    EPW17948   5.351   2.957   7.219
 4311WAT      O17949   5.757   2.193   7.203
 4311WAT     H117950   5.767   2.207   7.118
 4311WAT     H217951   5.839   2.187   7.233
 4311WAT    EPW17952   5.771   2.194   7.195
 4312WAT      O17953   6.673   3.000   6.951
 4312WAT     H117954   6.737   2.986   7.009
 4312WAT     H217955   6.639   2.920   6.939
 4312WAT    EPW17956   6.678   2.986   6.958
 4313WAT      O17957   6.281   2.626   7.183
 4313WAT     H117958   6.256   2.613   7.266
 4313WAT     H217959   6.249   2.557   7.141
 4313WAT    EPW17960   6.272   2.614   7.189
 4314WAT      O17961   5.409   2.835   7.878
 4314WAT     H117962   5.401   2.754   7.846
 4314WAT     H217963   5.365   2.884   7.821
 4314WAT    EPW17964   5.402   2.830   7.865
 4315WAT      O17965   5.969   2.447   7.126
 4315WAT     H117966   6.041   2.412   7.091
 4315WAT     H217967   5.966   2.527   7.092
 4315WAT    EPW17968   5.979   2.454   7.116
 4316WAT      O17969   6.110   1.311   5.550
 4316WAT     H117970   6.086   1.360   5.482
 4316WAT     H217971   6.197   1.304   5.540
 4316WAT    EPW17972   6.119   1.317   5.539
 4317WAT      O17973   6.091   2.003   6.017
 4317WAT     H117974   6.039   2.062   6.054
 4317WAT     H217975   6.131   1.966   6.086
 4317WAT    EPW17976   6.089   2.006   6.033
 4318WAT      O17977   5.078   2.417   5.563
 4318WAT     H117978   5.034   2.429   5.637
 4318WAT     H217979   5.050   2.339   5.534
 4318WAT    EPW17980   5.067   2.407   5.570
 4319WAT      O17981   6.706   2.747   5.314
 4319WAT     H117982   6.776   2.695   5.314
 4319WAT     H217983   6.647   2.702   5.267
 4319WAT    EPW17984   6.707   2.733   5.307
 4320WAT      O17985   5.052   1.796   5.214
 4320WAT     H117986   4.975   1.812   5.178
 4320WAT     H217987   5.056   1.709   5.216
 4320WAT    EPW17988   5.041   1.785   5.209
 4321WAT      O17989   5.366   2.322   5.081
 4321WAT     H117990   5.327   2.285   5.012
 4321WAT     H217991   5.358   2.262   5.144
 4321WAT    EPW17992   5.359   2.308   5.080
 4322WAT      O17993   6.358   2.109   5.685
 4322WAT     H117994   6.366   2.110   5.598
 4322WAT     H217995   6.300   2.046   5.700
 4322WAT    EPW17996   6.351   2.100   5.674
 4323WAT      O17997   5.329   2.486   5.471
 4323WAT     H117998   5.390   2.469   5.531
 4323WAT     H217999   5.254   2.472   5.513
 4323WAT    EPW18000   5.327   2.482   5.486
 4324WAT      O18001   5.757   1.420   5.466
 4324WAT     H118002   5.750   1.488   5.411
 4324WAT     H218003   5.831   1.381   5.441
 4324WAT    EPW18004   5.767   1.424   5.454
 4325WAT      O18005   5.218   2.795   5.078
 4325WAT     H118006   5.265   2.804   5.005
 4325WAT     H218007   5.264   2.738   5.125
 4325WAT    EPW18008   5.232   2.788   5.075
 4326WAT      O18009   5.072   2.690   6.188
 4326WAT     H118010   5.085   2.662   6.270
 4326WAT     H218011   5.011   2.636   6.157
 4326WAT    EPW18012   5.065   2.678   6.196
 4327WAT      O18013   5.729   2.443   6.695
 4327WAT     H118014   5.706   2.442   6.779
 4327WAT     H218015   5.655   2.428   6.653
 4327WAT    EPW18016   5.715   2.440   6.701
 4328WAT      O18017   5.217   2.142   5.609
 4328WAT     H118018   5.170   2.103   5.546
 4328WAT     H218019   5.287   2.091   5.618
 4328WAT    EPW18020   5.220   2.129   5.601
 4329WAT      O18021   5.667   1.703   6.143
 4329WAT     H118022   5.735   1.705   6.088
 4329WAT     H218023   5.663   1.620   6.168
 4329WAT    EPW18024   5.677   1.691   6.139
 4330WAT      O18025   5.728   2.762   6.421
 4330WAT     H118026   5.741   2.838   6.381
 4330WAT     H218027   5.807   2.725   6.424
 4330WAT    EPW18028   5.741   2.768   6.416
 4331WAT      O18029   5.417   1.952   5.611
 4331WAT     H118030   5.498   1.934   5.635
 4331WAT     H218031   5.369   1.891   5.650
 4331WAT    EPW18032   5.422   1.941   5.620
 4332WAT      O18033   5.837   2.550   5.872
 4332WAT     H118034   5.872   2.471   5.875
 4332WAT     H218035   5.904   2.601   5.846
 4332WAT    EPW18036   5.852   2.546   5.869
 4333WAT      O18037   5.843   2.495   5.493
 4333WAT     H118038   5.876   2.431   5.542
 4333WAT     H218039   5.867   2.474   5.412
 4333WAT    EPW18040   5.851   2.483   5.488
 4334WAT      O18041   6.040   1.908   6.627
 4334WAT     H118042   5.955   1.899   6.609
 4334WAT     H218043   6.043   1.983   6.672
 4334WAT    EPW18044   6.028   1.918   6.631
 4335WAT      O18045   5.476   1.462   5.537
 4335WAT     H118046   5.447   1.512   5.472
 4335WAT     H218047   5.563   1.470   5.532
 4335WAT    EPW18048   5.485   1.470   5.527
 4336WAT      O18049   6.495   1.204   6.538
 4336WAT     H118050   6.480   1.281   6.500
 4336WAT     H218051   6.418   1.182   6.573
 4336WAT    EPW18052   6.482   1.213   6.538
 4337WAT      O18053   5.774   1.376   5.760
 4337WAT     H118054   5.782   1.462   5.773
 4337WAT     H218055   5.771   1.368   5.673
 4337WAT    EPW18056   5.775   1.388   5.749
 4338WAT      O18057   6.242   1.669   4.990
 4338WAT     H118058   6.197   1.737   5.020
 4338WAT     H218059   6.253   1.618   5.060
 4338WAT    EPW18060   6.237   1.671   5.005
 4339WAT      O18061   5.062   1.918   5.910
 4339WAT     H118062   5.037   2.002   5.902
 4339WAT     H218063   4.996   1.880   5.952
 4339WAT    EPW18064   5.049   1.925   5.915
 4340WAT      O18065   5.053   2.889   5.700
 4340WAT     H118066   4.994   2.945   5.669
 4340WAT     H218067   5.096   2.863   5.629
 4340WAT    EPW18068   5.051   2.894   5.685
 4341WAT      O18069   5.637   2.674   5.448
 4341WAT     H118070   5.579   2.646   5.507
 4341WAT     H218071   5.700   2.613   5.450
 4341WAT    EPW18072   5.638   2.661   5.457
 4342WAT      O18073   6.252   2.903   5.200
 4342WAT     H118074   6.324   2.950   5.210
 4342WAT     H218075   6.274   2.823   5.228
 4342WAT    EPW18076   6.266   2.898   5.206
 4343WAT      O18077   6.068   2.942   5.399
 4343WAT     H118078   6.090   2.995   5.465
 4343WAT     H218079   6.145   2.924   5.361
 4343WAT    EPW18080   6.083   2.947   5.403
 4344WAT      O18081   5.365   1.400   5.959
 4344WAT     H118082   5.313   1.337   5.928
 4344WAT     H218083   5.424   1.356   6.006
 4344WAT    EPW18084   5.366   1.384   5.961
 4345WAT      O18085   5.696   1.613   6.889
 4345WAT     H118086   5.707   1.568   6.815
 4345WAT     H218087   5.725   1.693   6.868
 4345WAT    EPW18088   5.702   1.619   6.875
 4346WAT      O18089   5.208   2.756   5.493
 4346WAT     H118090   5.273   2.699   5.494
 4346WAT     H218091   5.247   2.831   5.471
 4346WAT    EPW18092   5.223   2.759   5.490
 4347WAT      O18093   6.781   1.666   5.619
 4347WAT     H118094   6.746   1.734   5.662
 4347WAT     H218095   6.717   1.606   5.621
 4347WAT    EPW18096   6.767   1.667   5.626
 4348WAT      O18097   6.312   2.943   6.230
 4348WAT     H118098   6.387   2.988   6.229
 4348WAT     H218099   6.300   2.921   6.146
 4348WAT    EPW18100   6.321   2.946   6.217
 4349WAT      O18101   5.269   1.573   6.787
 4349WAT     H118102   5.191   1.534   6.780
 4349WAT     H218103   5.318   1.532   6.728
 4349WAT    EPW18104   5.265   1.561   6.777
 4350WAT      O18105   5.290   2.605   5.843
 4350WAT     H118106   5.332   2.570   5.776
 4350WAT     H218107   5.322   2.563   5.912
 4350WAT    EPW18108   5.301   2.594   5.843
 4351WAT      O18109   5.613   2.890   5.773
 4351WAT     H118110   5.697   2.901   5.753
 4351WAT     H218111   5.583   2.972   5.779
 4351WAT    EPW18112   5.621   2.904   5.771
 4352WAT      O18113   5.934   1.337   6.704
 4352WAT     H118114   5.952   1.257   6.676
 4352WAT     H218115   5.920   1.382   6.630
 4352WAT    EPW18116   5.934   1.332   6.689
 4353WAT      O18117   5.993   1.830   5.581
 4353WAT     H118118   6.022   1.807   5.502
 4353WAT     H218119   6.067   1.838   5.628
 4353WAT    EPW18120   6.008   1.828   5.577
 4354WAT      O18121   6.066   1.864   5.093
 4354WAT     H118122   6.094   1.943   5.118
 4354WAT     H218123   5.988   1.880   5.057
 4354WAT    EPW18124   6.058   1.878   5.092
 4355WAT      O18125   6.470   3.061   5.240
 4355WAT     H118126   6.536   3.047   5.186
 4355WAT     H218127   6.506   3.053   5.319
 4355WAT    EPW18128   6.485   3.058   5.244
 4356WAT      O18129   5.512   3.012   6.347
 4356WAT     H118130   5.542   3.006   6.429
 4356WAT     H218131   5.450   2.952   6.342
 4356WAT    EPW18132   5.508   3.002   6.358
 4357WAT      O18133   6.749   1.498   6.156
 4357WAT     H118134   6.824   1.505   6.113
 4357WAT     H218135   6.755   1.421   6.196
 4357WAT    EPW18136   6.761   1.488   6.156
 4358WAT      O18137   5.004   1.628   6.546
 4358WAT     H118138   5.003   1.687   6.610
 4358WAT     H218139   5.063   1.659   6.490
 4358WAT    EPW18140   5.013   1.641   6.547
 4359WAT      O18141   6.238   2.661   6.600
 4359WAT     H118142   6.234   2.700   6.678
 4359WAT     H218143   6.323   2.657   6.583
 4359WAT    EPW18144   6.250   2.666   6.609
 4360WAT      O18145   5.951   2.681   5.075
 4360WAT     H118146   5.933   2.736   5.141
 4360WAT     H218147   6.028   2.710   5.045
 4360WAT    EPW18148   5.960   2.693   5.080
 4361WAT      O18149   6.302   1.471   5.180
 4361WAT     H118150   6.356   1.402   5.188
 4361WAT     H218151   6.308   1.510   5.258
 4361WAT    EPW18152   6.311   1.466   5.193
 4362WAT      O18153   5.098   1.587   5.437
 4362WAT     H118154   5.086   1.501   5.440
 4362WAT     H218155   5.050   1.617   5.504
 4362WAT    EPW18156   5.089   1.579   5.448
 4363WAT      O18157   5.312   2.828   6.259
 4363WAT     H118158   5.242   2.778   6.271
 4363WAT     H218159   5.338   2.808   6.178
 4363WAT    EPW18160   5.305   2.818   6.249
 4364WAT      O18161   6.028   1.708   5.312
 4364WAT     H118162   5.977   1.642   5.286
 4364WAT     H218163   6.033   1.759   5.241
 4364WAT    EPW18164   6.021   1.706   5.298
 4365WAT      O18165   6.083   2.978   6.350
 4365WAT     H118166   6.160   2.970   6.309
 4365WAT     H218167   6.025   2.966   6.286
 4365WAT    EPW18168   6.086   2.975   6.334
 4366WAT      O18169   6.028   1.402   5.301
 4366WAT     H118170   5.982   1.362   5.238
 4366WAT     H218171   6.105   1.418   5.263
 4366WAT    EPW18172   6.033   1.399   5.286
 4367WAT      O18173   6.711   3.038   5.640
 4367WAT     H118174   6.665   3.110   5.660
 4367WAT     H218175   6.649   2.981   5.616
 4367WAT    EPW18176   6.695   3.040   5.639
 4368WAT      O18177   5.888   1.639   5.753
 4368WAT     H118178   5.895   1.696   5.687
 4368WAT     H218179   5.900   1.688   5.824
 4368WAT    EPW18180   5.891   1.655   5.754
 4369WAT      O18181   6.410   2.623   5.594
 4369WAT     H118182   6.480   2.574   5.613
 4369WAT     H218183   6.344   2.566   5.599
 4369WAT    EPW18184   6.411   2.607   5.598
 4370WAT      O18185   5.448   2.714   6.515
 4370WAT     H118186   5.532   2.720   6.493
 4370WAT     H218187   5.444   2.753   6.593
 4370WAT    EPW18188   5.460   2.720   6.524
 4371WAT      O18189   5.349   1.221   5.588
 4371WAT     H118190   5.402   1.290   5.587
 4371WAT     H218191   5.349   1.194   5.505
 4371WAT    EPW18192   5.356   1.227   5.575
 4372WAT      O18193   5.644   2.265   5.990
 4372WAT     H118194   5.661   2.244   6.073
 4372WAT     H218195   5.579   2.211   5.969
 4372WAT    EPW18196   5.637   2.254   5.999
 4373WAT      O18197   6.267   1.656   6.342
 4373WAT     H118198   6.257   1.688   6.422
 4373WAT     H218199   6.208   1.592   6.338
 4373WAT    EPW18200   6.257   1.651   6.353
 4374WAT      O18201   5.719   2.258   6.249
 4374WAT     H118202   5.724   2.343   6.270
 4374WAT     H218203   5.691   2.221   6.323
 4374WAT    EPW18204   5.716   2.265   6.263
 4375WAT      O18205   6.337   2.328   6.162
 4375WAT     H118206   6.285   2.287   6.219
 4375WAT     H218207   6.324   2.412   6.180
 4375WAT    EPW18208   6.327   2.334   6.173
 4376WAT      O18209   6.393   1.250   5.625
 4376WAT     H118210   6.397   1.219   5.707
 4376WAT     H218211   6.425   1.186   5.576
 4376WAT    EPW18212   6.398   1.236   5.630
 4377WAT      O18213   5.001   2.696   6.870
 4377WAT     H118214   5.077   2.730   6.896
 4377WAT     H218215   5.019   2.610   6.865
 4377WAT    EPW18216   5.015   2.688   6.873
 4378WAT      O18217   6.639   1.674   6.456
 4378WAT     H118218   6.716   1.652   6.490
 4378WAT     H218219   6.591   1.696   6.526
 4378WAT    EPW18220   6.643   1.674   6.472
 4379WAT      O18221   5.393   1.602   5.753
 4379WAT     H118222   5.421   1.559   5.682
 4379WAT     H218223   5.376   1.539   5.810
 4379WAT    EPW18224   5.395   1.587   5.751
 4380WAT      O18225   6.662   2.372   5.175
 4380WAT     H118226   6.674   2.343   5.257
 4380WAT     H218227   6.743   2.374   5.142
 4380WAT    EPW18228   6.676   2.368   5.182
 4381WAT      O18229   5.376   2.345   5.708
 4381WAT     H118230   5.461   2.337   5.691
 4381WAT     H218231   5.340   2.277   5.667
 4381WAT    EPW18232   5.383   2.334   5.699
 4382WAT      O18233   5.252   3.018   5.832
 4382WAT     H118234   5.185   2.968   5.807
 4382WAT     H218235   5.293   3.036   5.757
 4382WAT    EPW18236   5.248   3.013   5.817
 4383WAT      O18237   5.207   1.713   6.061
 4383WAT     H118238   5.292   1.735   6.057
 4383WAT     H218239   5.169   1.770   6.008
 4383WAT    EPW18240   5.214   1.724   6.053
 4384WAT      O18241   6.886   2.823   6.600
 4384WAT     H118242   6.817   2.854   6.556
 4384WAT     H218243   6.849   2.777   6.665
 4384WAT    EPW18244   6.870   2.821   6.603
 4385WAT      O18245   6.452   2.026   5.134
 4385WAT     H118246   6.430   2.099   5.091
 4385WAT     H218247   6.407   2.031   5.208
 4385WAT    EPW18248   6.442   2.037   5.138
 4386WAT      O18249   5.613   2.346   5.532
 4386WAT     H118250   5.684   2.395   5.541
 4386WAT     H218251   5.635   2.289   5.469
 4386WAT    EPW18252   5.626   2.345   5.524
 4387WAT      O18253   6.870   1.512   5.079
 4387WAT     H118254   6.804   1.455   5.081
 4387WAT     H218255   6.851   1.563   5.011
 4387WAT    EPW18256   6.858   1.511   5.069
 4388WAT      O18257   5.028   2.510   5.864
 4388WAT     H118258   4.961   2.559   5.891
 4388WAT     H218259   5.096   2.565   5.867
 4388WAT    EPW18260   5.028   2.525   5.868
 4389WAT      O18261   5.793   1.881   6.873
 4389WAT     H118262   5.744   1.939   6.917
 4389WAT     H218263   5.790   1.911   6.791
 4389WAT    EPW18264   5.785   1.894   6.868
 4390WAT      O18265   6.903   1.949   6.334
 4390WAT     H118266   6.924   1.869   6.307
 4390WAT     H218267   6.818   1.955   6.316
 4390WAT    EPW18268   6.893   1.939   6.328
 4391WAT      O18269   5.035   2.178   5.374
 4391WAT     H118270   5.016   2.095   5.389
 4391WAT     H218271   5.101   2.175   5.317
 4391WAT    EPW18272   5.042   2.166   5.368
 4392WAT      O18273   6.671   1.467   5.307
 4392WAT     H118274   6.745   1.427   5.327
 4392WAT     H218275   6.697   1.539   5.264
 4392WAT    EPW18276   6.685   1.472   5.303
 4393WAT      O18277   6.065   2.716   5.764
 4393WAT     H118278   6.013   2.779   5.735
 4393WAT     H218279   6.096   2.680   5.691
 4393WAT    EPW18280   6.062   2.720   5.749
 4394WAT      O18281   5.052   2.595   5.331
 4394WAT     H118282   5.107   2.652   5.368
 4394WAT     H218283   5.029   2.543   5.398
 4394WAT    EPW18284   5.057   2.596   5.347
 4395WAT      O18285   5.472   2.495   6.040
 4395WAT     H118286   5.519   2.524   6.108
 4395WAT     H218287   5.530   2.447   5.995
 4395WAT    EPW18288   5.488   2.492   6.044
 4396WAT      O18289   6.316   1.696   5.814
 4396WAT     H118290   6.350   1.711   5.893
 4396WAT     H218291   6.271   1.622   5.825
 4396WAT    EPW18292   6.314   1.688   5.827
 4397WAT      O18293   5.035   2.440   5.094
 4397WAT     H118294   5.111   2.397   5.100
 4397WAT     H218295   5.036   2.493   5.163
 4397WAT    EPW18296   5.046   2.441   5.105
 4398WAT      O18297   5.129   2.262   5.895
 4398WAT     H118298   5.172   2.249   5.820
 4398WAT     H218299   5.108   2.347   5.892
 4398WAT    EPW18300   5.132   2.272   5.883
 4399WAT      O18301   5.764   1.618   5.260
 4399WAT     H118302   5.763   1.607   5.173
 4399WAT     H218303   5.745   1.703   5.269
 4399WAT    EPW18304   5.761   1.629   5.248
 4400WAT      O18305   6.669   2.861   6.409
 4400WAT     H118306   6.602   2.912   6.431
 4400WAT     H218307   6.675   2.871   6.323
 4400WAT    EPW18308   6.660   2.870   6.400
 4401WAT      O18309   5.537   2.613   5.723
 4401WAT     H118310   5.550   2.698   5.742
 4401WAT     H218311   5.604   2.574   5.763
 4401WAT    EPW18312   5.549   2.620   5.732
 4402WAT      O18313   5.350   1.962   6.709
 4402WAT     H118314   5.297   1.911   6.756
 4402WAT     H218315   5.352   1.923   6.631
 4402WAT    EPW18316   5.343   1.948   6.705
 4403WAT      O18317   5.399   1.901   5.223
 4403WAT     H118318   5.386   1.857   5.297
 4403WAT     H218319   5.341   1.867   5.168
 4403WAT    EPW18320   5.388   1.890   5.226
 4404WAT      O18321   5.416   2.084   5.883
 4404WAT     H118322   5.337   2.079   5.845
 4404WAT     H218323   5.423   2.009   5.927
 4404WAT    EPW18324   5.405   2.073   5.884
 4405WAT      O18325   5.459   2.058   6.230
 4405WAT     H118326   5.461   1.991   6.175
 4405WAT     H218327   5.394   2.108   6.199
 4405WAT    EPW18328   5.449   2.055   6.217
 4406WAT      O18329   6.448   1.829   6.069
 4406WAT     H118330   6.382   1.862   6.116
 4406WAT     H218331   6.467   1.893   6.013
 4406WAT    EPW18332   6.441   1.844   6.068
 4407WAT      O18333   5.869   2.936   6.169
 4407WAT     H118334   5.841   2.872   6.117
 4407WAT     H218335   5.848   3.008   6.125
 4407WAT    EPW18336   5.861   2.937   6.155
 4408WAT      O18337   6.113   1.420   6.412
 4408WAT     H118338   6.127   1.338   6.388
 4408WAT     H218339   6.150   1.426   6.491
 4408WAT    EPW18340   6.120   1.409   6.420
 4409WAT      O18341   6.267   1.626   5.421
 4409WAT     H118342   6.316   1.698   5.413
 4409WAT     H218343   6.188   1.652   5.394
 4409WAT    EPW18344   6.263   1.641   5.416
 4410WAT      O18345   5.238   2.194   6.786
 4410WAT     H118346   5.235   2.244   6.714
 4410WAT     H218347   5.272   2.118   6.756
 4410WAT    EPW18348   5.243   2.190   6.771
 4411WAT      O18349   6.399   2.414   6.612
 4411WAT     H118350   6.447   2.486   6.621
 4411WAT     H218351   6.438   2.371   6.546
 4411WAT    EPW18352   6.412   2.418   6.603
 4412WAT      O18353   5.828   2.699   6.729
 4412WAT     H118354   5.864   2.681   6.807
 4412WAT     H218355   5.785   2.626   6.709
 4412WAT    EPW18356   5.827   2.685   6.738
 4413WAT      O18357   5.926   1.773   5.993
 4413WAT     H118358   5.974   1.843   6.014
 4413WAT     H218359   5.963   1.709   6.038
 4413WAT    EPW18360   5.938   1.774   6.003
 4414WAT      O18361   6.144   2.090   5.220
 4414WAT     H118362   6.144   2.162   5.171
 4414WAT     H218363   6.081   2.104   5.278
 4414WAT    EPW18364   6.135   2.103   5.222
 4415WAT      O18365   6.642   2.477   5.619
 4415WAT     H118366   6.677   2.442   5.690
 4415WAT     H218367   6.641   2.411   5.562
 4415WAT    EPW18368   6.647   2.462   5.621
 4416WAT      O18369   6.246   2.784   6.003
 4416WAT     H118370   6.186   2.754   5.947
 4416WAT     H218371   6.301   2.829   5.952
 4416WAT    EPW18372   6.245   2.786   5.987
 4417WAT      O18373   6.247   2.469   5.943
 4417WAT     H118374   6.168   2.491   5.970
 4417WAT     H218375   6.273   2.410   6.001
 4417WAT    EPW18376   6.239   2.463   5.956
 4418WAT      O18377   5.637   2.950   5.388
 4418WAT     H118378   5.622   2.873   5.425
 4418WAT     H218379   5.706   2.935   5.336
 4418WAT    EPW18380   5.645   2.936   5.386
 4419WAT      O18381   5.604   1.324   5.187
 4419WAT     H118382   5.613   1.314   5.273
 4419WAT     H218383   5.533   1.375   5.180
 4419WAT    EPW18384   5.595   1.330   5.198
 4420WAT      O18385   5.866   2.902   5.228
 4420WAT     H118386   5.928   2.918   5.287
 4420WAT     H218387   5.869   2.971   5.175
 4420WAT    EPW18388   5.876   2.914   5.229
 4421WAT      O18389   6.573   2.269   6.428
 4421WAT     H118390   6.579   2.281   6.341
 4421WAT     H218391   6.649   2.301   6.458
 4421WAT    EPW18392   6.585   2.275   6.419
 4422WAT      O18393   6.193   2.804   6.855
 4422WAT     H118394   6.209   2.832   6.936
 4422WAT     H218395   6.219   2.870   6.805
 4422WAT    EPW18396   6.199   2.818   6.860
 4423WAT      O18397   6.677   1.299   6.726
 4423WAT     H118398   6.613   1.259   6.682
 4423WAT     H218399   6.679   1.255   6.802
 4423WAT    EPW18400   6.668   1.286   6.731
 4424WAT      O18401   5.316   2.155   5.311
 4424WAT     H118402   5.348   2.077   5.289
 4424WAT     H218403   5.381   2.192   5.356
 4424WAT    EPW18404   5.330   2.149   5.314
 4425WAT      O18405   6.147   2.249   6.388
 4425WAT     H118406   6.131   2.310   6.448
 4425WAT     H218407   6.200   2.194   6.428
 4425WAT    EPW18408   6.152   2.250   6.402
 4426WAT      O18409   5.016   1.321   5.408
 4426WAT     H118410   5.029   1.250   5.358
 4426WAT     H218411   4.979   1.289   5.480
 4426WAT    EPW18412   5.012   1.306   5.411
 4427WAT      O18413   5.985   2.089   5.453
 4427WAT     H118414   5.991   2.154   5.511
 4427WAT     H218415   5.966   2.020   5.502
 4427WAT    EPW18416   5.983   2.089   5.469
 4428WAT      O18417   6.508   2.522   6.040
 4428WAT     H118418   6.460   2.552   5.974
 4428WAT     H218419   6.472   2.445   6.058
 4428WAT    EPW18420   6.495   2.515   6.033
 4429WAT      O18421   5.435   1.541   5.105
 4429WAT     H118422   5.383   1.546   5.034
 4429WAT     H218423   5.513   1.565   5.075
 4429WAT    EPW18424   5.439   1.545   5.090
 4430WAT      O18425   5.907   2.294   5.896
 4430WAT     H118426   5.823   2.275   5.905
 4430WAT     H218427   5.940   2.278   5.976
 4430WAT    EPW18428   5.899   2.289   5.909
 4431WAT      O18429   5.582   2.967   4.985
 4431WAT     H118430   5.626   2.897   5.014
 4431WAT     H218431   5.603   3.029   5.042
 4431WAT    EPW18432   5.592   2.966   4.998
 4432WAT      O18433   5.292   2.263   6.128
 4432WAT     H118434   5.364   2.312   6.124
 4432WAT     H218435   5.265   2.260   6.045
 4432WAT    EPW18436   5.299   2.270   6.115
 4433WAT      O18437   5.615   1.780   5.802
 4433WAT     H118438   5.700   1.761   5.811
 4433WAT     H218439   5.578   1.703   5.788
 4433WAT    EPW18440   5.622   1.766   5.801
 4434WAT      O18441   6.877   2.939   5.234
 4434WAT     H118442   6.946   2.892   5.209
 4434WAT     H218443   6.823   2.879   5.268
 4434WAT    EPW18444   6.879   2.923   5.236
 4435WAT      O18445   5.097   1.914   5.467
 4435WAT     H118446   5.146   1.885   5.533
 4435WAT     H218447   5.110   1.855   5.404
 4435WAT    EPW18448   5.106   1.901   5.468
 4436WAT      O18449   6.601   2.216   6.152
 4436WAT     H118450   6.600   2.139   6.192
 4436WAT     H218451   6.517   2.240   6.151
 4436WAT    EPW18452   6.588   2.208   6.158
 4437WAT      O18453   5.550   2.058   5.016
 4437WAT     H118454   5.489   2.017   5.063
 4437WAT     H218455   5.511   2.069   4.938
 4437WAT    EPW18456   5.535   2.053   5.011
 4438WAT      O18457   5.232   2.369   6.556
 4438WAT     H118458   5.189   2.317   6.500
 4438WAT     H218459   5.196   2.447   6.542
 4438WAT    EPW18460   5.220   2.373   6.545
 4439WAT      O18461   6.726   2.224   5.896
 4439WAT     H118462   6.698   2.264   5.968
 4439WAT     H218463   6.812   2.217   5.909
 4439WAT    EPW18464   6.735   2.229   5.908
 4440WAT      O18465   5.695   1.904   5.287
 4440WAT     H118466   5.722   1.986   5.293
 4440WAT     H218467   5.609   1.911   5.277
 4440WAT    EPW18468   5.686   1.917   5.286
 4441WAT      O18469   6.492   1.616   6.750
 4441WAT     H118470   6.440   1.662   6.802
 4441WAT     H218471   6.456   1.536   6.749
 4441WAT    EPW18472   6.479   1.611   6.757
 4442WAT      O18473   5.043   1.501   5.940
 4442WAT     H118474   5.048   1.535   5.860
 4442WAT     H218475   5.119   1.524   5.977
 4442WAT    EPW18476   5.055   1.509   5.934
 4443WAT      O18477   6.839   2.787   5.949
 4443WAT     H118478   6.868   2.813   5.871
 4443WAT     H218479   6.909   2.796   6.001
 4443WAT    EPW18480   6.854   2.792   5.945
 4444WAT      O18481   6.342   1.973   6.757
 4444WAT     H118482   6.349   1.983   6.844
 4444WAT     H218483   6.278   2.029   6.735
 4444WAT    EPW18484   6.333   1.983   6.767
 4445WAT      O18485   6.568   2.005   6.594
 4445WAT     H118486   6.600   2.083   6.614
 4445WAT     H218487   6.531   1.978   6.668
 4445WAT    EPW18488   6.568   2.012   6.608
 4446WAT      O18489   6.500   2.647   5.147
 4446WAT     H118490   6.533   2.567   5.150
 4446WAT     H218491   6.424   2.640   5.190
 4446WAT    EPW18492   6.494   2.634   5.154
 4447WAT      O18493   6.548   1.831   5.713
 4447WAT     H118494   6.474   1.798   5.745
 4447WAT     H218495   6.548   1.913   5.741
 4447WAT    EPW18496   6.537   1.838   5.722
 4448WAT      O18497   6.838   2.059   6.867
 4448WAT     H118498   6.833   2.025   6.787
 4448WAT     H218499   6.912   2.106   6.865
 4448WAT    EPW18500   6.848   2.061   6.855
 4449WAT      O18501   6.792   2.427   6.488
 4449WAT     H118502   6.855   2.372   6.462
 4449WAT     H218503   6.786   2.483   6.422
 4449WAT    EPW18504   6.800   2.427   6.474
 4450WAT      O18505   6.237   2.435   5.087
 4450WAT     H118506   6.306   2.383   5.070
 4450WAT     H218507   6.196   2.439   5.011
 4450WAT    EPW18508   6.241   2.428   5.073
 4451WAT      O18509   5.705   2.550   6.218
 4451WAT     H118510   5.676   2.609   6.274
 4451WAT     H218511   5.711   2.594   6.143
 4451WAT    EPW18512   5.702   2.565   6.215
 4452WAT      O18513   5.503   2.445   6.557
 4452WAT     H118514   5.423   2.416   6.574
 4452WAT     H218515   5.494   2.531   6.558
 4452WAT    EPW18516   5.490   2.453   6.560
 4453WAT      O18517   6.439   1.464   6.459
 4453WAT     H118518   6.514   1.509   6.453
 4453WAT     H218519   6.383   1.511   6.412
 4453WAT    EPW18520   6.442   1.477   6.451
 4454WAT      O18521   5.957   2.192   6.167
 4454WAT     H118522   6.005   2.229   6.230
 4454WAT     H218523   5.875   2.205   6.193
 4454WAT    EPW18524   5.952   2.199   6.180
 4455WAT      O18525   5.628   1.752   6.441
 4455WAT     H118526   5.644   1.678   6.484
 4455WAT     H218527   5.624   1.727   6.357
 4455WAT    EPW18528   5.630   1.738   6.435
 4456WAT      O18529   5.883   2.931   5.690
 4456WAT     H118530   5.938   2.999   5.695
 4456WAT     H218531   5.848   2.939   5.610
 4456WAT    EPW18532   5.886   2.943   5.679
 4457WAT      O18533   6.568   1.262   6.226
 4457WAT     H118534   6.540   1.344   6.222
 4457WAT     H218535   6.639   1.267   6.276
 4457WAT    EPW18536   6.574   1.275   6.233
 4458WAT      O18537   5.803   1.333   6.429
 4458WAT     H118538   5.874   1.365   6.389
 4458WAT     H218539   5.827   1.252   6.452
 4458WAT    EPW18540   5.817   1.326   6.426
 4459WAT      O18541   5.702   2.754   6.028
 4459WAT     H118542   5.639   2.812   6.010
 4459WAT     H218543   5.727   2.725   5.950
 4459WAT    EPW18544   5.696   2.758   6.014
 4460WAT      O18545   6.133   2.417   6.727
 4460WAT     H118546   6.208   2.446   6.695
 4460WAT     H218547   6.078   2.423   6.660
 4460WAT    EPW18548   6.136   2.422   6.712
 4461WAT      O18549   6.524   2.672   6.578
 4461WAT     H118550   6.558   2.699   6.653
 4461WAT     H218551   6.553   2.731   6.520
 4461WAT    EPW18552   6.533   2.685   6.580
 4462WAT      O18553   6.710   1.887   5.112
 4462WAT     H118554   6.748   1.955   5.072
 4462WAT     H218555   6.626   1.909   5.115
 4462WAT    EPW18556   6.703   1.900   5.106
 4463WAT      O18557   5.861   2.232   5.020
 4463WAT     H118558   5.781   2.214   4.991
 4463WAT     H218559   5.858   2.317   5.039
 4463WAT    EPW18560   5.849   2.242   5.019
 4464WAT      O18561   5.454   1.838   6.035
 4464WAT     H118562   5.498   1.828   5.960
 4464WAT     H218563   5.509   1.807   6.095
 4464WAT    EPW18564   5.469   1.832   6.033
 4465WAT      O18565   6.256   1.749   6.594
 4465WAT     H118566   6.191   1.796   6.629
 4465WAT     H218567   6.312   1.740   6.660
 4465WAT    EPW18568   6.255   1.754   6.609
 4466WAT      O18569   6.225   1.902   6.224
 4466WAT     H118570   6.255   1.944   6.294
 4466WAT     H218571   6.228   1.818   6.247
 4466WAT    EPW18572   6.230   1.896   6.238
 4467WAT      O18573   5.967   2.919   6.616
 4467WAT     H118574   6.015   2.859   6.575
 4467WAT     H218575   5.932   2.875   6.683
 4467WAT    EPW18576   5.969   2.904   6.620
 4468WAT      O18577   6.479   1.847   5.449
 4468WAT     H118578   6.500   1.827   5.532
 4468WAT     H218579   6.555   1.874   5.415
 4468WAT    EPW18580   6.494   1.848   5.456
 4469WAT      O18581   5.809   1.337   6.040
 4469WAT     H118582   5.726   1.322   6.063
 4469WAT     H218583   5.805   1.340   5.953
 4469WAT    EPW18584   5.796   1.335   6.030
 4470WAT      O18585   6.582   1.455   5.597
 4470WAT     H118586   6.510   1.408   5.614
 4470WAT     H218587   6.565   1.489   5.518
 4470WAT    EPW18588   6.569   1.453   5.587
 4471WAT      O18589   6.626   2.250   5.435
 4471WAT     H118590   6.673   2.177   5.430
 4471WAT     H218591   6.544   2.221   5.427
 4471WAT    EPW18592   6.621   2.235   5.433
 4472WAT      O18593   5.973   2.441   6.518
 4472WAT     H118594   5.893   2.434   6.554
 4472WAT     H218595   5.980   2.526   6.499
 4472WAT    EPW18596   5.962   2.452   6.521
 4473WAT      O18597   5.065   1.377   6.643
 4473WAT     H118598   5.051   1.456   6.610
 4473WAT     H218599   4.987   1.352   6.672
 4473WAT    EPW18600   5.052   1.385   6.643
 4474WAT      O18601   5.556   3.062   6.050
 4474WAT     H118602   5.557   3.067   6.137
 4474WAT     H218603   5.513   2.987   6.035
 4474WAT    EPW18604   5.550   3.051   6.061
 4475WAT      O18605   5.372   1.651   5.366
 4475WAT     H118606   5.384   1.618   5.286
 4475WAT     H218607   5.291   1.626   5.386
 4475WAT    EPW18608   5.362   1.643   5.357
 4476WAT      O18609   6.247   2.366   5.670
 4476WAT     H118610   6.255   2.400   5.750
 4476WAT     H218611   6.264   2.282   5.682
 4476WAT    EPW18612   6.251   2.359   5.684
 4477WAT      O18613   6.000   2.294   5.627
 4477WAT     H118614   5.970   2.262   5.702
 4477WAT     H218615   6.069   2.341   5.650
 4477WAT    EPW18616   6.006   2.296   5.641
 4478WAT      O18617   6.022   2.706   6.429
 4478WAT     H118618   6.091   2.694   6.482
 4478WAT     H218619   6.035   2.785   6.395
 4478WAT    EPW18620   6.034   2.716   6.432
 4479WAT      O18621   6.839   1.966   6.610
 4479WAT     H118622   6.754   1.954   6.623
 4479WAT     H218623   6.855   1.927   6.534
 4479WAT    EPW18624   6.829   1.959   6.601
 4480WAT      O18625   6.291   2.033   6.468
 4480WAT     H118626   6.265   1.961   6.510
 4480WAT     H218627   6.373   2.045   6.495
 4480WAT    EPW18628   6.299   2.024   6.478
 4481WAT      O18629   5.232   3.011   6.594
 4481WAT     H118630   5.167   2.954   6.604
 4481WAT     H218631   5.195   3.089   6.609
 4481WAT    EPW18632   5.217   3.014   6.598
 4482WAT      O18633   6.084   2.152   6.787
 4482WAT     H118634   6.116   2.221   6.743
 4482WAT     H218635   6.014   2.184   6.827
 4482WAT    EPW18636   6.078   2.167   6.786
 4483WAT      O18637   6.393   2.989   5.880
 4483WAT     H118638   6.347   3.054   5.917
 4483WAT     H218639   6.463   2.981   5.930
 4483WAT    EPW18640   6.396   2.998   5.893
 4484WAT      O18641   6.063   2.498   6.173
 4484WAT     H118642   5.993   2.539   6.207
 4484WAT     H218643   6.130   2.542   6.206
 4484WAT    EPW18644   6.062   2.511   6.183
 4485WAT      O18645   6.600   2.758   6.831
 4485WAT     H118646   6.678   2.719   6.839
 4485WAT     H218647   6.553   2.724   6.896
 4485WAT    EPW18648   6.605   2.747   6.841
 4486WAT      O18649   5.369   1.852   6.407
 4486WAT     H118650   5.407   1.914   6.359
 4486WAT     H218651   5.437   1.805   6.436
 4486WAT    EPW18652   5.385   1.854   6.404
 4487WAT      O18653   5.147   1.697   6.335
 4487WAT     H118654   5.155   1.680   6.249
 4487WAT     H218655   5.222   1.738   6.354
 4487WAT    EPW18656   5.159   1.700   6.325
 4488WAT      O18657   6.703   1.961   5.379
 4488WAT     H118658   6.713   1.955   5.292
 4488WAT     H218659   6.777   1.928   5.411
 4488WAT    EPW18660   6.715   1.955   5.371
 4489WAT      O18661   5.402   1.438   6.576
 4489WAT     H118662   5.394   1.354   6.596
 4489WAT     H218663   5.371   1.442   6.495
 4489WAT    EPW18664   5.397   1.426   6.567
 4490WAT      O18665   6.095   2.657   5.489
 4490WAT     H118666   6.074   2.741   5.474
 4490WAT     H218667   6.017   2.619   5.502
 4490WAT    EPW18668   6.080   2.664   5.489
 4491WAT      O18669   6.613   1.976   6.314
 4491WAT     H118670   6.613   1.889   6.327
 4491WAT     H218671   6.620   2.008   6.395
 4491WAT    EPW18672   6.614   1.968   6.328
 4492WAT      O18673   5.087   2.220   6.357
 4492WAT     H118674   5.119   2.241   6.279
 4492WAT     H218675   5.077   2.133   6.352
 4492WAT    EPW18676   5.090   2.210   6.345
 4493WAT      O18677   5.232   1.813   5.019
 4493WAT     H118678   5.165   1.815   5.075
 4493WAT     H218679   5.242   1.728   5.001
 4493WAT    EPW18680   5.224   1.801   5.024
 4494WAT      O18681   6.201   1.456   6.693
 4494WAT     H118682   6.210   1.527   6.742
 4494WAT     H218683   6.137   1.411   6.732
 4494WAT    EPW18684   6.193   1.459   6.706
 4495WAT      O18685   6.100   1.475   5.778
 4495WAT     H118686   6.030   1.526   5.772
 4495WAT     H218687   6.104   1.437   5.700
 4495WAT    EPW18688   6.091   1.477   5.766
 4496WAT      O18689   5.631   2.684   5.130
 4496WAT     H118690   5.675   2.692   5.205
 4496WAT     H218691   5.551   2.662   5.156
 4496WAT    EPW18692   5.626   2.682   5.145
 4497WAT      O18693   6.460   1.526   6.058
 4497WAT     H118694   6.546   1.536   6.072
 4497WAT     H218695   6.423   1.581   6.114
 4497WAT    EPW18696   6.467   1.536   6.068
 4498WAT      O18697   5.563   2.149   6.496
 4498WAT     H118698   5.523   2.226   6.503
 4498WAT     H218699   5.522   2.111   6.428
 4498WAT    EPW18700   5.551   2.155   6.487
 4499WAT      O18701   6.491   2.054   5.907
 4499WAT     H118702   6.557   2.108   5.923
 4499WAT     H218703   6.456   2.085   5.833
 4499WAT    EPW18704   6.495   2.067   5.899
 4500WAT      O18705   6.522   2.861   5.488
 4500WAT     H118706   6.504   2.795   5.543
 4500WAT     H218707   6.593   2.834   5.445
 4500WAT    EPW18708   6.530   2.847   5.490
 4501WAT      O18709   5.646   2.415   5.065
 4501WAT     H118710   5.564   2.388   5.079
 4501WAT     H218711   5.643   2.500   5.083
 4501WAT    EPW18712   5.633   2.424   5.070
 4502WAT      O18713   5.606   1.446   6.241
 4502WAT     H118714   5.519   1.455   6.249
 4502WAT     H218715   5.628   1.395   6.308
 4502WAT    EPW18716   5.596   1.440   6.252
 4503WAT      O18717   6.808   1.310   6.374
 4503WAT     H118718   6.802   1.306   6.461
 4503WAT     H218719   6.876   1.260   6.355
 4503WAT    EPW18720   6.817   1.302   6.384
 4504WAT      O18721   6.016   1.521   6.078
 4504WAT     H118722   5.942   1.476   6.089
 4504WAT     H218723   6.073   1.481   6.130
 4504WAT    EPW18724   6.014   1.509   6.087
 4505WAT      O18725   6.289   2.606   6.257
 4505WAT     H118726   6.310   2.636   6.336
 4505WAT     H218727   6.283   2.678   6.208
 4505WAT    EPW18728   6.291   2.621   6.261
 4506WAT      O18729   6.243   3.027   6.681
 4506WAT     H118730   6.167   3.026   6.637
 4506WAT     H218731   6.260   3.113   6.690
 4506WAT    EPW18732   6.234   3.040   6.676
 4507WAT      O18733   5.766   1.954   6.598
 4507WAT     H118734   5.734   1.897   6.541
 4507WAT     H218735   5.731   2.030   6.574
 4507WAT    EPW18736   5.756   1.957   6.586
 4508WAT      O18737   5.846   1.279   5.061
 4508WAT     H118738   5.854   1.304   4.978
 4508WAT     H218739   5.772   1.317   5.087
 4508WAT    EPW18740   5.836   1.289   5.053
 4509WAT      O18741   6.771   2.470   6.203
 4509WAT     H118742   6.767   2.384   6.189
 4509WAT     H218743   6.701   2.500   6.159
 4509WAT    EPW18744   6.760   2.462   6.194
 4510WAT      O18745   5.610   2.990   6.623
 4510WAT     H118746   5.614   3.002   6.710
 4510WAT     H218747   5.675   2.934   6.608
 4510WAT    EPW18748   5.620   2.983   6.634
 4511WAT      O18749   6.581   2.796   6.082
 4511WAT     H118750   6.634   2.788   6.013
 4511WAT     H218751   6.542   2.718   6.088
 4511WAT    EPW18752   6.583   2.783   6.073
 4512WAT      O18753   5.328   1.455   6.305
 4512WAT     H118754   5.294   1.378   6.282
 4512WAT     H218755   5.258   1.507   6.312
 4512WAT    EPW18756   5.313   1.451   6.303
 4513WAT      O18757   6.232   1.340   6.003
 4513WAT     H118758   6.299   1.395   6.016
 4513WAT     H218759   6.182   1.383   5.946
 4513WAT    EPW18760   6.235   1.355   5.997
 4514WAT      O18761   5.369   2.828   6.759
 4514WAT     H118762   5.429   2.871   6.806
 4514WAT     H218763   5.333   2.890   6.710
 4514WAT    EPW18764   5.373   2.844   6.759
 4515WAT      O18765   6.168   1.921   5.752
 4515WAT     H118766   6.223   1.860   5.782
 4515WAT     H218767   6.126   1.947   5.824
 4515WAT    EPW18768   6.170   1.916   5.767
 4516WAT      O18769   5.193   1.786   5.701
 4516WAT     H118770   5.156   1.816   5.774
 4516WAT     H218771   5.247   1.723   5.729
 4516WAT    EPW18772   5.196   1.781   5.716
 4517WAT      O18773   5.162   2.627   6.452
 4517WAT     H118774   5.105   2.669   6.503
 4517WAT     H218775   5.235   2.673   6.462
 4517WAT    EPW18776   5.164   2.640   6.461
 4518WAT      O18777   6.365   2.104   5.409
 4518WAT     H118778   6.372   2.019   5.427
 4518WAT     H218779   6.283   2.113   5.381
 4518WAT    EPW18780   6.354   2.093   5.407
 4519WAT      O18781   5.341   2.954   5.330
 4519WAT     H118782   5.326   2.969   5.245
 4519WAT     H218783   5.427   2.962   5.337
 4519WAT    EPW18784   5.351   2.957   5.318
 4520WAT      O18785   5.757   2.193   5.302
 4520WAT     H118786   5.767   2.207   5.217
 4520WAT     H218787   5.839   2.187   5.332
 4520WAT    EPW18788   5.771   2.194   5.294
 4521WAT      O18789   6.673   3.000   5.050
 4521WAT     H118790   6.737   2.986   5.109
 4521WAT     H218791   6.639   2.920   5.039
 4521WAT    EPW18792   6.678   2.986   5.057
 4522WAT      O18793   6.693   2.242   6.724
 4522WAT     H118794   6.756   2.225   6.781
 4522WAT     H218795   6.734   2.282   6.659
 4522WAT    EPW18796   6.708   2.245   6.723
 4523WAT      O18797   6.281   2.626   5.283
 4523WAT     H118798   6.256   2.613   5.365
 4523WAT     H218799   6.249   2.557   5.241
 4523WAT    EPW18800   6.272   2.614   5.289
 4524WAT      O18801   6.755   1.698   6.798
 4524WAT     H118802   6.736   1.762   6.853
 4524WAT     H218803   6.683   1.649   6.797
 4524WAT    EPW18804   6.742   1.700   6.806
 4525WAT      O18805   6.745   1.792   6.095
 4525WAT     H118806   6.662   1.817   6.087
 4525WAT     H218807   6.740   1.708   6.118
 4525WAT    EPW18808   6.732   1.783   6.097
 4526WAT      O18809   5.671   1.491   6.614
 4526WAT     H118810   5.695   1.433   6.553
 4526WAT     H218811   5.587   1.473   6.628
 4526WAT    EPW18812   5.662   1.480   6.607
 4527WAT      O18813   6.434   2.253   6.859
 4527WAT     H118814   6.521   2.249   6.856
 4527WAT     H218815   6.412   2.295   6.786
 4527WAT    EPW18816   6.444   2.258   6.848
 4528WAT      O18817   5.409   2.835   5.977
 4528WAT     H118818   5.401   2.754   5.946
 4528WAT     H218819   5.365   2.884   5.920
 4528WAT    EPW18820   5.402   2.830   5.964
 4529WAT      O18821   5.969   2.447   5.226
 4529WAT     H118822   6.041   2.412   5.190
 4529WAT     H218823   5.966   2.527   5.191
 4529WAT    EPW18824   5.979   2.454   5.215
 4530WAT      O18825   5.166   3.060   6.335
 4530WAT     H118826   5.216   3.054   6.407
 4530WAT     H218827   5.185   2.986   6.292
 4530WAT    EPW18828   5.177   3.048   6.340
 4531WAT      O18829   6.110   1.311   3.650
 4531WAT     H118830   6.086   1.360   3.582
 4531WAT     H218831   6.197   1.304   3.640
 4531WAT    EPW18832   6.119   1.317   3.638
 4532WAT      O18833   6.091   2.003   4.117
 4532WAT     H118834   6.039   2.062   4.153
 4532WAT     H218835   6.131   1.966   4.185
 4532WAT    EPW18836   6.089   2.006   4.132
 4533WAT      O18837   6.706   2.747   3.414
 4533WAT     H118838   6.776   2.695   3.413
 4533WAT     H218839   6.647   2.702   3.367
 4533WAT    EPW18840   6.707   2.733   3.407
 4534WAT      O18841   5.052   1.796   3.313
 4534WAT     H118842   4.975   1.812   3.277
 4534WAT     H218843   5.056   1.709   3.315
 4534WAT    EPW18844   5.041   1.785   3.308
 4535WAT      O18845   5.366   2.322   3.180
 4535WAT     H118846   5.327   2.285   3.112
 4535WAT     H218847   5.358   2.262   3.243
 4535WAT    EPW18848   5.359   2.308   3.179
 4536WAT      O18849   6.358   2.109   3.784
 4536WAT     H118850   6.366   2.110   3.697
 4536WAT     H218851   6.300   2.046   3.799
 4536WAT    EPW18852   6.351   2.100   3.774
 4537WAT      O18853   5.329   2.486   3.570
 4537WAT     H118854   5.390   2.469   3.630
 4537WAT     H218855   5.254   2.472   3.612
 4537WAT    EPW18856   5.327   2.482   3.585
 4538WAT      O18857   5.757   1.420   3.565
 4538WAT     H118858   5.750   1.488   3.510
 4538WAT     H218859   5.831   1.381   3.540
 4538WAT    EPW18860   5.767   1.424   3.553
 4539WAT      O18861   5.072   2.690   4.288
 4539WAT     H118862   5.085   2.662   4.369
 4539WAT     H218863   5.011   2.636   4.257
 4539WAT    EPW18864   5.065   2.678   4.295
 4540WAT      O18865   5.729   2.443   4.794
 4540WAT     H118866   5.706   2.442   4.878
 4540WAT     H218867   5.655   2.428   4.752
 4540WAT    EPW18868   5.715   2.440   4.801
 4541WAT      O18869   5.217   2.142   3.708
 4541WAT     H118870   5.170   2.103   3.645
 4541WAT     H218871   5.287   2.091   3.717
 4541WAT    EPW18872   5.220   2.129   3.700
 4542WAT      O18873   5.667   1.703   4.243
 4542WAT     H118874   5.735   1.705   4.188
 4542WAT     H218875   5.663   1.620   4.267
 4542WAT    EPW18876   5.677   1.691   4.238
 4543WAT      O18877   5.728   2.762   4.521
 4543WAT     H118878   5.741   2.838   4.480
 4543WAT     H218879   5.807   2.725   4.523
 4543WAT    EPW18880   5.741   2.768   4.515
 4544WAT      O18881   5.417   1.952   3.710
 4544WAT     H118882   5.498   1.934   3.735
 4544WAT     H218883   5.369   1.891   3.750
 4544WAT    EPW18884   5.422   1.941   3.720
 4545WAT      O18885   5.837   2.550   3.971
 4545WAT     H118886   5.872   2.471   3.974
 4545WAT     H218887   5.904   2.601   3.946
 4545WAT    EPW18888   5.852   2.546   3.968
 4546WAT      O18889   5.843   2.495   3.592
 4546WAT     H118890   5.876   2.431   3.641
 4546WAT     H218891   5.867   2.474   3.511
 4546WAT    EPW18892   5.851   2.483   3.588
 4547WAT      O18893   6.040   1.908   4.726
 4547WAT     H118894   5.955   1.899   4.708
 4547WAT     H218895   6.043   1.983   4.772
 4547WAT    EPW18896   6.028   1.918   4.730
 4548WAT      O18897   5.476   1.462   3.637
 4548WAT     H118898   5.447   1.512   3.572
 4548WAT     H218899   5.563   1.470   3.631
 4548WAT    EPW18900   5.485   1.470   3.626
 4549WAT      O18901   6.495   1.204   4.638
 4549WAT     H118902   6.480   1.281   4.599
 4549WAT     H218903   6.418   1.182   4.672
 4549WAT    EPW18904   6.482   1.213   4.637
 4550WAT      O18905   5.774   1.376   3.859
 4550WAT     H118906   5.782   1.462   3.872
 4550WAT     H218907   5.771   1.368   3.772
 4550WAT    EPW18908   5.775   1.388   3.848
 4551WAT      O18909   6.242   1.669   3.089
 4551WAT     H118910   6.197   1.737   3.120
 4551WAT     H218911   6.253   1.618   3.159
 4551WAT    EPW18912   6.237   1.671   3.104
 4552WAT      O18913   5.062   1.918   4.009
 4552WAT     H118914   5.037   2.002   4.002
 4552WAT     H218915   4.996   1.880   4.051
 4552WAT    EPW18916   5.049   1.925   4.014
 4553WAT      O18917   5.637   2.674   3.547
 4553WAT     H118918   5.579   2.646   3.606
 4553WAT     H218919   5.700   2.613   3.550
 4553WAT    EPW18920   5.638   2.661   3.556
 4554WAT      O18921   6.252   2.903   3.299
 4554WAT     H118922   6.324   2.950   3.310
 4554WAT     H218923   6.274   2.823   3.327
 4554WAT    EPW18924   6.266   2.898   3.305
 4555WAT      O18925   6.068   2.942   3.498
 4555WAT     H118926   6.090   2.995   3.565
 4555WAT     H218927   6.145   2.924   3.461
 4555WAT    EPW18928   6.083   2.947   3.503
 4556WAT      O18929   5.365   1.400   4.058
 4556WAT     H118930   5.313   1.337   4.028
 4556WAT     H218931   5.424   1.356   4.105
 4556WAT    EPW18932   5.366   1.384   4.061
 4557WAT      O18933   5.696   1.613   4.988
 4557WAT     H118934   5.707   1.568   4.915
 4557WAT     H218935   5.725   1.693   4.968
 4557WAT    EPW18936   5.702   1.619   4.974
 4558WAT      O18937   6.781   1.666   3.719
 4558WAT     H118938   6.746   1.734   3.761
 4558WAT     H218939   6.717   1.606   3.720
 4558WAT    EPW18940   6.767   1.667   3.725
 4559WAT      O18941   6.312   2.943   4.329
 4559WAT     H118942   6.387   2.988   4.328
 4559WAT     H218943   6.300   2.921   4.245
 4559WAT    EPW18944   6.321   2.946   4.316
 4560WAT      O18945   5.269   1.573   4.887
 4560WAT     H118946   5.191   1.534   4.879
 4560WAT     H218947   5.318   1.532   4.827
 4560WAT    EPW18948   5.265   1.561   4.877
 4561WAT      O18949   5.290   2.605   3.942
 4561WAT     H118950   5.332   2.570   3.875
 4561WAT     H218951   5.322   2.563   4.012
 4561WAT    EPW18952   5.301   2.594   3.943
 4562WAT      O18953   5.613   2.890   3.872
 4562WAT     H118954   5.697   2.901   3.852
 4562WAT     H218955   5.583   2.972   3.879
 4562WAT    EPW18956   5.621   2.904   3.870
 4563WAT      O18957   5.934   1.337   4.803
 4563WAT     H118958   5.952   1.257   4.776
 4563WAT     H218959   5.920   1.382   4.729
 4563WAT    EPW18960   5.934   1.332   4.788
 4564WAT      O18961   5.993   1.830   3.681
 4564WAT     H118962   6.022   1.807   3.602
 4564WAT     H218963   6.067   1.838   3.728
 4564WAT    EPW18964   6.008   1.828   3.676
 4565WAT      O18965   6.066   1.864   3.193
 4565WAT     H118966   6.094   1.943   3.218
 4565WAT     H218967   5.988   1.880   3.156
 4565WAT    EPW18968   6.058   1.878   3.191
 4566WAT      O18969   6.470   3.061   3.339
 4566WAT     H118970   6.536   3.047   3.285
 4566WAT     H218971   6.506   3.053   3.418
 4566WAT    EPW18972   6.485   3.058   3.343
 4567WAT      O18973   6.749   1.498   4.255
 4567WAT     H118974   6.824   1.505   4.213
 4567WAT     H218975   6.755   1.421   4.295
 4567WAT    EPW18976   6.761   1.488   4.255
 4568WAT      O18977   5.004   1.628   4.645
 4568WAT     H118978   5.003   1.687   4.710
 4568WAT     H218979   5.063   1.659   4.589
 4568WAT    EPW18980   5.013   1.641   4.646
 4569WAT      O18981   6.238   2.661   4.699
 4569WAT     H118982   6.234   2.700   4.778
 4569WAT     H218983   6.323   2.657   4.682
 4569WAT    EPW18984   6.250   2.666   4.708
 4570WAT      O18985   5.951   2.681   3.174
 4570WAT     H118986   5.933   2.736   3.240
 4570WAT     H218987   6.028   2.710   3.144
 4570WAT    EPW18988   5.960   2.693   3.180
 4571WAT      O18989   6.302   1.471   3.280
 4571WAT     H118990   6.356   1.402   3.287
 4571WAT     H218991   6.308   1.510   3.357
 4571WAT    EPW18992   6.311   1.466   3.292
 4572WAT      O18993   5.098   1.587   3.537
 4572WAT     H118994   5.086   1.501   3.540
 4572WAT     H218995   5.050   1.617   3.604
 4572WAT    EPW18996   5.089   1.579   3.547
 4573WAT      O18997   5.312   2.828   4.358
 4573WAT     H118998   5.242   2.778   4.371
 4573WAT     H218999   5.338   2.808   4.277
 4573WAT    EPW19000   5.305   2.818   4.348
 4574WAT      O19001   6.028   1.708   3.411
 4574WAT     H119002   5.977   1.642   3.386
 4574WAT     H219003   6.033   1.759   3.340
 4574WAT    EPW19004   6.021   1.706   3.397
 4575WAT      O19005   6.083   2.978   4.449
 4575WAT     H119006   6.160   2.970   4.409
 4575WAT     H219007   6.025   2.966   4.385
 4575WAT    EPW19008   6.086   2.975   4.434
 4576WAT      O19009   6.028   1.402   3.400
 4576WAT     H119010   5.982   1.362   3.338
 4576WAT     H219011   6.105   1.418   3.363
 4576WAT    EPW19012   6.033   1.399   3.385
 4577WAT      O19013   6.711   3.038   3.739
 4577WAT     H119014   6.665   3.110   3.759
 4577WAT     H219015   6.649   2.981   3.715
 4577WAT    EPW19016   6.695   3.040   3.739
 4578WAT      O19017   5.888   1.639   3.852
 4578WAT     H119018   5.895   1.696   3.787
 4578WAT     H219019   5.900   1.688   3.923
 4578WAT    EPW19020   5.891   1.655   3.853
 4579WAT      O19021   6.410   2.623   3.694
 4579WAT     H119022   6.480   2.574   3.713
 4579WAT     H219023   6.344   2.566   3.698
 4579WAT    EPW19024   6.411   2.607   3.697
 4580WAT      O19025   5.448   2.714   4.615
 4580WAT     H119026   5.532   2.720   4.593
 4580WAT     H219027   5.444   2.753   4.692
 4580WAT    EPW19028   5.460   2.720   4.623
 4581WAT      O19029   5.349   1.221   3.687
 4581WAT     H119030   5.402   1.290   3.686
 4581WAT     H219031   5.349   1.194   3.604
 4581WAT    EPW19032   5.356   1.227   3.675
 4582WAT      O19033   5.644   2.265   4.090
 4582WAT     H119034   5.661   2.244   4.173
 4582WAT     H219035   5.579   2.211   4.068
 4582WAT    EPW19036   5.637   2.254   4.099
 4583WAT      O19037   6.267   1.656   4.441
 4583WAT     H119038   6.257   1.688   4.522
 4583WAT     H219039   6.208   1.592   4.437
 4583WAT    EPW19040   6.257   1.651   4.453
 4584WAT      O19041   5.719   2.258   4.349
 4584WAT     H119042   5.724   2.343   4.369
 4584WAT     H219043   5.691   2.221   4.422
 4584WAT    EPW19044   5.716   2.265   4.363
 4585WAT      O19045   6.337   2.328   4.262
 4585WAT     H119046   6.285   2.287   4.319
 4585WAT     H219047   6.324   2.412   4.280
 4585WAT    EPW19048   6.327   2.334   4.273
 4586WAT      O19049   6.393   1.250   3.725
 4586WAT     H119050   6.397   1.219   3.806
 4586WAT     H219051   6.425   1.186   3.676
 4586WAT    EPW19052   6.398   1.236   3.730
 4587WAT      O19053   5.001   2.696   4.970
 4587WAT     H119054   5.077   2.730   4.996
 4587WAT     H219055   5.019   2.610   4.964
 4587WAT    EPW19056   5.015   2.688   4.973
 4588WAT      O19057   6.639   1.674   4.556
 4588WAT     H119058   6.716   1.652   4.589
 4588WAT     H219059   6.591   1.696   4.626
 4588WAT    EPW19060   6.643   1.674   4.571
 4589WAT      O19061   5.393   1.602   3.853
 4589WAT     H119062   5.421   1.559   3.782
 4589WAT     H219063   5.376   1.539   3.910
 4589WAT    EPW19064   5.395   1.587   3.851
 4590WAT      O19065   6.662   2.372   3.274
 4590WAT     H119066   6.674   2.343   3.356
 4590WAT     H219067   6.743   2.374   3.241
 4590WAT    EPW19068   6.676   2.368   3.282
 4591WAT      O19069   5.376   2.345   3.808
 4591WAT     H119070   5.461   2.337   3.790
 4591WAT     H219071   5.340   2.277   3.766
 4591WAT    EPW19072   5.383   2.334   3.799
 4592WAT      O19073   5.252   3.018   3.931
 4592WAT     H119074   5.185   2.968   3.907
 4592WAT     H219075   5.293   3.036   3.856
 4592WAT    EPW19076   5.248   3.013   3.917
 4593WAT      O19077   5.207   1.713   4.161
 4593WAT     H119078   5.292   1.735   4.157
 4593WAT     H219079   5.169   1.770   4.108
 4593WAT    EPW19080   5.214   1.724   4.152
 4594WAT      O19081   6.886   2.823   4.700
 4594WAT     H119082   6.817   2.854   4.655
 4594WAT     H219083   6.849   2.777   4.764
 4594WAT    EPW19084   6.870   2.821   4.703
 4595WAT      O19085   6.452   2.026   3.233
 4595WAT     H119086   6.430   2.099   3.191
 4595WAT     H219087   6.407   2.031   3.308
 4595WAT    EPW19088   6.442   2.037   3.238
 4596WAT      O19089   5.613   2.346   3.631
 4596WAT     H119090   5.684   2.395   3.640
 4596WAT     H219091   5.635   2.289   3.568
 4596WAT    EPW19092   5.626   2.345   3.623
 4597WAT      O19093   6.870   1.512   3.178
 4597WAT     H119094   6.804   1.455   3.181
 4597WAT     H219095   6.851   1.563   3.110
 4597WAT    EPW19096   6.858   1.511   3.169
 4598WAT      O19097   5.028   2.510   3.963
 4598WAT     H119098   4.961   2.559   3.991
 4598WAT     H219099   5.096   2.565   3.966
 4598WAT    EPW19100   5.028   2.525   3.968
 4599WAT      O19101   5.793   1.881   4.973
 4599WAT     H119102   5.744   1.939   5.017
 4599WAT     H219103   5.790   1.911   4.891
 4599WAT    EPW19104   5.785   1.894   4.967
 4600WAT      O19105   6.903   1.949   4.434
 4600WAT     H119106   6.924   1.869   4.406
 4600WAT     H219107   6.818   1.955   4.415
 4600WAT    EPW19108   6.893   1.939   4.427
 4601WAT      O19109   5.035   2.178   3.473
 4601WAT     H119110   5.016   2.095   3.489
 4601WAT     H219111   5.101   2.175   3.416
 4601WAT    EPW19112   5.042   2.166   3.467
 4602WAT      O19113   6.671   1.467   3.406
 4602WAT     H119114   6.745   1.427   3.426
 4602WAT     H219115   6.697   1.539   3.364
 4602WAT    EPW19116   6.685   1.472   3.403
 4603WAT      O19117   6.065   2.716   3.864
 4603WAT     H119118   6.013   2.779   3.834
 4603WAT     H219119   6.096   2.680   3.791
 4603WAT    EPW19120   6.062   2.720   3.849
 4604WAT      O19121   5.472   2.495   4.140
 4604WAT     H119122   5.519   2.524   4.208
 4604WAT     H219123   5.530   2.447   4.094
 4604WAT    EPW19124   5.488   2.492   4.143
 4605WAT      O19125   6.316   1.696   3.913
 4605WAT     H119126   6.350   1.711   3.992
 4605WAT     H219127   6.271   1.622   3.925
 4605WAT    EPW19128   6.314   1.688   3.927
 4606WAT      O19129   5.035   2.440   3.194
 4606WAT     H119130   5.111   2.397   3.199
 4606WAT     H219131   5.036   2.493   3.263
 4606WAT    EPW19132   5.046   2.441   3.205
 4607WAT      O19133   5.129   2.262   3.994
 4607WAT     H119134   5.172   2.249   3.919
 4607WAT     H219135   5.108   2.347   3.992
 4607WAT    EPW19136   5.132   2.272   3.983
 4608WAT      O19137   5.764   1.618   3.359
 4608WAT     H119138   5.763   1.607   3.273
 4608WAT     H219139   5.745   1.703   3.368
 4608WAT    EPW19140   5.761   1.629   3.348
 4609WAT      O19141   6.669   2.861   4.509
 4609WAT     H119142   6.602   2.912   4.531
 4609WAT     H219143   6.675   2.871   4.422
 4609WAT    EPW19144   6.660   2.870   4.499
 4610WAT      O19145   5.537   2.613   3.822
 4610WAT     H119146   5.550   2.698   3.841
 4610WAT     H219147   5.604   2.574   3.862
 4610WAT    EPW19148   5.549   2.620   3.831
 4611WAT      O19149   5.350   1.962   4.809
 4611WAT     H119150   5.297   1.911   4.855
 4611WAT     H219151   5.352   1.923   4.731
 4611WAT    EPW19152   5.343   1.948   4.804
 4612WAT      O19153   5.416   2.084   3.982
 4612WAT     H119154   5.337   2.079   3.944
 4612WAT     H219155   5.423   2.009   4.026
 4612WAT    EPW19156   5.405   2.073   3.983
 4613WAT      O19157   5.459   2.058   4.329
 4613WAT     H119158   5.461   1.991   4.274
 4613WAT     H219159   5.394   2.108   4.298
 4613WAT    EPW19160   5.449   2.055   4.317
 4614WAT      O19161   6.448   1.829   4.169
 4614WAT     H119162   6.382   1.862   4.215
 4614WAT     H219163   6.467   1.893   4.112
 4614WAT    EPW19164   6.441   1.844   4.167
 4615WAT      O19165   5.869   2.936   4.268
 4615WAT     H119166   5.841   2.872   4.216
 4615WAT     H219167   5.848   3.008   4.225
 4615WAT    EPW19168   5.861   2.937   4.254
 4616WAT      O19169   6.113   1.420   4.512
 4616WAT     H119170   6.127   1.338   4.487
 4616WAT     H219171   6.150   1.426   4.590
 4616WAT    EPW19172   6.120   1.409   4.520
 4617WAT      O19173   6.267   1.626   3.520
 4617WAT     H119174   6.316   1.698   3.512
 4617WAT     H219175   6.188   1.652   3.494
 4617WAT    EPW19176   6.263   1.641   3.515
 4618WAT      O19177   5.238   2.194   4.885
 4618WAT     H119178   5.235   2.244   4.814
 4618WAT     H219179   5.272   2.118   4.856
 4618WAT    EPW19180   5.243   2.190   4.870
 4619WAT      O19181   6.399   2.414   4.711
 4619WAT     H119182   6.447   2.486   4.721
 4619WAT     H219183   6.438   2.371   4.646
 4619WAT    EPW19184   6.412   2.418   4.703
 4620WAT      O19185   5.828   2.699   4.829
 4620WAT     H119186   5.864   2.681   4.906
 4620WAT     H219187   5.785   2.626   4.809
 4620WAT    EPW19188   5.827   2.685   4.837
 4621WAT      O19189   5.926   1.773   4.092
 4621WAT     H119190   5.974   1.843   4.113
 4621WAT     H219191   5.963   1.709   4.138
 4621WAT    EPW19192   5.938   1.774   4.102
 4622WAT      O19193   6.144   2.090   3.320
 4622WAT     H119194   6.144   2.162   3.271
 4622WAT     H219195   6.081   2.104   3.378
 4622WAT    EPW19196   6.135   2.103   3.321
 4623WAT      O19197   6.642   2.477   3.718
 4623WAT     H119198   6.677   2.442   3.789
 4623WAT     H219199   6.641   2.411   3.661
 4623WAT    EPW19200   6.647   2.462   3.720
 4624WAT      O19201   6.246   2.784   4.102
 4624WAT     H119202   6.186   2.754   4.047
 4624WAT     H219203   6.301   2.829   4.051
 4624WAT    EPW19204   6.245   2.786   4.087
 4625WAT      O19205   6.247   2.469   4.042
 4625WAT     H119206   6.168   2.491   4.070
 4625WAT     H219207   6.273   2.410   4.101
 4625WAT    EPW19208   6.239   2.463   4.055
 4626WAT      O19209   5.637   2.950   3.487
 4626WAT     H119210   5.622   2.873   3.524
 4626WAT     H219211   5.706   2.935   3.436
 4626WAT    EPW19212   5.645   2.936   3.485
 4627WAT      O19213   5.604   1.324   3.286
 4627WAT     H119214   5.613   1.314   3.372
 4627WAT     H219215   5.533   1.375   3.279
 4627WAT    EPW19216   5.595   1.330   3.298
 4628WAT      O19217   5.866   2.902   3.327
 4628WAT     H119218   5.928   2.918   3.386
 4628WAT     H219219   5.869   2.971   3.274
 4628WAT    EPW19220   5.876   2.914   3.328
 4629WAT      O19221   6.573   2.269   4.527
 4629WAT     H119222   6.579   2.281   4.441
 4629WAT     H219223   6.649   2.301   4.557
 4629WAT    EPW19224   6.585   2.275   4.519
 4630WAT      O19225   6.193   2.804   4.955
 4630WAT     H119226   6.209   2.832   5.036
 4630WAT     H219227   6.219   2.870   4.904
 4630WAT    EPW19228   6.199   2.818   4.959
 4631WAT      O19229   6.677   1.299   4.826
 4631WAT     H119230   6.613   1.259   4.781
 4631WAT     H219231   6.679   1.255   4.901
 4631WAT    EPW19232   6.668   1.286   4.830
 4632WAT      O19233   5.316   2.155   3.410
 4632WAT     H119234   5.348   2.077   3.388
 4632WAT     H219235   5.381   2.192   3.456
 4632WAT    EPW19236   5.330   2.149   3.414
 4633WAT      O19237   6.147   2.249   4.487
 4633WAT     H119238   6.131   2.310   4.547
 4633WAT     H219239   6.200   2.194   4.528
 4633WAT    EPW19240   6.152   2.250   4.502
 4634WAT      O19241   5.016   1.321   3.507
 4634WAT     H119242   5.029   1.250   3.458
 4634WAT     H219243   4.979   1.289   3.580
 4634WAT    EPW19244   5.012   1.306   3.511
 4635WAT      O19245   5.985   2.089   3.553
 4635WAT     H119246   5.991   2.154   3.611
 4635WAT     H219247   5.966   2.020   3.602
 4635WAT    EPW19248   5.983   2.089   3.569
 4636WAT      O19249   6.508   2.522   4.140
 4636WAT     H119250   6.460   2.552   4.073
 4636WAT     H219251   6.472   2.445   4.157
 4636WAT    EPW19252   6.495   2.515   4.132
 4637WAT      O19253   5.435   1.541   3.204
 4637WAT     H119254   5.383   1.546   3.133
 4637WAT     H219255   5.513   1.565   3.174
 4637WAT    EPW19256   5.439   1.545   3.189
 4638WAT      O19257   5.907   2.294   3.996
 4638WAT     H119258   5.823   2.275   4.004
 4638WAT     H219259   5.940   2.278   4.075
 4638WAT    EPW19260   5.899   2.289   4.009
 4639WAT      O19261   5.582   2.967   3.084
 4639WAT     H119262   5.626   2.897   3.113
 4639WAT     H219263   5.603   3.029   3.142
 4639WAT    EPW19264   5.592   2.966   3.097
 4640WAT      O19265   5.292   2.263   4.227
 4640WAT     H119266   5.364   2.312   4.224
 4640WAT     H219267   5.265   2.260   4.145
 4640WAT    EPW19268   5.299   2.270   4.215
 4641WAT      O19269   5.615   1.780   3.901
 4641WAT     H119270   5.700   1.761   3.911
 4641WAT     H219271   5.578   1.703   3.887
 4641WAT    EPW19272   5.622   1.766   3.900
 4642WAT      O19273   6.877   2.939   3.334
 4642WAT     H119274   6.946   2.892   3.309
 4642WAT     H219275   6.823   2.879   3.367
 4642WAT    EPW19276   6.879   2.923   3.335
 4643WAT      O19277   5.097   1.914   3.566
 4643WAT     H119278   5.146   1.885   3.633
 4643WAT     H219279   5.110   1.855   3.504
 4643WAT    EPW19280   5.106   1.901   3.567
 4644WAT      O19281   6.601   2.216   4.252
 4644WAT     H119282   6.600   2.139   4.291
 4644WAT     H219283   6.517   2.240   4.251
 4644WAT    EPW19284   6.588   2.208   4.257
 4645WAT      O19285   5.550   2.058   3.115
 4645WAT     H119286   5.489   2.017   3.162
 4645WAT     H219287   5.511   2.069   3.038
 4645WAT    EPW19288   5.535   2.053   3.111
 4646WAT      O19289   5.232   2.369   4.655
 4646WAT     H119290   5.189   2.317   4.599
 4646WAT     H219291   5.196   2.447   4.641
 4646WAT    EPW19292   5.220   2.373   4.645
 4647WAT      O19293   6.726   2.224   3.995
 4647WAT     H119294   6.698   2.264   4.067
 4647WAT     H219295   6.812   2.217   4.008
 4647WAT    EPW19296   6.735   2.229   4.008
 4648WAT      O19297   5.695   1.904   3.386
 4648WAT     H119298   5.722   1.986   3.393
 4648WAT     H219299   5.609   1.911   3.376
 4648WAT    EPW19300   5.686   1.917   3.386
 4649WAT      O19301   6.492   1.616   4.849
 4649WAT     H119302   6.440   1.662   4.902
 4649WAT     H219303   6.456   1.536   4.849
 4649WAT    EPW19304   6.479   1.611   4.857
 4650WAT      O19305   5.043   1.501   4.040
 4650WAT     H119306   5.048   1.535   3.960
 4650WAT     H219307   5.119   1.524   4.076
 4650WAT    EPW19308   5.055   1.509   4.033
 4651WAT      O19309   6.839   2.787   4.048
 4651WAT     H119310   6.868   2.813   3.970
 4651WAT     H219311   6.909   2.796   4.100
 4651WAT    EPW19312   6.854   2.792   4.044
 4652WAT      O19313   6.342   1.973   4.857
 4652WAT     H119314   6.349   1.983   4.943
 4652WAT     H219315   6.278   2.029   4.835
 4652WAT    EPW19316   6.333   1.983   4.866
 4653WAT      O19317   6.568   2.005   4.693
 4653WAT     H119318   6.600   2.083   4.714
 4653WAT     H219319   6.531   1.978   4.768
 4653WAT    EPW19320   6.568   2.012   4.707
 4654WAT      O19321   6.500   2.647   3.246
 4654WAT     H119322   6.533   2.567   3.250
 4654WAT     H219323   6.424   2.640   3.289
 4654WAT    EPW19324   6.494   2.634   3.253
 4655WAT      O19325   6.548   1.831   3.812
 4655WAT     H119326   6.474   1.798   3.844
 4655WAT     H219327   6.548   1.913   3.840
 4655WAT    EPW19328   6.537   1.838   3.821
 4656WAT      O19329   6.838   2.059   4.967
 4656WAT     H119330   6.833   2.025   4.887
 4656WAT     H219331   6.912   2.106   4.965
 4656WAT    EPW19332   6.848   2.061   4.955
 4657WAT      O19333   6.792   2.427   4.587
 4657WAT     H119334   6.855   2.372   4.562
 4657WAT     H219335   6.786   2.483   4.521
 4657WAT    EPW19336   6.800   2.427   4.574
 4658WAT      O19337   6.237   2.435   3.187
 4658WAT     H119338   6.306   2.383   3.170
 4658WAT     H219339   6.196   2.439   3.110
 4658WAT    EPW19340   6.241   2.428   3.173
 4659WAT      O19341   5.705   2.550   4.317
 4659WAT     H119342   5.676   2.609   4.374
 4659WAT     H219343   5.711   2.594   4.242
 4659WAT    EPW19344   5.702   2.565   4.314
 4660WAT      O19345   5.503   2.445   4.657
 4660WAT     H119346   5.423   2.416   4.674
 4660WAT     H219347   5.494   2.531   4.657
 4660WAT    EPW19348   5.490   2.453   4.659
 4661WAT      O19349   6.439   1.464   4.558
 4661WAT     H119350   6.514   1.509   4.552
 4661WAT     H219351   6.383   1.511   4.511
 4661WAT    EPW19352   6.442   1.477   4.551
 4662WAT      O19353   5.957   2.192   4.266
 4662WAT     H119354   6.005   2.229   4.329
 4662WAT     H219355   5.875   2.205   4.292
 4662WAT    EPW19356   5.952   2.199   4.279
 4663WAT      O19357   5.628   1.752   4.540
 4663WAT     H119358   5.644   1.678   4.583
 4663WAT     H219359   5.624   1.727   4.457
 4663WAT    EPW19360   5.630   1.738   4.534
 4664WAT      O19361   5.883   2.931   3.789
 4664WAT     H119362   5.938   2.999   3.794
 4664WAT     H219363   5.848   2.939   3.709
 4664WAT    EPW19364   5.886   2.943   3.778
 4665WAT      O19365   6.568   1.262   4.325
 4665WAT     H119366   6.540   1.344   4.321
 4665WAT     H219367   6.639   1.267   4.375
 4665WAT    EPW19368   6.574   1.275   4.332
 4666WAT      O19369   5.803   1.333   4.528
 4666WAT     H119370   5.874   1.365   4.488
 4666WAT     H219371   5.827   1.252   4.551
 4666WAT    EPW19372   5.817   1.326   4.526
 4667WAT      O19373   5.702   2.754   4.128
 4667WAT     H119374   5.639   2.812   4.110
 4667WAT     H219375   5.727   2.725   4.049
 4667WAT    EPW19376   5.696   2.758   4.114
 4668WAT      O19377   6.133   2.417   4.827
 4668WAT     H119378   6.208   2.446   4.794
 4668WAT     H219379   6.078   2.423   4.759
 4668WAT    EPW19380   6.136   2.422   4.812
 4669WAT      O19381   6.524   2.672   4.677
 4669WAT     H119382   6.558   2.699   4.753
 4669WAT     H219383   6.553   2.731   4.619
 4669WAT    EPW19384   6.533   2.685   4.680
 4670WAT      O19385   6.710   1.887   3.211
 4670WAT     H119386   6.748   1.955   3.171
 4670WAT     H219387   6.626   1.909   3.214
 4670WAT    EPW19388   6.703   1.900   3.206
 4671WAT      O19389   5.861   2.232   3.119
 4671WAT     H119390   5.781   2.214   3.091
 4671WAT     H219391   5.858   2.317   3.139
 4671WAT    EPW19392   5.849   2.242   3.118
 4672WAT      O19393   5.454   1.838   4.134
 4672WAT     H119394   5.498   1.828   4.060
 4672WAT     H219395   5.509   1.807   4.195
 4672WAT    EPW19396   5.469   1.832   4.132
 4673WAT      O19397   6.256   1.749   4.694
 4673WAT     H119398   6.191   1.796   4.728
 4673WAT     H219399   6.312   1.740   4.759
 4673WAT    EPW19400   6.255   1.754   4.708
 4674WAT      O19401   6.225   1.902   4.323
 4674WAT     H119402   6.255   1.944   4.394
 4674WAT     H219403   6.228   1.818   4.347
 4674WAT    EPW19404   6.230   1.896   4.337
 4675WAT      O19405   5.967   2.919   4.716
 4675WAT     H119406   6.015   2.859   4.674
 4675WAT     H219407   5.932   2.875   4.782
 4675WAT    EPW19408   5.969   2.904   4.720
 4676WAT      O19409   6.479   1.847   3.549
 4676WAT     H119410   6.500   1.827   3.631
 4676WAT     H219411   6.555   1.874   3.514
 4676WAT    EPW19412   6.494   1.848   3.556
 4677WAT      O19413   5.809   1.337   4.139
 4677WAT     H119414   5.726   1.322   4.163
 4677WAT     H219415   5.805   1.340   4.052
 4677WAT    EPW19416   5.796   1.335   4.130
 4678WAT      O19417   6.582   1.455   3.696
 4678WAT     H119418   6.510   1.408   3.713
 4678WAT     H219419   6.565   1.489   3.617
 4678WAT    EPW19420   6.569   1.453   3.687
 4679WAT      O19421   6.626   2.250   3.534
 4679WAT     H119422   6.673   2.177   3.529
 4679WAT     H219423   6.544   2.221   3.526
 4679WAT    EPW19424   6.621   2.235   3.532
 4680WAT      O19425   5.973   2.441   4.618
 4680WAT     H119426   5.893   2.434   4.653
 4680WAT     H219427   5.980   2.526   4.598
 4680WAT    EPW19428   5.962   2.452   4.620
 4681WAT      O19429   5.065   1.377   4.743
 4681WAT     H119430   5.051   1.456   4.709
 4681WAT     H219431   4.987   1.352   4.771
 4681WAT    EPW19432   5.052   1.385   4.742
 4682WAT      O19433   5.556   3.062   4.150
 4682WAT     H119434   5.557   3.067   4.237
 4682WAT     H219435   5.513   2.987   4.135
 4682WAT    EPW19436   5.550   3.051   4.160
 4683WAT      O19437   5.372   1.651   3.465
 4683WAT     H119438   5.384   1.618   3.385
 4683WAT     H219439   5.291   1.626   3.485
 4683WAT    EPW19440   5.362   1.643   3.456
 4684WAT      O19441   6.247   2.366   3.769
 4684WAT     H119442   6.255   2.400   3.849
 4684WAT     H219443   6.264   2.282   3.782
 4684WAT    EPW19444   6.251   2.359   3.783
 4685WAT      O19445   6.000   2.294   3.726
 4685WAT     H119446   5.970   2.262   3.802
 4685WAT     H219447   6.069   2.341   3.749
 4685WAT    EPW19448   6.006   2.296   3.741
 4686WAT      O19449   6.022   2.706   4.529
 4686WAT     H119450   6.091   2.694   4.581
 4686WAT     H219451   6.035   2.785   4.494
 4686WAT    EPW19452   6.034   2.716   4.531
 4687WAT      O19453   6.839   1.966   4.710
 4687WAT     H119454   6.754   1.954   4.722
 4687WAT     H219455   6.855   1.927   4.633
 4687WAT    EPW19456   6.829   1.959   4.700
 4688WAT      O19457   6.291   2.033   4.567
 4688WAT     H119458   6.265   1.961   4.610
 4688WAT     H219459   6.373   2.045   4.594
 4688WAT    EPW19460   6.299   2.024   4.578
 4689WAT      O19461   5.232   3.011   4.694
 4689WAT     H119462   5.167   2.954   4.704
 4689WAT     H219463   5.195   3.089   4.709
 4689WAT    EPW19464   5.217   3.014   4.697
 4690WAT      O19465   6.084   2.152   4.886
 4690WAT     H119466   6.116   2.221   4.843
 4690WAT     H219467   6.014   2.184   4.926
 4690WAT    EPW19468   6.078   2.167   4.886
 4691WAT      O19469   6.393   2.989   3.979
 4691WAT     H119470   6.347   3.054   4.017
 4691WAT     H219471   6.463   2.981   4.029
 4691WAT    EPW19472   6.396   2.998   3.992
 4692WAT      O19473   6.063   2.498   4.272
 4692WAT     H119474   5.993   2.539   4.306
 4692WAT     H219475   6.130   2.542   4.306
 4692WAT    EPW19476   6.062   2.511   4.282
 4693WAT      O19477   6.600   2.758   4.930
 4693WAT     H119478   6.678   2.719   4.938
 4693WAT     H219479   6.553   2.724   4.995
 4693WAT    EPW19480   6.605   2.747   4.941
 4694WAT      O19481   5.369   1.852   4.507
 4694WAT     H119482   5.407   1.914   4.458
 4694WAT     H219483   5.437   1.805   4.535
 4694WAT    EPW19484   5.385   1.854   4.504
 4695WAT      O19485   5.147   1.697   4.434
 4695WAT     H119486   5.155   1.680   4.349
 4695WAT     H219487   5.222   1.738   4.454
 4695WAT    EPW19488   5.159   1.700   4.424
 4696WAT      O19489   6.703   1.961   3.478
 4696WAT     H119490   6.713   1.955   3.392
 4696WAT     H219491   6.777   1.928   3.510
 4696WAT    EPW19492   6.715   1.955   3.470
 4697WAT      O19493   5.402   1.438   4.675
 4697WAT     H119494   5.394   1.354   4.696
 4697WAT     H219495   5.371   1.442   4.594
 4697WAT    EPW19496   5.397   1.426   4.666
 4698WAT      O19497   6.095   2.657   3.589
 4698WAT     H119498   6.074   2.741   3.573
 4698WAT     H219499   6.017   2.619   3.601
 4698WAT    EPW19500   6.080   2.664   3.588
 4699WAT      O19501   6.613   1.976   4.414
 4699WAT     H119502   6.613   1.889   4.426
 4699WAT     H219503   6.620   2.008   4.494
 4699WAT    EPW19504   6.614   1.968   4.427
 4700WAT      O19505   5.232   1.813   3.118
 4700WAT     H119506   5.165   1.815   3.174
 4700WAT     H219507   5.242   1.728   3.100
 4700WAT    EPW19508   5.224   1.801   3.124
 4701WAT      O19509   6.201   1.456   4.792
 4701WAT     H119510   6.210   1.527   4.841
 4701WAT     H219511   6.137   1.411   4.832
 4701WAT    EPW19512   6.193   1.459   4.805
 4702WAT      O19513   6.100   1.475   3.877
 4702WAT     H119514   6.030   1.526   3.872
 4702WAT     H219515   6.104   1.437   3.799
 4702WAT    EPW19516   6.091   1.477   3.865
 4703WAT      O19517   5.631   2.684   3.230
 4703WAT     H119518   5.675   2.692   3.305
 4703WAT     H219519   5.551   2.662   3.256
 4703WAT    EPW19520   5.626   2.682   3.245
 4704WAT      O19521   6.460   1.526   4.157
 4704WAT     H119522   6.546   1.536   4.172
 4704WAT     H219523   6.423   1.581   4.214
 4704WAT    EPW19524   6.467   1.536   4.168
 4705WAT      O19525   5.563   2.149   4.595
 4705WAT     H119526   5.523   2.226   4.603
 4705WAT     H219527   5.522   2.111   4.527
 4705WAT    EPW19528   5.551   2.155   4.586
 4706WAT      O19529   6.491   2.054   4.006
 4706WAT     H119530   6.557   2.108   4.022
 4706WAT     H219531   6.456   2.085   3.933
 4706WAT    EPW19532   6.495   2.067   3.998
 4707WAT      O19533   6.522   2.861   3.587
 4707WAT     H119534   6.504   2.795   3.642
 4707WAT     H219535   6.593   2.834   3.545
 4707WAT    EPW19536   6.530   2.847   3.589
 4708WAT      O19537   5.646   2.415   3.164
 4708WAT     H119538   5.564   2.388   3.178
 4708WAT     H219539   5.643   2.500   3.183
 4708WAT    EPW19540   5.633   2.424   3.169
 4709WAT      O19541   5.606   1.446   4.340
 4709WAT     H119542   5.519   1.455   4.348
 4709WAT     H219543   5.628   1.395   4.407
 4709WAT    EPW19544   5.596   1.440   4.351
 4710WAT      O19545   6.808   1.310   4.473
 4710WAT     H119546   6.802   1.306   4.560
 4710WAT     H219547   6.876   1.260   4.454
 4710WAT    EPW19548   6.817   1.302   4.483
 4711WAT      O19549   6.016   1.521   4.177
 4711WAT     H119550   5.942   1.476   4.189
 4711WAT     H219551   6.073   1.481   4.230
 4711WAT    EPW19552   6.014   1.509   4.187
 4712WAT      O19553   6.289   2.606   4.356
 4712WAT     H119554   6.310   2.636   4.435
 4712WAT     H219555   6.283   2.678   4.308
 4712WAT    EPW19556   6.291   2.621   4.361
 4713WAT      O19557   6.243   3.027   4.781
 4713WAT     H119558   6.167   3.026   4.737
 4713WAT     H219559   6.260   3.113   4.789
 4713WAT    EPW19560   6.234   3.040   4.776
 4714WAT      O19561   5.766   1.954   4.698
 4714WAT     H119562   5.734   1.897   4.641
 4714WAT     H219563   5.731   2.030   4.673
 4714WAT    EPW19564   5.756   1.957   4.686
 4715WAT      O19565   5.846   1.279   3.161
 4715WAT     H119566   5.854   1.304   3.077
 4715WAT     H219567   5.772   1.317   3.186
 4715WAT    EPW19568   5.836   1.289   3.152
 4716WAT      O19569   6.771   2.470   4.302
 4716WAT     H119570   6.767   2.384   4.289
 4716WAT     H219571   6.701   2.500   4.259
 4716WAT    EPW19572   6.760   2.462   4.294
 4717WAT      O19573   5.610   2.990   4.723
 4717WAT     H119574   5.614   3.002   4.809
 4717WAT     H219575   5.675   2.934   4.707
 4717WAT    EPW19576   5.620   2.983   4.733
 4718WAT      O19577   6.581   2.796   4.182
 4718WAT     H119578   6.634   2.788   4.113
 4718WAT     H219579   6.542   2.718   4.187
 4718WAT    EPW19580   6.583   2.783   4.172
 4719WAT      O19581   5.328   1.455   4.405
 4719WAT     H119582   5.294   1.378   4.381
 4719WAT     H219583   5.258   1.507   4.411
 4719WAT    EPW19584   5.313   1.451   4.402
 4720WAT      O19585   6.232   1.340   4.103
 4720WAT     H119586   6.299   1.395   4.115
 4720WAT     H219587   6.182   1.383   4.045
 4720WAT    EPW19588   6.235   1.355   4.096
 4721WAT      O19589   5.369   2.828   4.859
 4721WAT     H119590   5.429   2.871   4.906
 4721WAT     H219591   5.333   2.890   4.810
 4721WAT    EPW19592   5.373   2.844   4.858
 4722WAT      O19593   6.168   1.921   3.852
 4722WAT     H119594   6.223   1.860   3.882
 4722WAT     H219595   6.126   1.947   3.923
 4722WAT    EPW19596   6.170   1.916   3.867
 4723WAT      O19597   5.193   1.786   3.800
 4723WAT     H119598   5.156   1.816   3.874
 4723WAT     H219599   5.247   1.723   3.829
 4723WAT    EPW19600   5.196   1.781   3.815
 4724WAT      O19601   5.162   2.627   4.552
 4724WAT     H119602   5.105   2.669   4.602
 4724WAT     H219603   5.235   2.673   4.561
 4724WAT    EPW19604   5.164   2.640   4.560
 4725WAT      O19605   6.365   2.104   3.508
 4725WAT     H119606   6.372   2.019   3.526
 4725WAT     H219607   6.283   2.113   3.480
 4725WAT    EPW19608   6.354   2.093   3.507
 4726WAT      O19609   5.757   2.193   3.402
 4726WAT     H119610   5.767   2.207   3.316
 4726WAT     H219611   5.839   2.187   3.431
 4726WAT    EPW19612   5.771   2.194   3.394
 4727WAT      O19613   6.673   3.000   3.150
 4727WAT     H119614   6.737   2.986   3.208
 4727WAT     H219615   6.639   2.920   3.138
 4727WAT    EPW19616   6.678   2.986   3.157
 4728WAT      O19617   6.693   2.242   4.823
 4728WAT     H119618   6.756   2.225   4.881
 4728WAT     H219619   6.734   2.282   4.758
 4728WAT    EPW19620   6.708   2.245   4.822
 4729WAT      O19621   6.281   2.626   3.382
 4729WAT     H119622   6.256   2.613   3.465
 4729WAT     H219623   6.249   2.557   3.340
 4729WAT    EPW19624   6.272   2.614   3.388
 4730WAT      O19625   6.755   1.698   4.897
 4730WAT     H119626   6.736   1.762   4.952
 4730WAT     H219627   6.683   1.649   4.896
 4730WAT    EPW19628   6.742   1.700   4.905
 4731WAT      O19629   6.745   1.792   4.194
 4731WAT     H119630   6.662   1.817   4.187
 4731WAT     H219631   6.740   1.708   4.217
 4731WAT    EPW19632   6.732   1.783   4.196
 4732WAT      O19633   5.671   1.491   4.713
 4732WAT     H119634   5.695   1.433   4.652
 4732WAT     H219635   5.587   1.473   4.728
 4732WAT    EPW19636   5.662   1.480   4.706
 4733WAT      O19637   6.434   2.253   4.959
 4733WAT     H119638   6.521   2.249   4.955
 4733WAT     H219639   6.412   2.295   4.885
 4733WAT    EPW19640   6.444   2.258   4.947
 4734WAT      O19641   5.409   2.835   4.077
 4734WAT     H119642   5.401   2.754   4.045
 4734WAT     H219643   5.365   2.884   4.020
 4734WAT    EPW19644   5.402   2.830   4.064
 4735WAT      O19645   5.969   2.447   3.325
 4735WAT     H119646   6.041   2.412   3.289
 4735WAT     H219647   5.966   2.527   3.290
 4735WAT    EPW19648   5.979   2.454   3.315
 4736WAT      O19649   5.166   3.060   4.435
 4736WAT     H119650   5.216   3.054   4.507
 4736WAT     H219651   5.185   2.986   4.391
 4736WAT    EPW19652   5.177   3.048   4.439
 4737WAT      O19653   6.110   1.311   1.749
 4737WAT     H119654   6.086   1.360   1.681
 4737WAT     H219655   6.197   1.304   1.739
 4737WAT    EPW19656   6.119   1.317   1.737
 4738WAT      O19657   6.091   2.003   2.216
 4738WAT     H119658   6.039   2.062   2.252
 4738WAT     H219659   6.131   1.966   2.284
 4738WAT    EPW19660   6.089   2.006   2.232
 4739WAT      O19661   5.078   2.417   1.762
 4739WAT     H119662   5.034   2.429   1.836
 4739WAT     H219663   5.050   2.339   1.733
 4739WAT    EPW19664   5.067   2.407   1.768
 4740WAT      O19665   6.706   2.747   1.513
 4740WAT     H119666   6.776   2.695   1.513
 4740WAT     H219667   6.647   2.702   1.466
 4740WAT    EPW19668   6.707   2.733   1.506
 4741WAT      O19669   5.052   1.796   1.412
 4741WAT     H119670   4.975   1.812   1.376
 4741WAT     H219671   5.056   1.709   1.415
 4741WAT    EPW19672   5.041   1.785   1.407
 4742WAT      O19673   5.366   2.322   1.280
 4742WAT     H119674   5.327   2.285   1.211
 4742WAT     H219675   5.358   2.262   1.342
 4742WAT    EPW19676   5.359   2.308   1.279
 4743WAT      O19677   6.358   2.109   1.884
 4743WAT     H119678   6.366   2.110   1.797
 4743WAT     H219679   6.300   2.046   1.899
 4743WAT    EPW19680   6.351   2.100   1.873
 4744WAT      O19681   5.329   2.486   1.670
 4744WAT     H119682   5.390   2.469   1.730
 4744WAT     H219683   5.254   2.472   1.712
 4744WAT    EPW19684   5.327   2.482   1.685
 4745WAT      O19685   5.757   1.420   1.664
 4745WAT     H119686   5.750   1.488   1.610
 4745WAT     H219687   5.831   1.381   1.640
 4745WAT    EPW19688   5.767   1.424   1.653
 4746WAT      O19689   5.218   2.795   1.277
 4746WAT     H119690   5.265   2.804   1.204
 4746WAT     H219691   5.264   2.738   1.324
 4746WAT    EPW19692   5.232   2.788   1.273
 4747WAT      O19693   5.072   2.690   2.387
 4747WAT     H119694   5.085   2.662   2.469
 4747WAT     H219695   5.011   2.636   2.356
 4747WAT    EPW19696   5.065   2.678   2.395
 4748WAT      O19697   5.729   2.443   2.894
 4748WAT     H119698   5.706   2.442   2.978
 4748WAT     H219699   5.655   2.428   2.851
 4748WAT    EPW19700   5.715   2.440   2.900
 4749WAT      O19701   5.217   2.142   1.807
 4749WAT     H119702   5.170   2.103   1.745
 4749WAT     H219703   5.287   2.091   1.817
 4749WAT    EPW19704   5.220   2.129   1.799
 4750WAT      O19705   5.667   1.703   2.342
 4750WAT     H119706   5.735   1.705   2.287
 4750WAT     H219707   5.663   1.620   2.367
 4750WAT    EPW19708   5.677   1.691   2.338
 4751WAT      O19709   5.417   1.952   1.810
 4751WAT     H119710   5.498   1.934   1.834
 4751WAT     H219711   5.369   1.891   1.849
 4751WAT    EPW19712   5.422   1.941   1.819
 4752WAT      O19713   5.837   2.550   2.071
 4752WAT     H119714   5.872   2.471   2.074
 4752WAT     H219715   5.904   2.601   2.045
 4752WAT    EPW19716   5.852   2.546   2.067
 4753WAT      O19717   5.843   2.495   1.692
 4753WAT     H119718   5.876   2.431   1.740
 4753WAT     H219719   5.867   2.474   1.611
 4753WAT    EPW19720   5.851   2.483   1.687
 4754WAT      O19721   6.040   1.908   2.826
 4754WAT     H119722   5.955   1.899   2.808
 4754WAT     H219723   6.043   1.983   2.871
 4754WAT    EPW19724   6.028   1.918   2.830
 4755WAT      O19725   5.476   1.462   1.736
 4755WAT     H119726   5.447   1.512   1.671
 4755WAT     H219727   5.563   1.470   1.731
 4755WAT    EPW19728   5.485   1.470   1.726
 4756WAT      O19729   6.495   1.204   2.737
 4756WAT     H119730   6.480   1.281   2.699
 4756WAT     H219731   6.418   1.182   2.771
 4756WAT    EPW19732   6.482   1.213   2.737
 4757WAT      O19733   5.774   1.376   1.959
 4757WAT     H119734   5.782   1.462   1.971
 4757WAT     H219735   5.771   1.368   1.872
 4757WAT    EPW19736   5.775   1.388   1.948
 4758WAT      O19737   6.242   1.669   1.188
 4758WAT     H119738   6.197   1.737   1.219
 4758WAT     H219739   6.253   1.618   1.259
 4758WAT    EPW19740   6.237   1.671   1.203
 4759WAT      O19741   5.062   1.918   2.109
 4759WAT     H119742   5.037   2.002   2.101
 4759WAT     H219743   4.996   1.880   2.150
 4759WAT    EPW19744   5.049   1.925   2.114
 4760WAT      O19745   5.053   2.889   1.899
 4760WAT     H119746   4.994   2.945   1.867
 4760WAT     H219747   5.096   2.863   1.827
 4760WAT    EPW19748   5.051   2.894   1.884
 4761WAT      O19749   5.637   2.674   1.647
 4761WAT     H119750   5.579   2.646   1.706
 4761WAT     H219751   5.700   2.613   1.649
 4761WAT    EPW19752   5.638   2.661   1.656
 4762WAT      O19753   6.252   2.903   1.399
 4762WAT     H119754   6.324   2.950   1.409
 4762WAT     H219755   6.274   2.823   1.427
 4762WAT    EPW19756   6.266   2.898   1.405
 4763WAT      O19757   6.068   2.942   1.598
 4763WAT     H119758   6.090   2.995   1.664
 4763WAT     H219759   6.145   2.924   1.560
 4763WAT    EPW19760   6.083   2.947   1.602
 4764WAT      O19761   5.365   1.400   2.158
 4764WAT     H119762   5.313   1.337   2.127
 4764WAT     H219763   5.424   1.356   2.205
 4764WAT    EPW19764   5.366   1.384   2.160
 4765WAT      O19765   5.696   1.613   3.088
 4765WAT     H119766   5.707   1.568   3.014
 4765WAT     H219767   5.725   1.693   3.067
 4765WAT    EPW19768   5.702   1.619   3.074
 4766WAT      O19769   5.208   2.756   1.692
 4766WAT     H119770   5.273   2.699   1.693
 4766WAT     H219771   5.247   2.831   1.670
 4766WAT    EPW19772   5.223   2.759   1.689
 4767WAT      O19773   6.781   1.666   1.818
 4767WAT     H119774   6.746   1.734   1.861
 4767WAT     H219775   6.717   1.606   1.820
 4767WAT    EPW19776   6.767   1.667   1.824
 4768WAT      O19777   6.312   2.943   2.428
 4768WAT     H119778   6.387   2.988   2.427
 4768WAT     H219779   6.300   2.921   2.345
 4768WAT    EPW19780   6.321   2.946   2.416
 4769WAT      O19781   5.269   1.573   2.986
 4769WAT     H119782   5.191   1.534   2.979
 4769WAT     H219783   5.318   1.532   2.927
 4769WAT    EPW19784   5.265   1.561   2.976
 4770WAT      O19785   5.290   2.605   2.042
 4770WAT     H119786   5.332   2.570   1.974
 4770WAT     H219787   5.322   2.563   2.111
 4770WAT    EPW19788   5.301   2.594   2.042
 4771WAT      O19789   5.613   2.890   1.971
 4771WAT     H119790   5.697   2.901   1.952
 4771WAT     H219791   5.583   2.972   1.978
 4771WAT    EPW19792   5.621   2.904   1.969
 4772WAT      O19793   5.934   1.337   2.903
 4772WAT     H119794   5.952   1.257   2.875
 4772WAT     H219795   5.920   1.382   2.829
 4772WAT    EPW19796   5.934   1.332   2.888
 4773WAT      O19797   5.993   1.830   1.780
 4773WAT     H119798   6.022   1.807   1.701
 4773WAT     H219799   6.067   1.838   1.827
 4773WAT    EPW19800   6.008   1.828   1.775
 4774WAT      O19801   6.066   1.864   1.292
 4774WAT     H119802   6.094   1.943   1.317
 4774WAT     H219803   5.988   1.880   1.256
 4774WAT    EPW19804   6.058   1.878   1.290
 4775WAT      O19805   6.470   3.061   1.439
 4775WAT     H119806   6.536   3.047   1.384
 4775WAT     H219807   6.506   3.053   1.518
 4775WAT    EPW19808   6.485   3.058   1.442
 4776WAT      O19809   5.512   3.012   2.545
 4776WAT     H119810   5.542   3.006   2.627
 4776WAT     H219811   5.450   2.952   2.541
 4776WAT    EPW19812   5.508   3.002   2.557
 4777WAT      O19813   6.749   1.498   2.355
 4777WAT     H119814   6.824   1.505   2.312
 4777WAT     H219815   6.755   1.421   2.395
 4777WAT    EPW19816   6.761   1.488   2.354
 4778WAT      O19817   5.004   1.628   2.745
 4778WAT     H119818   5.003   1.687   2.809
 4778WAT     H219819   5.063   1.659   2.689
 4778WAT    EPW19820   5.013   1.641   2.746
 4779WAT      O19821   6.238   2.661   2.799
 4779WAT     H119822   6.234   2.700   2.877
 4779WAT     H219823   6.323   2.657   2.782
 4779WAT    EPW19824   6.250   2.666   2.808
 4780WAT      O19825   5.951   2.681   1.274
 4780WAT     H119826   5.933   2.736   1.339
 4780WAT     H219827   6.028   2.710   1.244
 4780WAT    EPW19828   5.960   2.693   1.279
 4781WAT      O19829   6.302   1.471   1.379
 4781WAT     H119830   6.356   1.402   1.387
 4781WAT     H219831   6.308   1.510   1.457
 4781WAT    EPW19832   6.311   1.466   1.392
 4782WAT      O19833   5.098   1.587   1.636
 4782WAT     H119834   5.086   1.501   1.639
 4782WAT     H219835   5.050   1.617   1.703
 4782WAT    EPW19836   5.089   1.579   1.646
 4783WAT      O19837   5.312   2.828   2.458
 4783WAT     H119838   5.242   2.778   2.470
 4783WAT     H219839   5.338   2.808   2.377
 4783WAT    EPW19840   5.305   2.818   2.447
 4784WAT      O19841   6.028   1.708   1.511
 4784WAT     H119842   5.977   1.642   1.485
 4784WAT     H219843   6.033   1.759   1.440
 4784WAT    EPW19844   6.021   1.706   1.496
 4785WAT      O19845   6.083   2.978   2.549
 4785WAT     H119846   6.160   2.970   2.508
 4785WAT     H219847   6.025   2.966   2.485
 4785WAT    EPW19848   6.086   2.975   2.533
 4786WAT      O19849   6.028   1.402   1.500
 4786WAT     H119850   5.982   1.362   1.437
 4786WAT     H219851   6.105   1.418   1.462
 4786WAT    EPW19852   6.033   1.399   1.485
 4787WAT      O19853   6.711   3.038   1.839
 4787WAT     H119854   6.665   3.110   1.859
 4787WAT     H219855   6.649   2.981   1.814
 4787WAT    EPW19856   6.695   3.040   1.838
 4788WAT      O19857   5.888   1.639   1.952
 4788WAT     H119858   5.895   1.696   1.886
 4788WAT     H219859   5.900   1.688   2.023
 4788WAT    EPW19860   5.891   1.655   1.953
 4789WAT      O19861   6.410   2.623   1.793
 4789WAT     H119862   6.480   2.574   1.812
 4789WAT     H219863   6.344   2.566   1.798
 4789WAT    EPW19864   6.411   2.607   1.796
 4790WAT      O19865   5.448   2.714   2.714
 4790WAT     H119866   5.532   2.720   2.692
 4790WAT     H219867   5.444   2.753   2.792
 4790WAT    EPW19868   5.460   2.720   2.722
 4791WAT      O19869   5.349   1.221   1.787
 4791WAT     H119870   5.402   1.290   1.786
 4791WAT     H219871   5.349   1.194   1.704
 4791WAT    EPW19872   5.356   1.227   1.774
 4792WAT      O19873   5.644   2.265   2.189
 4792WAT     H119874   5.661   2.244   2.272
 4792WAT     H219875   5.579   2.211   2.168
 4792WAT    EPW19876   5.637   2.254   2.198
 4793WAT      O19877   6.267   1.656   2.541
 4793WAT     H119878   6.257   1.688   2.621
 4793WAT     H219879   6.208   1.592   2.537
 4793WAT    EPW19880   6.257   1.651   2.552
 4794WAT      O19881   5.719   2.258   2.448
 4794WAT     H119882   5.724   2.343   2.468
 4794WAT     H219883   5.691   2.221   2.522
 4794WAT    EPW19884   5.716   2.265   2.462
 4795WAT      O19885   6.337   2.328   2.361
 4795WAT     H119886   6.285   2.287   2.418
 4795WAT     H219887   6.324   2.412   2.379
 4795WAT    EPW19888   6.327   2.334   2.372
 4796WAT      O19889   6.393   1.250   1.824
 4796WAT     H119890   6.397   1.219   1.905
 4796WAT     H219891   6.425   1.186   1.775
 4796WAT    EPW19892   6.398   1.236   1.829
 4797WAT      O19893   6.639   1.674   2.655
 4797WAT     H119894   6.716   1.652   2.689
 4797WAT     H219895   6.591   1.696   2.725
 4797WAT    EPW19896   6.643   1.674   2.670
 4798WAT      O19897   5.393   1.602   1.952
 4798WAT     H119898   5.421   1.559   1.881
 4798WAT     H219899   5.376   1.539   2.009
 4798WAT    EPW19900   5.395   1.587   1.950
 4799WAT      O19901   6.662   2.372   1.374
 4799WAT     H119902   6.674   2.343   1.455
 4799WAT     H219903   6.743   2.374   1.341
 4799WAT    EPW19904   6.676   2.368   1.381
 4800WAT      O19905   5.376   2.345   1.907
 4800WAT     H119906   5.461   2.337   1.890
 4800WAT     H219907   5.340   2.277   1.866
 4800WAT    EPW19908   5.383   2.334   1.898
 4801WAT      O19909   5.207   1.713   2.260
 4801WAT     H119910   5.292   1.735   2.256
 4801WAT     H219911   5.169   1.770   2.207
 4801WAT    EPW19912   5.214   1.724   2.252
 4802WAT      O19913   6.886   2.823   2.799
 4802WAT     H119914   6.817   2.854   2.755
 4802WAT     H219915   6.849   2.777   2.864
 4802WAT    EPW19916   6.870   2.821   2.802
 4803WAT      O19917   6.452   2.026   1.332
 4803WAT     H119918   6.430   2.099   1.290
 4803WAT     H219919   6.407   2.031   1.407
 4803WAT    EPW19920   6.442   2.037   1.337
 4804WAT      O19921   5.613   2.346   1.730
 4804WAT     H119922   5.684   2.395   1.739
 4804WAT     H219923   5.635   2.289   1.668
 4804WAT    EPW19924   5.626   2.345   1.723
 4805WAT      O19925   6.870   1.512   1.278
 4805WAT     H119926   6.804   1.455   1.280
 4805WAT     H219927   6.851   1.563   1.210
 4805WAT    EPW19928   6.858   1.511   1.268
 4806WAT      O19929   5.028   2.510   2.062
 4806WAT     H119930   4.961   2.559   2.090
 4806WAT     H219931   5.096   2.565   2.065
 4806WAT    EPW19932   5.028   2.525   2.067
 4807WAT      O19933   5.793   1.881   3.072
 4807WAT     H119934   5.744   1.939   3.116
 4807WAT     H219935   5.790   1.911   2.990
 4807WAT    EPW19936   5.785   1.894   3.066
 4808WAT      O19937   6.903   1.949   2.533
 4808WAT     H119938   6.924   1.869   2.506
 4808WAT     H219939   6.818   1.955   2.514
 4808WAT    EPW19940   6.893   1.939   2.526
 4809WAT      O19941   5.035   2.178   1.573
 4809WAT     H119942   5.016   2.095   1.588
 4809WAT     H219943   5.101   2.175   1.516
 4809WAT    EPW19944   5.042   2.166   1.567
 4810WAT      O19945   6.671   1.467   1.506
 4810WAT     H119946   6.745   1.427   1.525
 4810WAT     H219947   6.697   1.539   1.463
 4810WAT    EPW19948   6.685   1.472   1.502
 4811WAT      O19949   6.065   2.716   1.963
 4811WAT     H119950   6.013   2.779   1.934
 4811WAT     H219951   6.096   2.680   1.890
 4811WAT    EPW19952   6.062   2.720   1.948
 4812WAT      O19953   5.052   2.595   1.530
 4812WAT     H119954   5.107   2.652   1.567
 4812WAT     H219955   5.029   2.543   1.597
 4812WAT    EPW19956   5.057   2.596   1.545
 4813WAT      O19957   5.472   2.495   2.239
 4813WAT     H119958   5.519   2.524   2.307
 4813WAT     H219959   5.530   2.447   2.194
 4813WAT    EPW19960   5.488   2.492   2.242
 4814WAT      O19961   6.316   1.696   2.013
 4814WAT     H119962   6.350   1.711   2.092
 4814WAT     H219963   6.271   1.622   2.024
 4814WAT    EPW19964   6.314   1.688   2.026
 4815WAT      O19965   5.035   2.440   1.293
 4815WAT     H119966   5.111   2.397   1.299
 4815WAT     H219967   5.036   2.493   1.362
 4815WAT    EPW19968   5.046   2.441   1.304
 4816WAT      O19969   5.129   2.262   2.094
 4816WAT     H119970   5.172   2.249   2.019
 4816WAT     H219971   5.108   2.347   2.091
 4816WAT    EPW19972   5.132   2.272   2.082
 4817WAT      O19973   5.764   1.618   1.459
 4817WAT     H119974   5.763   1.607   1.372
 4817WAT     H219975   5.745   1.703   1.468
 4817WAT    EPW19976   5.761   1.629   1.447
 4818WAT      O19977   6.669   2.861   2.608
 4818WAT     H119978   6.602   2.912   2.630
 4818WAT     H219979   6.675   2.871   2.522
 4818WAT    EPW19980   6.660   2.870   2.599
 4819WAT      O19981   5.537   2.613   1.922
 4819WAT     H119982   5.550   2.698   1.940
 4819WAT     H219983   5.604   2.574   1.961
 4819WAT    EPW19984   5.549   2.620   1.930
 4820WAT      O19985   5.350   1.962   2.908
 4820WAT     H119986   5.297   1.911   2.955
 4820WAT     H219987   5.352   1.923   2.830
 4820WAT    EPW19988   5.343   1.948   2.903
 4821WAT      O19989   5.399   1.901   1.422
 4821WAT     H119990   5.386   1.857   1.496
 4821WAT     H219991   5.341   1.867   1.367
 4821WAT    EPW19992   5.388   1.890   1.425
 4822WAT      O19993   5.416   2.084   2.082
 4822WAT     H119994   5.337   2.079   2.044
 4822WAT     H219995   5.423   2.009   2.126
 4822WAT    EPW19996   5.405   2.073   2.083
 4823WAT      O19997   5.459   2.058   2.429
 4823WAT     H119998   5.461   1.991   2.374
 4823WAT     H219999   5.394   2.108   2.397
 4823WAT    EPW20000   5.449   2.055   2.416
 4824WAT      O20001   6.448   1.829   2.268
 4824WAT     H120002   6.382   1.862   2.315
 4824WAT     H220003   6.467   1.893   2.211
 4824WAT    EPW20004   6.441   1.844   2.267
 4825WAT      O20005   5.869   2.936   2.368
 4825WAT     H120006   5.841   2.872   2.316
 4825WAT     H220007   5.848   3.008   2.324
 4825WAT    EPW20008   5.861   2.937   2.354
 4826WAT      O20009   6.113   1.420   2.611
 4826WAT     H120010   6.127   1.338   2.587
 4826WAT     H220011   6.150   1.426   2.690
 4826WAT    EPW20012   6.120   1.409   2.619
 4827WAT      O20013   6.267   1.626   1.619
 4827WAT     H120014   6.316   1.698   1.612
 4827WAT     H220015   6.188   1.652   1.593
 4827WAT    EPW20016   6.263   1.641   1.614
 4828WAT      O20017   5.238   2.194   2.985
 4828WAT     H120018   5.235   2.244   2.913
 4828WAT     H220019   5.272   2.118   2.955
 4828WAT    EPW20020   5.243   2.190   2.970
 4829WAT      O20021   6.399   2.414   2.810
 4829WAT     H120022   6.447   2.486   2.820
 4829WAT     H220023   6.438   2.371   2.745
 4829WAT    EPW20024   6.412   2.418   2.802
 4830WAT      O20025   5.828   2.699   2.928
 4830WAT     H120026   5.864   2.681   3.006
 4830WAT     H220027   5.785   2.626   2.908
 4830WAT    EPW20028   5.827   2.685   2.937
 4831WAT      O20029   5.926   1.773   2.192
 4831WAT     H120030   5.974   1.843   2.213
 4831WAT     H220031   5.963   1.709   2.237
 4831WAT    EPW20032   5.938   1.774   2.202
 4832WAT      O20033   6.144   2.090   1.419
 4832WAT     H120034   6.144   2.162   1.370
 4832WAT     H220035   6.081   2.104   1.477
 4832WAT    EPW20036   6.135   2.103   1.421
 4833WAT      O20037   6.642   2.477   1.817
 4833WAT     H120038   6.677   2.442   1.889
 4833WAT     H220039   6.641   2.411   1.760
 4833WAT    EPW20040   6.647   2.462   1.819
 4834WAT      O20041   6.246   2.784   2.202
 4834WAT     H120042   6.186   2.754   2.146
 4834WAT     H220043   6.301   2.829   2.151
 4834WAT    EPW20044   6.245   2.786   2.186
 4835WAT      O20045   6.247   2.469   2.142
 4835WAT     H120046   6.168   2.491   2.169
 4835WAT     H220047   6.273   2.410   2.200
 4835WAT    EPW20048   6.239   2.463   2.154
 4836WAT      O20049   5.637   2.950   1.587
 4836WAT     H120050   5.622   2.873   1.624
 4836WAT     H220051   5.706   2.935   1.535
 4836WAT    EPW20052   5.645   2.936   1.584
 4837WAT      O20053   5.604   1.324   1.385
 4837WAT     H120054   5.613   1.314   1.471
 4837WAT     H220055   5.533   1.375   1.379
 4837WAT    EPW20056   5.595   1.330   1.397
 4838WAT      O20057   5.866   2.902   1.427
 4838WAT     H120058   5.928   2.918   1.486
 4838WAT     H220059   5.869   2.971   1.374
 4838WAT    EPW20060   5.876   2.914   1.428
 4839WAT      O20061   6.573   2.269   2.626
 4839WAT     H120062   6.579   2.281   2.540
 4839WAT     H220063   6.649   2.301   2.657
 4839WAT    EPW20064   6.585   2.275   2.618
 4840WAT      O20065   6.193   2.804   3.054
 4840WAT     H120066   6.209   2.832   3.135
 4840WAT     H220067   6.219   2.870   3.004
 4840WAT    EPW20068   6.199   2.818   3.059
 4841WAT      O20069   6.677   1.299   2.925
 4841WAT     H120070   6.613   1.259   2.881
 4841WAT     H220071   6.679   1.255   3.001
 4841WAT    EPW20072   6.668   1.286   2.930
 4842WAT      O20073   5.316   2.155   1.510
 4842WAT     H120074   5.348   2.077   1.487
 4842WAT     H220075   5.381   2.192   1.555
 4842WAT    EPW20076   5.330   2.149   1.513
 4843WAT      O20077   6.147   2.249   2.586
 4843WAT     H120078   6.131   2.310   2.647
 4843WAT     H220079   6.200   2.194   2.627
 4843WAT    EPW20080   6.152   2.250   2.601
 4844WAT      O20081   5.016   1.321   1.606
 4844WAT     H120082   5.029   1.250   1.557
 4844WAT     H220083   4.979   1.289   1.679
 4844WAT    EPW20084   5.012   1.306   1.610
 4845WAT      O20085   5.985   2.089   1.652
 4845WAT     H120086   5.991   2.154   1.710
 4845WAT     H220087   5.966   2.020   1.701
 4845WAT    EPW20088   5.983   2.089   1.668
 4846WAT      O20089   6.508   2.522   2.239
 4846WAT     H120090   6.460   2.552   2.172
 4846WAT     H220091   6.472   2.445   2.257
 4846WAT    EPW20092   6.495   2.515   2.232
 4847WAT      O20093   5.435   1.541   1.303
 4847WAT     H120094   5.383   1.546   1.233
 4847WAT     H220095   5.513   1.565   1.274
 4847WAT    EPW20096   5.439   1.545   1.289
 4848WAT      O20097   5.907   2.294   2.095
 4848WAT     H120098   5.823   2.275   2.103
 4848WAT     H220099   5.940   2.278   2.175
 4848WAT    EPW20100   5.899   2.289   2.108
 4849WAT      O20101   5.582   2.967   1.184
 4849WAT     H120102   5.626   2.897   1.213
 4849WAT     H220103   5.603   3.029   1.241
 4849WAT    EPW20104   5.592   2.966   1.197
 4850WAT      O20105   5.292   2.263   2.327
 4850WAT     H120106   5.364   2.312   2.323
 4850WAT     H220107   5.265   2.260   2.244
 4850WAT    EPW20108   5.299   2.270   2.314
 4851WAT      O20109   5.615   1.780   2.000
 4851WAT     H120110   5.700   1.761   2.010
 4851WAT     H220111   5.578   1.703   1.987
 4851WAT    EPW20112   5.622   1.766   2.000
 4852WAT      O20113   6.877   2.939   1.433
 4852WAT     H120114   6.946   2.892   1.408
 4852WAT     H220115   6.823   2.879   1.467
 4852WAT    EPW20116   6.879   2.923   1.434
 4853WAT      O20117   5.097   1.914   1.666
 4853WAT     H120118   5.146   1.885   1.732
 4853WAT     H220119   5.110   1.855   1.603
 4853WAT    EPW20120   5.106   1.901   1.666
 4854WAT      O20121   6.601   2.216   2.351
 4854WAT     H120122   6.600   2.139   2.391
 4854WAT     H220123   6.517   2.240   2.350
 4854WAT    EPW20124   6.588   2.208   2.357
 4855WAT      O20125   5.550   2.058   1.214
 4855WAT     H120126   5.489   2.017   1.262
 4855WAT     H220127   5.511   2.069   1.137
 4855WAT    EPW20128   5.535   2.053   1.210
 4856WAT      O20129   5.232   2.369   2.755
 4856WAT     H120130   5.189   2.317   2.699
 4856WAT     H220131   5.196   2.447   2.740
 4856WAT    EPW20132   5.220   2.373   2.744
 4857WAT      O20133   6.726   2.224   2.095
 4857WAT     H120134   6.698   2.264   2.167
 4857WAT     H220135   6.812   2.217   2.107
 4857WAT    EPW20136   6.735   2.229   2.107
 4858WAT      O20137   5.695   1.904   1.485
 4858WAT     H120138   5.722   1.986   1.492
 4858WAT     H220139   5.609   1.911   1.476
 4858WAT    EPW20140   5.686   1.917   1.485
 4859WAT      O20141   6.492   1.616   2.949
 4859WAT     H120142   6.440   1.662   3.001
 4859WAT     H220143   6.456   1.536   2.948
 4859WAT    EPW20144   6.479   1.611   2.956
 4860WAT      O20145   5.043   1.501   2.139
 4860WAT     H120146   5.048   1.535   2.059
 4860WAT     H220147   5.119   1.524   2.176
 4860WAT    EPW20148   5.055   1.509   2.133
 4861WAT      O20149   6.839   2.787   2.148
 4861WAT     H120150   6.868   2.813   2.069
 4861WAT     H220151   6.909   2.796   2.199
 4861WAT    EPW20152   6.854   2.792   2.144
 4862WAT      O20153   6.342   1.973   2.956
 4862WAT     H120154   6.349   1.983   3.043
 4862WAT     H220155   6.278   2.029   2.934
 4862WAT    EPW20156   6.333   1.983   2.966
 4863WAT      O20157   6.568   2.005   2.793
 4863WAT     H120158   6.600   2.083   2.813
 4863WAT     H220159   6.531   1.978   2.867
 4863WAT    EPW20160   6.568   2.012   2.807
 4864WAT      O20161   6.500   2.647   1.346
 4864WAT     H120162   6.533   2.567   1.349
 4864WAT     H220163   6.424   2.640   1.389
 4864WAT    EPW20164   6.494   2.634   1.353
 4865WAT      O20165   6.548   1.831   1.912
 4865WAT     H120166   6.474   1.798   1.943
 4865WAT     H220167   6.548   1.913   1.940
 4865WAT    EPW20168   6.537   1.838   1.920
 4866WAT      O20169   6.838   2.059   3.066
 4866WAT     H120170   6.833   2.025   2.986
 4866WAT     H220171   6.912   2.106   3.064
 4866WAT    EPW20172   6.848   2.061   3.054
 4867WAT      O20173   6.792   2.427   2.687
 4867WAT     H120174   6.855   2.372   2.661
 4867WAT     H220175   6.786   2.483   2.621
 4867WAT    EPW20176   6.800   2.427   2.673
 4868WAT      O20177   6.237   2.435   1.286
 4868WAT     H120178   6.306   2.383   1.269
 4868WAT     H220179   6.196   2.439   1.210
 4868WAT    EPW20180   6.241   2.428   1.272
 4869WAT      O20181   5.705   2.550   2.416
 4869WAT     H120182   5.676   2.609   2.473
 4869WAT     H220183   5.711   2.594   2.342
 4869WAT    EPW20184   5.702   2.565   2.414
 4870WAT      O20185   5.503   2.445   2.756
 4870WAT     H120186   5.423   2.416   2.773
 4870WAT     H220187   5.494   2.531   2.757
 4870WAT    EPW20188   5.490   2.453   2.759
 4871WAT      O20189   6.439   1.464   2.658
 4871WAT     H120190   6.514   1.509   2.651
 4871WAT     H220191   6.383   1.511   2.611
 4871WAT    EPW20192   6.442   1.477   2.650
 4872WAT      O20193   5.957   2.192   2.366
 4872WAT     H120194   6.005   2.229   2.428
 4872WAT     H220195   5.875   2.205   2.391
 4872WAT    EPW20196   5.952   2.199   2.379
 4873WAT      O20197   5.883   2.931   1.888
 4873WAT     H120198   5.938   2.999   1.894
 4873WAT     H220199   5.848   2.939   1.809
 4873WAT    EPW20200   5.886   2.943   1.877
 4874WAT      O20201   6.568   1.262   2.425
 4874WAT     H120202   6.540   1.344   2.420
 4874WAT     H220203   6.639   1.267   2.474
 4874WAT    EPW20204   6.574   1.275   2.431
 4875WAT      O20205   5.803   1.333   2.628
 4875WAT     H120206   5.874   1.365   2.587
 4875WAT     H220207   5.827   1.252   2.650
 4875WAT    EPW20208   5.817   1.326   2.625
 4876WAT      O20209   5.702   2.754   2.227
 4876WAT     H120210   5.639   2.812   2.209
 4876WAT     H220211   5.727   2.725   2.149
 4876WAT    EPW20212   5.696   2.758   2.213
 4877WAT      O20213   6.133   2.417   2.926
 4877WAT     H120214   6.208   2.446   2.894
 4877WAT     H220215   6.078   2.423   2.858
 4877WAT    EPW20216   6.136   2.422   2.911
 4878WAT      O20217   6.524   2.672   2.777
 4878WAT     H120218   6.558   2.699   2.852
 4878WAT     H220219   6.553   2.731   2.719
 4878WAT    EPW20220   6.533   2.685   2.779
 4879WAT      O20221   6.710   1.887   1.310
 4879WAT     H120222   6.748   1.955   1.270
 4879WAT     H220223   6.626   1.909   1.314
 4879WAT    EPW20224   6.703   1.900   1.305
 4880WAT      O20225   5.861   2.232   1.219
 4880WAT     H120226   5.781   2.214   1.190
 4880WAT     H220227   5.858   2.317   1.238
 4880WAT    EPW20228   5.849   2.242   1.217
 4881WAT      O20229   5.454   1.838   2.234
 4881WAT     H120230   5.498   1.828   2.159
 4881WAT     H220231   5.509   1.807   2.294
 4881WAT    EPW20232   5.469   1.832   2.232
 4882WAT      O20233   6.256   1.749   2.793
 4882WAT     H120234   6.191   1.796   2.828
 4882WAT     H220235   6.312   1.740   2.859
 4882WAT    EPW20236   6.255   1.754   2.808
 4883WAT      O20237   6.225   1.902   2.423
 4883WAT     H120238   6.255   1.944   2.493
 4883WAT     H220239   6.228   1.818   2.446
 4883WAT    EPW20240   6.230   1.896   2.437
 4884WAT      O20241   5.967   2.919   2.815
 4884WAT     H120242   6.015   2.859   2.774
 4884WAT     H220243   5.932   2.875   2.882
 4884WAT    EPW20244   5.969   2.904   2.819
 4885WAT      O20245   6.479   1.847   1.648
 4885WAT     H120246   6.500   1.827   1.730
 4885WAT     H220247   6.555   1.874   1.614
 4885WAT    EPW20248   6.494   1.848   1.655
 4886WAT      O20249   5.809   1.337   2.238
 4886WAT     H120250   5.726   1.322   2.262
 4886WAT     H220251   5.805   1.340   2.151
 4886WAT    EPW20252   5.796   1.335   2.229
 4887WAT      O20253   6.582   1.455   1.795
 4887WAT     H120254   6.510   1.408   1.812
 4887WAT     H220255   6.565   1.489   1.717
 4887WAT    EPW20256   6.569   1.453   1.786
 4888WAT      O20257   6.626   2.250   1.633
 4888WAT     H120258   6.673   2.177   1.629
 4888WAT     H220259   6.544   2.221   1.626
 4888WAT    EPW20260   6.621   2.235   1.631
 4889WAT      O20261   5.973   2.441   2.717
 4889WAT     H120262   5.893   2.434   2.752
 4889WAT     H220263   5.980   2.526   2.698
 4889WAT    EPW20264   5.962   2.452   2.720
 4890WAT      O20265   5.065   1.377   2.842
 4890WAT     H120266   5.051   1.456   2.809
 4890WAT     H220267   4.987   1.352   2.871
 4890WAT    EPW20268   5.052   1.385   2.841
 4891WAT      O20269   5.556   3.062   2.249
 4891WAT     H120270   5.557   3.067   2.336
 4891WAT     H220271   5.513   2.987   2.234
 4891WAT    EPW20272   5.550   3.051   2.260
 4892WAT      O20273   5.372   1.651   1.564
 4892WAT     H120274   5.384   1.618   1.485
 4892WAT     H220275   5.291   1.626   1.584
 4892WAT    EPW20276   5.362   1.643   1.556
 4893WAT      O20277   6.247   2.366   1.869
 4893WAT     H120278   6.255   2.400   1.949
 4893WAT     H220279   6.264   2.282   1.881
 4893WAT    EPW20280   6.251   2.359   1.882
 4894WAT      O20281   6.000   2.294   1.825
 4894WAT     H120282   5.970   2.262   1.901
 4894WAT     H220283   6.069   2.341   1.849
 4894WAT    EPW20284   6.006   2.296   1.840
 4895WAT      O20285   6.022   2.706   2.628
 4895WAT     H120286   6.091   2.694   2.681
 4895WAT     H220287   6.035   2.785   2.594
 4895WAT    EPW20288   6.034   2.716   2.631
 4896WAT      O20289   6.839   1.966   2.809
 4896WAT     H120290   6.754   1.954   2.822
 4896WAT     H220291   6.855   1.927   2.733
 4896WAT    EPW20292   6.829   1.959   2.800
 4897WAT      O20293   6.291   2.033   2.667
 4897WAT     H120294   6.265   1.961   2.709
 4897WAT     H220295   6.373   2.045   2.694
 4897WAT    EPW20296   6.299   2.024   2.677
 4898WAT      O20297   6.084   2.152   2.985
 4898WAT     H120298   6.116   2.221   2.942
 4898WAT     H220299   6.014   2.184   3.026
 4898WAT    EPW20300   6.078   2.167   2.985
 4899WAT      O20301   6.393   2.989   2.078
 4899WAT     H120302   6.347   3.054   2.116
 4899WAT     H220303   6.463   2.981   2.129
 4899WAT    EPW20304   6.396   2.998   2.091
 4900WAT      O20305   6.063   2.498   2.371
 4900WAT     H120306   5.993   2.539   2.406
 4900WAT     H220307   6.130   2.542   2.405
 4900WAT    EPW20308   6.062   2.511   2.381
 4901WAT      O20309   6.600   2.758   3.029
 4901WAT     H120310   6.678   2.719   3.038
 4901WAT     H220311   6.553   2.724   3.095
 4901WAT    EPW20312   6.605   2.747   3.040
 4902WAT      O20313   5.369   1.852   2.606
 4902WAT     H120314   5.407   1.914   2.557
 4902WAT     H220315   5.437   1.805   2.635
 4902WAT    EPW20316   5.385   1.854   2.603
 4903WAT      O20317   5.147   1.697   2.534
 4903WAT     H120318   5.155   1.680   2.448
 4903WAT     H220319   5.222   1.738   2.553
 4903WAT    EPW20320   5.159   1.700   2.524
 4904WAT      O20321   6.703   1.961   1.578
 4904WAT     H120322   6.713   1.955   1.491
 4904WAT     H220323   6.777   1.928   1.609
 4904WAT    EPW20324   6.715   1.955   1.569
 4905WAT      O20325   5.402   1.438   2.775
 4905WAT     H120326   5.394   1.354   2.795
 4905WAT     H220327   5.371   1.442   2.693
 4905WAT    EPW20328   5.397   1.426   2.766
 4906WAT      O20329   6.095   2.657   1.688
 4906WAT     H120330   6.074   2.741   1.672
 4906WAT     H220331   6.017   2.619   1.700
 4906WAT    EPW20332   6.080   2.664   1.688
 4907WAT      O20333   6.613   1.976   2.513
 4907WAT     H120334   6.613   1.889   2.526
 4907WAT     H220335   6.620   2.008   2.594
 4907WAT    EPW20336   6.614   1.968   2.527
 4908WAT      O20337   5.087   2.220   2.556
 4908WAT     H120338   5.119   2.241   2.478
 4908WAT     H220339   5.077   2.133   2.550
 4908WAT    EPW20340   5.090   2.210   2.544
 4909WAT      O20341   5.232   1.813   1.218
 4909WAT     H120342   5.165   1.815   1.273
 4909WAT     H220343   5.242   1.728   1.199
 4909WAT    EPW20344   5.224   1.801   1.223
 4910WAT      O20345   6.201   1.456   2.891
 4910WAT     H120346   6.210   1.527   2.941
 4910WAT     H220347   6.137   1.411   2.931
 4910WAT    EPW20348   6.193   1.459   2.905
 4911WAT      O20349   6.100   1.475   1.977
 4911WAT     H120350   6.030   1.526   1.971
 4911WAT     H220351   6.104   1.437   1.898
 4911WAT    EPW20352   6.091   1.477   1.964
 4912WAT      O20353   5.631   2.684   1.329
 4912WAT     H120354   5.675   2.692   1.404
 4912WAT     H220355   5.551   2.662   1.355
 4912WAT    EPW20356   5.626   2.682   1.344
 4913WAT      O20357   6.460   1.526   2.257
 4913WAT     H120358   6.546   1.536   2.271
 4913WAT     H220359   6.423   1.581   2.313
 4913WAT    EPW20360   6.467   1.536   2.267
 4914WAT      O20361   5.563   2.149   2.694
 4914WAT     H120362   5.523   2.226   2.702
 4914WAT     H220363   5.522   2.111   2.627
 4914WAT    EPW20364   5.551   2.155   2.686
 4915WAT      O20365   6.491   2.054   2.106
 4915WAT     H120366   6.557   2.108   2.122
 4915WAT     H220367   6.456   2.085   2.032
 4915WAT    EPW20368   6.495   2.067   2.097
 4916WAT      O20369   6.522   2.861   1.687
 4916WAT     H120370   6.504   2.795   1.742
 4916WAT     H220371   6.593   2.834   1.644
 4916WAT    EPW20372   6.530   2.847   1.688
 4917WAT      O20373   5.364   2.591   1.389
 4917WAT     H120374   5.340   2.560   1.467
 4917WAT     H220375   5.361   2.520   1.338
 4917WAT    EPW20376   5.360   2.576   1.393
 4918WAT      O20377   5.646   2.415   1.264
 4918WAT     H120378   5.564   2.388   1.278
 4918WAT     H220379   5.643   2.500   1.282
 4918WAT    EPW20380   5.633   2.424   1.268
 4919WAT      O20381   5.606   1.446   2.439
 4919WAT     H120382   5.519   1.455   2.447
 4919WAT     H220383   5.628   1.395   2.506
 4919WAT    EPW20384   5.596   1.440   2.451
 4920WAT      O20385   6.808   1.310   2.572
 4920WAT     H120386   6.802   1.306   2.659
 4920WAT     H220387   6.876   1.260   2.553
 4920WAT    EPW20388   6.817   1.302   2.582
 4921WAT      O20389   6.016   1.521   2.277
 4921WAT     H120390   5.942   1.476   2.288
 4921WAT     H220391   6.073   1.481   2.329
 4921WAT    EPW20392   6.014   1.509   2.286
 4922WAT      O20393   6.289   2.606   2.456
 4922WAT     H120394   6.310   2.636   2.535
 4922WAT     H220395   6.283   2.678   2.407
 4922WAT    EPW20396   6.291   2.621   2.460
 4923WAT      O20397   6.243   3.027   2.880
 4923WAT     H120398   6.167   3.026   2.836
 4923WAT     H220399   6.260   3.113   2.889
 4923WAT    EPW20400   6.234   3.040   2.875
 4924WAT      O20401   5.766   1.954   2.797
 4924WAT     H120402   5.734   1.897   2.740
 4924WAT     H220403   5.731   2.030   2.773
 4924WAT    EPW20404   5.756   1.957   2.785
 4925WAT      O20405   5.846   1.279   1.260
 4925WAT     H120406   5.854   1.304   1.177
 4925WAT     H220407   5.772   1.317   1.286
 4925WAT    EPW20408   5.836   1.289   1.251
 4926WAT      O20409   6.771   2.470   2.401
 4926WAT     H120410   6.767   2.384   2.388
 4926WAT     H220411   6.701   2.500   2.358
 4926WAT    EPW20412   6.760   2.462   2.393
 4927WAT      O20413   5.610   2.990   2.822
 4927WAT     H120414   5.614   3.002   2.908
 4927WAT     H220415   5.675   2.934   2.806
 4927WAT    EPW20416   5.620   2.983   2.833
 4928WAT      O20417   6.581   2.796   2.281
 4928WAT     H120418   6.634   2.788   2.212
 4928WAT     H220419   6.542   2.718   2.287
 4928WAT    EPW20420   6.583   2.783   2.272
 4929WAT      O20421   5.328   1.455   2.504
 4929WAT     H120422   5.294   1.378   2.481
 4929WAT     H220423   5.258   1.507   2.511
 4929WAT    EPW20424   5.313   1.451   2.502
 4930WAT      O20425   6.232   1.340   2.202
 4930WAT     H120426   6.299   1.395   2.215
 4930WAT     H220427   6.182   1.383   2.145
 4930WAT    EPW20428   6.235   1.355   2.195
 4931WAT      O20429   5.369   2.828   2.958
 4931WAT     H120430   5.429   2.871   3.005
 4931WAT     H220431   5.333   2.890   2.909
 4931WAT    EPW20432   5.373   2.844   2.958
 4932WAT      O20433   6.168   1.921   1.951
 4932WAT     H120434   6.223   1.860   1.981
 4932WAT     H220435   6.126   1.947   2.023
 4932WAT    EPW20436   6.170   1.916   1.966
 4933WAT      O20437   5.193   1.786   1.900
 4933WAT     H120438   5.156   1.816   1.973
 4933WAT     H220439   5.247   1.723   1.928
 4933WAT    EPW20440   5.196   1.781   1.915
 4934WAT      O20441   5.162   2.627   2.651
 4934WAT     H120442   5.105   2.669   2.702
 4934WAT     H220443   5.235   2.673   2.660
 4934WAT    EPW20444   5.164   2.640   2.660
 4935WAT      O20445   6.365   2.104   1.607
 4935WAT     H120446   6.372   2.019   1.626
 4935WAT     H220447   6.283   2.113   1.580
 4935WAT    EPW20448   6.354   2.093   1.606
 4936WAT      O20449   5.341   2.954   1.528
 4936WAT     H120450   5.326   2.969   1.444
 4936WAT     H220451   5.427   2.962   1.536
 4936WAT    EPW20452   5.351   2.957   1.517
 4937WAT      O20453   5.757   2.193   1.501
 4937WAT     H120454   5.767   2.207   1.416
 4937WAT     H220455   5.839   2.187   1.531
 4937WAT    EPW20456   5.771   2.194   1.493
 4938WAT      O20457   6.673   3.000   1.249
 4938WAT     H120458   6.737   2.986   1.307
 4938WAT     H220459   6.639   2.920   1.238
 4938WAT    EPW20460   6.678   2.986   1.256
 4939WAT      O20461   6.693   2.242   2.923
 4939WAT     H120462   6.756   2.225   2.980
 4939WAT     H220463   6.734   2.282   2.857
 4939WAT    EPW20464   6.708   2.245   2.921
 4940WAT      O20465   6.281   2.626   1.481
 4940WAT     H120466   6.256   2.613   1.564
 4940WAT     H220467   6.249   2.557   1.439
 4940WAT    EPW20468   6.272   2.614   1.487
 4941WAT      O20469   6.755   1.698   2.996
 4941WAT     H120470   6.736   1.762   3.052
 4941WAT     H220471   6.683   1.649   2.996
 4941WAT    EPW20472   6.742   1.700   3.004
 4942WAT      O20473   6.745   1.792   2.293
 4942WAT     H120474   6.662   1.817   2.286
 4942WAT     H220475   6.740   1.708   2.316
 4942WAT    EPW20476   6.732   1.783   2.296
 4943WAT      O20477   5.671   1.491   2.813
 4943WAT     H120478   5.695   1.433   2.752
 4943WAT     H220479   5.587   1.473   2.827
 4943WAT    EPW20480   5.662   1.480   2.806
 4944WAT      O20481   6.434   2.253   3.058
 4944WAT     H120482   6.521   2.249   3.054
 4944WAT     H220483   6.412   2.295   2.985
 4944WAT    EPW20484   6.444   2.258   3.047
 4945WAT      O20485   5.409   2.835   2.176
 4945WAT     H120486   5.401   2.754   2.145
 4945WAT     H220487   5.365   2.884   2.119
 4945WAT    EPW20488   5.402   2.830   2.163
 4946WAT      O20489   5.969   2.447   1.424
 4946WAT     H120490   6.041   2.412   1.389
 4946WAT     H220491   5.966   2.527   1.390
 4946WAT    EPW20492   5.979   2.454   1.414
 4947WAT      O20493   6.091   2.003   0.315
 4947WAT     H120494   6.039   2.062   0.352
 4947WAT     H220495   6.131   1.966   0.384
 4947WAT    EPW20496   6.089   2.006   0.331
 4948WAT      O20497   5.072   2.690   0.487
 4948WAT     H120498   5.085   2.662   0.568
 4948WAT     H220499   5.011   2.636   0.456
 4948WAT    EPW20500   5.065   2.678   0.494
 4949WAT      O20501   5.729   2.443   0.993
 4949WAT     H120502   5.706   2.442   1.077
 4949WAT     H220503   5.655   2.428   0.951
 4949WAT    EPW20504   5.715   2.440   0.999
 4950WAT      O20505   5.667   1.703   0.441
 4950WAT     H120506   5.735   1.705   0.387
 4950WAT     H220507   5.663   1.620   0.466
 4950WAT    EPW20508   5.677   1.691   0.437
 4951WAT      O20509   5.728   2.762   0.720
 4951WAT     H120510   5.741   2.838   0.679
 4951WAT     H220511   5.807   2.725   0.722
 4951WAT    EPW20512   5.741   2.768   0.714
 4952WAT      O20513   6.040   1.908   0.925
 4952WAT     H120514   5.955   1.899   0.907
 4952WAT     H220515   6.043   1.983   0.970
 4952WAT    EPW20516   6.028   1.918   0.929
 4953WAT      O20517   6.495   1.204   0.836
 4953WAT     H120518   6.480   1.281   0.798
 4953WAT     H220519   6.418   1.182   0.871
 4953WAT    EPW20520   6.482   1.213   0.836
 4954WAT      O20521   5.062   1.918   0.208
 4954WAT     H120522   5.037   2.002   0.201
 4954WAT     H220523   4.996   1.880   0.250
 4954WAT    EPW20524   5.049   1.925   0.213
 4955WAT      O20525   5.365   1.400   0.257
 4955WAT     H120526   5.313   1.337   0.226
 4955WAT     H220527   5.424   1.356   0.304
 4955WAT    EPW20528   5.366   1.384   0.260
 4956WAT      O20529   5.696   1.613   1.187
 4956WAT     H120530   5.707   1.568   1.113
 4956WAT     H220531   5.725   1.693   1.167
 4956WAT    EPW20532   5.702   1.619   1.173
 4957WAT      O20533   6.312   2.943   0.528
 4957WAT     H120534   6.387   2.988   0.527
 4957WAT     H220535   6.300   2.921   0.444
 4957WAT    EPW20536   6.321   2.946   0.515
 4958WAT      O20537   5.269   1.573   1.085
 4958WAT     H120538   5.191   1.534   1.078
 4958WAT     H220539   5.318   1.532   1.026
 4958WAT    EPW20540   5.265   1.561   1.076
 4959WAT      O20541   5.934   1.337   1.002
 4959WAT     H120542   5.952   1.257   0.975
 4959WAT     H220543   5.920   1.382   0.928
 4959WAT    EPW20544   5.934   1.332   0.987
 4960WAT      O20545   5.512   3.012   0.645
 4960WAT     H120546   5.542   3.006   0.727
 4960WAT     H220547   5.450   2.952   0.640
 4960WAT    EPW20548   5.508   3.002   0.656
 4961WAT      O20549   6.749   1.498   0.454
 4961WAT     H120550   6.824   1.505   0.411
 4961WAT     H220551   6.755   1.421   0.494
 4961WAT    EPW20552   6.761   1.488   0.454
 4962WAT      O20553   5.004   1.628   0.844
 4962WAT     H120554   5.003   1.687   0.909
 4962WAT     H220555   5.063   1.659   0.788
 4962WAT    EPW20556   5.013   1.641   0.845
 4963WAT      O20557   6.238   2.661   0.898
 4963WAT     H120558   6.234   2.700   0.977
 4963WAT     H220559   6.323   2.657   0.881
 4963WAT    EPW20560   6.250   2.666   0.907
 4964WAT      O20561   5.312   2.828   0.557
 4964WAT     H120562   5.242   2.778   0.570
 4964WAT     H220563   5.338   2.808   0.476
 4964WAT    EPW20564   5.305   2.818   0.547
 4965WAT      O20565   6.083   2.978   0.648
 4965WAT     H120566   6.160   2.970   0.607
 4965WAT     H220567   6.025   2.966   0.584
 4965WAT    EPW20568   6.086   2.975   0.633
 4966WAT      O20569   5.448   2.714   0.814
 4966WAT     H120570   5.532   2.720   0.791
 4966WAT     H220571   5.444   2.753   0.891
 4966WAT    EPW20572   5.460   2.720   0.822
 4967WAT      O20573   5.644   2.265   0.289
 4967WAT     H120574   5.661   2.244   0.371
 4967WAT     H220575   5.579   2.211   0.267
 4967WAT    EPW20576   5.637   2.254   0.298
 4968WAT      O20577   6.267   1.656   0.640
 4968WAT     H120578   6.257   1.688   0.721
 4968WAT     H220579   6.208   1.592   0.636
 4968WAT    EPW20580   6.257   1.651   0.651
 4969WAT      O20581   5.719   2.258   0.548
 4969WAT     H120582   5.724   2.343   0.568
 4969WAT     H220583   5.691   2.221   0.621
 4969WAT    EPW20584   5.716   2.265   0.561
 4970WAT      O20585   6.337   2.328   0.461
 4970WAT     H120586   6.285   2.287   0.518
 4970WAT     H220587   6.324   2.412   0.479
 4970WAT    EPW20588   6.327   2.334   0.472
 4971WAT      O20589   5.001   2.696   1.169
 4971WAT     H120590   5.077   2.730   1.194
 4971WAT     H220591   5.019   2.610   1.163
 4971WAT    EPW20592   5.015   2.688   1.172
 4972WAT      O20593   6.639   1.674   0.754
 4972WAT     H120594   6.716   1.652   0.788
 4972WAT     H220595   6.591   1.696   0.824
 4972WAT    EPW20596   6.643   1.674   0.770
 4973WAT      O20597   5.207   1.713   0.360
 4973WAT     H120598   5.292   1.735   0.355
 4973WAT     H220599   5.169   1.770   0.307
 4973WAT    EPW20600   5.214   1.724   0.351
 4974WAT      O20601   6.886   2.823   0.899
 4974WAT     H120602   6.817   2.854   0.854
 4974WAT     H220603   6.849   2.777   0.963
 4974WAT    EPW20604   6.870   2.821   0.902
 4975WAT      O20605   5.793   1.881   1.171
 4975WAT     H120606   5.744   1.939   1.216
 4975WAT     H220607   5.790   1.911   1.089
 4975WAT    EPW20608   5.785   1.894   1.166
 4976WAT      O20609   6.903   1.949   0.633
 4976WAT     H120610   6.924   1.869   0.605
 4976WAT     H220611   6.818   1.955   0.614
 4976WAT    EPW20612   6.893   1.939   0.626
 4977WAT      O20613   5.472   2.495   0.339
 4977WAT     H120614   5.519   2.524   0.406
 4977WAT     H220615   5.530   2.447   0.293
 4977WAT    EPW20616   5.488   2.492   0.342
 4978WAT      O20617   6.669   2.861   0.708
 4978WAT     H120618   6.602   2.912   0.729
 4978WAT     H220619   6.675   2.871   0.621
 4978WAT    EPW20620   6.660   2.870   0.698
 4979WAT      O20621   5.350   1.962   1.007
 4979WAT     H120622   5.297   1.911   1.054
 4979WAT     H220623   5.352   1.923   0.929
 4979WAT    EPW20624   5.343   1.948   1.003
 4980WAT      O20625   5.459   2.058   0.528
 4980WAT     H120626   5.461   1.991   0.473
 4980WAT     H220627   5.394   2.108   0.497
 4980WAT    EPW20628   5.449   2.055   0.515
 4981WAT      O20629   6.448   1.829   0.368
 4981WAT     H120630   6.382   1.862   0.414
 4981WAT     H220631   6.467   1.893   0.311
 4981WAT    EPW20632   6.441   1.844   0.366
 4982WAT      O20633   5.869   2.936   0.467
 4982WAT     H120634   5.841   2.872   0.415
 4982WAT     H220635   5.848   3.008   0.423
 4982WAT    EPW20636   5.861   2.937   0.453
 4983WAT      O20637   6.113   1.420   0.711
 4983WAT     H120638   6.127   1.338   0.686
 4983WAT     H220639   6.150   1.426   0.789
 4983WAT    EPW20640   6.120   1.409   0.719
 4984WAT      O20641   5.238   2.194   1.084
 4984WAT     H120642   5.235   2.244   1.013
 4984WAT     H220643   5.272   2.118   1.054
 4984WAT    EPW20644   5.243   2.190   1.069
 4985WAT      O20645   6.399   2.414   0.910
 4985WAT     H120646   6.447   2.486   0.920
 4985WAT     H220647   6.438   2.371   0.845
 4985WAT    EPW20648   6.412   2.418   0.902
 4986WAT      O20649   5.828   2.699   1.027
 4986WAT     H120650   5.864   2.681   1.105
 4986WAT     H220651   5.785   2.626   1.008
 4986WAT    EPW20652   5.827   2.685   1.036
 4987WAT      O20653   5.926   1.773   0.291
 4987WAT     H120654   5.974   1.843   0.312
 4987WAT     H220655   5.963   1.709   0.336
 4987WAT    EPW20656   5.938   1.774   0.301
 4988WAT      O20657   6.246   2.784   0.301
 4988WAT     H120658   6.186   2.754   0.245
 4988WAT     H220659   6.301   2.829   0.250
 4988WAT    EPW20660   6.245   2.786   0.285
 4989WAT      O20661   6.247   2.469   0.241
 4989WAT     H120662   6.168   2.491   0.269
 4989WAT     H220663   6.273   2.410   0.300
 4989WAT    EPW20664   6.239   2.463   0.254
 4990WAT      O20665   6.573   2.269   0.726
 4990WAT     H120666   6.579   2.281   0.640
 4990WAT     H220667   6.649   2.301   0.756
 4990WAT    EPW20668   6.585   2.275   0.717
 4991WAT      O20669   6.193   2.804   1.153
 4991WAT     H120670   6.209   2.832   1.234
 4991WAT     H220671   6.219   2.870   1.103
 4991WAT    EPW20672   6.199   2.818   1.158
 4992WAT      O20673   6.677   1.299   1.024
 4992WAT     H120674   6.613   1.259   0.980
 4992WAT     H220675   6.679   1.255   1.100
 4992WAT    EPW20676   6.668   1.286   1.029
 4993WAT      O20677   6.147   2.249   0.686
 4993WAT     H120678   6.131   2.310   0.746
 4993WAT     H220679   6.200   2.194   0.726
 4993WAT    EPW20680   6.152   2.250   0.701
 4994WAT      O20681   6.508   2.522   0.338
 4994WAT     H120682   6.460   2.552   0.272
 4994WAT     H220683   6.472   2.445   0.356
 4994WAT    EPW20684   6.495   2.515   0.331
 4995WAT      O20685   5.907   2.294   0.195
 4995WAT     H120686   5.823   2.275   0.203
 4995WAT     H220687   5.940   2.278   0.274
 4995WAT    EPW20688   5.899   2.289   0.208
 4996WAT      O20689   5.292   2.263   0.426
 4996WAT     H120690   5.364   2.312   0.423
 4996WAT     H220691   5.265   2.260   0.343
 4996WAT    EPW20692   5.299   2.270   0.413
 4997WAT      O20693   6.601   2.216   0.450
 4997WAT     H120694   6.600   2.139   0.490
 4997WAT     H220695   6.517   2.240   0.450
 4997WAT    EPW20696   6.588   2.208   0.456
 4998WAT      O20697   5.232   2.369   0.854
 4998WAT     H120698   5.189   2.317   0.798
 4998WAT     H220699   5.196   2.447   0.840
 4998WAT    EPW20700   5.220   2.373   0.844
 4999WAT      O20701   6.726   2.224   0.194
 4999WAT     H120702   6.698   2.264   0.266
 4999WAT     H220703   6.812   2.217   0.207
 4999WAT    EPW20704   6.735   2.229   0.207
 5000WAT      O20705   6.492   1.616   1.048
 5000WAT     H120706   6.440   1.662   1.100
 5000WAT     H220707   6.456   1.536   1.047
 5000WAT    EPW20708   6.479   1.611   1.056
 5001WAT      O20709   6.839   2.787   0.247
 5001WAT     H120710   6.868   2.813   0.169
 5001WAT     H220711   6.909   2.796   0.299
 5001WAT    EPW20712   6.854   2.792   0.243
 5002WAT      O20713   6.342   1.973   1.056
 5002WAT     H120714   6.349   1.983   1.142
 5002WAT     H220715   6.278   2.029   1.034
 5002WAT    EPW20716   6.333   1.983   1.065
 5003WAT      O20717   6.568   2.005   0.892
 5003WAT     H120718   6.600   2.083   0.912
 5003WAT     H220719   6.531   1.978   0.966
 5003WAT    EPW20720   6.568   2.012   0.906
 5004WAT      O20721   6.838   2.059   1.166
 5004WAT     H120722   6.833   2.025   1.086
 5004WAT     H220723   6.912   2.106   1.163
 5004WAT    EPW20724   6.848   2.061   1.153
 5005WAT      O20725   6.792   2.427   0.786
 5005WAT     H120726   6.855   2.372   0.761
 5005WAT     H220727   6.786   2.483   0.720
 5005WAT    EPW20728   6.800   2.427   0.773
 5006WAT      O20729   5.705   2.550   0.516
 5006WAT     H120730   5.676   2.609   0.573
 5006WAT     H220731   5.711   2.594   0.441
 5006WAT    EPW20732   5.702   2.565   0.513
 5007WAT      O20733   5.503   2.445   0.856
 5007WAT     H120734   5.423   2.416   0.872
 5007WAT     H220735   5.494   2.531   0.856
 5007WAT    EPW20736   5.490   2.453   0.858
 5008WAT      O20737   6.439   1.464   0.757
 5008WAT     H120738   6.514   1.509   0.751
 5008WAT     H220739   6.383   1.511   0.710
 5008WAT    EPW20740   6.442   1.477   0.749
 5009WAT      O20741   5.957   2.192   0.465
 5009WAT     H120742   6.005   2.229   0.528
 5009WAT     H220743   5.875   2.205   0.491
 5009WAT    EPW20744   5.952   2.199   0.478
 5010WAT      O20745   5.628   1.752   0.739
 5010WAT     H120746   5.644   1.678   0.782
 5010WAT     H220747   5.624   1.727   0.656
 5010WAT    EPW20748   5.630   1.738   0.733
 5011WAT      O20749   6.568   1.262   0.524
 5011WAT     H120750   6.540   1.344   0.520
 5011WAT     H220751   6.639   1.267   0.574
 5011WAT    EPW20752   6.574   1.275   0.531
 5012WAT      O20753   5.803   1.333   0.727
 5012WAT     H120754   5.874   1.365   0.687
 5012WAT     H220755   5.827   1.252   0.750
 5012WAT    EPW20756   5.817   1.326   0.724
 5013WAT      O20757   5.702   2.754   0.327
 5013WAT     H120758   5.639   2.812   0.308
 5013WAT     H220759   5.727   2.725   0.248
 5013WAT    EPW20760   5.696   2.758   0.312
 5014WAT      O20761   6.133   2.417   1.026
 5014WAT     H120762   6.208   2.446   0.993
 5014WAT     H220763   6.078   2.423   0.958
 5014WAT    EPW20764   6.136   2.422   1.011
 5015WAT      O20765   6.524   2.672   0.876
 5015WAT     H120766   6.558   2.699   0.951
 5015WAT     H220767   6.553   2.731   0.818
 5015WAT    EPW20768   6.533   2.685   0.879
 5016WAT      O20769   5.454   1.838   0.333
 5016WAT     H120770   5.498   1.828   0.259
 5016WAT     H220771   5.509   1.807   0.394
 5016WAT    EPW20772   5.469   1.832   0.331
 5017WAT      O20773   6.256   1.749   0.892
 5017WAT     H120774   6.191   1.796   0.927
 5017WAT     H220775   6.312   1.740   0.958
 5017WAT    EPW20776   6.255   1.754   0.907
 5018WAT      O20777   6.225   1.902   0.522
 5018WAT     H120778   6.255   1.944   0.592
 5018WAT     H220779   6.228   1.818   0.545
 5018WAT    EPW20780   6.230   1.896   0.536
 5019WAT      O20781   5.967   2.919   0.915
 5019WAT     H120782   6.015   2.859   0.873
 5019WAT     H220783   5.932   2.875   0.981
 5019WAT    EPW20784   5.969   2.904   0.918
 5020WAT      O20785   5.809   1.337   0.338
 5020WAT     H120786   5.726   1.322   0.362
 5020WAT     H220787   5.805   1.340   0.251
 5020WAT    EPW20788   5.796   1.335   0.328
 5021WAT      O20789   5.973   2.441   0.817
 5021WAT     H120790   5.893   2.434   0.852
 5021WAT     H220791   5.980   2.526   0.797
 5021WAT    EPW20792   5.962   2.452   0.819
 5022WAT      O20793   5.065   1.377   0.941
 5022WAT     H120794   5.051   1.456   0.908
 5022WAT     H220795   4.987   1.352   0.970
 5022WAT    EPW20796   5.052   1.385   0.941
 5023WAT      O20797   5.556   3.062   0.348
 5023WAT     H120798   5.557   3.067   0.435
 5023WAT     H220799   5.513   2.987   0.333
 5023WAT    EPW20800   5.550   3.051   0.359
 5024WAT      O20801   6.022   2.706   0.727
 5024WAT     H120802   6.091   2.694   0.780
 5024WAT     H220803   6.035   2.785   0.693
 5024WAT    EPW20804   6.034   2.716   0.730
 5025WAT      O20805   6.839   1.966   0.909
 5025WAT     H120806   6.754   1.954   0.921
 5025WAT     H220807   6.855   1.927   0.832
 5025WAT    EPW20808   6.829   1.959   0.899
 5026WAT      O20809   6.291   2.033   0.766
 5026WAT     H120810   6.265   1.961   0.808
 5026WAT     H220811   6.373   2.045   0.793
 5026WAT    EPW20812   6.299   2.024   0.776
 5027WAT      O20813   5.232   3.011   0.893
 5027WAT     H120814   5.167   2.954   0.902
 5027WAT     H220815   5.195   3.089   0.908
 5027WAT    EPW20816   5.217   3.014   0.896
 5028WAT      O20817   6.084   2.152   1.085
 5028WAT     H120818   6.116   2.221   1.042
 5028WAT     H220819   6.014   2.184   1.125
 5028WAT    EPW20820   6.078   2.167   1.084
 5029WAT      O20821   6.393   2.989   0.178
 5029WAT     H120822   6.347   3.054   0.216
 5029WAT     H220823   6.463   2.981   0.228
 5029WAT    EPW20824   6.396   2.998   0.191
 5030WAT      O20825   6.063   2.498   0.471
 5030WAT     H120826   5.993   2.539   0.505
 5030WAT     H220827   6.130   2.542   0.505
 5030WAT    EPW20828   6.062   2.511   0.481
 5031WAT      O20829   6.600   2.758   1.129
 5031WAT     H120830   6.678   2.719   1.137
 5031WAT     H220831   6.553   2.724   1.194
 5031WAT    EPW20832   6.605   2.747   1.140
 5032WAT      O20833   5.369   1.852   0.705
 5032WAT     H120834   5.407   1.914   0.657
 5032WAT     H220835   5.437   1.805   0.734
 5032WAT    EPW20836   5.385   1.854   0.702
 5033WAT      O20837   5.147   1.697   0.633
 5033WAT     H120838   5.155   1.680   0.548
 5033WAT     H220839   5.222   1.738   0.653
 5033WAT    EPW20840   5.159   1.700   0.623
 5034WAT      O20841   5.402   1.438   0.874
 5034WAT     H120842   5.394   1.354   0.895
 5034WAT     H220843   5.371   1.442   0.793
 5034WAT    EPW20844   5.397   1.426   0.865
 5035WAT      O20845   6.613   1.976   0.613
 5035WAT     H120846   6.613   1.889   0.625
 5035WAT     H220847   6.620   2.008   0.693
 5035WAT    EPW20848   6.614   1.968   0.626
 5036WAT      O20849   5.087   2.220   0.655
 5036WAT     H120850   5.119   2.241   0.577
 5036WAT     H220851   5.077   2.133   0.650
 5036WAT    EPW20852   5.090   2.210   0.643
 5037WAT      O20853   6.201   1.456   0.991
 5037WAT     H120854   6.210   1.527   1.040
 5037WAT     H220855   6.137   1.411   1.030
 5037WAT    EPW20856   6.193   1.459   1.004
 5038WAT      O20857   6.460   1.526   0.356
 5038WAT     H120858   6.546   1.536   0.371
 5038WAT     H220859   6.423   1.581   0.413
 5038WAT    EPW20860   6.467   1.536   0.367
 5039WAT      O20861   5.563   2.149   0.794
 5039WAT     H120862   5.523   2.226   0.801
 5039WAT     H220863   5.522   2.111   0.726
 5039WAT    EPW20864   5.551   2.155   0.785
 5040WAT      O20865   5.606   1.446   0.539
 5040WAT     H120866   5.519   1.455   0.547
 5040WAT     H220867   5.628   1.395   0.606
 5040WAT    EPW20868   5.596   1.440   0.550
 5041WAT      O20869   6.808   1.310   0.672
 5041WAT     H120870   6.802   1.306   0.759
 5041WAT     H220871   6.876   1.260   0.653
 5041WAT    EPW20872   6.817   1.302   0.682
 5042WAT      O20873   6.016   1.521   0.376
 5042WAT     H120874   5.942   1.476   0.388
 5042WAT     H220875   6.073   1.481   0.429
 5042WAT    EPW20876   6.014   1.509   0.386
 5043WAT      O20877   6.289   2.606   0.555
 5043WAT     H120878   6.310   2.636   0.634
 5043WAT     H220879   6.283   2.678   0.507
 5043WAT    EPW20880   6.291   2.621   0.560
 5044WAT      O20881   6.243   3.027   0.980
 5044WAT     H120882   6.167   3.026   0.936
 5044WAT     H220883   6.260   3.113   0.988
 5044WAT    EPW20884   6.234   3.040   0.974
 5045WAT      O20885   5.766   1.954   0.897
 5045WAT     H120886   5.734   1.897   0.840
 5045WAT     H220887   5.731   2.030   0.872
 5045WAT    EPW20888   5.756   1.957   0.885
 5046WAT      O20889   6.771   2.470   0.501
 5046WAT     H120890   6.767   2.384   0.487
 5046WAT     H220891   6.701   2.500   0.457
 5046WAT    EPW20892   6.760   2.462   0.492
 5047WAT      O20893   5.610   2.990   0.921
 5047WAT     H120894   5.614   3.002   1.008
 5047WAT     H220895   5.675   2.934   0.906
 5047WAT    EPW20896   5.620   2.983   0.932
 5048WAT      O20897   6.581   2.796   0.381
 5048WAT     H120898   6.634   2.788   0.311
 5048WAT     H220899   6.542   2.718   0.386
 5048WAT    EPW20900   6.583   2.783   0.371
 5049WAT      O20901   5.328   1.455   0.604
 5049WAT     H120902   5.294   1.378   0.580
 5049WAT     H220903   5.258   1.507   0.610
 5049WAT    EPW20904   5.313   1.451   0.601
 5050WAT      O20905   6.232   1.340   0.301
 5050WAT     H120906   6.299   1.395   0.314
 5050WAT     H220907   6.182   1.383   0.244
 5050WAT    EPW20908   6.235   1.355   0.295
 5051WAT      O20909   5.369   2.828   1.057
 5051WAT     H120910   5.429   2.871   1.105
 5051WAT     H220911   5.333   2.890   1.009
 5051WAT    EPW20912   5.373   2.844   1.057
 5052WAT      O20913   5.162   2.627   0.750
 5052WAT     H120914   5.105   2.669   0.801
 5052WAT     H220915   5.235   2.673   0.760
 5052WAT    EPW20916   5.164   2.640   0.759
 5053WAT      O20917   6.693   2.242   1.022
 5053WAT     H120918   6.756   2.225   1.079
 5053WAT     H220919   6.734   2.282   0.957
 5053WAT    EPW20920   6.708   2.245   1.021
 5054WAT      O20921   6.755   1.698   1.096
 5054WAT     H120922   6.736   1.762   1.151
 5054WAT     H220923   6.683   1.649   1.095
 5054WAT    EPW20924   6.742   1.700   1.104
 5055WAT      O20925   6.745   1.792   0.393
 5055WAT     H120926   6.662   1.817   0.386
 5055WAT     H220927   6.740   1.708   0.416
 5055WAT    EPW20928   6.732   1.783   0.395
 5056WAT      O20929   5.671   1.491   0.912
 5056WAT     H120930   5.695   1.433   0.851
 5056WAT     H220931   5.587   1.473   0.926
 5056WAT    EPW20932   5.662   1.480   0.905
 5057WAT      O20933   6.434   2.253   1.157
 5057WAT     H120934   6.521   2.249   1.154
 5057WAT     H220935   6.412   2.295   1.084
 5057WAT    EPW20936   6.444   2.258   1.146
 5058WAT      O20937   5.409   2.835   0.276
 5058WAT     H120938   5.401   2.754   0.244
 5058WAT     H220939   5.365   2.884   0.218
 5058WAT    EPW20940   5.402   2.830   0.262
 5059WAT      O20941   5.166   3.060   0.634
 5059WAT     H120942   5.216   3.054   0.705
 5059WAT     H220943   5.185   2.986   0.590
 5059WAT    EPW20944   5.177   3.048   0.638
 5060WAT      O20945   5.078   0.569   7.464
 5060WAT     H120946   5.034   0.581   7.538
 5060WAT     H220947   5.050   0.491   7.435
 5060WAT    EPW20948   5.067   0.559   7.470
 5061WAT      O20949   6.706   0.899   7.215
 5061WAT     H120950   6.776   0.847   7.215
 5061WAT     H220951   6.647   0.855   7.168
 5061WAT    EPW20952   6.707   0.885   7.208
 5062WAT      O20953   5.366   0.474   6.981
 5062WAT     H120954   5.327   0.437   6.913
 5062WAT     H220955   5.358   0.415   7.044
 5062WAT    EPW20956   5.359   0.460   6.981
 5063WAT      O20957   6.358   0.262   7.586
 5063WAT     H120958   6.366   0.262   7.499
 5063WAT     H220959   6.300   0.198   7.600
 5063WAT    EPW20960   6.351   0.252   7.575
 5064WAT      O20961   5.329   0.639   7.371
 5064WAT     H120962   5.390   0.622   7.432
 5064WAT     H220963   5.254   0.625   7.414
 5064WAT    EPW20964   5.327   0.634   7.387
 5065WAT      O20965   5.218   0.948   6.979
 5065WAT     H120966   5.265   0.956   6.906
 5065WAT     H220967   5.264   0.890   7.026
 5065WAT    EPW20968   5.232   0.940   6.975
 5066WAT      O20969   5.217   0.295   7.509
 5066WAT     H120970   5.170   0.255   7.447
 5066WAT     H220971   5.287   0.243   7.518
 5066WAT    EPW20972   5.220   0.281   7.501
 5067WAT      O20973   5.837   0.703   7.773
 5067WAT     H120974   5.872   0.623   7.776
 5067WAT     H220975   5.904   0.753   7.747
 5067WAT    EPW20976   5.852   0.698   7.769
 5068WAT      O20977   5.843   0.648   7.394
 5068WAT     H120978   5.876   0.583   7.442
 5068WAT     H220979   5.867   0.626   7.313
 5068WAT    EPW20980   5.851   0.635   7.389
 5069WAT      O20981   5.053   1.042   7.601
 5069WAT     H120982   4.994   1.097   7.569
 5069WAT     H220983   5.096   1.015   7.529
 5069WAT    EPW20984   5.051   1.046   7.585
 5070WAT      O20985   5.637   0.826   7.349
 5070WAT     H120986   5.579   0.799   7.408
 5070WAT     H220987   5.700   0.765   7.351
 5070WAT    EPW20988   5.638   0.813   7.358
 5071WAT      O20989   6.252   1.055   7.101
 5071WAT     H120990   6.324   1.102   7.111
 5071WAT     H220991   6.274   0.975   7.129
 5071WAT    EPW20992   6.266   1.050   7.106
 5072WAT      O20993   6.068   1.094   7.300
 5072WAT     H120994   6.090   1.147   7.366
 5072WAT     H220995   6.145   1.077   7.262
 5072WAT    EPW20996   6.083   1.099   7.304
 5073WAT      O20997   5.208   0.909   7.394
 5073WAT     H120998   5.273   0.851   7.395
 5073WAT     H220999   5.247   0.984   7.372
 5073WAT    EPW21000   5.223   0.911   7.391
 5074WAT      O21001   5.290   0.757   7.744
 5074WAT     H121002   5.332   0.722   7.676
 5074WAT     H221003   5.322   0.715   7.813
 5074WAT    EPW21004   5.301   0.746   7.744
 5075WAT      O21005   5.613   1.043   7.673
 5075WAT     H121006   5.697   1.053   7.654
 5075WAT     H221007   5.583   1.124   7.680
 5075WAT    EPW21008   5.621   1.056   7.671
 5076WAT      O21009   6.470   1.214   7.141
 5076WAT     H121010   6.536   1.199   7.086
 5076WAT     H221011   6.506   1.205   7.220
 5076WAT    EPW21012   6.485   1.210   7.144
 5077WAT      O21013   5.951   0.833   6.976
 5077WAT     H121014   5.933   0.888   7.041
 5077WAT     H221015   6.028   0.862   6.946
 5077WAT    EPW21016   5.960   0.846   6.981
 5078WAT      O21017   6.711   1.190   7.541
 5078WAT     H121018   6.665   1.262   7.561
 5078WAT     H221019   6.649   1.133   7.516
 5078WAT    EPW21020   6.695   1.192   7.540
 5079WAT      O21021   6.410   0.775   7.495
 5079WAT     H121022   6.480   0.727   7.514
 5079WAT     H221023   6.344   0.718   7.499
 5079WAT    EPW21024   6.411   0.759   7.498
 5080WAT      O21025   6.662   0.524   7.076
 5080WAT     H121026   6.674   0.495   7.157
 5080WAT     H221027   6.743   0.526   7.043
 5080WAT    EPW21028   6.676   0.520   7.083
 5081WAT      O21029   5.376   0.497   7.609
 5081WAT     H121030   5.461   0.489   7.592
 5081WAT     H221031   5.340   0.429   7.568
 5081WAT    EPW21032   5.383   0.486   7.600
 5082WAT      O21033   5.252   1.170   7.733
 5082WAT     H121034   5.185   1.120   7.708
 5082WAT     H221035   5.293   1.188   7.657
 5082WAT    EPW21036   5.248   1.165   7.718
 5083WAT      O21037   6.452   0.178   7.034
 5083WAT     H121038   6.430   0.251   6.992
 5083WAT     H221039   6.407   0.183   7.109
 5083WAT    EPW21040   6.442   0.189   7.039
 5084WAT      O21041   5.613   0.498   7.432
 5084WAT     H121042   5.684   0.547   7.441
 5084WAT     H221043   5.635   0.441   7.370
 5084WAT    EPW21044   5.626   0.497   7.424
 5085WAT      O21045   5.028   0.662   7.764
 5085WAT     H121046   4.961   0.711   7.792
 5085WAT     H221047   5.096   0.717   7.767
 5085WAT    EPW21048   5.028   0.677   7.769
 5086WAT      O21049   5.035   0.331   7.275
 5086WAT     H121050   5.016   0.247   7.290
 5086WAT     H221051   5.101   0.327   7.218
 5086WAT    EPW21052   5.042   0.318   7.268
 5087WAT      O21053   6.065   0.868   7.665
 5087WAT     H121054   6.013   0.932   7.636
 5087WAT     H221055   6.096   0.832   7.592
 5087WAT    EPW21056   6.062   0.872   7.650
 5088WAT      O21057   5.052   0.747   7.232
 5088WAT     H121058   5.107   0.804   7.269
 5088WAT     H221059   5.029   0.696   7.299
 5088WAT    EPW21060   5.057   0.748   7.247
 5089WAT      O21061   5.035   0.592   6.995
 5089WAT     H121062   5.111   0.549   7.001
 5089WAT     H221063   5.036   0.645   7.064
 5089WAT    EPW21064   5.046   0.593   7.006
 5090WAT      O21065   5.129   0.414   7.795
 5090WAT     H121066   5.172   0.401   7.721
 5090WAT     H221067   5.108   0.499   7.793
 5090WAT    EPW21068   5.132   0.425   7.784
 5091WAT      O21069   5.537   0.766   7.624
 5091WAT     H121070   5.550   0.850   7.642
 5091WAT     H221071   5.604   0.726   7.663
 5091WAT    EPW21072   5.549   0.772   7.632
 5092WAT      O21073   5.416   0.237   7.784
 5092WAT     H121074   5.337   0.231   7.745
 5092WAT     H221075   5.423   0.161   7.827
 5092WAT    EPW21076   5.405   0.225   7.785
 5093WAT      O21077   6.144   0.242   7.121
 5093WAT     H121078   6.144   0.315   7.072
 5093WAT     H221079   6.081   0.256   7.179
 5093WAT    EPW21080   6.135   0.255   7.122
 5094WAT      O21081   6.642   0.629   7.519
 5094WAT     H121082   6.677   0.594   7.591
 5094WAT     H221083   6.641   0.563   7.462
 5094WAT    EPW21084   6.647   0.614   7.521
 5095WAT      O21085   6.247   0.621   7.844
 5095WAT     H121086   6.168   0.644   7.871
 5095WAT     H221087   6.273   0.562   7.902
 5095WAT    EPW21088   6.239   0.616   7.856
 5096WAT      O21089   5.637   1.102   7.288
 5096WAT     H121090   5.622   1.025   7.326
 5096WAT     H221091   5.706   1.088   7.237
 5096WAT    EPW21092   5.645   1.089   7.286
 5097WAT      O21093   5.866   1.054   7.129
 5097WAT     H121094   5.928   1.070   7.188
 5097WAT     H221095   5.869   1.123   7.075
 5097WAT    EPW21096   5.876   1.067   7.130
 5098WAT      O21097   5.316   0.307   7.212
 5098WAT     H121098   5.348   0.229   7.189
 5098WAT     H221099   5.381   0.344   7.257
 5098WAT    EPW21100   5.330   0.301   7.215
 5099WAT      O21101   5.985   0.242   7.354
 5099WAT     H121102   5.991   0.307   7.412
 5099WAT     H221103   5.966   0.172   7.403
 5099WAT    EPW21104   5.983   0.241   7.370
 5100WAT      O21105   5.907   0.446   7.797
 5100WAT     H121106   5.823   0.427   7.805
 5100WAT     H221107   5.940   0.430   7.876
 5100WAT    EPW21108   5.899   0.441   7.810
 5101WAT      O21109   5.582   1.119   6.886
 5101WAT     H121110   5.626   1.050   6.915
 5101WAT     H221111   5.603   1.182   6.943
 5101WAT    EPW21112   5.592   1.118   6.898
 5102WAT      O21113   6.877   1.091   7.135
 5102WAT     H121114   6.946   1.044   7.110
 5102WAT     H221115   6.823   1.031   7.169
 5102WAT    EPW21116   6.879   1.075   7.136
 5103WAT      O21117   5.550   0.210   6.916
 5103WAT     H121118   5.489   0.169   6.964
 5103WAT     H221119   5.511   0.222   6.839
 5103WAT    EPW21120   5.535   0.206   6.912
 5104WAT      O21121   6.726   0.376   7.797
 5104WAT     H121122   6.698   0.416   7.869
 5104WAT     H221123   6.812   0.370   7.809
 5104WAT    EPW21124   6.735   0.381   7.809
 5105WAT      O21125   6.839   0.939   7.849
 5105WAT     H121126   6.868   0.965   7.771
 5105WAT     H221127   6.909   0.949   7.901
 5105WAT    EPW21128   6.854   0.944   7.846
 5106WAT      O21129   6.500   0.799   7.048
 5106WAT     H121130   6.533   0.719   7.051
 5106WAT     H221131   6.424   0.792   7.091
 5106WAT    EPW21132   6.494   0.786   7.055
 5107WAT      O21133   6.237   0.587   6.988
 5107WAT     H121134   6.306   0.535   6.971
 5107WAT     H221135   6.196   0.591   6.911
 5107WAT    EPW21136   6.241   0.580   6.974
 5108WAT      O21137   5.883   1.083   7.590
 5108WAT     H121138   5.938   1.151   7.596
 5108WAT     H221139   5.848   1.092   7.511
 5108WAT    EPW21140   5.886   1.095   7.579
 5109WAT      O21141   5.861   0.384   6.921
 5109WAT     H121142   5.781   0.366   6.892
 5109WAT     H221143   5.858   0.469   6.940
 5109WAT    EPW21144   5.849   0.394   6.919
 5110WAT      O21145   6.626   0.402   7.335
 5110WAT     H121146   6.673   0.329   7.330
 5110WAT     H221147   6.544   0.373   7.328
 5110WAT    EPW21148   6.621   0.387   7.333
 5111WAT      O21149   6.247   0.519   7.571
 5111WAT     H121150   6.255   0.553   7.651
 5111WAT     H221151   6.264   0.434   7.583
 5111WAT    EPW21152   6.251   0.511   7.584
 5112WAT      O21153   6.000   0.446   7.527
 5112WAT     H121154   5.970   0.414   7.603
 5112WAT     H221155   6.069   0.493   7.551
 5112WAT    EPW21156   6.006   0.448   7.542
 5113WAT      O21157   6.393   1.142   7.780
 5113WAT     H121158   6.347   1.206   7.818
 5113WAT     H221159   6.463   1.134   7.831
 5113WAT    EPW21160   6.396   1.150   7.793
 5114WAT      O21161   6.095   0.810   7.390
 5114WAT     H121162   6.074   0.893   7.374
 5114WAT     H221163   6.017   0.771   7.402
 5114WAT    EPW21164   6.080   0.816   7.390
 5115WAT      O21165   5.631   0.836   7.031
 5115WAT     H121166   5.675   0.844   7.106
 5115WAT     H221167   5.551   0.814   7.057
 5115WAT    EPW21168   5.626   0.834   7.046
 5116WAT      O21169   6.491   0.206   7.808
 5116WAT     H121170   6.557   0.260   7.824
 5116WAT     H221171   6.456   0.237   7.734
 5116WAT    EPW21172   6.495   0.219   7.799
 5117WAT      O21173   6.522   1.013   7.388
 5117WAT     H121174   6.504   0.948   7.443
 5117WAT     H221175   6.593   0.986   7.346
 5117WAT    EPW21176   6.530   0.999   7.390
 5118WAT      O21177   5.364   0.743   7.091
 5118WAT     H121178   5.340   0.712   7.169
 5118WAT     H221179   5.361   0.673   7.040
 5118WAT    EPW21180   5.360   0.728   7.095
 5119WAT      O21181   5.646   0.567   6.965
 5119WAT     H121182   5.564   0.541   6.979
 5119WAT     H221183   5.643   0.653   6.984
 5119WAT    EPW21184   5.633   0.576   6.970
 5120WAT      O21185   6.365   0.256   7.309
 5120WAT     H121186   6.372   0.171   7.327
 5120WAT     H221187   6.283   0.265   7.282
 5120WAT    EPW21188   6.354   0.245   7.308
 5121WAT      O21189   5.341   1.106   7.230
 5121WAT     H121190   5.326   1.121   7.146
 5121WAT     H221191   5.427   1.114   7.238
 5121WAT    EPW21192   5.351   1.109   7.219
 5122WAT      O21193   5.757   0.346   7.203
 5122WAT     H121194   5.767   0.359   7.118
 5122WAT     H221195   5.839   0.340   7.233
 5122WAT    EPW21196   5.771   0.347   7.195
 5123WAT      O21197   6.673   1.152   6.951
 5123WAT     H121198   6.737   1.139   7.009
 5123WAT     H221199   6.639   1.073   6.939
 5123WAT    EPW21200   6.678   1.138   6.958
 5124WAT      O21201   6.281   0.778   7.183
 5124WAT     H121202   6.256   0.766   7.266
 5124WAT     H221203   6.249   0.709   7.141
 5124WAT    EPW21204   6.272   0.766   7.189
 5125WAT      O21205   5.409   0.987   7.878
 5125WAT     H121206   5.401   0.906   7.846
 5125WAT     H221207   5.365   1.036   7.821
 5125WAT    EPW21208   5.402   0.983   7.865
 5126WAT      O21209   5.969   0.599   7.126
 5126WAT     H121210   6.041   0.565   7.091
 5126WAT     H221211   5.966   0.679   7.092
 5126WAT    EPW21212   5.979   0.606   7.116
 5127WAT      O21213   5.078   0.569   5.563
 5127WAT     H121214   5.034   0.581   5.637
 5127WAT     H221215   5.050   0.491   5.534
 5127WAT    EPW21216   5.067   0.559   5.570
 5128WAT      O21217   6.706   0.899   5.314
 5128WAT     H121218   6.776   0.847   5.314
 5128WAT     H221219   6.647   0.855   5.267
 5128WAT    EPW21220   6.707   0.885   5.307
 5129WAT      O21221   5.366   0.474   5.081
 5129WAT     H121222   5.327   0.437   5.012
 5129WAT     H221223   5.358   0.415   5.144
 5129WAT    EPW21224   5.359   0.460   5.080
 5130WAT      O21225   6.358   0.262   5.685
 5130WAT     H121226   6.366   0.262   5.598
 5130WAT     H221227   6.300   0.198   5.700
 5130WAT    EPW21228   6.351   0.252   5.674
 5131WAT      O21229   5.329   0.639   5.471
 5131WAT     H121230   5.390   0.622   5.531
 5131WAT     H221231   5.254   0.625   5.513
 5131WAT    EPW21232   5.327   0.634   5.486
 5132WAT      O21233   5.218   0.948   5.078
 5132WAT     H121234   5.265   0.956   5.005
 5132WAT     H221235   5.264   0.890   5.125
 5132WAT    EPW21236   5.232   0.940   5.075
 5133WAT      O21237   5.072   0.842   6.188
 5133WAT     H121238   5.085   0.814   6.270
 5133WAT     H221239   5.011   0.788   6.157
 5133WAT    EPW21240   5.065   0.830   6.196
 5134WAT      O21241   5.729   0.595   6.695
 5134WAT     H121242   5.706   0.595   6.779
 5134WAT     H221243   5.655   0.580   6.653
 5134WAT    EPW21244   5.715   0.593   6.701
 5135WAT      O21245   5.217   0.295   5.609
 5135WAT     H121246   5.170   0.255   5.546
 5135WAT     H221247   5.287   0.243   5.618
 5135WAT    EPW21248   5.220   0.281   5.601
 5136WAT      O21249   5.728   0.914   6.421
 5136WAT     H121250   5.741   0.990   6.381
 5136WAT     H221251   5.807   0.878   6.424
 5136WAT    EPW21252   5.741   0.920   6.416
 5137WAT      O21253   5.837   0.703   5.872
 5137WAT     H121254   5.872   0.623   5.875
 5137WAT     H221255   5.904   0.753   5.846
 5137WAT    EPW21256   5.852   0.698   5.869
 5138WAT      O21257   5.843   0.648   5.493
 5138WAT     H121258   5.876   0.583   5.542
 5138WAT     H221259   5.867   0.626   5.412
 5138WAT    EPW21260   5.851   0.635   5.488
 5139WAT      O21261   5.053   1.042   5.700
 5139WAT     H121262   4.994   1.097   5.669
 5139WAT     H221263   5.096   1.015   5.629
 5139WAT    EPW21264   5.051   1.046   5.685
 5140WAT      O21265   5.637   0.826   5.448
 5140WAT     H121266   5.579   0.799   5.507
 5140WAT     H221267   5.700   0.765   5.450
 5140WAT    EPW21268   5.638   0.813   5.457
 5141WAT      O21269   6.252   1.055   5.200
 5141WAT     H121270   6.324   1.102   5.210
 5141WAT     H221271   6.274   0.975   5.228
 5141WAT    EPW21272   6.266   1.050   5.206
 5142WAT      O21273   6.068   1.094   5.399
 5142WAT     H121274   6.090   1.147   5.465
 5142WAT     H221275   6.145   1.077   5.361
 5142WAT    EPW21276   6.083   1.099   5.403
 5143WAT      O21277   5.208   0.909   5.493
 5143WAT     H121278   5.273   0.851   5.494
 5143WAT     H221279   5.247   0.984   5.471
 5143WAT    EPW21280   5.223   0.911   5.490
 5144WAT      O21281   6.312   1.095   6.230
 5144WAT     H121282   6.387   1.141   6.229
 5144WAT     H221283   6.300   1.074   6.146
 5144WAT    EPW21284   6.321   1.099   6.217
 5145WAT      O21285   5.290   0.757   5.843
 5145WAT     H121286   5.332   0.722   5.776
 5145WAT     H221287   5.322   0.715   5.912
 5145WAT    EPW21288   5.301   0.746   5.843
 5146WAT      O21289   5.613   1.043   5.773
 5146WAT     H121290   5.697   1.053   5.753
 5146WAT     H221291   5.583   1.124   5.779
 5146WAT    EPW21292   5.621   1.056   5.771
 5147WAT      O21293   6.470   1.214   5.240
 5147WAT     H121294   6.536   1.199   5.186
 5147WAT     H221295   6.506   1.205   5.319
 5147WAT    EPW21296   6.485   1.210   5.244
 5148WAT      O21297   5.512   1.164   6.347
 5148WAT     H121298   5.542   1.158   6.429
 5148WAT     H221299   5.450   1.104   6.342
 5148WAT    EPW21300   5.508   1.155   6.358
 5149WAT      O21301   6.238   0.814   6.600
 5149WAT     H121302   6.234   0.852   6.678
 5149WAT     H221303   6.323   0.809   6.583
 5149WAT    EPW21304   6.250   0.819   6.609
 5150WAT      O21305   5.951   0.833   5.075
 5150WAT     H121306   5.933   0.888   5.141
 5150WAT     H221307   6.028   0.862   5.045
 5150WAT    EPW21308   5.960   0.846   5.080
 5151WAT      O21309   5.312   0.981   6.259
 5151WAT     H121310   5.242   0.930   6.271
 5151WAT     H221311   5.338   0.960   6.178
 5151WAT    EPW21312   5.305   0.970   6.249
 5152WAT      O21313   6.083   1.130   6.350
 5152WAT     H121314   6.160   1.122   6.309
 5152WAT     H221315   6.025   1.118   6.286
 5152WAT    EPW21316   6.086   1.127   6.334
 5153WAT      O21317   6.711   1.190   5.640
 5153WAT     H121318   6.665   1.262   5.660
 5153WAT     H221319   6.649   1.133   5.616
 5153WAT    EPW21320   6.695   1.192   5.639
 5154WAT      O21321   6.410   0.775   5.594
 5154WAT     H121322   6.480   0.727   5.613
 5154WAT     H221323   6.344   0.718   5.599
 5154WAT    EPW21324   6.411   0.759   5.598
 5155WAT      O21325   5.448   0.866   6.515
 5155WAT     H121326   5.532   0.872   6.493
 5155WAT     H221327   5.444   0.905   6.593
 5155WAT    EPW21328   5.460   0.873   6.524
 5156WAT      O21329   5.644   0.417   5.990
 5156WAT     H121330   5.661   0.396   6.073
 5156WAT     H221331   5.579   0.363   5.969
 5156WAT    EPW21332   5.637   0.406   5.999
 5157WAT      O21333   5.719   0.411   6.249
 5157WAT     H121334   5.724   0.495   6.270
 5157WAT     H221335   5.691   0.374   6.323
 5157WAT    EPW21336   5.716   0.418   6.263
 5158WAT      O21337   6.337   0.480   6.162
 5158WAT     H121338   6.285   0.439   6.219
 5158WAT     H221339   6.324   0.565   6.180
 5158WAT    EPW21340   6.327   0.487   6.173
 5159WAT      O21341   5.001   0.848   6.870
 5159WAT     H121342   5.077   0.883   6.896
 5159WAT     H221343   5.019   0.762   6.865
 5159WAT    EPW21344   5.015   0.840   6.873
 5160WAT      O21345   6.662   0.524   5.175
 5160WAT     H121346   6.674   0.495   5.257
 5160WAT     H221347   6.743   0.526   5.142
 5160WAT    EPW21348   6.676   0.520   5.182
 5161WAT      O21349   5.376   0.497   5.708
 5161WAT     H121350   5.461   0.489   5.691
 5161WAT     H221351   5.340   0.429   5.667
 5161WAT    EPW21352   5.383   0.486   5.699
 5162WAT      O21353   5.252   1.170   5.832
 5162WAT     H121354   5.185   1.120   5.807
 5162WAT     H221355   5.293   1.188   5.757
 5162WAT    EPW21356   5.248   1.165   5.817
 5163WAT      O21357   6.886   0.975   6.600
 5163WAT     H121358   6.817   1.006   6.556
 5163WAT     H221359   6.849   0.929   6.665
 5163WAT    EPW21360   6.870   0.973   6.603
 5164WAT      O21361   6.452   0.178   5.134
 5164WAT     H121362   6.430   0.251   5.091
 5164WAT     H221363   6.407   0.183   5.208
 5164WAT    EPW21364   6.442   0.189   5.138
 5165WAT      O21365   5.613   0.498   5.532
 5165WAT     H121366   5.684   0.547   5.541
 5165WAT     H221367   5.635   0.441   5.469
 5165WAT    EPW21368   5.626   0.497   5.524
 5166WAT      O21369   5.028   0.662   5.864
 5166WAT     H121370   4.961   0.711   5.891
 5166WAT     H221371   5.096   0.717   5.867
 5166WAT    EPW21372   5.028   0.677   5.868
 5167WAT      O21373   5.035   0.331   5.374
 5167WAT     H121374   5.016   0.247   5.389
 5167WAT     H221375   5.101   0.327   5.317
 5167WAT    EPW21376   5.042   0.318   5.368
 5168WAT      O21377   6.065   0.868   5.764
 5168WAT     H121378   6.013   0.932   5.735
 5168WAT     H221379   6.096   0.832   5.691
 5168WAT    EPW21380   6.062   0.872   5.749
 5169WAT      O21381   5.052   0.747   5.331
 5169WAT     H121382   5.107   0.804   5.368
 5169WAT     H221383   5.029   0.696   5.398
 5169WAT    EPW21384   5.057   0.748   5.347
 5170WAT      O21385   5.472   0.647   6.040
 5170WAT     H121386   5.519   0.676   6.108
 5170WAT     H221387   5.530   0.599   5.995
 5170WAT    EPW21388   5.488   0.644   6.044
 5171WAT      O21389   5.035   0.592   5.094
 5171WAT     H121390   5.111   0.549   5.100
 5171WAT     H221391   5.036   0.645   5.163
 5171WAT    EPW21392   5.046   0.593   5.105
 5172WAT      O21393   5.129   0.414   5.895
 5172WAT     H121394   5.172   0.401   5.820
 5172WAT     H221395   5.108   0.499   5.892
 5172WAT    EPW21396   5.132   0.425   5.883
 5173WAT      O21397   6.669   1.013   6.409
 5173WAT     H121398   6.602   1.065   6.431
 5173WAT     H221399   6.675   1.023   6.323
 5173WAT    EPW21400   6.660   1.022   6.400
 5174WAT      O21401   5.537   0.766   5.723
 5174WAT     H121402   5.550   0.850   5.742
 5174WAT     H221403   5.604   0.726   5.763
 5174WAT    EPW21404   5.549   0.772   5.732
 5175WAT      O21405   5.416   0.237   5.883
 5175WAT     H121406   5.337   0.231   5.845
 5175WAT     H221407   5.423   0.161   5.927
 5175WAT    EPW21408   5.405   0.225   5.884
 5176WAT      O21409   5.869   1.088   6.169
 5176WAT     H121410   5.841   1.024   6.117
 5176WAT     H221411   5.848   1.161   6.125
 5176WAT    EPW21412   5.861   1.089   6.155
 5177WAT      O21413   5.238   0.346   6.786
 5177WAT     H121414   5.235   0.396   6.714
 5177WAT     H221415   5.272   0.271   6.756
 5177WAT    EPW21416   5.243   0.342   6.771
 5178WAT      O21417   6.399   0.566   6.612
 5178WAT     H121418   6.447   0.638   6.621
 5178WAT     H221419   6.438   0.524   6.546
 5178WAT    EPW21420   6.412   0.571   6.603
 5179WAT      O21421   5.828   0.851   6.729
 5179WAT     H121422   5.864   0.833   6.807
 5179WAT     H221423   5.785   0.778   6.709
 5179WAT    EPW21424   5.827   0.837   6.738
 5180WAT      O21425   6.144   0.242   5.220
 5180WAT     H121426   6.144   0.315   5.171
 5180WAT     H221427   6.081   0.256   5.278
 5180WAT    EPW21428   6.135   0.255   5.222
 5181WAT      O21429   6.642   0.629   5.619
 5181WAT     H121430   6.677   0.594   5.690
 5181WAT     H221431   6.641   0.563   5.562
 5181WAT    EPW21432   6.647   0.614   5.621
 5182WAT      O21433   6.246   0.936   6.003
 5182WAT     H121434   6.186   0.906   5.947
 5182WAT     H221435   6.301   0.981   5.952
 5182WAT    EPW21436   6.245   0.938   5.987
 5183WAT      O21437   6.247   0.621   5.943
 5183WAT     H121438   6.168   0.644   5.970
 5183WAT     H221439   6.273   0.562   6.001
 5183WAT    EPW21440   6.239   0.616   5.956
 5184WAT      O21441   5.637   1.102   5.388
 5184WAT     H121442   5.622   1.025   5.425
 5184WAT     H221443   5.706   1.088   5.336
 5184WAT    EPW21444   5.645   1.089   5.386
 5185WAT      O21445   5.866   1.054   5.228
 5185WAT     H121446   5.928   1.070   5.287
 5185WAT     H221447   5.869   1.123   5.175
 5185WAT    EPW21448   5.876   1.067   5.229
 5186WAT      O21449   6.573   0.421   6.428
 5186WAT     H121450   6.579   0.433   6.341
 5186WAT     H221451   6.649   0.453   6.458
 5186WAT    EPW21452   6.585   0.427   6.419
 5187WAT      O21453   6.193   0.956   6.855
 5187WAT     H121454   6.209   0.984   6.936
 5187WAT     H221455   6.219   1.022   6.805
 5187WAT    EPW21456   6.199   0.970   6.860
 5188WAT      O21457   5.316   0.307   5.311
 5188WAT     H121458   5.348   0.229   5.289
 5188WAT     H221459   5.381   0.344   5.356
 5188WAT    EPW21460   5.330   0.301   5.314
 5189WAT      O21461   6.147   0.402   6.388
 5189WAT     H121462   6.131   0.463   6.448
 5189WAT     H221463   6.200   0.346   6.428
 5189WAT    EPW21464   6.152   0.402   6.402
 5190WAT      O21465   5.985   0.242   5.453
 5190WAT     H121466   5.991   0.307   5.511
 5190WAT     H221467   5.966   0.172   5.502
 5190WAT    EPW21468   5.983   0.241   5.469
 5191WAT      O21469   6.508   0.674   6.040
 5191WAT     H121470   6.460   0.704   5.974
 5191WAT     H221471   6.472   0.597   6.058
 5191WAT    EPW21472   6.495   0.667   6.033
 5192WAT      O21473   5.907   0.446   5.896
 5192WAT     H121474   5.823   0.427   5.905
 5192WAT     H221475   5.940   0.430   5.976
 5192WAT    EPW21476   5.899   0.441   5.909
 5193WAT      O21477   5.582   1.119   4.985
 5193WAT     H121478   5.626   1.050   5.014
 5193WAT     H221479   5.603   1.182   5.042
 5193WAT    EPW21480   5.592   1.118   4.998
 5194WAT      O21481   5.292   0.416   6.128
 5194WAT     H121482   5.364   0.464   6.124
 5194WAT     H221483   5.265   0.413   6.045
 5194WAT    EPW21484   5.299   0.422   6.115
 5195WAT      O21485   6.877   1.091   5.234
 5195WAT     H121486   6.946   1.044   5.209
 5195WAT     H221487   6.823   1.031   5.268
 5195WAT    EPW21488   6.879   1.075   5.236
 5196WAT      O21489   6.601   0.369   6.152
 5196WAT     H121490   6.600   0.291   6.192
 5196WAT     H221491   6.517   0.392   6.151
 5196WAT    EPW21492   6.588   0.361   6.158
 5197WAT      O21493   5.550   0.210   5.016
 5197WAT     H121494   5.489   0.169   5.063
 5197WAT     H221495   5.511   0.222   4.938
 5197WAT    EPW21496   5.535   0.206   5.011
 5198WAT      O21497   5.232   0.521   6.556
 5198WAT     H121498   5.189   0.469   6.500
 5198WAT     H221499   5.196   0.599   6.542
 5198WAT    EPW21500   5.220   0.525   6.545
 5199WAT      O21501   6.726   0.376   5.896
 5199WAT     H121502   6.698   0.416   5.968
 5199WAT     H221503   6.812   0.370   5.909
 5199WAT    EPW21504   6.735   0.381   5.908
 5200WAT      O21505   6.839   0.939   5.949
 5200WAT     H121506   6.868   0.965   5.871
 5200WAT     H221507   6.909   0.949   6.001
 5200WAT    EPW21508   6.854   0.944   5.945
 5201WAT      O21509   6.500   0.799   5.147
 5201WAT     H121510   6.533   0.719   5.150
 5201WAT     H221511   6.424   0.792   5.190
 5201WAT    EPW21512   6.494   0.786   5.154
 5202WAT      O21513   6.838   0.211   6.867
 5202WAT     H121514   6.833   0.177   6.787
 5202WAT     H221515   6.912   0.258   6.865
 5202WAT    EPW21516   6.848   0.213   6.855
 5203WAT      O21517   6.792   0.579   6.488
 5203WAT     H121518   6.855   0.524   6.462
 5203WAT     H221519   6.786   0.635   6.422
 5203WAT    EPW21520   6.800   0.579   6.474
 5204WAT      O21521   6.237   0.587   5.087
 5204WAT     H121522   6.306   0.535   5.070
 5204WAT     H221523   6.196   0.591   5.011
 5204WAT    EPW21524   6.241   0.580   5.073
 5205WAT      O21525   5.705   0.702   6.218
 5205WAT     H121526   5.676   0.761   6.274
 5205WAT     H221527   5.711   0.746   6.143
 5205WAT    EPW21528   5.702   0.717   6.215
 5206WAT      O21529   5.503   0.597   6.557
 5206WAT     H121530   5.423   0.568   6.574
 5206WAT     H221531   5.494   0.684   6.558
 5206WAT    EPW21532   5.490   0.605   6.560
 5207WAT      O21533   5.957   0.344   6.167
 5207WAT     H121534   6.005   0.382   6.230
 5207WAT     H221535   5.875   0.358   6.193
 5207WAT    EPW21536   5.952   0.352   6.180
 5208WAT      O21537   5.883   1.083   5.690
 5208WAT     H121538   5.938   1.151   5.695
 5208WAT     H221539   5.848   1.092   5.610
 5208WAT    EPW21540   5.886   1.095   5.679
 5209WAT      O21541   5.702   0.906   6.028
 5209WAT     H121542   5.639   0.964   6.010
 5209WAT     H221543   5.727   0.878   5.950
 5209WAT    EPW21544   5.696   0.911   6.014
 5210WAT      O21545   6.133   0.570   6.727
 5210WAT     H121546   6.208   0.598   6.695
 5210WAT     H221547   6.078   0.575   6.660
 5210WAT    EPW21548   6.136   0.575   6.712
 5211WAT      O21549   6.524   0.825   6.578
 5211WAT     H121550   6.558   0.852   6.653
 5211WAT     H221551   6.553   0.883   6.520
 5211WAT    EPW21552   6.533   0.837   6.580
 5212WAT      O21553   5.861   0.384   5.020
 5212WAT     H121554   5.781   0.366   4.991
 5212WAT     H221555   5.858   0.469   5.039
 5212WAT    EPW21556   5.849   0.394   5.019
 5213WAT      O21557   5.967   1.071   6.616
 5213WAT     H121558   6.015   1.011   6.575
 5213WAT     H221559   5.932   1.027   6.683
 5213WAT    EPW21560   5.969   1.056   6.620
 5214WAT      O21561   6.626   0.402   5.435
 5214WAT     H121562   6.673   0.329   5.430
 5214WAT     H221563   6.544   0.373   5.427
 5214WAT    EPW21564   6.621   0.387   5.433
 5215WAT      O21565   5.973   0.593   6.518
 5215WAT     H121566   5.893   0.587   6.554
 5215WAT     H221567   5.980   0.678   6.499
 5215WAT    EPW21568   5.962   0.605   6.521
 5216WAT      O21569   5.556   1.214   6.050
 5216WAT     H121570   5.557   1.220   6.137
 5216WAT     H221571   5.513   1.139   6.035
 5216WAT    EPW21572   5.550   1.204   6.061
 5217WAT      O21573   6.247   0.519   5.670
 5217WAT     H121574   6.255   0.553   5.750
 5217WAT     H221575   6.264   0.434   5.682
 5217WAT    EPW21576   6.251   0.511   5.684
 5218WAT      O21577   6.000   0.446   5.627
 5218WAT     H121578   5.970   0.414   5.702
 5218WAT     H221579   6.069   0.493   5.650
 5218WAT    EPW21580   6.006   0.448   5.641
 5219WAT      O21581   6.022   0.858   6.429
 5219WAT     H121582   6.091   0.846   6.482
 5219WAT     H221583   6.035   0.937   6.395
 5219WAT    EPW21584   6.034   0.868   6.432
 5220WAT      O21585   5.232   1.164   6.594
 5220WAT     H121586   5.167   1.107   6.604
 5220WAT     H221587   5.195   1.241   6.609
 5220WAT    EPW21588   5.217   1.167   6.598
 5221WAT      O21589   6.084   0.304   6.787
 5221WAT     H121590   6.116   0.373   6.743
 5221WAT     H221591   6.014   0.336   6.827
 5221WAT    EPW21592   6.078   0.319   6.786
 5222WAT      O21593   6.393   1.142   5.880
 5222WAT     H121594   6.347   1.206   5.917
 5222WAT     H221595   6.463   1.134   5.930
 5222WAT    EPW21596   6.396   1.150   5.893
 5223WAT      O21597   6.063   0.651   6.173
 5223WAT     H121598   5.993   0.691   6.207
 5223WAT     H221599   6.130   0.694   6.206
 5223WAT    EPW21600   6.062   0.663   6.183
 5224WAT      O21601   6.600   0.910   6.831
 5224WAT     H121602   6.678   0.871   6.839
 5224WAT     H221603   6.553   0.876   6.896
 5224WAT    EPW21604   6.605   0.899   6.841
 5225WAT      O21605   6.095   0.810   5.489
 5225WAT     H121606   6.074   0.893   5.474
 5225WAT     H221607   6.017   0.771   5.502
 5225WAT    EPW21608   6.080   0.816   5.489
 5226WAT      O21609   5.087   0.372   6.357
 5226WAT     H121610   5.119   0.394   6.279
 5226WAT     H221611   5.077   0.285   6.352
 5226WAT    EPW21612   5.090   0.362   6.345
 5227WAT      O21613   5.631   0.836   5.130
 5227WAT     H121614   5.675   0.844   5.205
 5227WAT     H221615   5.551   0.814   5.156
 5227WAT    EPW21616   5.626   0.834   5.145
 5228WAT      O21617   5.563   0.301   6.496
 5228WAT     H121618   5.523   0.378   6.503
 5228WAT     H221619   5.522   0.264   6.428
 5228WAT    EPW21620   5.551   0.307   6.487
 5229WAT      O21621   6.491   0.206   5.907
 5229WAT     H121622   6.557   0.260   5.923
 5229WAT     H221623   6.456   0.237   5.833
 5229WAT    EPW21624   6.495   0.219   5.899
 5230WAT      O21625   6.522   1.013   5.488
 5230WAT     H121626   6.504   0.948   5.543
 5230WAT     H221627   6.593   0.986   5.445
 5230WAT    EPW21628   6.530   0.999   5.490
 5231WAT      O21629   5.364   0.743   5.190
 5231WAT     H121630   5.340   0.712   5.268
 5231WAT     H221631   5.361   0.673   5.139
 5231WAT    EPW21632   5.360   0.728   5.194
 5232WAT      O21633   5.646   0.567   5.065
 5232WAT     H121634   5.564   0.541   5.079
 5232WAT     H221635   5.643   0.653   5.083
 5232WAT    EPW21636   5.633   0.576   5.070
 5233WAT      O21637   6.289   0.758   6.257
 5233WAT     H121638   6.310   0.788   6.336
 5233WAT     H221639   6.283   0.830   6.208
 5233WAT    EPW21640   6.291   0.773   6.261
 5234WAT      O21641   6.243   1.180   6.681
 5234WAT     H121642   6.167   1.178   6.637
 5234WAT     H221643   6.260   1.265   6.690
 5234WAT    EPW21644   6.234   1.192   6.676
 5235WAT      O21645   6.771   0.622   6.203
 5235WAT     H121646   6.767   0.536   6.189
 5235WAT     H221647   6.701   0.652   6.159
 5235WAT    EPW21648   6.760   0.614   6.194
 5236WAT      O21649   5.610   1.142   6.623
 5236WAT     H121650   5.614   1.155   6.710
 5236WAT     H221651   5.675   1.086   6.608
 5236WAT    EPW21652   5.620   1.136   6.634
 5237WAT      O21653   6.581   0.948   6.082
 5237WAT     H121654   6.634   0.940   6.013
 5237WAT     H221655   6.542   0.870   6.088
 5237WAT    EPW21656   6.583   0.935   6.073
 5238WAT      O21657   5.369   0.980   6.759
 5238WAT     H121658   5.429   1.023   6.806
 5238WAT     H221659   5.333   1.043   6.710
 5238WAT    EPW21660   5.373   0.996   6.759
 5239WAT      O21661   5.162   0.779   6.452
 5239WAT     H121662   5.105   0.821   6.503
 5239WAT     H221663   5.235   0.826   6.462
 5239WAT    EPW21664   5.164   0.792   6.461
 5240WAT      O21665   6.365   0.256   5.409
 5240WAT     H121666   6.372   0.171   5.427
 5240WAT     H221667   6.283   0.265   5.381
 5240WAT    EPW21668   6.354   0.245   5.407
 5241WAT      O21669   5.341   1.106   5.330
 5241WAT     H121670   5.326   1.121   5.245
 5241WAT     H221671   5.427   1.114   5.337
 5241WAT    EPW21672   5.351   1.109   5.318
 5242WAT      O21673   5.757   0.346   5.302
 5242WAT     H121674   5.767   0.359   5.217
 5242WAT     H221675   5.839   0.340   5.332
 5242WAT    EPW21676   5.771   0.347   5.294
 5243WAT      O21677   6.673   1.152   5.050
 5243WAT     H121678   6.737   1.139   5.109
 5243WAT     H221679   6.639   1.073   5.039
 5243WAT    EPW21680   6.678   1.138   5.057
 5244WAT      O21681   6.693   0.394   6.724
 5244WAT     H121682   6.756   0.377   6.781
 5244WAT     H221683   6.734   0.434   6.659
 5244WAT    EPW21684   6.708   0.397   6.723
 5245WAT      O21685   6.281   0.778   5.283
 5245WAT     H121686   6.256   0.766   5.365
 5245WAT     H221687   6.249   0.709   5.241
 5245WAT    EPW21688   6.272   0.766   5.289
 5246WAT      O21689   6.434   0.405   6.859
 5246WAT     H121690   6.521   0.401   6.856
 5246WAT     H221691   6.412   0.447   6.786
 5246WAT    EPW21692   6.444   0.410   6.848
 5247WAT      O21693   5.409   0.987   5.977
 5247WAT     H121694   5.401   0.906   5.946
 5247WAT     H221695   5.365   1.036   5.920
 5247WAT    EPW21696   5.402   0.983   5.964
 5248WAT      O21697   5.969   0.599   5.226
 5248WAT     H121698   6.041   0.565   5.190
 5248WAT     H221699   5.966   0.679   5.191
 5248WAT    EPW21700   5.979   0.606   5.215
 5249WAT      O21701   5.166   1.212   6.335
 5249WAT     H121702   5.216   1.206   6.407
 5249WAT     H221703   5.185   1.138   6.292
 5249WAT    EPW21704   5.177   1.200   6.340
 5250WAT      O21705   5.078   0.569   3.662
 5250WAT     H121706   5.034   0.581   3.737
 5250WAT     H221707   5.050   0.491   3.634
 5250WAT    EPW21708   5.067   0.559   3.669
 5251WAT      O21709   6.706   0.899   3.414
 5251WAT     H121710   6.776   0.847   3.413
 5251WAT     H221711   6.647   0.855   3.367
 5251WAT    EPW21712   6.707   0.885   3.407
 5252WAT      O21713   5.366   0.474   3.180
 5252WAT     H121714   5.327   0.437   3.112
 5252WAT     H221715   5.358   0.415   3.243
 5252WAT    EPW21716   5.359   0.460   3.179
 5253WAT      O21717   6.358   0.262   3.784
 5253WAT     H121718   6.366   0.262   3.697
 5253WAT     H221719   6.300   0.198   3.799
 5253WAT    EPW21720   6.351   0.252   3.774
 5254WAT      O21721   5.329   0.639   3.570
 5254WAT     H121722   5.390   0.622   3.630
 5254WAT     H221723   5.254   0.625   3.612
 5254WAT    EPW21724   5.327   0.634   3.585
 5255WAT      O21725   5.218   0.948   3.178
 5255WAT     H121726   5.265   0.956   3.105
 5255WAT     H221727   5.264   0.890   3.225
 5255WAT    EPW21728   5.232   0.940   3.174
 5256WAT      O21729   5.072   0.842   4.288
 5256WAT     H121730   5.085   0.814   4.369
 5256WAT     H221731   5.011   0.788   4.257
 5256WAT    EPW21732   5.065   0.830   4.295
 5257WAT      O21733   5.729   0.595   4.794
 5257WAT     H121734   5.706   0.595   4.878
 5257WAT     H221735   5.655   0.580   4.752
 5257WAT    EPW21736   5.715   0.593   4.801
 5258WAT      O21737   5.217   0.295   3.708
 5258WAT     H121738   5.170   0.255   3.645
 5258WAT     H221739   5.287   0.243   3.717
 5258WAT    EPW21740   5.220   0.281   3.700
 5259WAT      O21741   5.728   0.914   4.521
 5259WAT     H121742   5.741   0.990   4.480
 5259WAT     H221743   5.807   0.878   4.523
 5259WAT    EPW21744   5.741   0.920   4.515
 5260WAT      O21745   5.837   0.703   3.971
 5260WAT     H121746   5.872   0.623   3.974
 5260WAT     H221747   5.904   0.753   3.946
 5260WAT    EPW21748   5.852   0.698   3.968
 5261WAT      O21749   5.843   0.648   3.592
 5261WAT     H121750   5.876   0.583   3.641
 5261WAT     H221751   5.867   0.626   3.511
 5261WAT    EPW21752   5.851   0.635   3.588
 5262WAT      O21753   5.053   1.042   3.799
 5262WAT     H121754   4.994   1.097   3.768
 5262WAT     H221755   5.096   1.015   3.728
 5262WAT    EPW21756   5.051   1.046   3.784
 5263WAT      O21757   5.637   0.826   3.547
 5263WAT     H121758   5.579   0.799   3.606
 5263WAT     H221759   5.700   0.765   3.550
 5263WAT    EPW21760   5.638   0.813   3.556
 5264WAT      O21761   6.252   1.055   3.299
 5264WAT     H121762   6.324   1.102   3.310
 5264WAT     H221763   6.274   0.975   3.327
 5264WAT    EPW21764   6.266   1.050   3.305
 5265WAT      O21765   6.068   1.094   3.498
 5265WAT     H121766   6.090   1.147   3.565
 5265WAT     H221767   6.145   1.077   3.461
 5265WAT    EPW21768   6.083   1.099   3.503
 5266WAT      O21769   5.208   0.909   3.592
 5266WAT     H121770   5.273   0.851   3.594
 5266WAT     H221771   5.247   0.984   3.570
 5266WAT    EPW21772   5.223   0.911   3.589
 5267WAT      O21773   6.312   1.095   4.329
 5267WAT     H121774   6.387   1.141   4.328
 5267WAT     H221775   6.300   1.074   4.245
 5267WAT    EPW21776   6.321   1.099   4.316
 5268WAT      O21777   5.290   0.757   3.942
 5268WAT     H121778   5.332   0.722   3.875
 5268WAT     H221779   5.322   0.715   4.012
 5268WAT    EPW21780   5.301   0.746   3.943
 5269WAT      O21781   5.613   1.043   3.872
 5269WAT     H121782   5.697   1.053   3.852
 5269WAT     H221783   5.583   1.124   3.879
 5269WAT    EPW21784   5.621   1.056   3.870
 5270WAT      O21785   6.470   1.214   3.339
 5270WAT     H121786   6.536   1.199   3.285
 5270WAT     H221787   6.506   1.205   3.418
 5270WAT    EPW21788   6.485   1.210   3.343
 5271WAT      O21789   5.512   1.164   4.446
 5271WAT     H121790   5.542   1.158   4.528
 5271WAT     H221791   5.450   1.104   4.441
 5271WAT    EPW21792   5.508   1.155   4.457
 5272WAT      O21793   6.238   0.814   4.699
 5272WAT     H121794   6.234   0.852   4.778
 5272WAT     H221795   6.323   0.809   4.682
 5272WAT    EPW21796   6.250   0.819   4.708
 5273WAT      O21797   5.951   0.833   3.174
 5273WAT     H121798   5.933   0.888   3.240
 5273WAT     H221799   6.028   0.862   3.144
 5273WAT    EPW21800   5.960   0.846   3.180
 5274WAT      O21801   5.312   0.981   4.358
 5274WAT     H121802   5.242   0.930   4.371
 5274WAT     H221803   5.338   0.960   4.277
 5274WAT    EPW21804   5.305   0.970   4.348
 5275WAT      O21805   6.083   1.130   4.449
 5275WAT     H121806   6.160   1.122   4.409
 5275WAT     H221807   6.025   1.118   4.385
 5275WAT    EPW21808   6.086   1.127   4.434
 5276WAT      O21809   6.711   1.190   3.739
 5276WAT     H121810   6.665   1.262   3.759
 5276WAT     H221811   6.649   1.133   3.715
 5276WAT    EPW21812   6.695   1.192   3.739
 5277WAT      O21813   6.410   0.775   3.694
 5277WAT     H121814   6.480   0.727   3.713
 5277WAT     H221815   6.344   0.718   3.698
 5277WAT    EPW21816   6.411   0.759   3.697
 5278WAT      O21817   5.448   0.866   4.615
 5278WAT     H121818   5.532   0.872   4.593
 5278WAT     H221819   5.444   0.905   4.692
 5278WAT    EPW21820   5.460   0.873   4.623
 5279WAT      O21821   5.644   0.417   4.090
 5279WAT     H121822   5.661   0.396   4.173
 5279WAT     H221823   5.579   0.363   4.068
 5279WAT    EPW21824   5.637   0.406   4.099
 5280WAT      O21825   5.719   0.411   4.349
 5280WAT     H121826   5.724   0.495   4.369
 5280WAT     H221827   5.691   0.374   4.422
 5280WAT    EPW21828   5.716   0.418   4.363
 5281WAT      O21829   6.337   0.480   4.262
 5281WAT     H121830   6.285   0.439   4.319
 5281WAT     H221831   6.324   0.565   4.280
 5281WAT    EPW21832   6.327   0.487   4.273
 5282WAT      O21833   5.001   0.848   4.970
 5282WAT     H121834   5.077   0.883   4.996
 5282WAT     H221835   5.019   0.762   4.964
 5282WAT    EPW21836   5.015   0.840   4.973
 5283WAT      O21837   6.662   0.524   3.274
 5283WAT     H121838   6.674   0.495   3.356
 5283WAT     H221839   6.743   0.526   3.241
 5283WAT    EPW21840   6.676   0.520   3.282
 5284WAT      O21841   5.376   0.497   3.808
 5284WAT     H121842   5.461   0.489   3.790
 5284WAT     H221843   5.340   0.429   3.766
 5284WAT    EPW21844   5.383   0.486   3.799
 5285WAT      O21845   5.252   1.170   3.931
 5285WAT     H121846   5.185   1.120   3.907
 5285WAT     H221847   5.293   1.188   3.856
 5285WAT    EPW21848   5.248   1.165   3.917
 5286WAT      O21849   6.886   0.975   4.700
 5286WAT     H121850   6.817   1.006   4.655
 5286WAT     H221851   6.849   0.929   4.764
 5286WAT    EPW21852   6.870   0.973   4.703
 5287WAT      O21853   6.452   0.178   3.233
 5287WAT     H121854   6.430   0.251   3.191
 5287WAT     H221855   6.407   0.183   3.308
 5287WAT    EPW21856   6.442   0.189   3.238
 5288WAT      O21857   5.613   0.498   3.631
 5288WAT     H121858   5.684   0.547   3.640
 5288WAT     H221859   5.635   0.441   3.568
 5288WAT    EPW21860   5.626   0.497   3.623
 5289WAT      O21861   5.028   0.662   3.963
 5289WAT     H121862   4.961   0.711   3.991
 5289WAT     H221863   5.096   0.717   3.966
 5289WAT    EPW21864   5.028   0.677   3.968
 5290WAT      O21865   5.035   0.331   3.473
 5290WAT     H121866   5.016   0.247   3.489
 5290WAT     H221867   5.101   0.327   3.416
 5290WAT    EPW21868   5.042   0.318   3.467
 5291WAT      O21869   6.065   0.868   3.864
 5291WAT     H121870   6.013   0.932   3.834
 5291WAT     H221871   6.096   0.832   3.791
 5291WAT    EPW21872   6.062   0.872   3.849
 5292WAT      O21873   5.052   0.747   3.431
 5292WAT     H121874   5.107   0.804   3.467
 5292WAT     H221875   5.029   0.696   3.497
 5292WAT    EPW21876   5.057   0.748   3.446
 5293WAT      O21877   5.472   0.647   4.140
 5293WAT     H121878   5.519   0.676   4.208
 5293WAT     H221879   5.530   0.599   4.094
 5293WAT    EPW21880   5.488   0.644   4.143
 5294WAT      O21881   5.035   0.592   3.194
 5294WAT     H121882   5.111   0.549   3.199
 5294WAT     H221883   5.036   0.645   3.263
 5294WAT    EPW21884   5.046   0.593   3.205
 5295WAT      O21885   5.129   0.414   3.994
 5295WAT     H121886   5.172   0.401   3.919
 5295WAT     H221887   5.108   0.499   3.992
 5295WAT    EPW21888   5.132   0.425   3.983
 5296WAT      O21889   6.669   1.013   4.509
 5296WAT     H121890   6.602   1.065   4.531
 5296WAT     H221891   6.675   1.023   4.422
 5296WAT    EPW21892   6.660   1.022   4.499
 5297WAT      O21893   5.537   0.766   3.822
 5297WAT     H121894   5.550   0.850   3.841
 5297WAT     H221895   5.604   0.726   3.862
 5297WAT    EPW21896   5.549   0.772   3.831
 5298WAT      O21897   5.416   0.237   3.982
 5298WAT     H121898   5.337   0.231   3.944
 5298WAT     H221899   5.423   0.161   4.026
 5298WAT    EPW21900   5.405   0.225   3.983
 5299WAT      O21901   5.869   1.088   4.268
 5299WAT     H121902   5.841   1.024   4.216
 5299WAT     H221903   5.848   1.161   4.225
 5299WAT    EPW21904   5.861   1.089   4.254
 5300WAT      O21905   5.238   0.346   4.885
 5300WAT     H121906   5.235   0.396   4.814
 5300WAT     H221907   5.272   0.271   4.856
 5300WAT    EPW21908   5.243   0.342   4.870
 5301WAT      O21909   6.399   0.566   4.711
 5301WAT     H121910   6.447   0.638   4.721
 5301WAT     H221911   6.438   0.524   4.646
 5301WAT    EPW21912   6.412   0.571   4.703
 5302WAT      O21913   5.828   0.851   4.829
 5302WAT     H121914   5.864   0.833   4.906
 5302WAT     H221915   5.785   0.778   4.809
 5302WAT    EPW21916   5.827   0.837   4.837
 5303WAT      O21917   6.144   0.242   3.320
 5303WAT     H121918   6.144   0.315   3.271
 5303WAT     H221919   6.081   0.256   3.378
 5303WAT    EPW21920   6.135   0.255   3.321
 5304WAT      O21921   6.642   0.629   3.718
 5304WAT     H121922   6.677   0.594   3.789
 5304WAT     H221923   6.641   0.563   3.661
 5304WAT    EPW21924   6.647   0.614   3.720
 5305WAT      O21925   6.246   0.936   4.102
 5305WAT     H121926   6.186   0.906   4.047
 5305WAT     H221927   6.301   0.981   4.051
 5305WAT    EPW21928   6.245   0.938   4.087
 5306WAT      O21929   6.247   0.621   4.042
 5306WAT     H121930   6.168   0.644   4.070
 5306WAT     H221931   6.273   0.562   4.101
 5306WAT    EPW21932   6.239   0.616   4.055
 5307WAT      O21933   5.637   1.102   3.487
 5307WAT     H121934   5.622   1.025   3.524
 5307WAT     H221935   5.706   1.088   3.436
 5307WAT    EPW21936   5.645   1.089   3.485
 5308WAT      O21937   5.866   1.054   3.327
 5308WAT     H121938   5.928   1.070   3.386
 5308WAT     H221939   5.869   1.123   3.274
 5308WAT    EPW21940   5.876   1.067   3.328
 5309WAT      O21941   6.573   0.421   4.527
 5309WAT     H121942   6.579   0.433   4.441
 5309WAT     H221943   6.649   0.453   4.557
 5309WAT    EPW21944   6.585   0.427   4.519
 5310WAT      O21945   6.193   0.956   4.955
 5310WAT     H121946   6.209   0.984   5.036
 5310WAT     H221947   6.219   1.022   4.904
 5310WAT    EPW21948   6.199   0.970   4.959
 5311WAT      O21949   5.316   0.307   3.410
 5311WAT     H121950   5.348   0.229   3.388
 5311WAT     H221951   5.381   0.344   3.456
 5311WAT    EPW21952   5.330   0.301   3.414
 5312WAT      O21953   6.147   0.402   4.487
 5312WAT     H121954   6.131   0.463   4.547
 5312WAT     H221955   6.200   0.346   4.528
 5312WAT    EPW21956   6.152   0.402   4.502
 5313WAT      O21957   5.985   0.242   3.553
 5313WAT     H121958   5.991   0.307   3.611
 5313WAT     H221959   5.966   0.172   3.602
 5313WAT    EPW21960   5.983   0.241   3.569
 5314WAT      O21961   6.508   0.674   4.140
 5314WAT     H121962   6.460   0.704   4.073
 5314WAT     H221963   6.472   0.597   4.157
 5314WAT    EPW21964   6.495   0.667   4.132
 5315WAT      O21965   5.907   0.446   3.996
 5315WAT     H121966   5.823   0.427   4.004
 5315WAT     H221967   5.940   0.430   4.075
 5315WAT    EPW21968   5.899   0.441   4.009
 5316WAT      O21969   5.582   1.119   3.084
 5316WAT     H121970   5.626   1.050   3.113
 5316WAT     H221971   5.603   1.182   3.142
 5316WAT    EPW21972   5.592   1.118   3.097
 5317WAT      O21973   5.292   0.416   4.227
 5317WAT     H121974   5.364   0.464   4.224
 5317WAT     H221975   5.265   0.413   4.145
 5317WAT    EPW21976   5.299   0.422   4.215
 5318WAT      O21977   6.877   1.091   3.334
 5318WAT     H121978   6.946   1.044   3.309
 5318WAT     H221979   6.823   1.031   3.367
 5318WAT    EPW21980   6.879   1.075   3.335
 5319WAT      O21981   6.601   0.369   4.252
 5319WAT     H121982   6.600   0.291   4.291
 5319WAT     H221983   6.517   0.392   4.251
 5319WAT    EPW21984   6.588   0.361   4.257
 5320WAT      O21985   5.550   0.210   3.115
 5320WAT     H121986   5.489   0.169   3.162
 5320WAT     H221987   5.511   0.222   3.038
 5320WAT    EPW21988   5.535   0.206   3.111
 5321WAT      O21989   5.232   0.521   4.655
 5321WAT     H121990   5.189   0.469   4.599
 5321WAT     H221991   5.196   0.599   4.641
 5321WAT    EPW21992   5.220   0.525   4.645
 5322WAT      O21993   6.726   0.376   3.995
 5322WAT     H121994   6.698   0.416   4.067
 5322WAT     H221995   6.812   0.370   4.008
 5322WAT    EPW21996   6.735   0.381   4.008
 5323WAT      O21997   6.839   0.939   4.048
 5323WAT     H121998   6.868   0.965   3.970
 5323WAT     H221999   6.909   0.949   4.100
 5323WAT    EPW22000   6.854   0.944   4.044
 5324WAT      O22001   6.500   0.799   3.246
 5324WAT     H122002   6.533   0.719   3.250
 5324WAT     H222003   6.424   0.792   3.289
 5324WAT    EPW22004   6.494   0.786   3.253
 5325WAT      O22005   6.838   0.211   4.967
 5325WAT     H122006   6.833   0.177   4.887
 5325WAT     H222007   6.912   0.258   4.965
 5325WAT    EPW22008   6.848   0.213   4.955
 5326WAT      O22009   6.792   0.579   4.587
 5326WAT     H122010   6.855   0.524   4.562
 5326WAT     H222011   6.786   0.635   4.521
 5326WAT    EPW22012   6.800   0.579   4.574
 5327WAT      O22013   6.237   0.587   3.187
 5327WAT     H122014   6.306   0.535   3.170
 5327WAT     H222015   6.196   0.591   3.110
 5327WAT    EPW22016   6.241   0.580   3.173
 5328WAT      O22017   5.705   0.702   4.317
 5328WAT     H122018   5.676   0.761   4.374
 5328WAT     H222019   5.711   0.746   4.242
 5328WAT    EPW22020   5.702   0.717   4.314
 5329WAT      O22021   5.503   0.597   4.657
 5329WAT     H122022   5.423   0.568   4.674
 5329WAT     H222023   5.494   0.684   4.657
 5329WAT    EPW22024   5.490   0.605   4.659
 5330WAT      O22025   5.957   0.344   4.266
 5330WAT     H122026   6.005   0.382   4.329
 5330WAT     H222027   5.875   0.358   4.292
 5330WAT    EPW22028   5.952   0.352   4.279
 5331WAT      O22029   5.883   1.083   3.789
 5331WAT     H122030   5.938   1.151   3.794
 5331WAT     H222031   5.848   1.092   3.709
 5331WAT    EPW22032   5.886   1.095   3.778
 5332WAT      O22033   5.702   0.906   4.128
 5332WAT     H122034   5.639   0.964   4.110
 5332WAT     H222035   5.727   0.878   4.049
 5332WAT    EPW22036   5.696   0.911   4.114
 5333WAT      O22037   6.133   0.570   4.827
 5333WAT     H122038   6.208   0.598   4.794
 5333WAT     H222039   6.078   0.575   4.759
 5333WAT    EPW22040   6.136   0.575   4.812
 5334WAT      O22041   6.524   0.825   4.677
 5334WAT     H122042   6.558   0.852   4.753
 5334WAT     H222043   6.553   0.883   4.619
 5334WAT    EPW22044   6.533   0.837   4.680
 5335WAT      O22045   5.861   0.384   3.119
 5335WAT     H122046   5.781   0.366   3.091
 5335WAT     H222047   5.858   0.469   3.139
 5335WAT    EPW22048   5.849   0.394   3.118
 5336WAT      O22049   5.967   1.071   4.716
 5336WAT     H122050   6.015   1.011   4.674
 5336WAT     H222051   5.932   1.027   4.782
 5336WAT    EPW22052   5.969   1.056   4.720
 5337WAT      O22053   6.626   0.402   3.534
 5337WAT     H122054   6.673   0.329   3.529
 5337WAT     H222055   6.544   0.373   3.526
 5337WAT    EPW22056   6.621   0.387   3.532
 5338WAT      O22057   5.973   0.593   4.618
 5338WAT     H122058   5.893   0.587   4.653
 5338WAT     H222059   5.980   0.678   4.598
 5338WAT    EPW22060   5.962   0.605   4.620
 5339WAT      O22061   5.556   1.214   4.150
 5339WAT     H122062   5.557   1.220   4.237
 5339WAT     H222063   5.513   1.139   4.135
 5339WAT    EPW22064   5.550   1.204   4.160
 5340WAT      O22065   6.247   0.519   3.769
 5340WAT     H122066   6.255   0.553   3.849
 5340WAT     H222067   6.264   0.434   3.782
 5340WAT    EPW22068   6.251   0.511   3.783
 5341WAT      O22069   6.000   0.446   3.726
 5341WAT     H122070   5.970   0.414   3.802
 5341WAT     H222071   6.069   0.493   3.749
 5341WAT    EPW22072   6.006   0.448   3.741
 5342WAT      O22073   6.022   0.858   4.529
 5342WAT     H122074   6.091   0.846   4.581
 5342WAT     H222075   6.035   0.937   4.494
 5342WAT    EPW22076   6.034   0.868   4.531
 5343WAT      O22077   5.232   1.164   4.694
 5343WAT     H122078   5.167   1.107   4.704
 5343WAT     H222079   5.195   1.241   4.709
 5343WAT    EPW22080   5.217   1.167   4.697
 5344WAT      O22081   6.084   0.304   4.886
 5344WAT     H122082   6.116   0.373   4.843
 5344WAT     H222083   6.014   0.336   4.926
 5344WAT    EPW22084   6.078   0.319   4.886
 5345WAT      O22085   6.393   1.142   3.979
 5345WAT     H122086   6.347   1.206   4.017
 5345WAT     H222087   6.463   1.134   4.029
 5345WAT    EPW22088   6.396   1.150   3.992
 5346WAT      O22089   6.063   0.651   4.272
 5346WAT     H122090   5.993   0.691   4.306
 5346WAT     H222091   6.130   0.694   4.306
 5346WAT    EPW22092   6.062   0.663   4.282
 5347WAT      O22093   6.600   0.910   4.930
 5347WAT     H122094   6.678   0.871   4.938
 5347WAT     H222095   6.553   0.876   4.995
 5347WAT    EPW22096   6.605   0.899   4.941
 5348WAT      O22097   6.095   0.810   3.589
 5348WAT     H122098   6.074   0.893   3.573
 5348WAT     H222099   6.017   0.771   3.601
 5348WAT    EPW22100   6.080   0.816   3.588
 5349WAT      O22101   5.087   0.372   4.457
 5349WAT     H122102   5.119   0.394   4.378
 5349WAT     H222103   5.077   0.285   4.451
 5349WAT    EPW22104   5.090   0.362   4.444
 5350WAT      O22105   5.631   0.836   3.230
 5350WAT     H122106   5.675   0.844   3.305
 5350WAT     H222107   5.551   0.814   3.256
 5350WAT    EPW22108   5.626   0.834   3.245
 5351WAT      O22109   5.563   0.301   4.595
 5351WAT     H122110   5.523   0.378   4.603
 5351WAT     H222111   5.522   0.264   4.527
 5351WAT    EPW22112   5.551   0.307   4.586
 5352WAT      O22113   6.491   0.206   4.006
 5352WAT     H122114   6.557   0.260   4.022
 5352WAT     H222115   6.456   0.237   3.933
 5352WAT    EPW22116   6.495   0.219   3.998
 5353WAT      O22117   6.522   1.013   3.587
 5353WAT     H122118   6.504   0.948   3.642
 5353WAT     H222119   6.593   0.986   3.545
 5353WAT    EPW22120   6.530   0.999   3.589
 5354WAT      O22121   5.364   0.743   3.290
 5354WAT     H122122   5.340   0.712   3.368
 5354WAT     H222123   5.361   0.673   3.238
 5354WAT    EPW22124   5.360   0.728   3.294
 5355WAT      O22125   5.646   0.567   3.164
 5355WAT     H122126   5.564   0.541   3.178
 5355WAT     H222127   5.643   0.653   3.183
 5355WAT    EPW22128   5.633   0.576   3.169
 5356WAT      O22129   6.289   0.758   4.356
 5356WAT     H122130   6.310   0.788   4.435
 5356WAT     H222131   6.283   0.830   4.308
 5356WAT    EPW22132   6.291   0.773   4.361
 5357WAT      O22133   6.243   1.180   4.781
 5357WAT     H122134   6.167   1.178   4.737
 5357WAT     H222135   6.260   1.265   4.789
 5357WAT    EPW22136   6.234   1.192   4.776
 5358WAT      O22137   6.771   0.622   4.302
 5358WAT     H122138   6.767   0.536   4.289
 5358WAT     H222139   6.701   0.652   4.259
 5358WAT    EPW22140   6.760   0.614   4.294
 5359WAT      O22141   5.610   1.142   4.723
 5359WAT     H122142   5.614   1.155   4.809
 5359WAT     H222143   5.675   1.086   4.707
 5359WAT    EPW22144   5.620   1.136   4.733
 5360WAT      O22145   6.581   0.948   4.182
 5360WAT     H122146   6.634   0.940   4.113
 5360WAT     H222147   6.542   0.870   4.187
 5360WAT    EPW22148   6.583   0.935   4.172
 5361WAT      O22149   5.369   0.980   4.859
 5361WAT     H122150   5.429   1.023   4.906
 5361WAT     H222151   5.333   1.043   4.810
 5361WAT    EPW22152   5.373   0.996   4.858
 5362WAT      O22153   5.162   0.779   4.552
 5362WAT     H122154   5.105   0.821   4.602
 5362WAT     H222155   5.235   0.826   4.561
 5362WAT    EPW22156   5.164   0.792   4.560
 5363WAT      O22157   6.365   0.256   3.508
 5363WAT     H122158   6.372   0.171   3.526
 5363WAT     H222159   6.283   0.265   3.480
 5363WAT    EPW22160   6.354   0.245   3.507
 5364WAT      O22161   5.341   1.106   3.429
 5364WAT     H122162   5.326   1.121   3.344
 5364WAT     H222163   5.427   1.114   3.437
 5364WAT    EPW22164   5.351   1.109   3.418
 5365WAT      O22165   5.757   0.346   3.402
 5365WAT     H122166   5.767   0.359   3.316
 5365WAT     H222167   5.839   0.340   3.431
 5365WAT    EPW22168   5.771   0.347   3.394
 5366WAT      O22169   6.673   1.152   3.150
 5366WAT     H122170   6.737   1.139   3.208
 5366WAT     H222171   6.639   1.073   3.138
 5366WAT    EPW22172   6.678   1.138   3.157
 5367WAT      O22173   6.693   0.394   4.823
 5367WAT     H122174   6.756   0.377   4.881
 5367WAT     H222175   6.734   0.434   4.758
 5367WAT    EPW22176   6.708   0.397   4.822
 5368WAT      O22177   6.281   0.778   3.382
 5368WAT     H122178   6.256   0.766   3.465
 5368WAT     H222179   6.249   0.709   3.340
 5368WAT    EPW22180   6.272   0.766   3.388
 5369WAT      O22181   6.434   0.405   4.959
 5369WAT     H122182   6.521   0.401   4.955
 5369WAT     H222183   6.412   0.447   4.885
 5369WAT    EPW22184   6.444   0.410   4.947
 5370WAT      O22185   5.409   0.987   4.077
 5370WAT     H122186   5.401   0.906   4.045
 5370WAT     H222187   5.365   1.036   4.020
 5370WAT    EPW22188   5.402   0.983   4.064
 5371WAT      O22189   5.969   0.599   3.325
 5371WAT     H122190   6.041   0.565   3.289
 5371WAT     H222191   5.966   0.679   3.290
 5371WAT    EPW22192   5.979   0.606   3.315
 5372WAT      O22193   5.166   1.212   4.435
 5372WAT     H122194   5.216   1.206   4.507
 5372WAT     H222195   5.185   1.138   4.391
 5372WAT    EPW22196   5.177   1.200   4.439
 5373WAT      O22197   5.078   0.569   1.762
 5373WAT     H122198   5.034   0.581   1.836
 5373WAT     H222199   5.050   0.491   1.733
 5373WAT    EPW22200   5.067   0.559   1.768
 5374WAT      O22201   6.706   0.899   1.513
 5374WAT     H122202   6.776   0.847   1.513
 5374WAT     H222203   6.647   0.855   1.466
 5374WAT    EPW22204   6.707   0.885   1.506
 5375WAT      O22205   5.366   0.474   1.280
 5375WAT     H122206   5.327   0.437   1.211
 5375WAT     H222207   5.358   0.415   1.342
 5375WAT    EPW22208   5.359   0.460   1.279
 5376WAT      O22209   6.358   0.262   1.884
 5376WAT     H122210   6.366   0.262   1.797
 5376WAT     H222211   6.300   0.198   1.899
 5376WAT    EPW22212   6.351   0.252   1.873
 5377WAT      O22213   5.329   0.639   1.670
 5377WAT     H122214   5.390   0.622   1.730
 5377WAT     H222215   5.254   0.625   1.712
 5377WAT    EPW22216   5.327   0.634   1.685
 5378WAT      O22217   5.218   0.948   1.277
 5378WAT     H122218   5.265   0.956   1.204
 5378WAT     H222219   5.264   0.890   1.324
 5378WAT    EPW22220   5.232   0.940   1.273
 5379WAT      O22221   5.072   0.842   2.387
 5379WAT     H122222   5.085   0.814   2.469
 5379WAT     H222223   5.011   0.788   2.356
 5379WAT    EPW22224   5.065   0.830   2.395
 5380WAT      O22225   5.729   0.595   2.894
 5380WAT     H122226   5.706   0.595   2.978
 5380WAT     H222227   5.655   0.580   2.851
 5380WAT    EPW22228   5.715   0.593   2.900
 5381WAT      O22229   5.217   0.295   1.807
 5381WAT     H122230   5.170   0.255   1.745
 5381WAT     H222231   5.287   0.243   1.817
 5381WAT    EPW22232   5.220   0.281   1.799
 5382WAT      O22233   5.728   0.914   2.620
 5382WAT     H122234   5.741   0.990   2.579
 5382WAT     H222235   5.807   0.878   2.623
 5382WAT    EPW22236   5.741   0.920   2.615
 5383WAT      O22237   5.837   0.703   2.071
 5383WAT     H122238   5.872   0.623   2.074
 5383WAT     H222239   5.904   0.753   2.045
 5383WAT    EPW22240   5.852   0.698   2.067
 5384WAT      O22241   5.843   0.648   1.692
 5384WAT     H122242   5.876   0.583   1.740
 5384WAT     H222243   5.867   0.626   1.611
 5384WAT    EPW22244   5.851   0.635   1.687
 5385WAT      O22245   5.053   1.042   1.899
 5385WAT     H122246   4.994   1.097   1.867
 5385WAT     H222247   5.096   1.015   1.827
 5385WAT    EPW22248   5.051   1.046   1.884
 5386WAT      O22249   5.637   0.826   1.647
 5386WAT     H122250   5.579   0.799   1.706
 5386WAT     H222251   5.700   0.765   1.649
 5386WAT    EPW22252   5.638   0.813   1.656
 5387WAT      O22253   6.252   1.055   1.399
 5387WAT     H122254   6.324   1.102   1.409
 5387WAT     H222255   6.274   0.975   1.427
 5387WAT    EPW22256   6.266   1.050   1.405
 5388WAT      O22257   6.068   1.094   1.598
 5388WAT     H122258   6.090   1.147   1.664
 5388WAT     H222259   6.145   1.077   1.560
 5388WAT    EPW22260   6.083   1.099   1.602
 5389WAT      O22261   5.208   0.909   1.692
 5389WAT     H122262   5.273   0.851   1.693
 5389WAT     H222263   5.247   0.984   1.670
 5389WAT    EPW22264   5.223   0.911   1.689
 5390WAT      O22265   6.312   1.095   2.428
 5390WAT     H122266   6.387   1.141   2.427
 5390WAT     H222267   6.300   1.074   2.345
 5390WAT    EPW22268   6.321   1.099   2.416
 5391WAT      O22269   5.290   0.757   2.042
 5391WAT     H122270   5.332   0.722   1.974
 5391WAT     H222271   5.322   0.715   2.111
 5391WAT    EPW22272   5.301   0.746   2.042
 5392WAT      O22273   5.613   1.043   1.971
 5392WAT     H122274   5.697   1.053   1.952
 5392WAT     H222275   5.583   1.124   1.978
 5392WAT    EPW22276   5.621   1.056   1.969
 5393WAT      O22277   6.470   1.214   1.439
 5393WAT     H122278   6.536   1.199   1.384
 5393WAT     H222279   6.506   1.205   1.518
 5393WAT    EPW22280   6.485   1.210   1.442
 5394WAT      O22281   5.512   1.164   2.545
 5394WAT     H122282   5.542   1.158   2.627
 5394WAT     H222283   5.450   1.104   2.541
 5394WAT    EPW22284   5.508   1.155   2.557
 5395WAT      O22285   6.238   0.814   2.799
 5395WAT     H122286   6.234   0.852   2.877
 5395WAT     H222287   6.323   0.809   2.782
 5395WAT    EPW22288   6.250   0.819   2.808
 5396WAT      O22289   5.951   0.833   1.274
 5396WAT     H122290   5.933   0.888   1.339
 5396WAT     H222291   6.028   0.862   1.244
 5396WAT    EPW22292   5.960   0.846   1.279
 5397WAT      O22293   5.312   0.981   2.458
 5397WAT     H122294   5.242   0.930   2.470
 5397WAT     H222295   5.338   0.960   2.377
 5397WAT    EPW22296   5.305   0.970   2.447
 5398WAT      O22297   6.083   1.130   2.549
 5398WAT     H122298   6.160   1.122   2.508
 5398WAT     H222299   6.025   1.118   2.485
 5398WAT    EPW22300   6.086   1.127   2.533
 5399WAT      O22301   6.711   1.190   1.839
 5399WAT     H122302   6.665   1.262   1.859
 5399WAT     H222303   6.649   1.133   1.814
 5399WAT    EPW22304   6.695   1.192   1.838
 5400WAT      O22305   6.410   0.775   1.793
 5400WAT     H122306   6.480   0.727   1.812
 5400WAT     H222307   6.344   0.718   1.798
 5400WAT    EPW22308   6.411   0.759   1.796
 5401WAT      O22309   5.448   0.866   2.714
 5401WAT     H122310   5.532   0.872   2.692
 5401WAT     H222311   5.444   0.905   2.792
 5401WAT    EPW22312   5.460   0.873   2.722
 5402WAT      O22313   5.644   0.417   2.189
 5402WAT     H122314   5.661   0.396   2.272
 5402WAT     H222315   5.579   0.363   2.168
 5402WAT    EPW22316   5.637   0.406   2.198
 5403WAT      O22317   5.719   0.411   2.448
 5403WAT     H122318   5.724   0.495   2.468
 5403WAT     H222319   5.691   0.374   2.522
 5403WAT    EPW22320   5.716   0.418   2.462
 5404WAT      O22321   6.337   0.480   2.361
 5404WAT     H122322   6.285   0.439   2.418
 5404WAT     H222323   6.324   0.565   2.379
 5404WAT    EPW22324   6.327   0.487   2.372
 5405WAT      O22325   5.001   0.848   3.069
 5405WAT     H122326   5.077   0.883   3.095
 5405WAT     H222327   5.019   0.762   3.064
 5405WAT    EPW22328   5.015   0.840   3.072
 5406WAT      O22329   6.662   0.524   1.374
 5406WAT     H122330   6.674   0.495   1.455
 5406WAT     H222331   6.743   0.526   1.341
 5406WAT    EPW22332   6.676   0.520   1.381
 5407WAT      O22333   5.376   0.497   1.907
 5407WAT     H122334   5.461   0.489   1.890
 5407WAT     H222335   5.340   0.429   1.866
 5407WAT    EPW22336   5.383   0.486   1.898
 5408WAT      O22337   5.252   1.170   2.031
 5408WAT     H122338   5.185   1.120   2.006
 5408WAT     H222339   5.293   1.188   1.956
 5408WAT    EPW22340   5.248   1.165   2.016
 5409WAT      O22341   6.886   0.975   2.799
 5409WAT     H122342   6.817   1.006   2.755
 5409WAT     H222343   6.849   0.929   2.864
 5409WAT    EPW22344   6.870   0.973   2.802
 5410WAT      O22345   6.452   0.178   1.332
 5410WAT     H122346   6.430   0.251   1.290
 5410WAT     H222347   6.407   0.183   1.407
 5410WAT    EPW22348   6.442   0.189   1.337
 5411WAT      O22349   5.613   0.498   1.730
 5411WAT     H122350   5.684   0.547   1.739
 5411WAT     H222351   5.635   0.441   1.668
 5411WAT    EPW22352   5.626   0.497   1.723
 5412WAT      O22353   5.028   0.662   2.062
 5412WAT     H122354   4.961   0.711   2.090
 5412WAT     H222355   5.096   0.717   2.065
 5412WAT    EPW22356   5.028   0.677   2.067
 5413WAT      O22357   5.035   0.331   1.573
 5413WAT     H122358   5.016   0.247   1.588
 5413WAT     H222359   5.101   0.327   1.516
 5413WAT    EPW22360   5.042   0.318   1.567
 5414WAT      O22361   6.065   0.868   1.963
 5414WAT     H122362   6.013   0.932   1.934
 5414WAT     H222363   6.096   0.832   1.890
 5414WAT    EPW22364   6.062   0.872   1.948
 5415WAT      O22365   5.052   0.747   1.530
 5415WAT     H122366   5.107   0.804   1.567
 5415WAT     H222367   5.029   0.696   1.597
 5415WAT    EPW22368   5.057   0.748   1.545
 5416WAT      O22369   5.472   0.647   2.239
 5416WAT     H122370   5.519   0.676   2.307
 5416WAT     H222371   5.530   0.599   2.194
 5416WAT    EPW22372   5.488   0.644   2.242
 5417WAT      O22373   5.035   0.592   1.293
 5417WAT     H122374   5.111   0.549   1.299
 5417WAT     H222375   5.036   0.645   1.362
 5417WAT    EPW22376   5.046   0.593   1.304
 5418WAT      O22377   5.129   0.414   2.094
 5418WAT     H122378   5.172   0.401   2.019
 5418WAT     H222379   5.108   0.499   2.091
 5418WAT    EPW22380   5.132   0.425   2.082
 5419WAT      O22381   6.669   1.013   2.608
 5419WAT     H122382   6.602   1.065   2.630
 5419WAT     H222383   6.675   1.023   2.522
 5419WAT    EPW22384   6.660   1.022   2.599
 5420WAT      O22385   5.537   0.766   1.922
 5420WAT     H122386   5.550   0.850   1.940
 5420WAT     H222387   5.604   0.726   1.961
 5420WAT    EPW22388   5.549   0.772   1.930
 5421WAT      O22389   5.416   0.237   2.082
 5421WAT     H122390   5.337   0.231   2.044
 5421WAT     H222391   5.423   0.161   2.126
 5421WAT    EPW22392   5.405   0.225   2.083
 5422WAT      O22393   5.869   1.088   2.368
 5422WAT     H122394   5.841   1.024   2.316
 5422WAT     H222395   5.848   1.161   2.324
 5422WAT    EPW22396   5.861   1.089   2.354
 5423WAT      O22397   5.238   0.346   2.985
 5423WAT     H122398   5.235   0.396   2.913
 5423WAT     H222399   5.272   0.271   2.955
 5423WAT    EPW22400   5.243   0.342   2.970
 5424WAT      O22401   6.399   0.566   2.810
 5424WAT     H122402   6.447   0.638   2.820
 5424WAT     H222403   6.438   0.524   2.745
 5424WAT    EPW22404   6.412   0.571   2.802
 5425WAT      O22405   5.828   0.851   2.928
 5425WAT     H122406   5.864   0.833   3.006
 5425WAT     H222407   5.785   0.778   2.908
 5425WAT    EPW22408   5.827   0.837   2.937
 5426WAT      O22409   6.144   0.242   1.419
 5426WAT     H122410   6.144   0.315   1.370
 5426WAT     H222411   6.081   0.256   1.477
 5426WAT    EPW22412   6.135   0.255   1.421
 5427WAT      O22413   6.642   0.629   1.817
 5427WAT     H122414   6.677   0.594   1.889
 5427WAT     H222415   6.641   0.563   1.760
 5427WAT    EPW22416   6.647   0.614   1.819
 5428WAT      O22417   6.246   0.936   2.202
 5428WAT     H122418   6.186   0.906   2.146
 5428WAT     H222419   6.301   0.981   2.151
 5428WAT    EPW22420   6.245   0.938   2.186
 5429WAT      O22421   6.247   0.621   2.142
 5429WAT     H122422   6.168   0.644   2.169
 5429WAT     H222423   6.273   0.562   2.200
 5429WAT    EPW22424   6.239   0.616   2.154
 5430WAT      O22425   5.637   1.102   1.587
 5430WAT     H122426   5.622   1.025   1.624
 5430WAT     H222427   5.706   1.088   1.535
 5430WAT    EPW22428   5.645   1.089   1.584
 5431WAT      O22429   5.866   1.054   1.427
 5431WAT     H122430   5.928   1.070   1.486
 5431WAT     H222431   5.869   1.123   1.374
 5431WAT    EPW22432   5.876   1.067   1.428
 5432WAT      O22433   6.573   0.421   2.626
 5432WAT     H122434   6.579   0.433   2.540
 5432WAT     H222435   6.649   0.453   2.657
 5432WAT    EPW22436   6.585   0.427   2.618
 5433WAT      O22437   6.193   0.956   3.054
 5433WAT     H122438   6.209   0.984   3.135
 5433WAT     H222439   6.219   1.022   3.004
 5433WAT    EPW22440   6.199   0.970   3.059
 5434WAT      O22441   5.316   0.307   1.510
 5434WAT     H122442   5.348   0.229   1.487
 5434WAT     H222443   5.381   0.344   1.555
 5434WAT    EPW22444   5.330   0.301   1.513
 5435WAT      O22445   6.147   0.402   2.586
 5435WAT     H122446   6.131   0.463   2.647
 5435WAT     H222447   6.200   0.346   2.627
 5435WAT    EPW22448   6.152   0.402   2.601
 5436WAT      O22449   5.985   0.242   1.652
 5436WAT     H122450   5.991   0.307   1.710
 5436WAT     H222451   5.966   0.172   1.701
 5436WAT    EPW22452   5.983   0.241   1.668
 5437WAT      O22453   6.508   0.674   2.239
 5437WAT     H122454   6.460   0.704   2.172
 5437WAT     H222455   6.472   0.597   2.257
 5437WAT    EPW22456   6.495   0.667   2.232
 5438WAT      O22457   5.907   0.446   2.095
 5438WAT     H122458   5.823   0.427   2.103
 5438WAT     H222459   5.940   0.430   2.175
 5438WAT    EPW22460   5.899   0.441   2.108
 5439WAT      O22461   5.582   1.119   1.184
 5439WAT     H122462   5.626   1.050   1.213
 5439WAT     H222463   5.603   1.182   1.241
 5439WAT    EPW22464   5.592   1.118   1.197
 5440WAT      O22465   5.292   0.416   2.327
 5440WAT     H122466   5.364   0.464   2.323
 5440WAT     H222467   5.265   0.413   2.244
 5440WAT    EPW22468   5.299   0.422   2.314
 5441WAT      O22469   6.877   1.091   1.433
 5441WAT     H122470   6.946   1.044   1.408
 5441WAT     H222471   6.823   1.031   1.467
 5441WAT    EPW22472   6.879   1.075   1.434
 5442WAT      O22473   6.601   0.369   2.351
 5442WAT     H122474   6.600   0.291   2.391
 5442WAT     H222475   6.517   0.392   2.350
 5442WAT    EPW22476   6.588   0.361   2.357
 5443WAT      O22477   5.550   0.210   1.214
 5443WAT     H122478   5.489   0.169   1.262
 5443WAT     H222479   5.511   0.222   1.137
 5443WAT    EPW22480   5.535   0.206   1.210
 5444WAT      O22481   5.232   0.521   2.755
 5444WAT     H122482   5.189   0.469   2.699
 5444WAT     H222483   5.196   0.599   2.740
 5444WAT    EPW22484   5.220   0.525   2.744
 5445WAT      O22485   6.726   0.376   2.095
 5445WAT     H122486   6.698   0.416   2.167
 5445WAT     H222487   6.812   0.370   2.107
 5445WAT    EPW22488   6.735   0.381   2.107
 5446WAT      O22489   6.839   0.939   2.148
 5446WAT     H122490   6.868   0.965   2.069
 5446WAT     H222491   6.909   0.949   2.199
 5446WAT    EPW22492   6.854   0.944   2.144
 5447WAT      O22493   6.500   0.799   1.346
 5447WAT     H122494   6.533   0.719   1.349
 5447WAT     H222495   6.424   0.792   1.389
 5447WAT    EPW22496   6.494   0.786   1.353
 5448WAT      O22497   6.838   0.211   3.066
 5448WAT     H122498   6.833   0.177   2.986
 5448WAT     H222499   6.912   0.258   3.064
 5448WAT    EPW22500   6.848   0.213   3.054
 5449WAT      O22501   6.792   0.579   2.687
 5449WAT     H122502   6.855   0.524   2.661
 5449WAT     H222503   6.786   0.635   2.621
 5449WAT    EPW22504   6.800   0.579   2.673
 5450WAT      O22505   6.237   0.587   1.286
 5450WAT     H122506   6.306   0.535   1.269
 5450WAT     H222507   6.196   0.591   1.210
 5450WAT    EPW22508   6.241   0.580   1.272
 5451WAT      O22509   5.705   0.702   2.416
 5451WAT     H122510   5.676   0.761   2.473
 5451WAT     H222511   5.711   0.746   2.342
 5451WAT    EPW22512   5.702   0.717   2.414
 5452WAT      O22513   5.503   0.597   2.756
 5452WAT     H122514   5.423   0.568   2.773
 5452WAT     H222515   5.494   0.684   2.757
 5452WAT    EPW22516   5.490   0.605   2.759
 5453WAT      O22517   5.957   0.344   2.366
 5453WAT     H122518   6.005   0.382   2.428
 5453WAT     H222519   5.875   0.358   2.391
 5453WAT    EPW22520   5.952   0.352   2.379
 5454WAT      O22521   5.883   1.083   1.888
 5454WAT     H122522   5.938   1.151   1.894
 5454WAT     H222523   5.848   1.092   1.809
 5454WAT    EPW22524   5.886   1.095   1.877
 5455WAT      O22525   5.702   0.906   2.227
 5455WAT     H122526   5.639   0.964   2.209
 5455WAT     H222527   5.727   0.878   2.149
 5455WAT    EPW22528   5.696   0.911   2.213
 5456WAT      O22529   6.133   0.570   2.926
 5456WAT     H122530   6.208   0.598   2.894
 5456WAT     H222531   6.078   0.575   2.858
 5456WAT    EPW22532   6.136   0.575   2.911
 5457WAT      O22533   6.524   0.825   2.777
 5457WAT     H122534   6.558   0.852   2.852
 5457WAT     H222535   6.553   0.883   2.719
 5457WAT    EPW22536   6.533   0.837   2.779
 5458WAT      O22537   5.861   0.384   1.219
 5458WAT     H122538   5.781   0.366   1.190
 5458WAT     H222539   5.858   0.469   1.238
 5458WAT    EPW22540   5.849   0.394   1.217
 5459WAT      O22541   5.967   1.071   2.815
 5459WAT     H122542   6.015   1.011   2.774
 5459WAT     H222543   5.932   1.027   2.882
 5459WAT    EPW22544   5.969   1.056   2.819
 5460WAT      O22545   6.626   0.402   1.633
 5460WAT     H122546   6.673   0.329   1.629
 5460WAT     H222547   6.544   0.373   1.626
 5460WAT    EPW22548   6.621   0.387   1.631
 5461WAT      O22549   5.973   0.593   2.717
 5461WAT     H122550   5.893   0.587   2.752
 5461WAT     H222551   5.980   0.678   2.698
 5461WAT    EPW22552   5.962   0.605   2.720
 5462WAT      O22553   5.556   1.214   2.249
 5462WAT     H122554   5.557   1.220   2.336
 5462WAT     H222555   5.513   1.139   2.234
 5462WAT    EPW22556   5.550   1.204   2.260
 5463WAT      O22557   6.247   0.519   1.869
 5463WAT     H122558   6.255   0.553   1.949
 5463WAT     H222559   6.264   0.434   1.881
 5463WAT    EPW22560   6.251   0.511   1.882
 5464WAT      O22561   6.000   0.446   1.825
 5464WAT     H122562   5.970   0.414   1.901
 5464WAT     H222563   6.069   0.493   1.849
 5464WAT    EPW22564   6.006   0.448   1.840
 5465WAT      O22565   6.022   0.858   2.628
 5465WAT     H122566   6.091   0.846   2.681
 5465WAT     H222567   6.035   0.937   2.594
 5465WAT    EPW22568   6.034   0.868   2.631
 5466WAT      O22569   5.232   1.164   2.793
 5466WAT     H122570   5.167   1.107   2.803
 5466WAT     H222571   5.195   1.241   2.808
 5466WAT    EPW22572   5.217   1.167   2.797
 5467WAT      O22573   6.084   0.304   2.985
 5467WAT     H122574   6.116   0.373   2.942
 5467WAT     H222575   6.014   0.336   3.026
 5467WAT    EPW22576   6.078   0.319   2.985
 5468WAT      O22577   6.393   1.142   2.078
 5468WAT     H122578   6.347   1.206   2.116
 5468WAT     H222579   6.463   1.134   2.129
 5468WAT    EPW22580   6.396   1.150   2.091
 5469WAT      O22581   6.063   0.651   2.371
 5469WAT     H122582   5.993   0.691   2.406
 5469WAT     H222583   6.130   0.694   2.405
 5469WAT    EPW22584   6.062   0.663   2.381
 5470WAT      O22585   6.600   0.910   3.029
 5470WAT     H122586   6.678   0.871   3.038
 5470WAT     H222587   6.553   0.876   3.095
 5470WAT    EPW22588   6.605   0.899   3.040
 5471WAT      O22589   6.095   0.810   1.688
 5471WAT     H122590   6.074   0.893   1.672
 5471WAT     H222591   6.017   0.771   1.700
 5471WAT    EPW22592   6.080   0.816   1.688
 5472WAT      O22593   5.087   0.372   2.556
 5472WAT     H122594   5.119   0.394   2.478
 5472WAT     H222595   5.077   0.285   2.550
 5472WAT    EPW22596   5.090   0.362   2.544
 5473WAT      O22597   5.631   0.836   1.329
 5473WAT     H122598   5.675   0.844   1.404
 5473WAT     H222599   5.551   0.814   1.355
 5473WAT    EPW22600   5.626   0.834   1.344
 5474WAT      O22601   5.563   0.301   2.694
 5474WAT     H122602   5.523   0.378   2.702
 5474WAT     H222603   5.522   0.264   2.627
 5474WAT    EPW22604   5.551   0.307   2.686
 5475WAT      O22605   6.491   0.206   2.106
 5475WAT     H122606   6.557   0.260   2.122
 5475WAT     H222607   6.456   0.237   2.032
 5475WAT    EPW22608   6.495   0.219   2.097
 5476WAT      O22609   6.522   1.013   1.687
 5476WAT     H122610   6.504   0.948   1.742
 5476WAT     H222611   6.593   0.986   1.644
 5476WAT    EPW22612   6.530   0.999   1.688
 5477WAT      O22613   5.364   0.743   1.389
 5477WAT     H122614   5.340   0.712   1.467
 5477WAT     H222615   5.361   0.673   1.338
 5477WAT    EPW22616   5.360   0.728   1.393
 5478WAT      O22617   5.646   0.567   1.264
 5478WAT     H122618   5.564   0.541   1.278
 5478WAT     H222619   5.643   0.653   1.282
 5478WAT    EPW22620   5.633   0.576   1.268
 5479WAT      O22621   6.289   0.758   2.456
 5479WAT     H122622   6.310   0.788   2.535
 5479WAT     H222623   6.283   0.830   2.407
 5479WAT    EPW22624   6.291   0.773   2.460
 5480WAT      O22625   6.243   1.180   2.880
 5480WAT     H122626   6.167   1.178   2.836
 5480WAT     H222627   6.260   1.265   2.889
 5480WAT    EPW22628   6.234   1.192   2.875
 5481WAT      O22629   6.771   0.622   2.401
 5481WAT     H122630   6.767   0.536   2.388
 5481WAT     H222631   6.701   0.652   2.358
 5481WAT    EPW22632   6.760   0.614   2.393
 5482WAT      O22633   5.610   1.142   2.822
 5482WAT     H122634   5.614   1.155   2.908
 5482WAT     H222635   5.675   1.086   2.806
 5482WAT    EPW22636   5.620   1.136   2.833
 5483WAT      O22637   6.581   0.948   2.281
 5483WAT     H122638   6.634   0.940   2.212
 5483WAT     H222639   6.542   0.870   2.287
 5483WAT    EPW22640   6.583   0.935   2.272
 5484WAT      O22641   5.369   0.980   2.958
 5484WAT     H122642   5.429   1.023   3.005
 5484WAT     H222643   5.333   1.043   2.909
 5484WAT    EPW22644   5.373   0.996   2.958
 5485WAT      O22645   5.162   0.779   2.651
 5485WAT     H122646   5.105   0.821   2.702
 5485WAT     H222647   5.235   0.826   2.660
 5485WAT    EPW22648   5.164   0.792   2.660
 5486WAT      O22649   6.365   0.256   1.607
 5486WAT     H122650   6.372   0.171   1.626
 5486WAT     H222651   6.283   0.265   1.580
 5486WAT    EPW22652   6.354   0.245   1.606
 5487WAT      O22653   5.341   1.106   1.528
 5487WAT     H122654   5.326   1.121   1.444
 5487WAT     H222655   5.427   1.114   1.536
 5487WAT    EPW22656   5.351   1.109   1.517
 5488WAT      O22657   5.757   0.346   1.501
 5488WAT     H122658   5.767   0.359   1.416
 5488WAT     H222659   5.839   0.340   1.531
 5488WAT    EPW22660   5.771   0.347   1.493
 5489WAT      O22661   6.673   1.152   1.249
 5489WAT     H122662   6.737   1.139   1.307
 5489WAT     H222663   6.639   1.073   1.238
 5489WAT    EPW22664   6.678   1.138   1.256
 5490WAT      O22665   6.693   0.394   2.923
 5490WAT     H122666   6.756   0.377   2.980
 5490WAT     H222667   6.734   0.434   2.857
 5490WAT    EPW22668   6.708   0.397   2.921
 5491WAT      O22669   6.281   0.778   1.481
 5491WAT     H122670   6.256   0.766   1.564
 5491WAT     H222671   6.249   0.709   1.439
 5491WAT    EPW22672   6.272   0.766   1.487
 5492WAT      O22673   6.434   0.405   3.058
 5492WAT     H122674   6.521   0.401   3.054
 5492WAT     H222675   6.412   0.447   2.985
 5492WAT    EPW22676   6.444   0.410   3.047
 5493WAT      O22677   5.409   0.987   2.176
 5493WAT     H122678   5.401   0.906   2.145
 5493WAT     H222679   5.365   1.036   2.119
 5493WAT    EPW22680   5.402   0.983   2.163
 5494WAT      O22681   5.969   0.599   1.424
 5494WAT     H122682   6.041   0.565   1.389
 5494WAT     H222683   5.966   0.679   1.390
 5494WAT    EPW22684   5.979   0.606   1.414
 5495WAT      O22685   5.166   1.212   2.534
 5495WAT     H122686   5.216   1.206   2.606
 5495WAT     H222687   5.185   1.138   2.491
 5495WAT    EPW22688   5.177   1.200   2.538
 5496WAT      O22689   5.072   0.842   0.487
 5496WAT     H122690   5.085   0.814   0.568
 5496WAT     H222691   5.011   0.788   0.456
 5496WAT    EPW22692   5.065   0.830   0.494
 5497WAT      O22693   5.729   0.595   0.993
 5497WAT     H122694   5.706   0.595   1.077
 5497WAT     H222695   5.655   0.580   0.951
 5497WAT    EPW22696   5.715   0.593   0.999
 5498WAT      O22697   5.728   0.914   0.720
 5498WAT     H122698   5.741   0.990   0.679
 5498WAT     H222699   5.807   0.878   0.722
 5498WAT    EPW22700   5.741   0.920   0.714
 5499WAT      O22701   6.312   1.095   0.528
 5499WAT     H122702   6.387   1.141   0.527
 5499WAT     H222703   6.300   1.074   0.444
 5499WAT    EPW22704   6.321   1.099   0.515
 5500WAT      O22705   5.512   1.164   0.645
 5500WAT     H122706   5.542   1.158   0.727
 5500WAT     H222707   5.450   1.104   0.640
 5500WAT    EPW22708   5.508   1.155   0.656
 5501WAT      O22709   6.238   0.814   0.898
 5501WAT     H122710   6.234   0.852   0.977
 5501WAT     H222711   6.323   0.809   0.881
 5501WAT    EPW22712   6.250   0.819   0.907
 5502WAT      O22713   5.312   0.981   0.557
 5502WAT     H122714   5.242   0.930   0.570
 5502WAT     H222715   5.338   0.960   0.476
 5502WAT    EPW22716   5.305   0.970   0.547
 5503WAT      O22717   6.083   1.130   0.648
 5503WAT     H122718   6.160   1.122   0.607
 5503WAT     H222719   6.025   1.118   0.584
 5503WAT    EPW22720   6.086   1.127   0.633
 5504WAT      O22721   5.448   0.866   0.814
 5504WAT     H122722   5.532   0.872   0.791
 5504WAT     H222723   5.444   0.905   0.891
 5504WAT    EPW22724   5.460   0.873   0.822
 5505WAT      O22725   5.644   0.417   0.289
 5505WAT     H122726   5.661   0.396   0.371
 5505WAT     H222727   5.579   0.363   0.267
 5505WAT    EPW22728   5.637   0.406   0.298
 5506WAT      O22729   5.719   0.411   0.548
 5506WAT     H122730   5.724   0.495   0.568
 5506WAT     H222731   5.691   0.374   0.621
 5506WAT    EPW22732   5.716   0.418   0.561
 5507WAT      O22733   6.337   0.480   0.461
 5507WAT     H122734   6.285   0.439   0.518
 5507WAT     H222735   6.324   0.565   0.479
 5507WAT    EPW22736   6.327   0.487   0.472
 5508WAT      O22737   5.001   0.848   1.169
 5508WAT     H122738   5.077   0.883   1.194
 5508WAT     H222739   5.019   0.762   1.163
 5508WAT    EPW22740   5.015   0.840   1.172
 5509WAT      O22741   6.886   0.975   0.899
 5509WAT     H122742   6.817   1.006   0.854
 5509WAT     H222743   6.849   0.929   0.963
 5509WAT    EPW22744   6.870   0.973   0.902
 5510WAT      O22745   5.472   0.647   0.339
 5510WAT     H122746   5.519   0.676   0.406
 5510WAT     H222747   5.530   0.599   0.293
 5510WAT    EPW22748   5.488   0.644   0.342
 5511WAT      O22749   6.669   1.013   0.708
 5511WAT     H122750   6.602   1.065   0.729
 5511WAT     H222751   6.675   1.023   0.621
 5511WAT    EPW22752   6.660   1.022   0.698
 5512WAT      O22753   5.869   1.088   0.467
 5512WAT     H122754   5.841   1.024   0.415
 5512WAT     H222755   5.848   1.161   0.423
 5512WAT    EPW22756   5.861   1.089   0.453
 5513WAT      O22757   5.238   0.346   1.084
 5513WAT     H122758   5.235   0.396   1.013
 5513WAT     H222759   5.272   0.271   1.054
 5513WAT    EPW22760   5.243   0.342   1.069
 5514WAT      O22761   6.399   0.566   0.910
 5514WAT     H122762   6.447   0.638   0.920
 5514WAT     H222763   6.438   0.524   0.845
 5514WAT    EPW22764   6.412   0.571   0.902
 5515WAT      O22765   5.828   0.851   1.027
 5515WAT     H122766   5.864   0.833   1.105
 5515WAT     H222767   5.785   0.778   1.008
 5515WAT    EPW22768   5.827   0.837   1.036
 5516WAT      O22769   6.246   0.936   0.301
 5516WAT     H122770   6.186   0.906   0.245
 5516WAT     H222771   6.301   0.981   0.250
 5516WAT    EPW22772   6.245   0.938   0.285
 5517WAT      O22773   6.247   0.621   0.241
 5517WAT     H122774   6.168   0.644   0.269
 5517WAT     H222775   6.273   0.562   0.300
 5517WAT    EPW22776   6.239   0.616   0.254
 5518WAT      O22777   6.573   0.421   0.726
 5518WAT     H122778   6.579   0.433   0.640
 5518WAT     H222779   6.649   0.453   0.756
 5518WAT    EPW22780   6.585   0.427   0.717
 5519WAT      O22781   6.193   0.956   1.153
 5519WAT     H122782   6.209   0.984   1.234
 5519WAT     H222783   6.219   1.022   1.103
 5519WAT    EPW22784   6.199   0.970   1.158
 5520WAT      O22785   6.147   0.402   0.686
 5520WAT     H122786   6.131   0.463   0.746
 5520WAT     H222787   6.200   0.346   0.726
 5520WAT    EPW22788   6.152   0.402   0.701
 5521WAT      O22789   6.508   0.674   0.338
 5521WAT     H122790   6.460   0.704   0.272
 5521WAT     H222791   6.472   0.597   0.356
 5521WAT    EPW22792   6.495   0.667   0.331
 5522WAT      O22793   5.907   0.446   0.195
 5522WAT     H122794   5.823   0.427   0.203
 5522WAT     H222795   5.940   0.430   0.274
 5522WAT    EPW22796   5.899   0.441   0.208
 5523WAT      O22797   5.292   0.416   0.426
 5523WAT     H122798   5.364   0.464   0.423
 5523WAT     H222799   5.265   0.413   0.343
 5523WAT    EPW22800   5.299   0.422   0.413
 5524WAT      O22801   6.601   0.369   0.450
 5524WAT     H122802   6.600   0.291   0.490
 5524WAT     H222803   6.517   0.392   0.450
 5524WAT    EPW22804   6.588   0.361   0.456
 5525WAT      O22805   5.232   0.521   0.854
 5525WAT     H122806   5.189   0.469   0.798
 5525WAT     H222807   5.196   0.599   0.840
 5525WAT    EPW22808   5.220   0.525   0.844
 5526WAT      O22809   6.726   0.376   0.194
 5526WAT     H122810   6.698   0.416   0.266
 5526WAT     H222811   6.812   0.370   0.207
 5526WAT    EPW22812   6.735   0.381   0.207
 5527WAT      O22813   6.839   0.939   0.247
 5527WAT     H122814   6.868   0.965   0.169
 5527WAT     H222815   6.909   0.949   0.299
 5527WAT    EPW22816   6.854   0.944   0.243
 5528WAT      O22817   6.838   0.211   1.166
 5528WAT     H122818   6.833   0.177   1.086
 5528WAT     H222819   6.912   0.258   1.163
 5528WAT    EPW22820   6.848   0.213   1.153
 5529WAT      O22821   6.792   0.579   0.786
 5529WAT     H122822   6.855   0.524   0.761
 5529WAT     H222823   6.786   0.635   0.720
 5529WAT    EPW22824   6.800   0.579   0.773
 5530WAT      O22825   5.705   0.702   0.516
 5530WAT     H122826   5.676   0.761   0.573
 5530WAT     H222827   5.711   0.746   0.441
 5530WAT    EPW22828   5.702   0.717   0.513
 5531WAT      O22829   5.503   0.597   0.856
 5531WAT     H122830   5.423   0.568   0.872
 5531WAT     H222831   5.494   0.684   0.856
 5531WAT    EPW22832   5.490   0.605   0.858
 5532WAT      O22833   5.957   0.344   0.465
 5532WAT     H122834   6.005   0.382   0.528
 5532WAT     H222835   5.875   0.358   0.491
 5532WAT    EPW22836   5.952   0.352   0.478
 5533WAT      O22837   5.702   0.906   0.327
 5533WAT     H122838   5.639   0.964   0.308
 5533WAT     H222839   5.727   0.878   0.248
 5533WAT    EPW22840   5.696   0.911   0.312
 5534WAT      O22841   6.133   0.570   1.026
 5534WAT     H122842   6.208   0.598   0.993
 5534WAT     H222843   6.078   0.575   0.958
 5534WAT    EPW22844   6.136   0.575   1.011
 5535WAT      O22845   6.524   0.825   0.876
 5535WAT     H122846   6.558   0.852   0.951
 5535WAT     H222847   6.553   0.883   0.818
 5535WAT    EPW22848   6.533   0.837   0.879
 5536WAT      O22849   5.967   1.071   0.915
 5536WAT     H122850   6.015   1.011   0.873
 5536WAT     H222851   5.932   1.027   0.981
 5536WAT    EPW22852   5.969   1.056   0.918
 5537WAT      O22853   5.973   0.593   0.817
 5537WAT     H122854   5.893   0.587   0.852
 5537WAT     H222855   5.980   0.678   0.797
 5537WAT    EPW22856   5.962   0.605   0.819
 5538WAT      O22857   5.556   1.214   0.348
 5538WAT     H122858   5.557   1.220   0.435
 5538WAT     H222859   5.513   1.139   0.333
 5538WAT    EPW22860   5.550   1.204   0.359
 5539WAT      O22861   6.022   0.858   0.727
 5539WAT     H122862   6.091   0.846   0.780
 5539WAT     H222863   6.035   0.937   0.693
 5539WAT    EPW22864   6.034   0.868   0.730
 5540WAT      O22865   5.232   1.164   0.893
 5540WAT     H122866   5.167   1.107   0.902
 5540WAT     H222867   5.195   1.241   0.908
 5540WAT    EPW22868   5.217   1.167   0.896
 5541WAT      O22869   6.084   0.304   1.085
 5541WAT     H122870   6.116   0.373   1.042
 5541WAT     H222871   6.014   0.336   1.125
 5541WAT    EPW22872   6.078   0.319   1.084
 5542WAT      O22873   6.393   1.142   0.178
 5542WAT     H122874   6.347   1.206   0.216
 5542WAT     H222875   6.463   1.134   0.228
 5542WAT    EPW22876   6.396   1.150   0.191
 5543WAT      O22877   6.063   0.651   0.471
 5543WAT     H122878   5.993   0.691   0.505
 5543WAT     H222879   6.130   0.694   0.505
 5543WAT    EPW22880   6.062   0.663   0.481
 5544WAT      O22881   6.600   0.910   1.129
 5544WAT     H122882   6.678   0.871   1.137
 5544WAT     H222883   6.553   0.876   1.194
 5544WAT    EPW22884   6.605   0.899   1.140
 5545WAT      O22885   5.087   0.372   0.655
 5545WAT     H122886   5.119   0.394   0.577
 5545WAT     H222887   5.077   0.285   0.650
 5545WAT    EPW22888   5.090   0.362   0.643
 5546WAT      O22889   5.563   0.301   0.794
 5546WAT     H122890   5.523   0.378   0.801
 5546WAT     H222891   5.522   0.264   0.726
 5546WAT    EPW22892   5.551   0.307   0.785
 5547WAT      O22893   6.289   0.758   0.555
 5547WAT     H122894   6.310   0.788   0.634
 5547WAT     H222895   6.283   0.830   0.507
 5547WAT    EPW22896   6.291   0.773   0.560
 5548WAT      O22897   6.243   1.180   0.980
 5548WAT     H122898   6.167   1.178   0.936
 5548WAT     H222899   6.260   1.265   0.988
 5548WAT    EPW22900   6.234   1.192   0.974
 5549WAT      O22901   6.771   0.622   0.501
 5549WAT     H122902   6.767   0.536   0.487
 5549WAT     H222903   6.701   0.652   0.457
 5549WAT    EPW22904   6.760   0.614   0.492
 5550WAT      O22905   5.610   1.142   0.921
 5550WAT     H122906   5.614   1.155   1.008
 5550WAT     H222907   5.675   1.086   0.906
 5550WAT    EPW22908   5.620   1.136   0.932
 5551WAT      O22909   6.581   0.948   0.381
 5551WAT     H122910   6.634   0.940   0.311
 5551WAT     H222911   6.542   0.870   0.386
 5551WAT    EPW22912   6.583   0.935   0.371
 5552WAT      O22913   5.369   0.980   1.057
 5552WAT     H122914   5.429   1.023   1.105
 5552WAT     H222915   5.333   1.043   1.009
 5552WAT    EPW22916   5.373   0.996   1.057
 5553WAT      O22917   5.162   0.779   0.750
 5553WAT     H122918   5.105   0.821   0.801
 5553WAT     H222919   5.235   0.826   0.760
 5553WAT    EPW22920   5.164   0.792   0.759
 5554WAT      O22921   6.693   0.394   1.022
 5554WAT     H122922   6.756   0.377   1.079
 5554WAT     H222923   6.734   0.434   0.957
 5554WAT    EPW22924   6.708   0.397   1.021
 5555WAT      O22925   6.434   0.405   1.157
 5555WAT     H122926   6.521   0.401   1.154
 5555WAT     H222927   6.412   0.447   1.084
 5555WAT    EPW22928   6.444   0.410   1.146
 5556WAT      O22929   5.409   0.987   0.276
 5556WAT     H122930   5.401   0.906   0.244
 5556WAT     H222931   5.365   1.036   0.218
 5556WAT    EPW22932   5.402   0.983   0.262
 5557WAT      O22933   5.166   1.212   0.634
 5557WAT     H122934   5.216   1.206   0.705
 5557WAT     H222935   5.185   1.138   0.590
 5557WAT    EPW22936   5.177   1.200   0.638
 5558WAT      O22937   4.224   6.855   7.451
 5558WAT     H122938   4.199   6.903   7.383
 5558WAT     H222939   4.310   6.847   7.441
 5558WAT    EPW22940   4.233   6.861   7.439
 5559WAT      O22941   3.166   7.339   7.114
 5559WAT     H122942   3.088   7.356   7.078
 5559WAT     H222943   3.170   7.252   7.116
 5559WAT    EPW22944   3.155   7.329   7.109
 5560WAT      O22945   3.480   7.866   6.981
 5560WAT     H122946   3.441   7.829   6.913
 5560WAT     H222947   3.472   7.806   7.044
 5560WAT    EPW22948   3.473   7.851   6.981
 5561WAT      O22949   4.472   7.653   7.586
 5561WAT     H122950   4.480   7.653   7.499
 5561WAT     H222951   4.413   7.590   7.600
 5561WAT    EPW22952   4.464   7.644   7.575
 5562WAT      O22953   3.871   6.963   7.366
 5562WAT     H122954   3.864   7.031   7.312
 5562WAT     H222955   3.945   6.924   7.341
 5562WAT    EPW22956   3.881   6.968   7.355
 5563WAT      O22957   3.330   7.686   7.509
 5563WAT     H122958   3.284   7.647   7.447
 5563WAT     H222959   3.400   7.634   7.518
 5563WAT    EPW22960   3.334   7.672   7.501
 5564WAT      O22961   3.530   7.496   7.512
 5564WAT     H122962   3.612   7.477   7.536
 5564WAT     H222963   3.483   7.434   7.551
 5564WAT    EPW22964   3.535   7.484   7.521
 5565WAT      O22965   3.590   7.005   7.438
 5565WAT     H122966   3.560   7.055   7.373
 5565WAT     H222967   3.677   7.013   7.432
 5565WAT    EPW22968   3.598   7.014   7.428
 5566WAT      O22969   3.888   6.919   7.660
 5566WAT     H122970   3.895   7.005   7.673
 5566WAT     H222971   3.884   6.912   7.574
 5566WAT    EPW22972   3.888   6.931   7.650
 5567WAT      O22973   4.355   7.212   6.890
 5567WAT     H122974   4.310   7.280   6.921
 5567WAT     H222975   4.367   7.162   6.961
 5567WAT    EPW22976   4.350   7.215   6.905
 5568WAT      O22977   3.176   7.462   7.811
 5568WAT     H122978   3.150   7.545   7.803
 5568WAT     H222979   3.109   7.424   7.852
 5568WAT    EPW22980   3.162   7.468   7.816
 5569WAT      O22981   4.895   7.209   7.520
 5569WAT     H122982   4.860   7.277   7.562
 5569WAT     H222983   4.831   7.149   7.521
 5569WAT    EPW22984   4.880   7.210   7.526
 5570WAT      O22985   4.107   7.373   7.482
 5570WAT     H122986   4.136   7.350   7.403
 5570WAT     H222987   4.180   7.381   7.529
 5570WAT    EPW22988   4.122   7.371   7.477
 5571WAT      O22989   4.179   7.407   6.994
 5571WAT     H122990   4.207   7.486   7.019
 5571WAT     H222991   4.101   7.424   6.958
 5571WAT    EPW22992   4.172   7.421   6.992
 5572WAT      O22993   4.416   7.014   7.081
 5572WAT     H122994   4.470   6.946   7.089
 5572WAT     H222995   4.422   7.054   7.158
 5572WAT    EPW22996   4.425   7.010   7.094
 5573WAT      O22997   3.211   7.131   7.338
 5573WAT     H122998   3.200   7.044   7.341
 5573WAT     H222999   3.164   7.160   7.405
 5573WAT    EPW23000   3.202   7.122   7.348
 5574WAT      O23001   4.141   7.252   7.212
 5574WAT     H123002   4.091   7.185   7.187
 5574WAT     H223003   4.147   7.302   7.141
 5574WAT    EPW23004   4.135   7.249   7.198
 5575WAT      O23005   4.141   6.946   7.202
 5575WAT     H123006   4.096   6.906   7.139
 5575WAT     H223007   4.219   6.961   7.164
 5575WAT    EPW23008   4.146   6.942   7.187
 5576WAT      O23009   4.001   7.182   7.654
 5576WAT     H123010   4.009   7.239   7.588
 5576WAT     H223011   4.013   7.232   7.725
 5576WAT    EPW23012   4.004   7.198   7.655
 5577WAT      O23013   3.462   6.765   7.489
 5577WAT     H123014   3.516   6.834   7.488
 5577WAT     H223015   3.462   6.737   7.406
 5577WAT    EPW23016   3.470   6.771   7.476
 5578WAT      O23017   4.506   6.794   7.526
 5578WAT     H123018   4.511   6.762   7.607
 5578WAT     H223019   4.538   6.729   7.477
 5578WAT    EPW23020   4.512   6.780   7.531
 5579WAT      O23021   3.507   7.146   7.654
 5579WAT     H123022   3.534   7.103   7.583
 5579WAT     H223023   3.489   7.082   7.711
 5579WAT    EPW23024   3.508   7.130   7.652
 5580WAT      O23025   4.565   7.569   7.034
 5580WAT     H123026   4.543   7.642   6.992
 5580WAT     H223027   4.520   7.574   7.109
 5580WAT    EPW23028   4.555   7.580   7.039
 5581WAT      O23029   4.984   7.055   6.980
 5581WAT     H123030   4.918   6.998   6.982
 5581WAT     H223031   4.965   7.106   6.912
 5581WAT    EPW23032   4.971   7.054   6.970
 5582WAT      O23033   3.148   7.722   7.275
 5582WAT     H123034   3.130   7.638   7.290
 5582WAT     H223035   3.214   7.718   7.218
 5582WAT    EPW23036   3.155   7.709   7.268
 5583WAT      O23037   4.784   7.011   7.207
 5583WAT     H123038   4.859   6.970   7.227
 5583WAT     H223039   4.810   7.082   7.165
 5583WAT    EPW23040   4.799   7.015   7.204
 5584WAT      O23041   4.429   7.240   7.715
 5584WAT     H123042   4.464   7.255   7.793
 5584WAT     H223043   4.384   7.166   7.726
 5584WAT    EPW23044   4.428   7.231   7.728
 5585WAT      O23045   3.877   7.162   7.160
 5585WAT     H123046   3.877   7.150   7.074
 5585WAT     H223047   3.859   7.246   7.170
 5585WAT    EPW23048   3.874   7.172   7.149
 5586WAT      O23049   3.512   7.445   7.124
 5586WAT     H123050   3.500   7.400   7.198
 5586WAT     H223051   3.454   7.411   7.069
 5586WAT    EPW23052   3.502   7.433   7.127
 5587WAT      O23053   3.529   7.628   7.784
 5587WAT     H123054   3.451   7.622   7.745
 5587WAT     H223055   3.536   7.553   7.827
 5587WAT    EPW23056   3.519   7.616   7.785
 5588WAT      O23057   4.381   7.170   7.321
 5588WAT     H123058   4.430   7.241   7.314
 5588WAT     H223059   4.302   7.196   7.295
 5588WAT    EPW23060   4.376   7.184   7.316
 5589WAT      O23061   4.258   7.634   7.121
 5589WAT     H123062   4.257   7.706   7.072
 5589WAT     H223063   4.194   7.647   7.179
 5589WAT    EPW23064   4.248   7.646   7.122
 5590WAT      O23065   3.717   6.868   7.087
 5590WAT     H123066   3.727   6.857   7.173
 5590WAT     H223067   3.646   6.918   7.081
 5590WAT    EPW23068   3.708   6.874   7.099
 5591WAT      O23069   3.429   7.699   7.212
 5591WAT     H123070   3.462   7.621   7.189
 5591WAT     H223071   3.494   7.735   7.257
 5591WAT    EPW23072   3.444   7.692   7.215
 5592WAT      O23073   3.129   6.865   7.308
 5592WAT     H123074   3.142   6.794   7.259
 5592WAT     H223075   3.092   6.833   7.381
 5592WAT    EPW23076   3.126   6.849   7.312
 5593WAT      O23077   4.098   7.633   7.354
 5593WAT     H123078   4.104   7.698   7.412
 5593WAT     H223079   4.080   7.563   7.403
 5593WAT    EPW23080   4.097   7.632   7.370
 5594WAT      O23081   3.548   7.084   7.005
 5594WAT     H123082   3.497   7.090   6.935
 5594WAT     H223083   3.626   7.108   6.976
 5594WAT    EPW23084   3.552   7.089   6.990
 5595WAT      O23085   4.021   7.837   7.797
 5595WAT     H123086   3.936   7.818   7.805
 5595WAT     H223087   4.053   7.821   7.876
 5595WAT    EPW23088   4.013   7.832   7.810
 5596WAT      O23089   3.729   7.324   7.702
 5596WAT     H123090   3.813   7.305   7.712
 5596WAT     H223091   3.692   7.246   7.688
 5596WAT    EPW23092   3.736   7.310   7.702
 5597WAT      O23093   3.211   7.458   7.368
 5597WAT     H123094   3.260   7.428   7.434
 5597WAT     H223095   3.224   7.398   7.305
 5597WAT    EPW23096   3.220   7.445   7.368
 5598WAT      O23097   3.663   7.601   6.916
 5598WAT     H123098   3.602   7.561   6.964
 5598WAT     H223099   3.625   7.613   6.839
 5598WAT    EPW23100   3.648   7.597   6.912
 5599WAT      O23101   4.840   7.767   7.797
 5599WAT     H123102   4.811   7.807   7.869
 5599WAT     H223103   4.926   7.761   7.809
 5599WAT    EPW23104   4.848   7.772   7.809
 5600WAT      O23105   3.809   7.447   7.187
 5600WAT     H123106   3.836   7.530   7.194
 5600WAT     H223107   3.722   7.455   7.178
 5600WAT    EPW23108   3.800   7.460   7.187
 5601WAT      O23109   3.157   7.044   7.841
 5601WAT     H123110   3.161   7.079   7.761
 5601WAT     H223111   3.232   7.068   7.878
 5601WAT    EPW23112   3.168   7.053   7.835
 5602WAT      O23113   4.662   7.374   7.614
 5602WAT     H123114   4.587   7.342   7.645
 5602WAT     H223115   4.662   7.457   7.642
 5602WAT    EPW23116   4.651   7.381   7.622
 5603WAT      O23117   4.823   7.430   7.012
 5603WAT     H123118   4.861   7.498   6.972
 5603WAT     H223119   4.739   7.453   7.015
 5603WAT    EPW23120   4.816   7.444   7.007
 5604WAT      O23121   3.975   7.775   6.921
 5604WAT     H123122   3.894   7.757   6.892
 5604WAT     H223123   3.971   7.860   6.940
 5604WAT    EPW23124   3.962   7.785   6.919
 5605WAT      O23125   4.593   7.390   7.350
 5605WAT     H123126   4.614   7.370   7.432
 5605WAT     H223127   4.668   7.417   7.316
 5605WAT    EPW23128   4.607   7.391   7.357
 5606WAT      O23129   4.695   6.999   7.497
 5606WAT     H123130   4.624   6.952   7.514
 5606WAT     H223131   4.679   7.033   7.419
 5606WAT    EPW23132   4.682   6.997   7.488
 5607WAT      O23133   4.739   7.793   7.335
 5607WAT     H123134   4.787   7.720   7.330
 5607WAT     H223135   4.657   7.764   7.328
 5607WAT    EPW23136   4.734   7.778   7.333
 5608WAT      O23137   3.485   7.194   7.266
 5608WAT     H123138   3.498   7.162   7.187
 5608WAT     H223139   3.404   7.170   7.286
 5608WAT    EPW23140   3.475   7.186   7.258
 5609WAT      O23141   4.816   7.504   7.279
 5609WAT     H123142   4.827   7.499   7.193
 5609WAT     H223143   4.890   7.471   7.311
 5609WAT    EPW23144   4.829   7.499   7.271
 5610WAT      O23145   3.346   7.357   6.920
 5610WAT     H123146   3.279   7.358   6.975
 5610WAT     H223147   3.355   7.272   6.901
 5610WAT    EPW23148   3.337   7.344   6.925
 5611WAT      O23149   4.214   7.018   7.679
 5611WAT     H123150   4.144   7.070   7.673
 5611WAT     H223151   4.218   6.980   7.600
 5611WAT    EPW23152   4.204   7.020   7.666
 5612WAT      O23153   4.604   7.598   7.808
 5612WAT     H123154   4.671   7.652   7.824
 5612WAT     H223155   4.570   7.629   7.734
 5612WAT    EPW23156   4.609   7.610   7.799
 5613WAT      O23157   3.960   6.823   6.962
 5613WAT     H123158   3.967   6.847   6.879
 5613WAT     H223159   3.885   6.860   6.988
 5613WAT    EPW23160   3.950   6.832   6.953
 5614WAT      O23161   4.282   7.465   7.653
 5614WAT     H123162   4.337   7.404   7.683
 5614WAT     H223163   4.239   7.491   7.725
 5614WAT    EPW23164   4.284   7.459   7.668
 5615WAT      O23165   3.307   7.330   7.602
 5615WAT     H123166   3.270   7.360   7.675
 5615WAT     H223167   3.360   7.267   7.630
 5615WAT    EPW23168   3.309   7.325   7.617
 5616WAT      O23169   4.479   7.648   7.309
 5616WAT     H123170   4.486   7.563   7.327
 5616WAT     H223171   4.397   7.656   7.282
 5616WAT    EPW23172   4.468   7.636   7.308
 5617WAT      O23173   3.871   7.737   7.203
 5617WAT     H123174   3.881   7.751   7.118
 5617WAT     H223175   3.953   7.731   7.233
 5617WAT    EPW23176   3.884   7.738   7.195
 5618WAT      O23177   4.224   6.855   5.550
 5618WAT     H123178   4.199   6.903   5.482
 5618WAT     H223179   4.310   6.847   5.540
 5618WAT    EPW23180   4.233   6.861   5.539
 5619WAT      O23181   4.205   7.546   6.017
 5619WAT     H123182   4.152   7.606   6.054
 5619WAT     H223183   4.244   7.509   6.086
 5619WAT    EPW23184   4.203   7.550   6.033
 5620WAT      O23185   3.166   7.339   5.214
 5620WAT     H123186   3.088   7.356   5.178
 5620WAT     H223187   3.170   7.252   5.216
 5620WAT    EPW23188   3.155   7.329   5.209
 5621WAT      O23189   3.480   7.866   5.081
 5621WAT     H123190   3.441   7.829   5.012
 5621WAT     H223191   3.472   7.806   5.144
 5621WAT    EPW23192   3.473   7.851   5.080
 5622WAT      O23193   4.472   7.653   5.685
 5622WAT     H123194   4.480   7.653   5.598
 5622WAT     H223195   4.413   7.590   5.700
 5622WAT    EPW23196   4.464   7.644   5.674
 5623WAT      O23197   3.871   6.963   5.466
 5623WAT     H123198   3.864   7.031   5.411
 5623WAT     H223199   3.945   6.924   5.441
 5623WAT    EPW23200   3.881   6.968   5.454
 5624WAT      O23201   3.330   7.686   5.609
 5624WAT     H123202   3.284   7.647   5.546
 5624WAT     H223203   3.400   7.634   5.618
 5624WAT    EPW23204   3.334   7.672   5.601
 5625WAT      O23205   3.781   7.247   6.143
 5625WAT     H123206   3.849   7.249   6.088
 5625WAT     H223207   3.776   7.163   6.168
 5625WAT    EPW23208   3.790   7.235   6.139
 5626WAT      O23209   3.530   7.496   5.611
 5626WAT     H123210   3.612   7.477   5.635
 5626WAT     H223211   3.483   7.434   5.650
 5626WAT    EPW23212   3.535   7.484   5.620
 5627WAT      O23213   4.153   7.452   6.627
 5627WAT     H123214   4.068   7.442   6.609
 5627WAT     H223215   4.156   7.526   6.672
 5627WAT    EPW23216   4.141   7.461   6.631
 5628WAT      O23217   3.590   7.005   5.537
 5628WAT     H123218   3.560   7.055   5.472
 5628WAT     H223219   3.677   7.013   5.532
 5628WAT    EPW23220   3.598   7.014   5.527
 5629WAT      O23221   4.609   6.748   6.538
 5629WAT     H123222   4.593   6.825   6.500
 5629WAT     H223223   4.532   6.726   6.573
 5629WAT    EPW23224   4.595   6.756   6.538
 5630WAT      O23225   3.888   6.919   5.760
 5630WAT     H123226   3.895   7.005   5.773
 5630WAT     H223227   3.884   6.912   5.673
 5630WAT    EPW23228   3.888   6.931   5.749
 5631WAT      O23229   4.355   7.212   4.990
 5631WAT     H123230   4.310   7.280   5.020
 5631WAT     H223231   4.367   7.162   5.060
 5631WAT    EPW23232   4.350   7.215   5.005
 5632WAT      O23233   3.176   7.462   5.910
 5632WAT     H123234   3.150   7.545   5.902
 5632WAT     H223235   3.109   7.424   5.952
 5632WAT    EPW23236   3.162   7.468   5.915
 5633WAT      O23237   3.479   6.944   5.959
 5633WAT     H123238   3.427   6.881   5.928
 5633WAT     H223239   3.538   6.900   6.006
 5633WAT    EPW23240   3.480   6.928   5.961
 5634WAT      O23241   3.809   7.157   6.889
 5634WAT     H123242   3.821   7.111   6.815
 5634WAT     H223243   3.838   7.237   6.868
 5634WAT    EPW23244   3.815   7.162   6.875
 5635WAT      O23245   4.895   7.209   5.619
 5635WAT     H123246   4.860   7.277   5.662
 5635WAT     H223247   4.831   7.149   5.621
 5635WAT    EPW23248   4.880   7.210   5.626
 5636WAT      O23249   3.383   7.117   6.787
 5636WAT     H123250   3.305   7.078   6.780
 5636WAT     H223251   3.432   7.075   6.728
 5636WAT    EPW23252   3.378   7.105   6.777
 5637WAT      O23253   4.047   6.881   6.704
 5637WAT     H123254   4.065   6.800   6.676
 5637WAT     H223255   4.033   6.925   6.630
 5637WAT    EPW23256   4.048   6.875   6.689
 5638WAT      O23257   4.107   7.373   5.581
 5638WAT     H123258   4.136   7.350   5.502
 5638WAT     H223259   4.180   7.381   5.628
 5638WAT    EPW23260   4.122   7.371   5.577
 5639WAT      O23261   4.179   7.407   5.093
 5639WAT     H123262   4.207   7.486   5.118
 5639WAT     H223263   4.101   7.424   5.057
 5639WAT    EPW23264   4.172   7.421   5.092
 5640WAT      O23265   4.862   7.042   6.156
 5640WAT     H123266   4.938   7.049   6.113
 5640WAT     H223267   4.868   6.964   6.196
 5640WAT    EPW23268   4.874   7.031   6.156
 5641WAT      O23269   3.117   7.171   6.546
 5641WAT     H123270   3.117   7.230   6.610
 5641WAT     H223271   3.177   7.203   6.490
 5641WAT    EPW23272   3.126   7.185   6.547
 5642WAT      O23273   4.416   7.014   5.180
 5642WAT     H123274   4.470   6.946   5.188
 5642WAT     H223275   4.422   7.054   5.258
 5642WAT    EPW23276   4.425   7.010   5.193
 5643WAT      O23277   3.211   7.131   5.437
 5643WAT     H123278   3.200   7.044   5.440
 5643WAT     H223279   3.164   7.160   5.504
 5643WAT    EPW23280   3.202   7.122   5.448
 5644WAT      O23281   4.141   7.252   5.312
 5644WAT     H123282   4.091   7.185   5.286
 5644WAT     H223283   4.147   7.302   5.241
 5644WAT    EPW23284   4.135   7.249   5.298
 5645WAT      O23285   4.141   6.946   5.301
 5645WAT     H123286   4.096   6.906   5.238
 5645WAT     H223287   4.219   6.961   5.263
 5645WAT    EPW23288   4.146   6.942   5.286
 5646WAT      O23289   4.001   7.182   5.753
 5646WAT     H123290   4.009   7.239   5.687
 5646WAT     H223291   4.013   7.232   5.824
 5646WAT    EPW23292   4.004   7.198   5.754
 5647WAT      O23293   3.462   6.765   5.588
 5647WAT     H123294   3.516   6.834   5.587
 5647WAT     H223295   3.462   6.737   5.505
 5647WAT    EPW23296   3.470   6.771   5.575
 5648WAT      O23297   3.758   7.808   5.990
 5648WAT     H123298   3.775   7.787   6.073
 5648WAT     H223299   3.692   7.755   5.969
 5648WAT    EPW23300   3.751   7.797   5.999
 5649WAT      O23301   4.380   7.199   6.342
 5649WAT     H123302   4.371   7.231   6.422
 5649WAT     H223303   4.321   7.136   6.338
 5649WAT    EPW23304   4.370   7.195   6.353
 5650WAT      O23305   4.752   7.217   6.456
 5650WAT     H123306   4.830   7.195   6.490
 5650WAT     H223307   4.705   7.239   6.526
 5650WAT    EPW23308   4.757   7.217   6.472
 5651WAT      O23309   3.507   7.146   5.753
 5651WAT     H123310   3.534   7.103   5.682
 5651WAT     H223311   3.489   7.082   5.810
 5651WAT    EPW23312   3.508   7.130   5.751
 5652WAT      O23313   3.321   7.256   6.061
 5652WAT     H123314   3.405   7.278   6.057
 5652WAT     H223315   3.282   7.313   6.008
 5652WAT    EPW23316   3.328   7.268   6.053
 5653WAT      O23317   4.565   7.569   5.134
 5653WAT     H123318   4.543   7.642   5.091
 5653WAT     H223319   4.520   7.574   5.208
 5653WAT    EPW23320   4.555   7.580   5.138
 5654WAT      O23321   4.984   7.055   5.079
 5654WAT     H123322   4.918   6.998   5.081
 5654WAT     H223323   4.965   7.106   5.011
 5654WAT    EPW23324   4.971   7.054   5.069
 5655WAT      O23325   3.906   7.424   6.873
 5655WAT     H123326   3.858   7.482   6.917
 5655WAT     H223327   3.904   7.454   6.791
 5655WAT    EPW23328   3.899   7.437   6.868
 5656WAT      O23329   5.016   7.493   6.334
 5656WAT     H123330   5.038   7.413   6.307
 5656WAT     H223331   4.931   7.499   6.316
 5656WAT    EPW23332   5.007   7.482   6.328
 5657WAT      O23333   3.148   7.722   5.374
 5657WAT     H123334   3.130   7.638   5.389
 5657WAT     H223335   3.214   7.718   5.317
 5657WAT    EPW23336   3.155   7.709   5.368
 5658WAT      O23337   4.784   7.011   5.307
 5658WAT     H123338   4.859   6.970   5.327
 5658WAT     H223339   4.810   7.082   5.264
 5658WAT    EPW23340   4.799   7.015   5.303
 5659WAT      O23341   4.429   7.240   5.814
 5659WAT     H123342   4.464   7.255   5.893
 5659WAT     H223343   4.384   7.166   5.825
 5659WAT    EPW23344   4.428   7.231   5.827
 5660WAT      O23345   3.877   7.162   5.260
 5660WAT     H123346   3.877   7.150   5.173
 5660WAT     H223347   3.859   7.246   5.269
 5660WAT    EPW23348   3.874   7.172   5.248
 5661WAT      O23349   3.464   7.505   6.709
 5661WAT     H123350   3.410   7.455   6.756
 5661WAT     H223351   3.466   7.466   6.631
 5661WAT    EPW23352   3.456   7.492   6.705
 5662WAT      O23353   3.512   7.445   5.223
 5662WAT     H123354   3.500   7.400   5.297
 5662WAT     H223355   3.454   7.411   5.168
 5662WAT    EPW23356   3.502   7.433   5.226
 5663WAT      O23357   3.529   7.628   5.883
 5663WAT     H123358   3.451   7.622   5.845
 5663WAT     H223359   3.536   7.553   5.927
 5663WAT    EPW23360   3.519   7.616   5.884
 5664WAT      O23361   3.572   7.602   6.230
 5664WAT     H123362   3.575   7.534   6.175
 5664WAT     H223363   3.507   7.651   6.199
 5664WAT    EPW23364   3.563   7.599   6.217
 5665WAT      O23365   4.562   7.373   6.069
 5665WAT     H123366   4.495   7.406   6.116
 5665WAT     H223367   4.580   7.436   6.013
 5665WAT    EPW23368   4.555   7.387   6.068
 5666WAT      O23369   4.226   6.963   6.412
 5666WAT     H123370   4.241   6.881   6.388
 5666WAT     H223371   4.264   6.969   6.491
 5666WAT    EPW23372   4.234   6.952   6.420
 5667WAT      O23373   4.381   7.170   5.421
 5667WAT     H123374   4.430   7.241   5.413
 5667WAT     H223375   4.302   7.196   5.394
 5667WAT    EPW23376   4.376   7.184   5.416
 5668WAT      O23377   3.352   7.737   6.786
 5668WAT     H123378   3.348   7.787   6.714
 5668WAT     H223379   3.385   7.662   6.756
 5668WAT    EPW23380   3.356   7.733   6.771
 5669WAT      O23381   4.039   7.317   5.993
 5669WAT     H123382   4.087   7.387   6.014
 5669WAT     H223383   4.076   7.252   6.038
 5669WAT    EPW23384   4.052   7.318   6.003
 5670WAT      O23385   4.258   7.634   5.220
 5670WAT     H123386   4.257   7.706   5.171
 5670WAT     H223387   4.194   7.647   5.278
 5670WAT    EPW23388   4.248   7.646   5.222
 5671WAT      O23389   4.687   7.812   6.428
 5671WAT     H123390   4.692   7.825   6.341
 5671WAT     H223391   4.762   7.844   6.458
 5671WAT    EPW23392   4.699   7.819   6.419
 5672WAT      O23393   4.790   6.842   6.726
 5672WAT     H123394   4.726   6.802   6.682
 5672WAT     H223395   4.793   6.799   6.802
 5672WAT    EPW23396   4.781   6.830   6.731
 5673WAT      O23397   3.429   7.699   5.311
 5673WAT     H123398   3.462   7.621   5.289
 5673WAT     H223399   3.494   7.735   5.356
 5673WAT    EPW23400   3.444   7.692   5.314
 5674WAT      O23401   4.260   7.793   6.388
 5674WAT     H123402   4.245   7.854   6.448
 5674WAT     H223403   4.313   7.737   6.428
 5674WAT    EPW23404   4.266   7.794   6.402
 5675WAT      O23405   3.129   6.865   5.408
 5675WAT     H123406   3.142   6.794   5.358
 5675WAT     H223407   3.092   6.833   5.480
 5675WAT    EPW23408   3.126   6.849   5.411
 5676WAT      O23409   4.098   7.633   5.453
 5676WAT     H123410   4.104   7.698   5.511
 5676WAT     H223411   4.080   7.563   5.502
 5676WAT    EPW23412   4.097   7.632   5.469
 5677WAT      O23413   3.548   7.084   5.105
 5677WAT     H123414   3.497   7.090   5.034
 5677WAT     H223415   3.626   7.108   5.075
 5677WAT    EPW23416   3.552   7.089   5.090
 5678WAT      O23417   4.021   7.837   5.896
 5678WAT     H123418   3.936   7.818   5.905
 5678WAT     H223419   4.053   7.821   5.976
 5678WAT    EPW23420   4.013   7.832   5.909
 5679WAT      O23421   3.406   7.807   6.128
 5679WAT     H123422   3.478   7.856   6.124
 5679WAT     H223423   3.379   7.804   6.045
 5679WAT    EPW23424   3.412   7.814   6.115
 5680WAT      O23425   3.729   7.324   5.802
 5680WAT     H123426   3.813   7.305   5.811
 5680WAT     H223427   3.692   7.246   5.788
 5680WAT    EPW23428   3.736   7.310   5.801
 5681WAT      O23429   3.211   7.458   5.467
 5681WAT     H123430   3.260   7.428   5.533
 5681WAT     H223431   3.224   7.398   5.404
 5681WAT    EPW23432   3.220   7.445   5.468
 5682WAT      O23433   4.714   7.760   6.152
 5682WAT     H123434   4.713   7.682   6.192
 5682WAT     H223435   4.630   7.783   6.151
 5682WAT    EPW23436   4.702   7.752   6.158
 5683WAT      O23437   3.663   7.601   5.016
 5683WAT     H123438   3.602   7.561   5.063
 5683WAT     H223439   3.625   7.613   4.938
 5683WAT    EPW23440   3.648   7.597   5.011
 5684WAT      O23441   4.840   7.767   5.896
 5684WAT     H123442   4.811   7.807   5.968
 5684WAT     H223443   4.926   7.761   5.909
 5684WAT    EPW23444   4.848   7.772   5.908
 5685WAT      O23445   3.809   7.447   5.287
 5685WAT     H123446   3.836   7.530   5.293
 5685WAT     H223447   3.722   7.455   5.277
 5685WAT    EPW23448   3.800   7.460   5.286
 5686WAT      O23449   4.606   7.159   6.750
 5686WAT     H123450   4.553   7.205   6.802
 5686WAT     H223451   4.570   7.080   6.749
 5686WAT    EPW23452   4.593   7.154   6.757
 5687WAT      O23453   3.157   7.044   5.940
 5687WAT     H123454   3.161   7.079   5.860
 5687WAT     H223455   3.232   7.068   5.977
 5687WAT    EPW23456   3.168   7.053   5.934
 5688WAT      O23457   4.455   7.516   6.757
 5688WAT     H123458   4.462   7.527   6.844
 5688WAT     H223459   4.392   7.572   6.735
 5688WAT    EPW23460   4.447   7.526   6.767
 5689WAT      O23461   4.682   7.548   6.594
 5689WAT     H123462   4.714   7.627   6.614
 5689WAT     H223463   4.645   7.521   6.668
 5689WAT    EPW23464   4.681   7.556   6.608
 5690WAT      O23465   4.662   7.374   5.713
 5690WAT     H123466   4.587   7.342   5.745
 5690WAT     H223467   4.662   7.457   5.741
 5690WAT    EPW23468   4.651   7.381   5.722
 5691WAT      O23469   4.952   7.602   6.867
 5691WAT     H123470   4.947   7.568   6.787
 5691WAT     H223471   5.025   7.649   6.865
 5691WAT    EPW23472   4.962   7.604   6.855
 5692WAT      O23473   4.553   7.007   6.459
 5692WAT     H123474   4.627   7.052   6.453
 5692WAT     H223475   4.496   7.054   6.412
 5692WAT    EPW23476   4.555   7.021   6.451
 5693WAT      O23477   4.071   7.735   6.167
 5693WAT     H123478   4.118   7.773   6.230
 5693WAT     H223479   3.988   7.749   6.193
 5693WAT    EPW23480   4.065   7.743   6.180
 5694WAT      O23481   3.742   7.296   6.441
 5694WAT     H123482   3.758   7.221   6.484
 5694WAT     H223483   3.737   7.271   6.357
 5694WAT    EPW23484   3.743   7.281   6.435
 5695WAT      O23485   4.681   6.805   6.226
 5695WAT     H123486   4.653   6.887   6.222
 5695WAT     H223487   4.753   6.810   6.276
 5695WAT    EPW23488   4.688   6.818   6.233
 5696WAT      O23489   3.917   6.876   6.429
 5696WAT     H123490   3.987   6.908   6.389
 5696WAT     H223491   3.941   6.796   6.452
 5696WAT    EPW23492   3.931   6.869   6.426
 5697WAT      O23493   4.823   7.430   5.112
 5697WAT     H123494   4.861   7.498   5.072
 5697WAT     H223495   4.739   7.453   5.115
 5697WAT    EPW23496   4.816   7.444   5.106
 5698WAT      O23497   3.975   7.775   5.020
 5698WAT     H123498   3.894   7.757   4.991
 5698WAT     H223499   3.971   7.860   5.039
 5698WAT    EPW23500   3.962   7.785   5.019
 5699WAT      O23501   3.568   7.382   6.035
 5699WAT     H123502   3.612   7.371   5.960
 5699WAT     H223503   3.622   7.350   6.095
 5699WAT    EPW23504   3.582   7.376   6.033
 5700WAT      O23505   4.369   7.292   6.594
 5700WAT     H123506   4.304   7.339   6.629
 5700WAT     H223507   4.426   7.283   6.660
 5700WAT    EPW23508   4.368   7.298   6.609
 5701WAT      O23509   4.338   7.446   6.224
 5701WAT     H123510   4.368   7.488   6.294
 5701WAT     H223511   4.342   7.362   6.247
 5701WAT    EPW23512   4.343   7.439   6.238
 5702WAT      O23513   4.593   7.390   5.449
 5702WAT     H123514   4.614   7.370   5.532
 5702WAT     H223515   4.668   7.417   5.415
 5702WAT    EPW23516   4.607   7.391   5.456
 5703WAT      O23517   3.922   6.880   6.040
 5703WAT     H123518   3.840   6.865   6.063
 5703WAT     H223519   3.918   6.884   5.953
 5703WAT    EPW23520   3.910   6.879   6.030
 5704WAT      O23521   4.695   6.999   5.597
 5704WAT     H123522   4.624   6.952   5.614
 5704WAT     H223523   4.679   7.033   5.518
 5704WAT    EPW23524   4.682   6.997   5.587
 5705WAT      O23525   4.739   7.793   5.435
 5705WAT     H123526   4.787   7.720   5.430
 5705WAT     H223527   4.657   7.764   5.427
 5705WAT    EPW23528   4.734   7.778   5.433
 5706WAT      O23529   3.179   6.920   6.643
 5706WAT     H123530   3.165   7.000   6.610
 5706WAT     H223531   3.100   6.896   6.672
 5706WAT    EPW23532   3.165   6.928   6.643
 5707WAT      O23533   3.485   7.194   5.366
 5707WAT     H123534   3.498   7.162   5.286
 5707WAT     H223535   3.404   7.170   5.386
 5707WAT    EPW23536   3.475   7.186   5.357
 5708WAT      O23537   4.953   7.510   6.610
 5708WAT     H123538   4.867   7.498   6.623
 5708WAT     H223539   4.968   7.470   6.534
 5708WAT    EPW23540   4.943   7.502   6.601
 5709WAT      O23541   4.404   7.576   6.468
 5709WAT     H123542   4.379   7.504   6.510
 5709WAT     H223543   4.486   7.588   6.495
 5709WAT    EPW23544   4.413   7.567   6.478
 5710WAT      O23545   4.198   7.695   6.787
 5710WAT     H123546   4.230   7.764   6.743
 5710WAT     H223547   4.127   7.728   6.827
 5710WAT    EPW23548   4.192   7.710   6.786
 5711WAT      O23549   3.483   7.396   6.407
 5711WAT     H123550   3.520   7.457   6.359
 5711WAT     H223551   3.550   7.348   6.436
 5711WAT    EPW23552   3.498   7.398   6.404
 5712WAT      O23553   3.260   7.240   6.335
 5712WAT     H123554   3.268   7.223   6.249
 5712WAT     H223555   3.335   7.281   6.354
 5712WAT    EPW23556   3.273   7.244   6.325
 5713WAT      O23557   4.816   7.504   5.379
 5713WAT     H123558   4.827   7.499   5.292
 5713WAT     H223559   4.890   7.471   5.411
 5713WAT    EPW23560   4.829   7.499   5.371
 5714WAT      O23561   3.516   6.981   6.576
 5714WAT     H123562   3.508   6.897   6.596
 5714WAT     H223563   3.484   6.986   6.495
 5714WAT    EPW23564   3.510   6.970   6.567
 5715WAT      O23565   4.727   7.519   6.314
 5715WAT     H123566   4.726   7.433   6.327
 5715WAT     H223567   4.733   7.551   6.395
 5715WAT    EPW23568   4.728   7.511   6.328
 5716WAT      O23569   3.200   7.763   6.357
 5716WAT     H123570   3.232   7.785   6.279
 5716WAT     H223571   3.190   7.676   6.352
 5716WAT    EPW23572   3.203   7.753   6.345
 5717WAT      O23573   3.346   7.357   5.019
 5717WAT     H123574   3.279   7.358   5.075
 5717WAT     H223575   3.355   7.272   5.001
 5717WAT    EPW23576   3.337   7.344   5.024
 5718WAT      O23577   4.314   6.999   6.693
 5718WAT     H123578   4.324   7.070   6.742
 5718WAT     H223579   4.251   6.954   6.732
 5718WAT    EPW23580   4.306   7.003   6.706
 5719WAT      O23581   4.214   7.018   5.778
 5719WAT     H123582   4.144   7.070   5.772
 5719WAT     H223583   4.218   6.980   5.700
 5719WAT    EPW23584   4.204   7.020   5.766
 5720WAT      O23585   4.574   7.070   6.058
 5720WAT     H123586   4.659   7.079   6.072
 5720WAT     H223587   4.537   7.125   6.114
 5720WAT    EPW23588   4.581   7.079   6.068
 5721WAT      O23589   3.676   7.692   6.496
 5721WAT     H123590   3.637   7.770   6.503
 5721WAT     H223591   3.636   7.655   6.428
 5721WAT    EPW23592   3.665   7.698   6.487
 5722WAT      O23593   4.604   7.598   5.907
 5722WAT     H123594   4.671   7.652   5.923
 5722WAT     H223595   4.570   7.629   5.833
 5722WAT    EPW23596   4.609   7.610   5.899
 5723WAT      O23597   3.719   6.990   6.241
 5723WAT     H123598   3.633   6.998   6.249
 5723WAT     H223599   3.741   6.938   6.308
 5723WAT    EPW23600   3.710   6.984   6.252
 5724WAT      O23601   4.921   6.853   6.374
 5724WAT     H123602   4.916   6.849   6.461
 5724WAT     H223603   4.990   6.803   6.355
 5724WAT    EPW23604   4.931   6.845   6.384
 5725WAT      O23605   4.130   7.065   6.078
 5725WAT     H123606   4.056   7.019   6.089
 5725WAT     H223607   4.187   7.024   6.130
 5725WAT    EPW23608   4.127   7.052   6.087
 5726WAT      O23609   3.880   7.498   6.598
 5726WAT     H123610   3.848   7.440   6.541
 5726WAT     H223611   3.844   7.573   6.574
 5726WAT    EPW23612   3.870   7.500   6.586
 5727WAT      O23613   3.960   6.823   5.061
 5727WAT     H123614   3.967   6.847   4.978
 5727WAT     H223615   3.885   6.860   5.087
 5727WAT    EPW23616   3.950   6.832   5.053
 5728WAT      O23617   3.441   6.998   6.305
 5728WAT     H123618   3.407   6.921   6.282
 5728WAT     H223619   3.372   7.051   6.312
 5728WAT    EPW23620   3.426   6.995   6.303
 5729WAT      O23621   4.346   6.884   6.003
 5729WAT     H123622   4.413   6.938   6.016
 5729WAT     H223623   4.296   6.926   5.946
 5729WAT    EPW23624   4.348   6.898   5.997
 5730WAT      O23625   4.282   7.465   5.752
 5730WAT     H123626   4.337   7.404   5.782
 5730WAT     H223627   4.239   7.491   5.824
 5730WAT    EPW23628   4.284   7.459   5.767
 5731WAT      O23629   3.307   7.330   5.701
 5731WAT     H123630   3.270   7.360   5.774
 5731WAT     H223631   3.360   7.267   5.729
 5731WAT    EPW23632   3.309   7.325   5.716
 5732WAT      O23633   4.479   7.648   5.409
 5732WAT     H123634   4.486   7.563   5.427
 5732WAT     H223635   4.397   7.656   5.381
 5732WAT    EPW23636   4.468   7.636   5.407
 5733WAT      O23637   3.871   7.737   5.302
 5733WAT     H123638   3.881   7.751   5.217
 5733WAT     H223639   3.953   7.731   5.332
 5733WAT    EPW23640   3.884   7.738   5.294
 5734WAT      O23641   4.806   7.785   6.724
 5734WAT     H123642   4.870   7.768   6.781
 5734WAT     H223643   4.848   7.825   6.659
 5734WAT    EPW23644   4.822   7.788   6.723
 5735WAT      O23645   4.869   7.241   6.798
 5735WAT     H123646   4.849   7.306   6.853
 5735WAT     H223647   4.797   7.192   6.797
 5735WAT    EPW23648   4.855   7.244   6.806
 5736WAT      O23649   4.859   7.335   6.095
 5736WAT     H123650   4.775   7.360   6.087
 5736WAT     H223651   4.853   7.251   6.118
 5736WAT    EPW23652   4.846   7.327   6.097
 5737WAT      O23653   3.785   7.034   6.614
 5737WAT     H123654   3.808   6.977   6.553
 5737WAT     H223655   3.700   7.016   6.628
 5737WAT    EPW23656   3.776   7.023   6.607
 5738WAT      O23657   4.547   7.796   6.859
 5738WAT     H123658   4.634   7.792   6.856
 5738WAT     H223659   4.525   7.838   6.786
 5738WAT    EPW23660   4.557   7.802   6.848
 5739WAT      O23661   4.224   6.855   3.650
 5739WAT     H123662   4.199   6.903   3.582
 5739WAT     H223663   4.310   6.847   3.640
 5739WAT    EPW23664   4.233   6.861   3.638
 5740WAT      O23665   4.205   7.546   4.117
 5740WAT     H123666   4.152   7.606   4.153
 5740WAT     H223667   4.244   7.509   4.185
 5740WAT    EPW23668   4.203   7.550   4.132
 5741WAT      O23669   3.166   7.339   3.313
 5741WAT     H123670   3.088   7.356   3.277
 5741WAT     H223671   3.170   7.252   3.315
 5741WAT    EPW23672   3.155   7.329   3.308
 5742WAT      O23673   3.480   7.866   3.180
 5742WAT     H123674   3.441   7.829   3.112
 5742WAT     H223675   3.472   7.806   3.243
 5742WAT    EPW23676   3.473   7.851   3.179
 5743WAT      O23677   4.472   7.653   3.784
 5743WAT     H123678   4.480   7.653   3.697
 5743WAT     H223679   4.413   7.590   3.799
 5743WAT    EPW23680   4.464   7.644   3.774
 5744WAT      O23681   3.871   6.963   3.565
 5744WAT     H123682   3.864   7.031   3.510
 5744WAT     H223683   3.945   6.924   3.540
 5744WAT    EPW23684   3.881   6.968   3.553
 5745WAT      O23685   3.330   7.686   3.708
 5745WAT     H123686   3.284   7.647   3.645
 5745WAT     H223687   3.400   7.634   3.717
 5745WAT    EPW23688   3.334   7.672   3.700
 5746WAT      O23689   3.781   7.247   4.243
 5746WAT     H123690   3.849   7.249   4.188
 5746WAT     H223691   3.776   7.163   4.267
 5746WAT    EPW23692   3.790   7.235   4.238
 5747WAT      O23693   3.530   7.496   3.710
 5747WAT     H123694   3.612   7.477   3.735
 5747WAT     H223695   3.483   7.434   3.750
 5747WAT    EPW23696   3.535   7.484   3.720
 5748WAT      O23697   4.153   7.452   4.726
 5748WAT     H123698   4.068   7.442   4.708
 5748WAT     H223699   4.156   7.526   4.772
 5748WAT    EPW23700   4.141   7.461   4.730
 5749WAT      O23701   3.590   7.005   3.637
 5749WAT     H123702   3.560   7.055   3.572
 5749WAT     H223703   3.677   7.013   3.631
 5749WAT    EPW23704   3.598   7.014   3.626
 5750WAT      O23705   4.609   6.748   4.638
 5750WAT     H123706   4.593   6.825   4.599
 5750WAT     H223707   4.532   6.726   4.672
 5750WAT    EPW23708   4.595   6.756   4.637
 5751WAT      O23709   3.888   6.919   3.859
 5751WAT     H123710   3.895   7.005   3.872
 5751WAT     H223711   3.884   6.912   3.772
 5751WAT    EPW23712   3.888   6.931   3.848
 5752WAT      O23713   4.355   7.212   3.089
 5752WAT     H123714   4.310   7.280   3.120
 5752WAT     H223715   4.367   7.162   3.159
 5752WAT    EPW23716   4.350   7.215   3.104
 5753WAT      O23717   3.176   7.462   4.009
 5753WAT     H123718   3.150   7.545   4.002
 5753WAT     H223719   3.109   7.424   4.051
 5753WAT    EPW23720   3.162   7.468   4.014
 5754WAT      O23721   3.479   6.944   4.058
 5754WAT     H123722   3.427   6.881   4.028
 5754WAT     H223723   3.538   6.900   4.105
 5754WAT    EPW23724   3.480   6.928   4.061
 5755WAT      O23725   3.809   7.157   4.988
 5755WAT     H123726   3.821   7.111   4.915
 5755WAT     H223727   3.838   7.237   4.968
 5755WAT    EPW23728   3.815   7.162   4.974
 5756WAT      O23729   4.895   7.209   3.719
 5756WAT     H123730   4.860   7.277   3.761
 5756WAT     H223731   4.831   7.149   3.720
 5756WAT    EPW23732   4.880   7.210   3.725
 5757WAT      O23733   3.383   7.117   4.887
 5757WAT     H123734   3.305   7.078   4.879
 5757WAT     H223735   3.432   7.075   4.827
 5757WAT    EPW23736   3.378   7.105   4.877
 5758WAT      O23737   4.047   6.881   4.803
 5758WAT     H123738   4.065   6.800   4.776
 5758WAT     H223739   4.033   6.925   4.729
 5758WAT    EPW23740   4.048   6.875   4.788
 5759WAT      O23741   4.107   7.373   3.681
 5759WAT     H123742   4.136   7.350   3.602
 5759WAT     H223743   4.180   7.381   3.728
 5759WAT    EPW23744   4.122   7.371   3.676
 5760WAT      O23745   4.179   7.407   3.193
 5760WAT     H123746   4.207   7.486   3.218
 5760WAT     H223747   4.101   7.424   3.156
 5760WAT    EPW23748   4.172   7.421   3.191
 5761WAT      O23749   4.862   7.042   4.255
 5761WAT     H123750   4.938   7.049   4.213
 5761WAT     H223751   4.868   6.964   4.295
 5761WAT    EPW23752   4.874   7.031   4.255
 5762WAT      O23753   3.117   7.171   4.645
 5762WAT     H123754   3.117   7.230   4.710
 5762WAT     H223755   3.177   7.203   4.589
 5762WAT    EPW23756   3.126   7.185   4.646
 5763WAT      O23757   4.416   7.014   3.280
 5763WAT     H123758   4.470   6.946   3.287
 5763WAT     H223759   4.422   7.054   3.357
 5763WAT    EPW23760   4.425   7.010   3.292
 5764WAT      O23761   3.211   7.131   3.537
 5764WAT     H123762   3.200   7.044   3.540
 5764WAT     H223763   3.164   7.160   3.604
 5764WAT    EPW23764   3.202   7.122   3.547
 5765WAT      O23765   4.141   7.252   3.411
 5765WAT     H123766   4.091   7.185   3.386
 5765WAT     H223767   4.147   7.302   3.340
 5765WAT    EPW23768   4.135   7.249   3.397
 5766WAT      O23769   4.141   6.946   3.400
 5766WAT     H123770   4.096   6.906   3.338
 5766WAT     H223771   4.219   6.961   3.363
 5766WAT    EPW23772   4.146   6.942   3.385
 5767WAT      O23773   4.001   7.182   3.852
 5767WAT     H123774   4.009   7.239   3.787
 5767WAT     H223775   4.013   7.232   3.923
 5767WAT    EPW23776   4.004   7.198   3.853
 5768WAT      O23777   3.462   6.765   3.687
 5768WAT     H123778   3.516   6.834   3.686
 5768WAT     H223779   3.462   6.737   3.604
 5768WAT    EPW23780   3.470   6.771   3.675
 5769WAT      O23781   3.758   7.808   4.090
 5769WAT     H123782   3.775   7.787   4.173
 5769WAT     H223783   3.692   7.755   4.068
 5769WAT    EPW23784   3.751   7.797   4.099
 5770WAT      O23785   4.380   7.199   4.441
 5770WAT     H123786   4.371   7.231   4.522
 5770WAT     H223787   4.321   7.136   4.437
 5770WAT    EPW23788   4.370   7.195   4.453
 5771WAT      O23789   4.506   6.794   3.725
 5771WAT     H123790   4.511   6.762   3.806
 5771WAT     H223791   4.538   6.729   3.676
 5771WAT    EPW23792   4.512   6.780   3.730
 5772WAT      O23793   4.752   7.217   4.556
 5772WAT     H123794   4.830   7.195   4.589
 5772WAT     H223795   4.705   7.239   4.626
 5772WAT    EPW23796   4.757   7.217   4.571
 5773WAT      O23797   3.507   7.146   3.853
 5773WAT     H123798   3.534   7.103   3.782
 5773WAT     H223799   3.489   7.082   3.910
 5773WAT    EPW23800   3.508   7.130   3.851
 5774WAT      O23801   3.321   7.256   4.161
 5774WAT     H123802   3.405   7.278   4.157
 5774WAT     H223803   3.282   7.313   4.108
 5774WAT    EPW23804   3.328   7.268   4.152
 5775WAT      O23805   4.565   7.569   3.233
 5775WAT     H123806   4.543   7.642   3.191
 5775WAT     H223807   4.520   7.574   3.308
 5775WAT    EPW23808   4.555   7.580   3.238
 5776WAT      O23809   4.984   7.055   3.178
 5776WAT     H123810   4.918   6.998   3.181
 5776WAT     H223811   4.965   7.106   3.110
 5776WAT    EPW23812   4.971   7.054   3.169
 5777WAT      O23813   3.906   7.424   4.973
 5777WAT     H123814   3.858   7.482   5.017
 5777WAT     H223815   3.904   7.454   4.891
 5777WAT    EPW23816   3.899   7.437   4.967
 5778WAT      O23817   5.016   7.493   4.434
 5778WAT     H123818   5.038   7.413   4.406
 5778WAT     H223819   4.931   7.499   4.415
 5778WAT    EPW23820   5.007   7.482   4.427
 5779WAT      O23821   3.148   7.722   3.473
 5779WAT     H123822   3.130   7.638   3.489
 5779WAT     H223823   3.214   7.718   3.416
 5779WAT    EPW23824   3.155   7.709   3.467
 5780WAT      O23825   4.784   7.011   3.406
 5780WAT     H123826   4.859   6.970   3.426
 5780WAT     H223827   4.810   7.082   3.364
 5780WAT    EPW23828   4.799   7.015   3.403
 5781WAT      O23829   4.429   7.240   3.913
 5781WAT     H123830   4.464   7.255   3.992
 5781WAT     H223831   4.384   7.166   3.925
 5781WAT    EPW23832   4.428   7.231   3.927
 5782WAT      O23833   3.877   7.162   3.359
 5782WAT     H123834   3.877   7.150   3.273
 5782WAT     H223835   3.859   7.246   3.368
 5782WAT    EPW23836   3.874   7.172   3.348
 5783WAT      O23837   3.464   7.505   4.809
 5783WAT     H123838   3.410   7.455   4.855
 5783WAT     H223839   3.466   7.466   4.731
 5783WAT    EPW23840   3.456   7.492   4.804
 5784WAT      O23841   3.512   7.445   3.323
 5784WAT     H123842   3.500   7.400   3.396
 5784WAT     H223843   3.454   7.411   3.267
 5784WAT    EPW23844   3.502   7.433   3.325
 5785WAT      O23845   3.529   7.628   3.982
 5785WAT     H123846   3.451   7.622   3.944
 5785WAT     H223847   3.536   7.553   4.026
 5785WAT    EPW23848   3.519   7.616   3.983
 5786WAT      O23849   3.572   7.602   4.329
 5786WAT     H123850   3.575   7.534   4.274
 5786WAT     H223851   3.507   7.651   4.298
 5786WAT    EPW23852   3.563   7.599   4.317
 5787WAT      O23853   4.562   7.373   4.169
 5787WAT     H123854   4.495   7.406   4.215
 5787WAT     H223855   4.580   7.436   4.112
 5787WAT    EPW23856   4.555   7.387   4.167
 5788WAT      O23857   4.226   6.963   4.512
 5788WAT     H123858   4.241   6.881   4.487
 5788WAT     H223859   4.264   6.969   4.590
 5788WAT    EPW23860   4.234   6.952   4.520
 5789WAT      O23861   4.381   7.170   3.520
 5789WAT     H123862   4.430   7.241   3.512
 5789WAT     H223863   4.302   7.196   3.494
 5789WAT    EPW23864   4.376   7.184   3.515
 5790WAT      O23865   3.352   7.737   4.885
 5790WAT     H123866   3.348   7.787   4.814
 5790WAT     H223867   3.385   7.662   4.856
 5790WAT    EPW23868   3.356   7.733   4.870
 5791WAT      O23869   4.039   7.317   4.092
 5791WAT     H123870   4.087   7.387   4.113
 5791WAT     H223871   4.076   7.252   4.138
 5791WAT    EPW23872   4.052   7.318   4.102
 5792WAT      O23873   4.258   7.634   3.320
 5792WAT     H123874   4.257   7.706   3.271
 5792WAT     H223875   4.194   7.647   3.378
 5792WAT    EPW23876   4.248   7.646   3.321
 5793WAT      O23877   3.717   6.868   3.286
 5793WAT     H123878   3.727   6.857   3.372
 5793WAT     H223879   3.646   6.918   3.279
 5793WAT    EPW23880   3.708   6.874   3.298
 5794WAT      O23881   4.687   7.812   4.527
 5794WAT     H123882   4.692   7.825   4.441
 5794WAT     H223883   4.762   7.844   4.557
 5794WAT    EPW23884   4.699   7.819   4.519
 5795WAT      O23885   4.790   6.842   4.826
 5795WAT     H123886   4.726   6.802   4.781
 5795WAT     H223887   4.793   6.799   4.901
 5795WAT    EPW23888   4.781   6.830   4.830
 5796WAT      O23889   3.429   7.699   3.410
 5796WAT     H123890   3.462   7.621   3.388
 5796WAT     H223891   3.494   7.735   3.456
 5796WAT    EPW23892   3.444   7.692   3.414
 5797WAT      O23893   4.260   7.793   4.487
 5797WAT     H123894   4.245   7.854   4.547
 5797WAT     H223895   4.313   7.737   4.528
 5797WAT    EPW23896   4.266   7.794   4.502
 5798WAT      O23897   3.129   6.865   3.507
 5798WAT     H123898   3.142   6.794   3.458
 5798WAT     H223899   3.092   6.833   3.580
 5798WAT    EPW23900   3.126   6.849   3.511
 5799WAT      O23901   4.098   7.633   3.553
 5799WAT     H123902   4.104   7.698   3.611
 5799WAT     H223903   4.080   7.563   3.602
 5799WAT    EPW23904   4.097   7.632   3.569
 5800WAT      O23905   3.548   7.084   3.204
 5800WAT     H123906   3.497   7.090   3.133
 5800WAT     H223907   3.626   7.108   3.174
 5800WAT    EPW23908   3.552   7.089   3.189
 5801WAT      O23909   4.021   7.837   3.996
 5801WAT     H123910   3.936   7.818   4.004
 5801WAT     H223911   4.053   7.821   4.075
 5801WAT    EPW23912   4.013   7.832   4.009
 5802WAT      O23913   3.406   7.807   4.227
 5802WAT     H123914   3.478   7.856   4.224
 5802WAT     H223915   3.379   7.804   4.145
 5802WAT    EPW23916   3.412   7.814   4.215
 5803WAT      O23917   3.729   7.324   3.901
 5803WAT     H123918   3.813   7.305   3.911
 5803WAT     H223919   3.692   7.246   3.887
 5803WAT    EPW23920   3.736   7.310   3.900
 5804WAT      O23921   3.211   7.458   3.566
 5804WAT     H123922   3.260   7.428   3.633
 5804WAT     H223923   3.224   7.398   3.504
 5804WAT    EPW23924   3.220   7.445   3.567
 5805WAT      O23925   4.714   7.760   4.252
 5805WAT     H123926   4.713   7.682   4.291
 5805WAT     H223927   4.630   7.783   4.251
 5805WAT    EPW23928   4.702   7.752   4.257
 5806WAT      O23929   3.663   7.601   3.115
 5806WAT     H123930   3.602   7.561   3.162
 5806WAT     H223931   3.625   7.613   3.038
 5806WAT    EPW23932   3.648   7.597   3.111
 5807WAT      O23933   4.840   7.767   3.995
 5807WAT     H123934   4.811   7.807   4.067
 5807WAT     H223935   4.926   7.761   4.008
 5807WAT    EPW23936   4.848   7.772   4.008
 5808WAT      O23937   3.809   7.447   3.386
 5808WAT     H123938   3.836   7.530   3.393
 5808WAT     H223939   3.722   7.455   3.376
 5808WAT    EPW23940   3.800   7.460   3.386
 5809WAT      O23941   4.606   7.159   4.849
 5809WAT     H123942   4.553   7.205   4.902
 5809WAT     H223943   4.570   7.080   4.849
 5809WAT    EPW23944   4.593   7.154   4.857
 5810WAT      O23945   3.157   7.044   4.040
 5810WAT     H123946   3.161   7.079   3.960
 5810WAT     H223947   3.232   7.068   4.076
 5810WAT    EPW23948   3.168   7.053   4.033
 5811WAT      O23949   4.455   7.516   4.857
 5811WAT     H123950   4.462   7.527   4.943
 5811WAT     H223951   4.392   7.572   4.835
 5811WAT    EPW23952   4.447   7.526   4.866
 5812WAT      O23953   4.682   7.548   4.693
 5812WAT     H123954   4.714   7.627   4.714
 5812WAT     H223955   4.645   7.521   4.768
 5812WAT    EPW23956   4.681   7.556   4.707
 5813WAT      O23957   4.662   7.374   3.812
 5813WAT     H123958   4.587   7.342   3.844
 5813WAT     H223959   4.662   7.457   3.840
 5813WAT    EPW23960   4.651   7.381   3.821
 5814WAT      O23961   4.952   7.602   4.967
 5814WAT     H123962   4.947   7.568   4.887
 5814WAT     H223963   5.025   7.649   4.965
 5814WAT    EPW23964   4.962   7.604   4.955
 5815WAT      O23965   4.553   7.007   4.558
 5815WAT     H123966   4.627   7.052   4.552
 5815WAT     H223967   4.496   7.054   4.511
 5815WAT    EPW23968   4.555   7.021   4.551
 5816WAT      O23969   4.071   7.735   4.266
 5816WAT     H123970   4.118   7.773   4.329
 5816WAT     H223971   3.988   7.749   4.292
 5816WAT    EPW23972   4.065   7.743   4.279
 5817WAT      O23973   3.742   7.296   4.540
 5817WAT     H123974   3.758   7.221   4.583
 5817WAT     H223975   3.737   7.271   4.457
 5817WAT    EPW23976   3.743   7.281   4.534
 5818WAT      O23977   4.681   6.805   4.325
 5818WAT     H123978   4.653   6.887   4.321
 5818WAT     H223979   4.753   6.810   4.375
 5818WAT    EPW23980   4.688   6.818   4.332
 5819WAT      O23981   3.917   6.876   4.528
 5819WAT     H123982   3.987   6.908   4.488
 5819WAT     H223983   3.941   6.796   4.551
 5819WAT    EPW23984   3.931   6.869   4.526
 5820WAT      O23985   4.823   7.430   3.211
 5820WAT     H123986   4.861   7.498   3.171
 5820WAT     H223987   4.739   7.453   3.214
 5820WAT    EPW23988   4.816   7.444   3.206
 5821WAT      O23989   3.975   7.775   3.119
 5821WAT     H123990   3.894   7.757   3.091
 5821WAT     H223991   3.971   7.860   3.139
 5821WAT    EPW23992   3.962   7.785   3.118
 5822WAT      O23993   3.568   7.382   4.134
 5822WAT     H123994   3.612   7.371   4.060
 5822WAT     H223995   3.622   7.350   4.195
 5822WAT    EPW23996   3.582   7.376   4.132
 5823WAT      O23997   4.369   7.292   4.694
 5823WAT     H123998   4.304   7.339   4.728
 5823WAT     H223999   4.426   7.283   4.759
 5823WAT    EPW24000   4.368   7.298   4.708
 5824WAT      O24001   4.338   7.446   4.323
 5824WAT     H124002   4.368   7.488   4.394
 5824WAT     H224003   4.342   7.362   4.347
 5824WAT    EPW24004   4.343   7.439   4.337
 5825WAT      O24005   4.593   7.390   3.549
 5825WAT     H124006   4.614   7.370   3.631
 5825WAT     H224007   4.668   7.417   3.514
 5825WAT    EPW24008   4.607   7.391   3.556
 5826WAT      O24009   3.922   6.880   4.139
 5826WAT     H124010   3.840   6.865   4.163
 5826WAT     H224011   3.918   6.884   4.052
 5826WAT    EPW24012   3.910   6.879   4.130
 5827WAT      O24013   4.695   6.999   3.696
 5827WAT     H124014   4.624   6.952   3.713
 5827WAT     H224015   4.679   7.033   3.617
 5827WAT    EPW24016   4.682   6.997   3.687
 5828WAT      O24017   4.739   7.793   3.534
 5828WAT     H124018   4.787   7.720   3.529
 5828WAT     H224019   4.657   7.764   3.526
 5828WAT    EPW24020   4.734   7.778   3.532
 5829WAT      O24021   3.179   6.920   4.743
 5829WAT     H124022   3.165   7.000   4.709
 5829WAT     H224023   3.100   6.896   4.771
 5829WAT    EPW24024   3.165   6.928   4.742
 5830WAT      O24025   3.485   7.194   3.465
 5830WAT     H124026   3.498   7.162   3.385
 5830WAT     H224027   3.404   7.170   3.485
 5830WAT    EPW24028   3.475   7.186   3.456
 5831WAT      O24029   4.953   7.510   4.710
 5831WAT     H124030   4.867   7.498   4.722
 5831WAT     H224031   4.968   7.470   4.633
 5831WAT    EPW24032   4.943   7.502   4.700
 5832WAT      O24033   4.404   7.576   4.567
 5832WAT     H124034   4.379   7.504   4.610
 5832WAT     H224035   4.486   7.588   4.594
 5832WAT    EPW24036   4.413   7.567   4.578
 5833WAT      O24037   4.198   7.695   4.886
 5833WAT     H124038   4.230   7.764   4.843
 5833WAT     H224039   4.127   7.728   4.926
 5833WAT    EPW24040   4.192   7.710   4.886
 5834WAT      O24041   3.483   7.396   4.507
 5834WAT     H124042   3.520   7.457   4.458
 5834WAT     H224043   3.550   7.348   4.535
 5834WAT    EPW24044   3.498   7.398   4.504
 5835WAT      O24045   3.260   7.240   4.434
 5835WAT     H124046   3.268   7.223   4.349
 5835WAT     H224047   3.335   7.281   4.454
 5835WAT    EPW24048   3.273   7.244   4.424
 5836WAT      O24049   4.816   7.504   3.478
 5836WAT     H124050   4.827   7.499   3.392
 5836WAT     H224051   4.890   7.471   3.510
 5836WAT    EPW24052   4.829   7.499   3.470
 5837WAT      O24053   3.516   6.981   4.675
 5837WAT     H124054   3.508   6.897   4.696
 5837WAT     H224055   3.484   6.986   4.594
 5837WAT    EPW24056   3.510   6.970   4.666
 5838WAT      O24057   4.727   7.519   4.414
 5838WAT     H124058   4.726   7.433   4.426
 5838WAT     H224059   4.733   7.551   4.494
 5838WAT    EPW24060   4.728   7.511   4.427
 5839WAT      O24061   3.200   7.763   4.457
 5839WAT     H124062   3.232   7.785   4.378
 5839WAT     H224063   3.190   7.676   4.451
 5839WAT    EPW24064   3.203   7.753   4.444
 5840WAT      O24065   3.346   7.357   3.118
 5840WAT     H124066   3.279   7.358   3.174
 5840WAT     H224067   3.355   7.272   3.100
 5840WAT    EPW24068   3.337   7.344   3.124
 5841WAT      O24069   4.314   6.999   4.792
 5841WAT     H124070   4.324   7.070   4.841
 5841WAT     H224071   4.251   6.954   4.832
 5841WAT    EPW24072   4.306   7.003   4.805
 5842WAT      O24073   4.214   7.018   3.877
 5842WAT     H124074   4.144   7.070   3.872
 5842WAT     H224075   4.218   6.980   3.799
 5842WAT    EPW24076   4.204   7.020   3.865
 5843WAT      O24077   4.574   7.070   4.157
 5843WAT     H124078   4.659   7.079   4.172
 5843WAT     H224079   4.537   7.125   4.214
 5843WAT    EPW24080   4.581   7.079   4.168
 5844WAT      O24081   3.676   7.692   4.595
 5844WAT     H124082   3.637   7.770   4.603
 5844WAT     H224083   3.636   7.655   4.527
 5844WAT    EPW24084   3.665   7.698   4.586
 5845WAT      O24085   4.604   7.598   4.006
 5845WAT     H124086   4.671   7.652   4.022
 5845WAT     H224087   4.570   7.629   3.933
 5845WAT    EPW24088   4.609   7.610   3.998
 5846WAT      O24089   3.719   6.990   4.340
 5846WAT     H124090   3.633   6.998   4.348
 5846WAT     H224091   3.741   6.938   4.407
 5846WAT    EPW24092   3.710   6.984   4.351
 5847WAT      O24093   4.921   6.853   4.473
 5847WAT     H124094   4.916   6.849   4.560
 5847WAT     H224095   4.990   6.803   4.454
 5847WAT    EPW24096   4.931   6.845   4.483
 5848WAT      O24097   4.130   7.065   4.177
 5848WAT     H124098   4.056   7.019   4.189
 5848WAT     H224099   4.187   7.024   4.230
 5848WAT    EPW24100   4.127   7.052   4.187
 5849WAT      O24101   3.880   7.498   4.698
 5849WAT     H124102   3.848   7.440   4.641
 5849WAT     H224103   3.844   7.573   4.673
 5849WAT    EPW24104   3.870   7.500   4.686
 5850WAT      O24105   3.960   6.823   3.161
 5850WAT     H124106   3.967   6.847   3.077
 5850WAT     H224107   3.885   6.860   3.186
 5850WAT    EPW24108   3.950   6.832   3.152
 5851WAT      O24109   3.441   6.998   4.405
 5851WAT     H124110   3.407   6.921   4.381
 5851WAT     H224111   3.372   7.051   4.411
 5851WAT    EPW24112   3.426   6.995   4.402
 5852WAT      O24113   4.346   6.884   4.103
 5852WAT     H124114   4.413   6.938   4.115
 5852WAT     H224115   4.296   6.926   4.045
 5852WAT    EPW24116   4.348   6.898   4.096
 5853WAT      O24117   4.282   7.465   3.852
 5853WAT     H124118   4.337   7.404   3.882
 5853WAT     H224119   4.239   7.491   3.923
 5853WAT    EPW24120   4.284   7.459   3.867
 5854WAT      O24121   3.307   7.330   3.800
 5854WAT     H124122   3.270   7.360   3.874
 5854WAT     H224123   3.360   7.267   3.829
 5854WAT    EPW24124   3.309   7.325   3.815
 5855WAT      O24125   4.479   7.648   3.508
 5855WAT     H124126   4.486   7.563   3.526
 5855WAT     H224127   4.397   7.656   3.480
 5855WAT    EPW24128   4.468   7.636   3.507
 5856WAT      O24129   3.871   7.737   3.402
 5856WAT     H124130   3.881   7.751   3.316
 5856WAT     H224131   3.953   7.731   3.431
 5856WAT    EPW24132   3.884   7.738   3.394
 5857WAT      O24133   4.806   7.785   4.823
 5857WAT     H124134   4.870   7.768   4.881
 5857WAT     H224135   4.848   7.825   4.758
 5857WAT    EPW24136   4.822   7.788   4.822
 5858WAT      O24137   4.869   7.241   4.897
 5858WAT     H124138   4.849   7.306   4.952
 5858WAT     H224139   4.797   7.192   4.896
 5858WAT    EPW24140   4.855   7.244   4.905
 5859WAT      O24141   4.859   7.335   4.194
 5859WAT     H124142   4.775   7.360   4.187
 5859WAT     H224143   4.853   7.251   4.217
 5859WAT    EPW24144   4.846   7.327   4.196
 5860WAT      O24145   3.785   7.034   4.713
 5860WAT     H124146   3.808   6.977   4.652
 5860WAT     H224147   3.700   7.016   4.728
 5860WAT    EPW24148   3.776   7.023   4.706
 5861WAT      O24149   4.547   7.796   4.959
 5861WAT     H124150   4.634   7.792   4.955
 5861WAT     H224151   4.525   7.838   4.885
 5861WAT    EPW24152   4.557   7.802   4.947
 5862WAT      O24153   4.224   6.855   1.749
 5862WAT     H124154   4.199   6.903   1.681
 5862WAT     H224155   4.310   6.847   1.739
 5862WAT    EPW24156   4.233   6.861   1.737
 5863WAT      O24157   4.205   7.546   2.216
 5863WAT     H124158   4.152   7.606   2.252
 5863WAT     H224159   4.244   7.509   2.284
 5863WAT    EPW24160   4.203   7.550   2.232
 5864WAT      O24161   3.166   7.339   1.412
 5864WAT     H124162   3.088   7.356   1.376
 5864WAT     H224163   3.170   7.252   1.415
 5864WAT    EPW24164   3.155   7.329   1.407
 5865WAT      O24165   3.480   7.866   1.280
 5865WAT     H124166   3.441   7.829   1.211
 5865WAT     H224167   3.472   7.806   1.342
 5865WAT    EPW24168   3.473   7.851   1.279
 5866WAT      O24169   4.472   7.653   1.884
 5866WAT     H124170   4.480   7.653   1.797
 5866WAT     H224171   4.413   7.590   1.899
 5866WAT    EPW24172   4.464   7.644   1.873
 5867WAT      O24173   3.871   6.963   1.664
 5867WAT     H124174   3.864   7.031   1.610
 5867WAT     H224175   3.945   6.924   1.640
 5867WAT    EPW24176   3.881   6.968   1.653
 5868WAT      O24177   3.330   7.686   1.807
 5868WAT     H124178   3.284   7.647   1.745
 5868WAT     H224179   3.400   7.634   1.817
 5868WAT    EPW24180   3.334   7.672   1.799
 5869WAT      O24181   3.781   7.247   2.342
 5869WAT     H124182   3.849   7.249   2.287
 5869WAT     H224183   3.776   7.163   2.367
 5869WAT    EPW24184   3.790   7.235   2.338
 5870WAT      O24185   3.530   7.496   1.810
 5870WAT     H124186   3.612   7.477   1.834
 5870WAT     H224187   3.483   7.434   1.849
 5870WAT    EPW24188   3.535   7.484   1.819
 5871WAT      O24189   4.153   7.452   2.826
 5871WAT     H124190   4.068   7.442   2.808
 5871WAT     H224191   4.156   7.526   2.871
 5871WAT    EPW24192   4.141   7.461   2.830
 5872WAT      O24193   3.590   7.005   1.736
 5872WAT     H124194   3.560   7.055   1.671
 5872WAT     H224195   3.677   7.013   1.731
 5872WAT    EPW24196   3.598   7.014   1.726
 5873WAT      O24197   4.609   6.748   2.737
 5873WAT     H124198   4.593   6.825   2.699
 5873WAT     H224199   4.532   6.726   2.771
 5873WAT    EPW24200   4.595   6.756   2.737
 5874WAT      O24201   3.888   6.919   1.959
 5874WAT     H124202   3.895   7.005   1.971
 5874WAT     H224203   3.884   6.912   1.872
 5874WAT    EPW24204   3.888   6.931   1.948
 5875WAT      O24205   4.355   7.212   1.188
 5875WAT     H124206   4.310   7.280   1.219
 5875WAT     H224207   4.367   7.162   1.259
 5875WAT    EPW24208   4.350   7.215   1.203
 5876WAT      O24209   3.176   7.462   2.109
 5876WAT     H124210   3.150   7.545   2.101
 5876WAT     H224211   3.109   7.424   2.150
 5876WAT    EPW24212   3.162   7.468   2.114
 5877WAT      O24213   3.479   6.944   2.158
 5877WAT     H124214   3.427   6.881   2.127
 5877WAT     H224215   3.538   6.900   2.205
 5877WAT    EPW24216   3.480   6.928   2.160
 5878WAT      O24217   3.809   7.157   3.088
 5878WAT     H124218   3.821   7.111   3.014
 5878WAT     H224219   3.838   7.237   3.067
 5878WAT    EPW24220   3.815   7.162   3.074
 5879WAT      O24221   4.895   7.209   1.818
 5879WAT     H124222   4.860   7.277   1.861
 5879WAT     H224223   4.831   7.149   1.820
 5879WAT    EPW24224   4.880   7.210   1.824
 5880WAT      O24225   3.383   7.117   2.986
 5880WAT     H124226   3.305   7.078   2.979
 5880WAT     H224227   3.432   7.075   2.927
 5880WAT    EPW24228   3.378   7.105   2.976
 5881WAT      O24229   4.047   6.881   2.903
 5881WAT     H124230   4.065   6.800   2.875
 5881WAT     H224231   4.033   6.925   2.829
 5881WAT    EPW24232   4.048   6.875   2.888
 5882WAT      O24233   4.107   7.373   1.780
 5882WAT     H124234   4.136   7.350   1.701
 5882WAT     H224235   4.180   7.381   1.827
 5882WAT    EPW24236   4.122   7.371   1.775
 5883WAT      O24237   4.179   7.407   1.292
 5883WAT     H124238   4.207   7.486   1.317
 5883WAT     H224239   4.101   7.424   1.256
 5883WAT    EPW24240   4.172   7.421   1.290
 5884WAT      O24241   4.862   7.042   2.355
 5884WAT     H124242   4.938   7.049   2.312
 5884WAT     H224243   4.868   6.964   2.395
 5884WAT    EPW24244   4.874   7.031   2.354
 5885WAT      O24245   3.117   7.171   2.745
 5885WAT     H124246   3.117   7.230   2.809
 5885WAT     H224247   3.177   7.203   2.689
 5885WAT    EPW24248   3.126   7.185   2.746
 5886WAT      O24249   4.416   7.014   1.379
 5886WAT     H124250   4.470   6.946   1.387
 5886WAT     H224251   4.422   7.054   1.457
 5886WAT    EPW24252   4.425   7.010   1.392
 5887WAT      O24253   3.211   7.131   1.636
 5887WAT     H124254   3.200   7.044   1.639
 5887WAT     H224255   3.164   7.160   1.703
 5887WAT    EPW24256   3.202   7.122   1.646
 5888WAT      O24257   4.141   7.252   1.511
 5888WAT     H124258   4.091   7.185   1.485
 5888WAT     H224259   4.147   7.302   1.440
 5888WAT    EPW24260   4.135   7.249   1.496
 5889WAT      O24261   4.141   6.946   1.500
 5889WAT     H124262   4.096   6.906   1.437
 5889WAT     H224263   4.219   6.961   1.462
 5889WAT    EPW24264   4.146   6.942   1.485
 5890WAT      O24265   4.001   7.182   1.952
 5890WAT     H124266   4.009   7.239   1.886
 5890WAT     H224267   4.013   7.232   2.023
 5890WAT    EPW24268   4.004   7.198   1.953
 5891WAT      O24269   3.462   6.765   1.787
 5891WAT     H124270   3.516   6.834   1.786
 5891WAT     H224271   3.462   6.737   1.704
 5891WAT    EPW24272   3.470   6.771   1.774
 5892WAT      O24273   3.758   7.808   2.189
 5892WAT     H124274   3.775   7.787   2.272
 5892WAT     H224275   3.692   7.755   2.168
 5892WAT    EPW24276   3.751   7.797   2.198
 5893WAT      O24277   4.380   7.199   2.541
 5893WAT     H124278   4.371   7.231   2.621
 5893WAT     H224279   4.321   7.136   2.537
 5893WAT    EPW24280   4.370   7.195   2.552
 5894WAT      O24281   4.506   6.794   1.824
 5894WAT     H124282   4.511   6.762   1.905
 5894WAT     H224283   4.538   6.729   1.775
 5894WAT    EPW24284   4.512   6.780   1.829
 5895WAT      O24285   4.752   7.217   2.655
 5895WAT     H124286   4.830   7.195   2.689
 5895WAT     H224287   4.705   7.239   2.725
 5895WAT    EPW24288   4.757   7.217   2.670
 5896WAT      O24289   3.507   7.146   1.952
 5896WAT     H124290   3.534   7.103   1.881
 5896WAT     H224291   3.489   7.082   2.009
 5896WAT    EPW24292   3.508   7.130   1.950
 5897WAT      O24293   3.321   7.256   2.260
 5897WAT     H124294   3.405   7.278   2.256
 5897WAT     H224295   3.282   7.313   2.207
 5897WAT    EPW24296   3.328   7.268   2.252
 5898WAT      O24297   4.565   7.569   1.332
 5898WAT     H124298   4.543   7.642   1.290
 5898WAT     H224299   4.520   7.574   1.407
 5898WAT    EPW24300   4.555   7.580   1.337
 5899WAT      O24301   4.984   7.055   1.278
 5899WAT     H124302   4.918   6.998   1.280
 5899WAT     H224303   4.965   7.106   1.210
 5899WAT    EPW24304   4.971   7.054   1.268
 5900WAT      O24305   3.906   7.424   3.072
 5900WAT     H124306   3.858   7.482   3.116
 5900WAT     H224307   3.904   7.454   2.990
 5900WAT    EPW24308   3.899   7.437   3.066
 5901WAT      O24309   5.016   7.493   2.533
 5901WAT     H124310   5.038   7.413   2.506
 5901WAT     H224311   4.931   7.499   2.514
 5901WAT    EPW24312   5.007   7.482   2.526
 5902WAT      O24313   3.148   7.722   1.573
 5902WAT     H124314   3.130   7.638   1.588
 5902WAT     H224315   3.214   7.718   1.516
 5902WAT    EPW24316   3.155   7.709   1.567
 5903WAT      O24317   4.784   7.011   1.506
 5903WAT     H124318   4.859   6.970   1.525
 5903WAT     H224319   4.810   7.082   1.463
 5903WAT    EPW24320   4.799   7.015   1.502
 5904WAT      O24321   4.429   7.240   2.013
 5904WAT     H124322   4.464   7.255   2.092
 5904WAT     H224323   4.384   7.166   2.024
 5904WAT    EPW24324   4.428   7.231   2.026
 5905WAT      O24325   3.877   7.162   1.459
 5905WAT     H124326   3.877   7.150   1.372
 5905WAT     H224327   3.859   7.246   1.468
 5905WAT    EPW24328   3.874   7.172   1.447
 5906WAT      O24329   3.464   7.505   2.908
 5906WAT     H124330   3.410   7.455   2.955
 5906WAT     H224331   3.466   7.466   2.830
 5906WAT    EPW24332   3.456   7.492   2.903
 5907WAT      O24333   3.512   7.445   1.422
 5907WAT     H124334   3.500   7.400   1.496
 5907WAT     H224335   3.454   7.411   1.367
 5907WAT    EPW24336   3.502   7.433   1.425
 5908WAT      O24337   3.529   7.628   2.082
 5908WAT     H124338   3.451   7.622   2.044
 5908WAT     H224339   3.536   7.553   2.126
 5908WAT    EPW24340   3.519   7.616   2.083
 5909WAT      O24341   3.572   7.602   2.429
 5909WAT     H124342   3.575   7.534   2.374
 5909WAT     H224343   3.507   7.651   2.397
 5909WAT    EPW24344   3.563   7.599   2.416
 5910WAT      O24345   4.562   7.373   2.268
 5910WAT     H124346   4.495   7.406   2.315
 5910WAT     H224347   4.580   7.436   2.211
 5910WAT    EPW24348   4.555   7.387   2.267
 5911WAT      O24349   4.226   6.963   2.611
 5911WAT     H124350   4.241   6.881   2.587
 5911WAT     H224351   4.264   6.969   2.690
 5911WAT    EPW24352   4.234   6.952   2.619
 5912WAT      O24353   4.381   7.170   1.619
 5912WAT     H124354   4.430   7.241   1.612
 5912WAT     H224355   4.302   7.196   1.593
 5912WAT    EPW24356   4.376   7.184   1.614
 5913WAT      O24357   3.352   7.737   2.985
 5913WAT     H124358   3.348   7.787   2.913
 5913WAT     H224359   3.385   7.662   2.955
 5913WAT    EPW24360   3.356   7.733   2.970
 5914WAT      O24361   4.039   7.317   2.192
 5914WAT     H124362   4.087   7.387   2.213
 5914WAT     H224363   4.076   7.252   2.237
 5914WAT    EPW24364   4.052   7.318   2.202
 5915WAT      O24365   4.258   7.634   1.419
 5915WAT     H124366   4.257   7.706   1.370
 5915WAT     H224367   4.194   7.647   1.477
 5915WAT    EPW24368   4.248   7.646   1.421
 5916WAT      O24369   3.717   6.868   1.385
 5916WAT     H124370   3.727   6.857   1.471
 5916WAT     H224371   3.646   6.918   1.379
 5916WAT    EPW24372   3.708   6.874   1.397
 5917WAT      O24373   4.687   7.812   2.626
 5917WAT     H124374   4.692   7.825   2.540
 5917WAT     H224375   4.762   7.844   2.657
 5917WAT    EPW24376   4.699   7.819   2.618
 5918WAT      O24377   4.790   6.842   2.925
 5918WAT     H124378   4.726   6.802   2.881
 5918WAT     H224379   4.793   6.799   3.001
 5918WAT    EPW24380   4.781   6.830   2.930
 5919WAT      O24381   3.429   7.699   1.510
 5919WAT     H124382   3.462   7.621   1.487
 5919WAT     H224383   3.494   7.735   1.555
 5919WAT    EPW24384   3.444   7.692   1.513
 5920WAT      O24385   4.260   7.793   2.586
 5920WAT     H124386   4.245   7.854   2.647
 5920WAT     H224387   4.313   7.737   2.627
 5920WAT    EPW24388   4.266   7.794   2.601
 5921WAT      O24389   3.129   6.865   1.606
 5921WAT     H124390   3.142   6.794   1.557
 5921WAT     H224391   3.092   6.833   1.679
 5921WAT    EPW24392   3.126   6.849   1.610
 5922WAT      O24393   4.098   7.633   1.652
 5922WAT     H124394   4.104   7.698   1.710
 5922WAT     H224395   4.080   7.563   1.701
 5922WAT    EPW24396   4.097   7.632   1.668
 5923WAT      O24397   3.548   7.084   1.303
 5923WAT     H124398   3.497   7.090   1.233
 5923WAT     H224399   3.626   7.108   1.274
 5923WAT    EPW24400   3.552   7.089   1.289
 5924WAT      O24401   4.021   7.837   2.095
 5924WAT     H124402   3.936   7.818   2.103
 5924WAT     H224403   4.053   7.821   2.175
 5924WAT    EPW24404   4.013   7.832   2.108
 5925WAT      O24405   3.406   7.807   2.327
 5925WAT     H124406   3.478   7.856   2.323
 5925WAT     H224407   3.379   7.804   2.244
 5925WAT    EPW24408   3.412   7.814   2.314
 5926WAT      O24409   3.729   7.324   2.000
 5926WAT     H124410   3.813   7.305   2.010
 5926WAT     H224411   3.692   7.246   1.987
 5926WAT    EPW24412   3.736   7.310   2.000
 5927WAT      O24413   3.211   7.458   1.666
 5927WAT     H124414   3.260   7.428   1.732
 5927WAT     H224415   3.224   7.398   1.603
 5927WAT    EPW24416   3.220   7.445   1.666
 5928WAT      O24417   4.714   7.760   2.351
 5928WAT     H124418   4.713   7.682   2.391
 5928WAT     H224419   4.630   7.783   2.350
 5928WAT    EPW24420   4.702   7.752   2.357
 5929WAT      O24421   3.663   7.601   1.214
 5929WAT     H124422   3.602   7.561   1.262
 5929WAT     H224423   3.625   7.613   1.137
 5929WAT    EPW24424   3.648   7.597   1.210
 5930WAT      O24425   4.840   7.767   2.095
 5930WAT     H124426   4.811   7.807   2.167
 5930WAT     H224427   4.926   7.761   2.107
 5930WAT    EPW24428   4.848   7.772   2.107
 5931WAT      O24429   3.809   7.447   1.485
 5931WAT     H124430   3.836   7.530   1.492
 5931WAT     H224431   3.722   7.455   1.476
 5931WAT    EPW24432   3.800   7.460   1.485
 5932WAT      O24433   4.606   7.159   2.949
 5932WAT     H124434   4.553   7.205   3.001
 5932WAT     H224435   4.570   7.080   2.948
 5932WAT    EPW24436   4.593   7.154   2.956
 5933WAT      O24437   3.157   7.044   2.139
 5933WAT     H124438   3.161   7.079   2.059
 5933WAT     H224439   3.232   7.068   2.176
 5933WAT    EPW24440   3.168   7.053   2.133
 5934WAT      O24441   4.455   7.516   2.956
 5934WAT     H124442   4.462   7.527   3.043
 5934WAT     H224443   4.392   7.572   2.934
 5934WAT    EPW24444   4.447   7.526   2.966
 5935WAT      O24445   4.682   7.548   2.793
 5935WAT     H124446   4.714   7.627   2.813
 5935WAT     H224447   4.645   7.521   2.867
 5935WAT    EPW24448   4.681   7.556   2.807
 5936WAT      O24449   4.662   7.374   1.912
 5936WAT     H124450   4.587   7.342   1.943
 5936WAT     H224451   4.662   7.457   1.940
 5936WAT    EPW24452   4.651   7.381   1.920
 5937WAT      O24453   4.952   7.602   3.066
 5937WAT     H124454   4.947   7.568   2.986
 5937WAT     H224455   5.025   7.649   3.064
 5937WAT    EPW24456   4.962   7.604   3.054
 5938WAT      O24457   4.553   7.007   2.658
 5938WAT     H124458   4.627   7.052   2.651
 5938WAT     H224459   4.496   7.054   2.611
 5938WAT    EPW24460   4.555   7.021   2.650
 5939WAT      O24461   4.071   7.735   2.366
 5939WAT     H124462   4.118   7.773   2.428
 5939WAT     H224463   3.988   7.749   2.391
 5939WAT    EPW24464   4.065   7.743   2.379
 5940WAT      O24465   3.742   7.296   2.640
 5940WAT     H124466   3.758   7.221   2.682
 5940WAT     H224467   3.737   7.271   2.556
 5940WAT    EPW24468   3.743   7.281   2.634
 5941WAT      O24469   4.681   6.805   2.425
 5941WAT     H124470   4.653   6.887   2.420
 5941WAT     H224471   4.753   6.810   2.474
 5941WAT    EPW24472   4.688   6.818   2.431
 5942WAT      O24473   3.917   6.876   2.628
 5942WAT     H124474   3.987   6.908   2.587
 5942WAT     H224475   3.941   6.796   2.650
 5942WAT    EPW24476   3.931   6.869   2.625
 5943WAT      O24477   4.823   7.430   1.310
 5943WAT     H124478   4.861   7.498   1.270
 5943WAT     H224479   4.739   7.453   1.314
 5943WAT    EPW24480   4.816   7.444   1.305
 5944WAT      O24481   3.975   7.775   1.219
 5944WAT     H124482   3.894   7.757   1.190
 5944WAT     H224483   3.971   7.860   1.238
 5944WAT    EPW24484   3.962   7.785   1.217
 5945WAT      O24485   3.568   7.382   2.234
 5945WAT     H124486   3.612   7.371   2.159
 5945WAT     H224487   3.622   7.350   2.294
 5945WAT    EPW24488   3.582   7.376   2.232
 5946WAT      O24489   4.369   7.292   2.793
 5946WAT     H124490   4.304   7.339   2.828
 5946WAT     H224491   4.426   7.283   2.859
 5946WAT    EPW24492   4.368   7.298   2.808
 5947WAT      O24493   4.338   7.446   2.423
 5947WAT     H124494   4.368   7.488   2.493
 5947WAT     H224495   4.342   7.362   2.446
 5947WAT    EPW24496   4.343   7.439   2.437
 5948WAT      O24497   4.593   7.390   1.648
 5948WAT     H124498   4.614   7.370   1.730
 5948WAT     H224499   4.668   7.417   1.614
 5948WAT    EPW24500   4.607   7.391   1.655
 5949WAT      O24501   3.922   6.880   2.238
 5949WAT     H124502   3.840   6.865   2.262
 5949WAT     H224503   3.918   6.884   2.151
 5949WAT    EPW24504   3.910   6.879   2.229
 5950WAT      O24505   4.695   6.999   1.795
 5950WAT     H124506   4.624   6.952   1.812
 5950WAT     H224507   4.679   7.033   1.717
 5950WAT    EPW24508   4.682   6.997   1.786
 5951WAT      O24509   4.739   7.793   1.633
 5951WAT     H124510   4.787   7.720   1.629
 5951WAT     H224511   4.657   7.764   1.626
 5951WAT    EPW24512   4.734   7.778   1.631
 5952WAT      O24513   3.179   6.920   2.842
 5952WAT     H124514   3.165   7.000   2.809
 5952WAT     H224515   3.100   6.896   2.871
 5952WAT    EPW24516   3.165   6.928   2.841
 5953WAT      O24517   3.485   7.194   1.564
 5953WAT     H124518   3.498   7.162   1.485
 5953WAT     H224519   3.404   7.170   1.584
 5953WAT    EPW24520   3.475   7.186   1.556
 5954WAT      O24521   4.953   7.510   2.809
 5954WAT     H124522   4.867   7.498   2.822
 5954WAT     H224523   4.968   7.470   2.733
 5954WAT    EPW24524   4.943   7.502   2.800
 5955WAT      O24525   4.404   7.576   2.667
 5955WAT     H124526   4.379   7.504   2.709
 5955WAT     H224527   4.486   7.588   2.694
 5955WAT    EPW24528   4.413   7.567   2.677
 5956WAT      O24529   4.198   7.695   2.985
 5956WAT     H124530   4.230   7.764   2.942
 5956WAT     H224531   4.127   7.728   3.026
 5956WAT    EPW24532   4.192   7.710   2.985
 5957WAT      O24533   3.483   7.396   2.606
 5957WAT     H124534   3.520   7.457   2.557
 5957WAT     H224535   3.550   7.348   2.635
 5957WAT    EPW24536   3.498   7.398   2.603
 5958WAT      O24537   3.260   7.240   2.534
 5958WAT     H124538   3.268   7.223   2.448
 5958WAT     H224539   3.335   7.281   2.553
 5958WAT    EPW24540   3.273   7.244   2.524
 5959WAT      O24541   4.816   7.504   1.578
 5959WAT     H124542   4.827   7.499   1.491
 5959WAT     H224543   4.890   7.471   1.609
 5959WAT    EPW24544   4.829   7.499   1.569
 5960WAT      O24545   3.516   6.981   2.775
 5960WAT     H124546   3.508   6.897   2.795
 5960WAT     H224547   3.484   6.986   2.693
 5960WAT    EPW24548   3.510   6.970   2.766
 5961WAT      O24549   4.727   7.519   2.513
 5961WAT     H124550   4.726   7.433   2.526
 5961WAT     H224551   4.733   7.551   2.594
 5961WAT    EPW24552   4.728   7.511   2.527
 5962WAT      O24553   3.200   7.763   2.556
 5962WAT     H124554   3.232   7.785   2.478
 5962WAT     H224555   3.190   7.676   2.550
 5962WAT    EPW24556   3.203   7.753   2.544
 5963WAT      O24557   3.346   7.357   1.218
 5963WAT     H124558   3.279   7.358   1.273
 5963WAT     H224559   3.355   7.272   1.199
 5963WAT    EPW24560   3.337   7.344   1.223
 5964WAT      O24561   4.314   6.999   2.891
 5964WAT     H124562   4.324   7.070   2.941
 5964WAT     H224563   4.251   6.954   2.931
 5964WAT    EPW24564   4.306   7.003   2.905
 5965WAT      O24565   4.214   7.018   1.977
 5965WAT     H124566   4.144   7.070   1.971
 5965WAT     H224567   4.218   6.980   1.898
 5965WAT    EPW24568   4.204   7.020   1.964
 5966WAT      O24569   4.574   7.070   2.257
 5966WAT     H124570   4.659   7.079   2.271
 5966WAT     H224571   4.537   7.125   2.313
 5966WAT    EPW24572   4.581   7.079   2.267
 5967WAT      O24573   3.676   7.692   2.694
 5967WAT     H124574   3.637   7.770   2.702
 5967WAT     H224575   3.636   7.655   2.627
 5967WAT    EPW24576   3.665   7.698   2.686
 5968WAT      O24577   4.604   7.598   2.106
 5968WAT     H124578   4.671   7.652   2.122
 5968WAT     H224579   4.570   7.629   2.032
 5968WAT    EPW24580   4.609   7.610   2.097
 5969WAT      O24581   3.719   6.990   2.439
 5969WAT     H124582   3.633   6.998   2.447
 5969WAT     H224583   3.741   6.938   2.506
 5969WAT    EPW24584   3.710   6.984   2.451
 5970WAT      O24585   4.921   6.853   2.572
 5970WAT     H124586   4.916   6.849   2.659
 5970WAT     H224587   4.990   6.803   2.553
 5970WAT    EPW24588   4.931   6.845   2.582
 5971WAT      O24589   4.130   7.065   2.277
 5971WAT     H124590   4.056   7.019   2.288
 5971WAT     H224591   4.187   7.024   2.329
 5971WAT    EPW24592   4.127   7.052   2.286
 5972WAT      O24593   3.880   7.498   2.797
 5972WAT     H124594   3.848   7.440   2.740
 5972WAT     H224595   3.844   7.573   2.773
 5972WAT    EPW24596   3.870   7.500   2.785
 5973WAT      O24597   3.960   6.823   1.260
 5973WAT     H124598   3.967   6.847   1.177
 5973WAT     H224599   3.885   6.860   1.286
 5973WAT    EPW24600   3.950   6.832   1.251
 5974WAT      O24601   3.441   6.998   2.504
 5974WAT     H124602   3.407   6.921   2.481
 5974WAT     H224603   3.372   7.051   2.511
 5974WAT    EPW24604   3.426   6.995   2.502
 5975WAT      O24605   4.346   6.884   2.202
 5975WAT     H124606   4.413   6.938   2.215
 5975WAT     H224607   4.296   6.926   2.145
 5975WAT    EPW24608   4.348   6.898   2.195
 5976WAT      O24609   4.282   7.465   1.951
 5976WAT     H124610   4.337   7.404   1.981
 5976WAT     H224611   4.239   7.491   2.023
 5976WAT    EPW24612   4.284   7.459   1.966
 5977WAT      O24613   3.307   7.330   1.900
 5977WAT     H124614   3.270   7.360   1.973
 5977WAT     H224615   3.360   7.267   1.928
 5977WAT    EPW24616   3.309   7.325   1.915
 5978WAT      O24617   4.479   7.648   1.607
 5978WAT     H124618   4.486   7.563   1.626
 5978WAT     H224619   4.397   7.656   1.580
 5978WAT    EPW24620   4.468   7.636   1.606
 5979WAT      O24621   3.871   7.737   1.501
 5979WAT     H124622   3.881   7.751   1.416
 5979WAT     H224623   3.953   7.731   1.531
 5979WAT    EPW24624   3.884   7.738   1.493
 5980WAT      O24625   4.806   7.785   2.923
 5980WAT     H124626   4.870   7.768   2.980
 5980WAT     H224627   4.848   7.825   2.857
 5980WAT    EPW24628   4.822   7.788   2.921
 5981WAT      O24629   4.869   7.241   2.996
 5981WAT     H124630   4.849   7.306   3.052
 5981WAT     H224631   4.797   7.192   2.996
 5981WAT    EPW24632   4.855   7.244   3.004
 5982WAT      O24633   4.859   7.335   2.293
 5982WAT     H124634   4.775   7.360   2.286
 5982WAT     H224635   4.853   7.251   2.316
 5982WAT    EPW24636   4.846   7.327   2.296
 5983WAT      O24637   3.785   7.034   2.813
 5983WAT     H124638   3.808   6.977   2.752
 5983WAT     H224639   3.700   7.016   2.827
 5983WAT    EPW24640   3.776   7.023   2.806
 5984WAT      O24641   4.547   7.796   3.058
 5984WAT     H124642   4.634   7.792   3.054
 5984WAT     H224643   4.525   7.838   2.985
 5984WAT    EPW24644   4.557   7.802   3.047
 5985WAT      O24645   4.205   7.546   0.315
 5985WAT     H124646   4.152   7.606   0.352
 5985WAT     H224647   4.244   7.509   0.384
 5985WAT    EPW24648   4.203   7.550   0.331
 5986WAT      O24649   3.781   7.247   0.441
 5986WAT     H124650   3.849   7.249   0.387
 5986WAT     H224651   3.776   7.163   0.466
 5986WAT    EPW24652   3.790   7.235   0.437
 5987WAT      O24653   4.153   7.452   0.925
 5987WAT     H124654   4.068   7.442   0.907
 5987WAT     H224655   4.156   7.526   0.970
 5987WAT    EPW24656   4.141   7.461   0.929
 5988WAT      O24657   4.609   6.748   0.836
 5988WAT     H124658   4.593   6.825   0.798
 5988WAT     H224659   4.532   6.726   0.871
 5988WAT    EPW24660   4.595   6.756   0.836
 5989WAT      O24661   3.176   7.462   0.208
 5989WAT     H124662   3.150   7.545   0.201
 5989WAT     H224663   3.109   7.424   0.250
 5989WAT    EPW24664   3.162   7.468   0.213
 5990WAT      O24665   3.479   6.944   0.257
 5990WAT     H124666   3.427   6.881   0.226
 5990WAT     H224667   3.538   6.900   0.304
 5990WAT    EPW24668   3.480   6.928   0.260
 5991WAT      O24669   3.809   7.157   1.187
 5991WAT     H124670   3.821   7.111   1.113
 5991WAT     H224671   3.838   7.237   1.167
 5991WAT    EPW24672   3.815   7.162   1.173
 5992WAT      O24673   3.383   7.117   1.085
 5992WAT     H124674   3.305   7.078   1.078
 5992WAT     H224675   3.432   7.075   1.026
 5992WAT    EPW24676   3.378   7.105   1.076
 5993WAT      O24677   4.047   6.881   1.002
 5993WAT     H124678   4.065   6.800   0.975
 5993WAT     H224679   4.033   6.925   0.928
 5993WAT    EPW24680   4.048   6.875   0.987
 5994WAT      O24681   4.862   7.042   0.454
 5994WAT     H124682   4.938   7.049   0.411
 5994WAT     H224683   4.868   6.964   0.494
 5994WAT    EPW24684   4.874   7.031   0.454
 5995WAT      O24685   3.117   7.171   0.844
 5995WAT     H124686   3.117   7.230   0.909
 5995WAT     H224687   3.177   7.203   0.788
 5995WAT    EPW24688   3.126   7.185   0.845
 5996WAT      O24689   3.758   7.808   0.289
 5996WAT     H124690   3.775   7.787   0.371
 5996WAT     H224691   3.692   7.755   0.267
 5996WAT    EPW24692   3.751   7.797   0.298
 5997WAT      O24693   4.380   7.199   0.640
 5997WAT     H124694   4.371   7.231   0.721
 5997WAT     H224695   4.321   7.136   0.636
 5997WAT    EPW24696   4.370   7.195   0.651
 5998WAT      O24697   4.752   7.217   0.754
 5998WAT     H124698   4.830   7.195   0.788
 5998WAT     H224699   4.705   7.239   0.824
 5998WAT    EPW24700   4.757   7.217   0.770
 5999WAT      O24701   3.321   7.256   0.360
 5999WAT     H124702   3.405   7.278   0.355
 5999WAT     H224703   3.282   7.313   0.307
 5999WAT    EPW24704   3.328   7.268   0.351
 6000WAT      O24705   3.906   7.424   1.171
 6000WAT     H124706   3.858   7.482   1.216
 6000WAT     H224707   3.904   7.454   1.089
 6000WAT    EPW24708   3.899   7.437   1.166
 6001WAT      O24709   5.016   7.493   0.633
 6001WAT     H124710   5.038   7.413   0.605
 6001WAT     H224711   4.931   7.499   0.614
 6001WAT    EPW24712   5.007   7.482   0.626
 6002WAT      O24713   3.464   7.505   1.007
 6002WAT     H124714   3.410   7.455   1.054
 6002WAT     H224715   3.466   7.466   0.929
 6002WAT    EPW24716   3.456   7.492   1.003
 6003WAT      O24717   3.572   7.602   0.528
 6003WAT     H124718   3.575   7.534   0.473
 6003WAT     H224719   3.507   7.651   0.497
 6003WAT    EPW24720   3.563   7.599   0.515
 6004WAT      O24721   4.562   7.373   0.368
 6004WAT     H124722   4.495   7.406   0.414
 6004WAT     H224723   4.580   7.436   0.311
 6004WAT    EPW24724   4.555   7.387   0.366
 6005WAT      O24725   4.226   6.963   0.711
 6005WAT     H124726   4.241   6.881   0.686
 6005WAT     H224727   4.264   6.969   0.789
 6005WAT    EPW24728   4.234   6.952   0.719
 6006WAT      O24729   3.352   7.737   1.084
 6006WAT     H124730   3.348   7.787   1.013
 6006WAT     H224731   3.385   7.662   1.054
 6006WAT    EPW24732   3.356   7.733   1.069
 6007WAT      O24733   4.039   7.317   0.291
 6007WAT     H124734   4.087   7.387   0.312
 6007WAT     H224735   4.076   7.252   0.336
 6007WAT    EPW24736   4.052   7.318   0.301
 6008WAT      O24737   4.687   7.812   0.726
 6008WAT     H124738   4.692   7.825   0.640
 6008WAT     H224739   4.762   7.844   0.756
 6008WAT    EPW24740   4.699   7.819   0.717
 6009WAT      O24741   4.790   6.842   1.024
 6009WAT     H124742   4.726   6.802   0.980
 6009WAT     H224743   4.793   6.799   1.100
 6009WAT    EPW24744   4.781   6.830   1.029
 6010WAT      O24745   4.260   7.793   0.686
 6010WAT     H124746   4.245   7.854   0.746
 6010WAT     H224747   4.313   7.737   0.726
 6010WAT    EPW24748   4.266   7.794   0.701
 6011WAT      O24749   4.021   7.837   0.195
 6011WAT     H124750   3.936   7.818   0.203
 6011WAT     H224751   4.053   7.821   0.274
 6011WAT    EPW24752   4.013   7.832   0.208
 6012WAT      O24753   3.406   7.807   0.426
 6012WAT     H124754   3.478   7.856   0.423
 6012WAT     H224755   3.379   7.804   0.343
 6012WAT    EPW24756   3.412   7.814   0.413
 6013WAT      O24757   4.714   7.760   0.450
 6013WAT     H124758   4.713   7.682   0.490
 6013WAT     H224759   4.630   7.783   0.450
 6013WAT    EPW24760   4.702   7.752   0.456
 6014WAT      O24761   4.840   7.767   0.194
 6014WAT     H124762   4.811   7.807   0.266
 6014WAT     H224763   4.926   7.761   0.207
 6014WAT    EPW24764   4.848   7.772   0.207
 6015WAT      O24765   4.606   7.159   1.048
 6015WAT     H124766   4.553   7.205   1.100
 6015WAT     H224767   4.570   7.080   1.047
 6015WAT    EPW24768   4.593   7.154   1.056
 6016WAT      O24769   4.455   7.516   1.056
 6016WAT     H124770   4.462   7.527   1.142
 6016WAT     H224771   4.392   7.572   1.034
 6016WAT    EPW24772   4.447   7.526   1.065
 6017WAT      O24773   4.682   7.548   0.892
 6017WAT     H124774   4.714   7.627   0.912
 6017WAT     H224775   4.645   7.521   0.966
 6017WAT    EPW24776   4.681   7.556   0.906
 6018WAT      O24777   4.952   7.602   1.166
 6018WAT     H124778   4.947   7.568   1.086
 6018WAT     H224779   5.025   7.649   1.163
 6018WAT    EPW24780   4.962   7.604   1.153
 6019WAT      O24781   4.553   7.007   0.757
 6019WAT     H124782   4.627   7.052   0.751
 6019WAT     H224783   4.496   7.054   0.710
 6019WAT    EPW24784   4.555   7.021   0.749
 6020WAT      O24785   4.071   7.735   0.465
 6020WAT     H124786   4.118   7.773   0.528
 6020WAT     H224787   3.988   7.749   0.491
 6020WAT    EPW24788   4.065   7.743   0.478
 6021WAT      O24789   3.742   7.296   0.739
 6021WAT     H124790   3.758   7.221   0.782
 6021WAT     H224791   3.737   7.271   0.656
 6021WAT    EPW24792   3.743   7.281   0.733
 6022WAT      O24793   4.681   6.805   0.524
 6022WAT     H124794   4.653   6.887   0.520
 6022WAT     H224795   4.753   6.810   0.574
 6022WAT    EPW24796   4.688   6.818   0.531
 6023WAT      O24797   3.917   6.876   0.727
 6023WAT     H124798   3.987   6.908   0.687
 6023WAT     H224799   3.941   6.796   0.750
 6023WAT    EPW24800   3.931   6.869   0.724
 6024WAT      O24801   3.568   7.382   0.333
 6024WAT     H124802   3.612   7.371   0.259
 6024WAT     H224803   3.622   7.350   0.394
 6024WAT    EPW24804   3.582   7.376   0.331
 6025WAT      O24805   4.369   7.292   0.892
 6025WAT     H124806   4.304   7.339   0.927
 6025WAT     H224807   4.426   7.283   0.958
 6025WAT    EPW24808   4.368   7.298   0.907
 6026WAT      O24809   4.338   7.446   0.522
 6026WAT     H124810   4.368   7.488   0.592
 6026WAT     H224811   4.342   7.362   0.545
 6026WAT    EPW24812   4.343   7.439   0.536
 6027WAT      O24813   3.922   6.880   0.338
 6027WAT     H124814   3.840   6.865   0.362
 6027WAT     H224815   3.918   6.884   0.251
 6027WAT    EPW24816   3.910   6.879   0.328
 6028WAT      O24817   3.179   6.920   0.941
 6028WAT     H124818   3.165   7.000   0.908
 6028WAT     H224819   3.100   6.896   0.970
 6028WAT    EPW24820   3.165   6.928   0.941
 6029WAT      O24821   4.953   7.510   0.909
 6029WAT     H124822   4.867   7.498   0.921
 6029WAT     H224823   4.968   7.470   0.832
 6029WAT    EPW24824   4.943   7.502   0.899
 6030WAT      O24825   4.404   7.576   0.766
 6030WAT     H124826   4.379   7.504   0.808
 6030WAT     H224827   4.486   7.588   0.793
 6030WAT    EPW24828   4.413   7.567   0.776
 6031WAT      O24829   4.198   7.695   1.085
 6031WAT     H124830   4.230   7.764   1.042
 6031WAT     H224831   4.127   7.728   1.125
 6031WAT    EPW24832   4.192   7.710   1.084
 6032WAT      O24833   3.483   7.396   0.705
 6032WAT     H124834   3.520   7.457   0.657
 6032WAT     H224835   3.550   7.348   0.734
 6032WAT    EPW24836   3.498   7.398   0.702
 6033WAT      O24837   3.260   7.240   0.633
 6033WAT     H124838   3.268   7.223   0.548
 6033WAT     H224839   3.335   7.281   0.653
 6033WAT    EPW24840   3.273   7.244   0.623
 6034WAT      O24841   3.516   6.981   0.874
 6034WAT     H124842   3.508   6.897   0.895
 6034WAT     H224843   3.484   6.986   0.793
 6034WAT    EPW24844   3.510   6.970   0.865
 6035WAT      O24845   4.727   7.519   0.613
 6035WAT     H124846   4.726   7.433   0.625
 6035WAT     H224847   4.733   7.551   0.693
 6035WAT    EPW24848   4.728   7.511   0.626
 6036WAT      O24849   3.200   7.763   0.655
 6036WAT     H124850   3.232   7.785   0.577
 6036WAT     H224851   3.190   7.676   0.650
 6036WAT    EPW24852   3.203   7.753   0.643
 6037WAT      O24853   4.314   6.999   0.991
 6037WAT     H124854   4.324   7.070   1.040
 6037WAT     H224855   4.251   6.954   1.030
 6037WAT    EPW24856   4.306   7.003   1.004
 6038WAT      O24857   4.574   7.070   0.356
 6038WAT     H124858   4.659   7.079   0.371
 6038WAT     H224859   4.537   7.125   0.413
 6038WAT    EPW24860   4.581   7.079   0.367
 6039WAT      O24861   3.676   7.692   0.794
 6039WAT     H124862   3.637   7.770   0.801
 6039WAT     H224863   3.636   7.655   0.726
 6039WAT    EPW24864   3.665   7.698   0.785
 6040WAT      O24865   3.719   6.990   0.539
 6040WAT     H124866   3.633   6.998   0.547
 6040WAT     H224867   3.741   6.938   0.606
 6040WAT    EPW24868   3.710   6.984   0.550
 6041WAT      O24869   4.921   6.853   0.672
 6041WAT     H124870   4.916   6.849   0.759
 6041WAT     H224871   4.990   6.803   0.653
 6041WAT    EPW24872   4.931   6.845   0.682
 6042WAT      O24873   4.130   7.065   0.376
 6042WAT     H124874   4.056   7.019   0.388
 6042WAT     H224875   4.187   7.024   0.429
 6042WAT    EPW24876   4.127   7.052   0.386
 6043WAT      O24877   3.880   7.498   0.897
 6043WAT     H124878   3.848   7.440   0.840
 6043WAT     H224879   3.844   7.573   0.872
 6043WAT    EPW24880   3.870   7.500   0.885
 6044WAT      O24881   3.441   6.998   0.604
 6044WAT     H124882   3.407   6.921   0.580
 6044WAT     H224883   3.372   7.051   0.610
 6044WAT    EPW24884   3.426   6.995   0.601
 6045WAT      O24885   4.346   6.884   0.301
 6045WAT     H124886   4.413   6.938   0.314
 6045WAT     H224887   4.296   6.926   0.244
 6045WAT    EPW24888   4.348   6.898   0.295
 6046WAT      O24889   4.806   7.785   1.022
 6046WAT     H124890   4.870   7.768   1.079
 6046WAT     H224891   4.848   7.825   0.957
 6046WAT    EPW24892   4.822   7.788   1.021
 6047WAT      O24893   4.869   7.241   1.096
 6047WAT     H124894   4.849   7.306   1.151
 6047WAT     H224895   4.797   7.192   1.095
 6047WAT    EPW24896   4.855   7.244   1.104
 6048WAT      O24897   4.859   7.335   0.393
 6048WAT     H124898   4.775   7.360   0.386
 6048WAT     H224899   4.853   7.251   0.416
 6048WAT    EPW24900   4.846   7.327   0.395
 6049WAT      O24901   3.785   7.034   0.912
 6049WAT     H124902   3.808   6.977   0.851
 6049WAT     H224903   3.700   7.016   0.926
 6049WAT    EPW24904   3.776   7.023   0.905
 6050WAT      O24905   4.547   7.796   1.157
 6050WAT     H124906   4.634   7.792   1.154
 6050WAT     H224907   4.525   7.838   1.084
 6050WAT    EPW24908   4.557   7.802   1.146
 6051WAT      O24909   3.192   6.112   7.464
 6051WAT     H124910   3.147   6.124   7.538
 6051WAT     H224911   3.163   6.035   7.435
 6051WAT    EPW24912   3.181   6.103   7.470
 6052WAT      O24913   4.819   6.442   7.215
 6052WAT     H124914   4.889   6.391   7.215
 6052WAT     H224915   4.760   6.398   7.168
 6052WAT    EPW24916   4.821   6.428   7.208
 6053WAT      O24917   3.166   5.492   7.114
 6053WAT     H124918   3.088   5.508   7.078
 6053WAT     H224919   3.170   5.404   7.116
 6053WAT    EPW24920   3.155   5.481   7.109
 6054WAT      O24921   3.480   6.018   6.981
 6054WAT     H124922   3.441   5.981   6.913
 6054WAT     H224923   3.472   5.958   7.044
 6054WAT    EPW24924   3.473   6.004   6.981
 6055WAT      O24925   4.472   5.805   7.586
 6055WAT     H124926   4.480   5.805   7.499
 6055WAT     H224927   4.413   5.742   7.600
 6055WAT    EPW24928   4.464   5.796   7.575
 6056WAT      O24929   3.442   6.182   7.371
 6056WAT     H124930   3.503   6.165   7.432
 6056WAT     H224931   3.367   6.168   7.414
 6056WAT    EPW24932   3.440   6.177   7.387
 6057WAT      O24933   3.871   5.115   7.366
 6057WAT     H124934   3.864   5.183   7.312
 6057WAT     H224935   3.945   5.077   7.341
 6057WAT    EPW24936   3.881   5.120   7.355
 6058WAT      O24937   3.332   6.491   6.979
 6058WAT     H124938   3.378   6.499   6.906
 6058WAT     H224939   3.377   6.433   7.026
 6058WAT    EPW24940   3.345   6.484   6.975
 6059WAT      O24941   3.330   5.838   7.509
 6059WAT     H124942   3.284   5.799   7.447
 6059WAT     H224943   3.400   5.787   7.518
 6059WAT    EPW24944   3.334   5.825   7.501
 6060WAT      O24945   3.530   5.648   7.512
 6060WAT     H124946   3.612   5.629   7.536
 6060WAT     H224947   3.483   5.587   7.551
 6060WAT    EPW24948   3.535   5.636   7.521
 6061WAT      O24949   3.951   6.246   7.773
 6061WAT     H124950   3.985   6.166   7.776
 6061WAT     H224951   4.017   6.296   7.747
 6061WAT    EPW24952   3.966   6.242   7.769
 6062WAT      O24953   3.956   6.191   7.394
 6062WAT     H124954   3.989   6.127   7.442
 6062WAT     H224955   3.980   6.170   7.313
 6062WAT    EPW24956   3.965   6.178   7.389
 6063WAT      O24957   3.590   5.157   7.438
 6063WAT     H124958   3.560   5.207   7.373
 6063WAT     H224959   3.677   5.165   7.432
 6063WAT    EPW24960   3.598   5.166   7.428
 6064WAT      O24961   3.888   5.072   7.660
 6064WAT     H124962   3.895   5.158   7.673
 6064WAT     H224963   3.884   5.064   7.574
 6064WAT    EPW24964   3.888   5.083   7.650
 6065WAT      O24965   4.355   5.364   6.890
 6065WAT     H124966   4.310   5.432   6.921
 6065WAT     H224967   4.367   5.314   6.961
 6065WAT    EPW24968   4.350   5.367   6.905
 6066WAT      O24969   3.176   5.614   7.811
 6066WAT     H124970   3.150   5.697   7.803
 6066WAT     H224971   3.109   5.576   7.852
 6066WAT    EPW24972   3.162   5.621   7.816
 6067WAT      O24973   3.167   6.585   7.601
 6067WAT     H124974   3.108   6.641   7.569
 6067WAT     H224975   3.209   6.558   7.529
 6067WAT    EPW24976   3.164   6.589   7.585
 6068WAT      O24977   3.751   6.369   7.349
 6068WAT     H124978   3.693   6.342   7.408
 6068WAT     H224979   3.813   6.309   7.351
 6068WAT    EPW24980   3.751   6.356   7.358
 6069WAT      O24981   4.365   6.598   7.101
 6069WAT     H124982   4.438   6.645   7.111
 6069WAT     H224983   4.388   6.519   7.129
 6069WAT    EPW24984   4.379   6.594   7.106
 6070WAT      O24985   4.182   6.637   7.300
 6070WAT     H124986   4.203   6.690   7.366
 6070WAT     H224987   4.259   6.620   7.262
 6070WAT    EPW24988   4.196   6.643   7.304
 6071WAT      O24989   3.321   6.452   7.394
 6071WAT     H124990   3.387   6.395   7.395
 6071WAT     H224991   3.360   6.527   7.372
 6071WAT    EPW24992   3.337   6.455   7.391
 6072WAT      O24993   4.895   5.361   7.520
 6072WAT     H124994   4.860   5.429   7.562
 6072WAT     H224995   4.831   5.302   7.521
 6072WAT    EPW24996   4.880   5.363   7.526
 6073WAT      O24997   3.403   6.301   7.744
 6073WAT     H124998   3.445   6.265   7.676
 6073WAT     H224999   3.435   6.259   7.813
 6073WAT    EPW25000   3.414   6.289   7.744
 6074WAT      O25001   3.726   6.586   7.673
 6074WAT     H125002   3.811   6.596   7.654
 6074WAT     H225003   3.696   6.668   7.680
 6074WAT    EPW25004   3.734   6.600   7.671
 6075WAT      O25005   4.107   5.526   7.482
 6075WAT     H125006   4.136   5.502   7.403
 6075WAT     H225007   4.180   5.534   7.529
 6075WAT    EPW25008   4.122   5.523   7.477
 6076WAT      O25009   4.179   5.560   6.994
 6076WAT     H125010   4.207   5.638   7.019
 6076WAT     H225011   4.101   5.576   6.958
 6076WAT    EPW25012   4.172   5.574   6.992
 6077WAT      O25013   4.583   6.757   7.141
 6077WAT     H125014   4.650   6.742   7.086
 6077WAT     H225015   4.619   6.749   7.220
 6077WAT    EPW25016   4.598   6.754   7.144
 6078WAT      O25017   4.065   6.377   6.976
 6078WAT     H125018   4.047   6.431   7.041
 6078WAT     H225019   4.142   6.406   6.946
 6078WAT    EPW25020   4.074   6.389   6.981
 6079WAT      O25021   4.416   5.166   7.081
 6079WAT     H125022   4.470   5.098   7.089
 6079WAT     H225023   4.422   5.206   7.158
 6079WAT    EPW25024   4.425   5.162   7.094
 6080WAT      O25025   3.211   5.283   7.338
 6080WAT     H125026   3.200   5.197   7.341
 6080WAT     H225027   3.164   5.312   7.405
 6080WAT    EPW25028   3.202   5.275   7.348
 6081WAT      O25029   4.141   5.404   7.212
 6081WAT     H125030   4.091   5.338   7.187
 6081WAT     H225031   4.147   5.454   7.141
 6081WAT    EPW25032   4.135   5.402   7.198
 6082WAT      O25033   4.141   5.098   7.202
 6082WAT     H125034   4.096   5.058   7.139
 6082WAT     H225035   4.219   5.113   7.164
 6082WAT    EPW25036   4.146   5.094   7.187
 6083WAT      O25037   4.824   6.734   7.541
 6083WAT     H125038   4.779   6.805   7.561
 6083WAT     H225039   4.763   6.677   7.516
 6083WAT    EPW25040   4.808   6.736   7.540
 6084WAT      O25041   4.001   5.335   7.654
 6084WAT     H125042   4.009   5.391   7.588
 6084WAT     H225043   4.013   5.384   7.725
 6084WAT    EPW25044   4.004   5.350   7.655
 6085WAT      O25045   4.524   6.318   7.495
 6085WAT     H125046   4.594   6.270   7.514
 6085WAT     H225047   4.458   6.261   7.499
 6085WAT    EPW25048   4.524   6.303   7.498
 6086WAT      O25049   3.462   4.917   7.489
 6086WAT     H125050   3.516   4.986   7.488
 6086WAT     H225051   3.462   4.890   7.406
 6086WAT    EPW25052   3.470   4.923   7.476
 6087WAT      O25053   4.506   4.946   7.526
 6087WAT     H125054   4.511   4.914   7.607
 6087WAT     H225055   4.538   4.882   7.477
 6087WAT    EPW25056   4.512   4.932   7.531
 6088WAT      O25057   3.507   5.298   7.654
 6088WAT     H125058   3.534   5.255   7.583
 6088WAT     H225059   3.489   5.234   7.711
 6088WAT    EPW25060   3.508   5.282   7.652
 6089WAT      O25061   4.776   6.067   7.076
 6089WAT     H125062   4.788   6.039   7.157
 6089WAT     H225063   4.856   6.070   7.043
 6089WAT    EPW25064   4.789   6.064   7.083
 6090WAT      O25065   3.489   6.041   7.609
 6090WAT     H125066   3.574   6.033   7.592
 6090WAT     H225067   3.454   5.972   7.568
 6090WAT    EPW25068   3.497   6.029   7.600
 6091WAT      O25069   3.366   6.713   7.733
 6091WAT     H125070   3.299   6.663   7.708
 6091WAT     H225071   3.406   6.732   7.657
 6091WAT    EPW25072   3.362   6.709   7.718
 6092WAT      O25073   4.565   5.721   7.034
 6092WAT     H125074   4.543   5.794   6.992
 6092WAT     H225075   4.520   5.726   7.109
 6092WAT    EPW25076   4.555   5.733   7.039
 6093WAT      O25077   3.726   6.041   7.432
 6093WAT     H125078   3.797   6.091   7.441
 6093WAT     H225079   3.748   5.985   7.370
 6093WAT    EPW25080   3.740   6.040   7.424
 6094WAT      O25081   4.984   5.207   6.980
 6094WAT     H125082   4.918   5.150   6.982
 6094WAT     H225083   4.965   5.258   6.912
 6094WAT    EPW25084   4.971   5.206   6.970
 6095WAT      O25085   3.142   6.206   7.764
 6095WAT     H125086   3.075   6.254   7.792
 6095WAT     H225087   3.210   6.260   7.767
 6095WAT    EPW25088   3.142   6.221   7.769
 6096WAT      O25089   3.148   5.874   7.275
 6096WAT     H125090   3.130   5.790   7.290
 6096WAT     H225091   3.214   5.870   7.218
 6096WAT    EPW25092   3.155   5.861   7.268
 6097WAT      O25093   4.784   5.163   7.207
 6097WAT     H125094   4.859   5.122   7.227
 6097WAT     H225095   4.810   5.235   7.165
 6097WAT    EPW25096   4.799   5.168   7.204
 6098WAT      O25097   4.178   6.412   7.665
 6098WAT     H125098   4.126   6.475   7.636
 6098WAT     H225099   4.209   6.375   7.592
 6098WAT    EPW25100   4.175   6.416   7.650
 6099WAT      O25101   3.165   6.290   7.232
 6099WAT     H125102   3.221   6.347   7.269
 6099WAT     H225103   3.142   6.239   7.299
 6099WAT    EPW25104   3.170   6.291   7.247
 6100WAT      O25105   4.429   5.392   7.715
 6100WAT     H125106   4.464   5.407   7.793
 6100WAT     H225107   4.384   5.318   7.726
 6100WAT    EPW25108   4.428   5.383   7.728
 6101WAT      O25109   3.148   6.135   6.995
 6101WAT     H125110   3.224   6.092   7.001
 6101WAT     H225111   3.150   6.189   7.064
 6101WAT    EPW25112   3.160   6.137   7.006
 6102WAT      O25113   3.242   5.957   7.795
 6102WAT     H125114   3.286   5.945   7.721
 6102WAT     H225115   3.222   6.042   7.793
 6102WAT    EPW25116   3.246   5.968   7.784
 6103WAT      O25117   3.877   5.314   7.160
 6103WAT     H125118   3.877   5.302   7.074
 6103WAT     H225119   3.859   5.399   7.170
 6103WAT    EPW25120   3.874   5.325   7.149
 6104WAT      O25121   3.651   6.309   7.624
 6104WAT     H125122   3.663   6.393   7.642
 6104WAT     H225123   3.718   6.269   7.663
 6104WAT    EPW25124   3.663   6.316   7.632
 6105WAT      O25125   3.512   5.597   7.124
 6105WAT     H125126   3.500   5.552   7.198
 6105WAT     H225127   3.454   5.563   7.069
 6105WAT    EPW25128   3.502   5.585   7.127
 6106WAT      O25129   3.529   5.780   7.784
 6106WAT     H125130   3.451   5.774   7.745
 6106WAT     H225131   3.536   5.705   7.827
 6106WAT    EPW25132   3.519   5.768   7.785
 6107WAT      O25133   4.381   5.322   7.321
 6107WAT     H125134   4.430   5.394   7.314
 6107WAT     H225135   4.302   5.348   7.295
 6107WAT    EPW25136   4.376   5.336   7.316
 6108WAT      O25137   4.755   6.173   7.519
 6108WAT     H125138   4.791   6.138   7.591
 6108WAT     H225139   4.754   6.107   7.462
 6108WAT    EPW25140   4.760   6.158   7.521
 6109WAT      O25141   4.361   6.165   7.844
 6109WAT     H125142   4.281   6.187   7.871
 6109WAT     H225143   4.387   6.105   7.902
 6109WAT    EPW25144   4.353   6.159   7.856
 6110WAT      O25145   3.750   6.646   7.288
 6110WAT     H125146   3.735   6.568   7.326
 6110WAT     H225147   3.819   6.631   7.237
 6110WAT    EPW25148   3.758   6.632   7.286
 6111WAT      O25149   3.717   5.020   7.087
 6111WAT     H125150   3.727   5.009   7.173
 6111WAT     H225151   3.646   5.071   7.081
 6111WAT    EPW25152   3.708   5.026   7.099
 6112WAT      O25153   3.979   6.597   7.129
 6112WAT     H125154   4.042   6.614   7.188
 6112WAT     H225155   3.983   6.666   7.075
 6112WAT    EPW25156   3.989   6.610   7.130
 6113WAT      O25157   3.129   5.017   7.308
 6113WAT     H125158   3.142   4.946   7.259
 6113WAT     H225159   3.092   4.985   7.381
 6113WAT    EPW25160   3.126   5.002   7.312
 6114WAT      O25161   4.098   5.785   7.354
 6114WAT     H125162   4.104   5.850   7.412
 6114WAT     H225163   4.080   5.715   7.403
 6114WAT    EPW25164   4.097   5.784   7.370
 6115WAT      O25165   3.548   5.237   7.005
 6115WAT     H125166   3.497   5.242   6.935
 6115WAT     H225167   3.626   5.261   6.976
 6115WAT    EPW25168   3.552   5.241   6.990
 6116WAT      O25169   4.021   5.990   7.797
 6116WAT     H125170   3.936   5.970   7.805
 6116WAT     H225171   4.053   5.973   7.876
 6116WAT    EPW25172   4.013   5.984   7.810
 6117WAT      O25173   3.696   6.663   6.886
 6117WAT     H125174   3.740   6.593   6.915
 6117WAT     H225175   3.717   6.725   6.943
 6117WAT    EPW25176   3.706   6.662   6.898
 6118WAT      O25177   3.729   5.476   7.702
 6118WAT     H125178   3.813   5.457   7.712
 6118WAT     H225179   3.692   5.398   7.688
 6118WAT    EPW25180   3.736   5.462   7.702
 6119WAT      O25181   4.990   6.634   7.135
 6119WAT     H125182   5.060   6.588   7.110
 6119WAT     H225183   4.936   6.575   7.169
 6119WAT    EPW25184   4.993   6.619   7.136
 6120WAT      O25185   3.211   5.610   7.368
 6120WAT     H125186   3.260   5.581   7.434
 6120WAT     H225187   3.224   5.551   7.305
 6120WAT    EPW25188   3.220   5.597   7.368
 6121WAT      O25189   3.663   5.753   6.916
 6121WAT     H125190   3.602   5.713   6.964
 6121WAT     H225191   3.625   5.765   6.839
 6121WAT    EPW25192   3.648   5.749   6.912
 6122WAT      O25193   4.840   5.919   7.797
 6122WAT     H125194   4.811   5.959   7.869
 6122WAT     H225195   4.926   5.913   7.809
 6122WAT    EPW25196   4.848   5.924   7.809
 6123WAT      O25197   3.809   5.599   7.187
 6123WAT     H125198   3.836   5.682   7.194
 6123WAT     H225199   3.722   5.607   7.178
 6123WAT    EPW25200   3.800   5.613   7.187
 6124WAT      O25201   3.157   5.196   7.841
 6124WAT     H125202   3.161   5.231   7.761
 6124WAT     H225203   3.232   5.220   7.878
 6124WAT    EPW25204   3.168   5.205   7.835
 6125WAT      O25205   4.953   6.482   7.849
 6125WAT     H125206   4.982   6.508   7.771
 6125WAT     H225207   5.022   6.492   7.901
 6125WAT    EPW25208   4.967   6.488   7.846
 6126WAT      O25209   4.613   6.343   7.048
 6126WAT     H125210   4.647   6.262   7.051
 6126WAT     H225211   4.538   6.336   7.091
 6126WAT    EPW25212   4.607   6.330   7.055
 6127WAT      O25213   4.662   5.526   7.614
 6127WAT     H125214   4.587   5.494   7.645
 6127WAT     H225215   4.662   5.609   7.642
 6127WAT    EPW25216   4.651   5.534   7.622
 6128WAT      O25217   4.351   6.130   6.988
 6128WAT     H125218   4.419   6.079   6.971
 6128WAT     H225219   4.309   6.135   6.911
 6128WAT    EPW25220   4.355   6.123   6.974
 6129WAT      O25221   3.997   6.627   7.590
 6129WAT     H125222   4.052   6.695   7.596
 6129WAT     H225223   3.962   6.635   7.511
 6129WAT    EPW25224   4.000   6.638   7.579
 6130WAT      O25225   4.823   5.583   7.012
 6130WAT     H125226   4.861   5.650   6.972
 6130WAT     H225227   4.739   5.605   7.015
 6130WAT    EPW25228   4.816   5.596   7.007
 6131WAT      O25229   3.975   5.927   6.921
 6131WAT     H125230   3.894   5.910   6.892
 6131WAT     H225231   3.971   6.012   6.940
 6131WAT    EPW25232   3.962   5.937   6.919
 6132WAT      O25233   4.593   5.543   7.350
 6132WAT     H125234   4.614   5.522   7.432
 6132WAT     H225235   4.668   5.569   7.316
 6132WAT    EPW25236   4.607   5.544   7.357
 6133WAT      O25237   4.695   5.151   7.497
 6133WAT     H125238   4.624   5.104   7.514
 6133WAT     H225239   4.679   5.185   7.419
 6133WAT    EPW25240   4.682   5.149   7.488
 6134WAT      O25241   4.739   5.945   7.335
 6134WAT     H125242   4.787   5.872   7.330
 6134WAT     H225243   4.657   5.917   7.328
 6134WAT    EPW25244   4.734   5.930   7.333
 6135WAT      O25245   3.485   5.347   7.266
 6135WAT     H125246   3.498   5.314   7.187
 6135WAT     H225247   3.404   5.322   7.286
 6135WAT    EPW25248   3.475   5.338   7.258
 6136WAT      O25249   4.361   6.062   7.571
 6136WAT     H125250   4.369   6.096   7.651
 6136WAT     H225251   4.378   5.977   7.583
 6136WAT    EPW25252   4.365   6.054   7.584
 6137WAT      O25253   4.113   5.989   7.527
 6137WAT     H125254   4.083   5.958   7.603
 6137WAT     H225255   4.183   6.037   7.551
 6137WAT    EPW25256   4.119   5.992   7.542
 6138WAT      O25257   4.506   6.685   7.780
 6138WAT     H125258   4.461   6.749   7.818
 6138WAT     H225259   4.577   6.677   7.831
 6138WAT    EPW25260   4.510   6.693   7.793
 6139WAT      O25261   4.816   5.657   7.279
 6139WAT     H125262   4.827   5.651   7.193
 6139WAT     H225263   4.890   5.623   7.311
 6139WAT    EPW25264   4.829   5.651   7.271
 6140WAT      O25265   4.208   6.353   7.390
 6140WAT     H125266   4.188   6.436   7.374
 6140WAT     H225267   4.131   6.315   7.402
 6140WAT    EPW25268   4.194   6.360   7.390
 6141WAT      O25269   3.346   5.509   6.920
 6141WAT     H125270   3.279   5.510   6.975
 6141WAT     H225271   3.355   5.424   6.901
 6141WAT    EPW25272   3.337   5.496   6.925
 6142WAT      O25273   4.214   5.170   7.679
 6142WAT     H125274   4.144   5.222   7.673
 6142WAT     H225275   4.218   5.132   7.600
 6142WAT    EPW25276   4.204   5.172   7.666
 6143WAT      O25277   3.745   6.379   7.031
 6143WAT     H125278   3.789   6.387   7.106
 6143WAT     H225279   3.664   6.358   7.057
 6143WAT    EPW25280   3.739   6.377   7.046
 6144WAT      O25281   4.604   5.750   7.808
 6144WAT     H125282   4.671   5.804   7.824
 6144WAT     H225283   4.570   5.781   7.734
 6144WAT    EPW25284   4.609   5.762   7.799
 6145WAT      O25285   4.635   6.556   7.388
 6145WAT     H125286   4.618   6.491   7.443
 6145WAT     H225287   4.707   6.529   7.346
 6145WAT    EPW25288   4.643   6.543   7.390
 6146WAT      O25289   3.477   6.286   7.091
 6146WAT     H125290   3.453   6.256   7.169
 6146WAT     H225291   3.474   6.216   7.040
 6146WAT    EPW25292   3.473   6.271   7.095
 6147WAT      O25293   3.759   6.111   6.965
 6147WAT     H125294   3.678   6.084   6.979
 6147WAT     H225295   3.757   6.196   6.984
 6147WAT    EPW25296   3.747   6.119   6.970
 6148WAT      O25297   3.960   4.975   6.962
 6148WAT     H125298   3.967   5.000   6.879
 6148WAT     H225299   3.885   5.013   6.988
 6148WAT    EPW25300   3.950   4.984   6.953
 6149WAT      O25301   4.282   5.617   7.653
 6149WAT     H125302   4.337   5.556   7.683
 6149WAT     H225303   4.239   5.643   7.725
 6149WAT    EPW25304   4.284   5.612   7.668
 6150WAT      O25305   3.307   5.482   7.602
 6150WAT     H125306   3.270   5.512   7.675
 6150WAT     H225307   3.360   5.419   7.630
 6150WAT    EPW25308   3.309   5.477   7.617
 6151WAT      O25309   4.479   5.800   7.309
 6151WAT     H125310   4.486   5.715   7.327
 6151WAT     H225311   4.397   5.808   7.282
 6151WAT    EPW25312   4.468   5.789   7.308
 6152WAT      O25313   3.454   6.649   7.230
 6152WAT     H125314   3.440   6.665   7.146
 6152WAT     H225315   3.541   6.657   7.238
 6152WAT    EPW25316   3.465   6.653   7.219
 6153WAT      O25317   3.871   5.889   7.203
 6153WAT     H125318   3.881   5.903   7.118
 6153WAT     H225319   3.953   5.883   7.233
 6153WAT    EPW25320   3.884   5.890   7.195
 6154WAT      O25321   4.787   6.695   6.951
 6154WAT     H125322   4.850   6.682   7.009
 6154WAT     H225323   4.753   6.616   6.939
 6154WAT    EPW25324   4.791   6.682   6.958
 6155WAT      O25325   4.394   6.322   7.183
 6155WAT     H125326   4.369   6.309   7.266
 6155WAT     H225327   4.363   6.252   7.141
 6155WAT    EPW25328   4.386   6.310   7.189
 6156WAT      O25329   3.523   6.531   7.878
 6156WAT     H125330   3.515   6.450   7.846
 6156WAT     H225331   3.478   6.579   7.821
 6156WAT    EPW25332   3.515   6.526   7.865
 6157WAT      O25333   4.083   6.143   7.126
 6157WAT     H125334   4.155   6.108   7.091
 6157WAT     H225335   4.079   6.223   7.092
 6157WAT    EPW25336   4.093   6.149   7.116
 6158WAT      O25337   4.205   5.698   6.017
 6158WAT     H125338   4.152   5.758   6.054
 6158WAT     H225339   4.244   5.662   6.086
 6158WAT    EPW25340   4.203   5.702   6.033
 6159WAT      O25341   3.192   6.112   5.563
 6159WAT     H125342   3.147   6.124   5.637
 6159WAT     H225343   3.163   6.035   5.534
 6159WAT    EPW25344   3.181   6.103   5.570
 6160WAT      O25345   4.819   6.442   5.314
 6160WAT     H125346   4.889   6.391   5.314
 6160WAT     H225347   4.760   6.398   5.267
 6160WAT    EPW25348   4.821   6.428   5.307
 6161WAT      O25349   3.480   6.018   5.081
 6161WAT     H125350   3.441   5.981   5.012
 6161WAT     H225351   3.472   5.958   5.144
 6161WAT    EPW25352   3.473   6.004   5.080
 6162WAT      O25353   4.472   5.805   5.685
 6162WAT     H125354   4.480   5.805   5.598
 6162WAT     H225355   4.413   5.742   5.700
 6162WAT    EPW25356   4.464   5.796   5.674
 6163WAT      O25357   3.442   6.182   5.471
 6163WAT     H125358   3.503   6.165   5.531
 6163WAT     H225359   3.367   6.168   5.513
 6163WAT    EPW25360   3.440   6.177   5.486
 6164WAT      O25361   3.332   6.491   5.078
 6164WAT     H125362   3.378   6.499   5.005
 6164WAT     H225363   3.377   6.433   5.125
 6164WAT    EPW25364   3.345   6.484   5.075
 6165WAT      O25365   3.186   6.386   6.188
 6165WAT     H125366   3.198   6.358   6.270
 6165WAT     H225367   3.125   6.332   6.157
 6165WAT    EPW25368   3.178   6.374   6.196
 6166WAT      O25369   3.843   6.138   6.695
 6166WAT     H125370   3.819   6.138   6.779
 6166WAT     H225371   3.768   6.124   6.653
 6166WAT    EPW25372   3.828   6.136   6.701
 6167WAT      O25373   3.330   5.838   5.609
 6167WAT     H125374   3.284   5.799   5.546
 6167WAT     H225375   3.400   5.787   5.618
 6167WAT    EPW25376   3.334   5.825   5.601
 6168WAT      O25377   3.841   6.458   6.421
 6168WAT     H125378   3.855   6.534   6.381
 6168WAT     H225379   3.920   6.421   6.424
 6168WAT    EPW25380   3.855   6.463   6.416
 6169WAT      O25381   3.530   5.648   5.611
 6169WAT     H125382   3.612   5.629   5.635
 6169WAT     H225383   3.483   5.587   5.650
 6169WAT    EPW25384   3.535   5.636   5.620
 6170WAT      O25385   3.951   6.246   5.872
 6170WAT     H125386   3.985   6.166   5.875
 6170WAT     H225387   4.017   6.296   5.846
 6170WAT    EPW25388   3.966   6.242   5.869
 6171WAT      O25389   3.956   6.191   5.493
 6171WAT     H125390   3.989   6.127   5.542
 6171WAT     H225391   3.980   6.170   5.412
 6171WAT    EPW25392   3.965   6.178   5.488
 6172WAT      O25393   4.153   5.604   6.627
 6172WAT     H125394   4.068   5.594   6.609
 6172WAT     H225395   4.156   5.679   6.672
 6172WAT    EPW25396   4.141   5.614   6.631
 6173WAT      O25397   4.609   4.900   6.538
 6173WAT     H125398   4.593   4.977   6.500
 6173WAT     H225399   4.532   4.878   6.573
 6173WAT    EPW25400   4.595   4.908   6.538
 6174WAT      O25401   3.176   5.614   5.910
 6174WAT     H125402   3.150   5.697   5.902
 6174WAT     H225403   3.109   5.576   5.952
 6174WAT    EPW25404   3.162   5.621   5.915
 6175WAT      O25405   3.167   6.585   5.700
 6175WAT     H125406   3.108   6.641   5.669
 6175WAT     H225407   3.209   6.558   5.629
 6175WAT    EPW25408   3.164   6.589   5.685
 6176WAT      O25409   3.751   6.369   5.448
 6176WAT     H125410   3.693   6.342   5.507
 6176WAT     H225411   3.813   6.309   5.450
 6176WAT    EPW25412   3.751   6.356   5.457
 6177WAT      O25413   4.365   6.598   5.200
 6177WAT     H125414   4.438   6.645   5.210
 6177WAT     H225415   4.388   6.519   5.228
 6177WAT    EPW25416   4.379   6.594   5.206
 6178WAT      O25417   4.182   6.637   5.399
 6178WAT     H125418   4.203   6.690   5.465
 6178WAT     H225419   4.259   6.620   5.361
 6178WAT    EPW25420   4.196   6.643   5.403
 6179WAT      O25421   3.479   5.096   5.959
 6179WAT     H125422   3.427   5.033   5.928
 6179WAT     H225423   3.538   5.052   6.006
 6179WAT    EPW25424   3.480   5.080   5.961
 6180WAT      O25425   3.809   5.309   6.889
 6180WAT     H125426   3.821   5.264   6.815
 6180WAT     H225427   3.838   5.389   6.868
 6180WAT    EPW25428   3.815   5.314   6.875
 6181WAT      O25429   3.321   6.452   5.493
 6181WAT     H125430   3.387   6.395   5.494
 6181WAT     H225431   3.360   6.527   5.471
 6181WAT    EPW25432   3.337   6.455   5.490
 6182WAT      O25433   4.895   5.361   5.619
 6182WAT     H125434   4.860   5.429   5.662
 6182WAT     H225435   4.831   5.302   5.621
 6182WAT    EPW25436   4.880   5.363   5.626
 6183WAT      O25437   4.426   6.638   6.230
 6183WAT     H125438   4.500   6.684   6.229
 6183WAT     H225439   4.414   6.617   6.146
 6183WAT    EPW25440   4.435   6.642   6.217
 6184WAT      O25441   3.383   5.269   6.787
 6184WAT     H125442   3.305   5.230   6.780
 6184WAT     H225443   3.432   5.228   6.728
 6184WAT    EPW25444   3.378   5.257   6.777
 6185WAT      O25445   3.403   6.301   5.843
 6185WAT     H125446   3.445   6.265   5.776
 6185WAT     H225447   3.435   6.259   5.912
 6185WAT    EPW25448   3.414   6.289   5.843
 6186WAT      O25449   3.726   6.586   5.773
 6186WAT     H125450   3.811   6.596   5.753
 6186WAT     H225451   3.696   6.668   5.779
 6186WAT    EPW25452   3.734   6.600   5.771
 6187WAT      O25453   4.047   5.033   6.704
 6187WAT     H125454   4.065   4.952   6.676
 6187WAT     H225455   4.033   5.077   6.630
 6187WAT    EPW25456   4.048   5.028   6.689
 6188WAT      O25457   4.583   6.757   5.240
 6188WAT     H125458   4.650   6.742   5.186
 6188WAT     H225459   4.619   6.749   5.319
 6188WAT    EPW25460   4.598   6.754   5.244
 6189WAT      O25461   3.626   6.708   6.347
 6189WAT     H125462   3.655   6.701   6.429
 6189WAT     H225463   3.563   6.647   6.342
 6189WAT    EPW25464   3.621   6.698   6.358
 6190WAT      O25465   4.862   5.194   6.156
 6190WAT     H125466   4.938   5.201   6.113
 6190WAT     H225467   4.868   5.116   6.196
 6190WAT    EPW25468   4.874   5.183   6.156
 6191WAT      O25469   3.117   5.324   6.546
 6191WAT     H125470   3.117   5.382   6.610
 6191WAT     H225471   3.177   5.355   6.490
 6191WAT    EPW25472   3.126   5.337   6.547
 6192WAT      O25473   4.351   6.357   6.600
 6192WAT     H125474   4.348   6.395   6.678
 6192WAT     H225475   4.437   6.353   6.583
 6192WAT    EPW25476   4.363   6.362   6.609
 6193WAT      O25477   4.065   6.377   5.075
 6193WAT     H125478   4.047   6.431   5.141
 6193WAT     H225479   4.142   6.406   5.045
 6193WAT    EPW25480   4.074   6.389   5.080
 6194WAT      O25481   4.416   5.166   5.180
 6194WAT     H125482   4.470   5.098   5.188
 6194WAT     H225483   4.422   5.206   5.258
 6194WAT    EPW25484   4.425   5.162   5.193
 6195WAT      O25485   3.425   6.524   6.259
 6195WAT     H125486   3.355   6.473   6.271
 6195WAT     H225487   3.451   6.504   6.178
 6195WAT    EPW25488   3.419   6.514   6.249
 6196WAT      O25489   4.196   6.673   6.350
 6196WAT     H125490   4.273   6.665   6.309
 6196WAT     H225491   4.138   6.661   6.286
 6196WAT    EPW25492   4.199   6.670   6.334
 6197WAT      O25493   4.824   6.734   5.640
 6197WAT     H125494   4.779   6.805   5.660
 6197WAT     H225495   4.763   6.677   5.616
 6197WAT    EPW25496   4.808   6.736   5.639
 6198WAT      O25497   4.524   6.318   5.594
 6198WAT     H125498   4.594   6.270   5.613
 6198WAT     H225499   4.458   6.261   5.599
 6198WAT    EPW25500   4.524   6.303   5.598
 6199WAT      O25501   3.561   6.409   6.515
 6199WAT     H125502   3.645   6.415   6.493
 6199WAT     H225503   3.558   6.449   6.593
 6199WAT    EPW25504   3.573   6.416   6.524
 6200WAT      O25505   3.758   5.960   5.990
 6200WAT     H125506   3.775   5.939   6.073
 6200WAT     H225507   3.692   5.907   5.969
 6200WAT    EPW25508   3.751   5.949   5.999
 6201WAT      O25509   4.380   5.352   6.342
 6201WAT     H125510   4.371   5.384   6.422
 6201WAT     H225511   4.321   5.288   6.338
 6201WAT    EPW25512   4.370   5.347   6.353
 6202WAT      O25513   3.833   5.954   6.249
 6202WAT     H125514   3.838   6.039   6.270
 6202WAT     H225515   3.804   5.917   6.323
 6202WAT    EPW25516   3.829   5.961   6.263
 6203WAT      O25517   4.450   6.024   6.162
 6203WAT     H125518   4.399   5.982   6.219
 6203WAT     H225519   4.438   6.108   6.180
 6203WAT    EPW25520   4.441   6.030   6.173
 6204WAT      O25521   4.506   4.946   5.625
 6204WAT     H125522   4.511   4.914   5.707
 6204WAT     H225523   4.538   4.882   5.576
 6204WAT    EPW25524   4.512   4.932   5.630
 6205WAT      O25525   3.115   6.391   6.870
 6205WAT     H125526   3.190   6.426   6.896
 6205WAT     H225527   3.132   6.306   6.865
 6205WAT    EPW25528   3.129   6.384   6.873
 6206WAT      O25529   4.752   5.370   6.456
 6206WAT     H125530   4.830   5.347   6.490
 6206WAT     H225531   4.705   5.391   6.526
 6206WAT    EPW25532   4.757   5.370   6.472
 6207WAT      O25533   4.776   6.067   5.175
 6207WAT     H125534   4.788   6.039   5.257
 6207WAT     H225535   4.856   6.070   5.142
 6207WAT    EPW25536   4.789   6.064   5.182
 6208WAT      O25537   3.366   6.713   5.832
 6208WAT     H125538   3.299   6.663   5.807
 6208WAT     H225539   3.406   6.732   5.757
 6208WAT    EPW25540   3.362   6.709   5.817
 6209WAT      O25541   3.321   5.408   6.061
 6209WAT     H125542   3.405   5.430   6.057
 6209WAT     H225543   3.282   5.465   6.008
 6209WAT    EPW25544   3.328   5.420   6.053
 6210WAT      O25545   4.999   6.518   6.600
 6210WAT     H125546   4.931   6.549   6.556
 6210WAT     H225547   4.962   6.473   6.665
 6210WAT    EPW25548   4.983   6.516   6.603
 6211WAT      O25549   4.565   5.721   5.134
 6211WAT     H125550   4.543   5.794   5.091
 6211WAT     H225551   4.520   5.726   5.208
 6211WAT    EPW25552   4.555   5.733   5.138
 6212WAT      O25553   3.726   6.041   5.532
 6212WAT     H125554   3.797   6.091   5.541
 6212WAT     H225555   3.748   5.985   5.469
 6212WAT    EPW25556   3.740   6.040   5.524
 6213WAT      O25557   3.142   6.206   5.864
 6213WAT     H125558   3.075   6.254   5.891
 6213WAT     H225559   3.210   6.260   5.867
 6213WAT    EPW25560   3.142   6.221   5.868
 6214WAT      O25561   3.906   5.577   6.873
 6214WAT     H125562   3.858   5.634   6.917
 6214WAT     H225563   3.904   5.606   6.791
 6214WAT    EPW25564   3.899   5.590   6.868
 6215WAT      O25565   5.016   5.645   6.334
 6215WAT     H125566   5.038   5.565   6.307
 6215WAT     H225567   4.931   5.651   6.316
 6215WAT    EPW25568   5.007   5.634   6.328
 6216WAT      O25569   3.148   5.874   5.374
 6216WAT     H125570   3.130   5.790   5.389
 6216WAT     H225571   3.214   5.870   5.317
 6216WAT    EPW25572   3.155   5.861   5.368
 6217WAT      O25573   4.784   5.163   5.307
 6217WAT     H125574   4.859   5.122   5.327
 6217WAT     H225575   4.810   5.235   5.264
 6217WAT    EPW25576   4.799   5.168   5.303
 6218WAT      O25577   4.178   6.412   5.764
 6218WAT     H125578   4.126   6.475   5.735
 6218WAT     H225579   4.209   6.375   5.691
 6218WAT    EPW25580   4.175   6.416   5.749
 6219WAT      O25581   3.165   6.290   5.331
 6219WAT     H125582   3.221   6.347   5.368
 6219WAT     H225583   3.142   6.239   5.398
 6219WAT    EPW25584   3.170   6.291   5.347
 6220WAT      O25585   3.586   6.190   6.040
 6220WAT     H125586   3.633   6.219   6.108
 6220WAT     H225587   3.643   6.143   5.995
 6220WAT    EPW25588   3.601   6.188   6.044
 6221WAT      O25589   3.148   6.135   5.094
 6221WAT     H125590   3.224   6.092   5.100
 6221WAT     H225591   3.150   6.189   5.163
 6221WAT    EPW25592   3.160   6.137   5.105
 6222WAT      O25593   3.242   5.957   5.895
 6222WAT     H125594   3.286   5.945   5.820
 6222WAT     H225595   3.222   6.042   5.892
 6222WAT    EPW25596   3.246   5.968   5.883
 6223WAT      O25597   4.782   6.557   6.409
 6223WAT     H125598   4.715   6.608   6.431
 6223WAT     H225599   4.789   6.567   6.323
 6223WAT    EPW25600   4.773   6.566   6.400
 6224WAT      O25601   3.651   6.309   5.723
 6224WAT     H125602   3.663   6.393   5.742
 6224WAT     H225603   3.718   6.269   5.763
 6224WAT    EPW25604   3.663   6.316   5.732
 6225WAT      O25605   3.464   5.657   6.709
 6225WAT     H125606   3.410   5.607   6.756
 6225WAT     H225607   3.466   5.618   6.631
 6225WAT    EPW25608   3.456   5.644   6.705
 6226WAT      O25609   3.529   5.780   5.883
 6226WAT     H125610   3.451   5.774   5.845
 6226WAT     H225611   3.536   5.705   5.927
 6226WAT    EPW25612   3.519   5.768   5.884
 6227WAT      O25613   3.572   5.754   6.230
 6227WAT     H125614   3.575   5.686   6.175
 6227WAT     H225615   3.507   5.803   6.199
 6227WAT    EPW25616   3.563   5.751   6.217
 6228WAT      O25617   4.562   5.525   6.069
 6228WAT     H125618   4.495   5.558   6.116
 6228WAT     H225619   4.580   5.588   6.013
 6228WAT    EPW25620   4.555   5.539   6.068
 6229WAT      O25621   3.982   6.631   6.169
 6229WAT     H125622   3.954   6.567   6.117
 6229WAT     H225623   3.961   6.704   6.125
 6229WAT    EPW25624   3.975   6.633   6.155
 6230WAT      O25625   4.226   5.116   6.412
 6230WAT     H125626   4.241   5.033   6.388
 6230WAT     H225627   4.264   5.121   6.491
 6230WAT    EPW25628   4.234   5.104   6.420
 6231WAT      O25629   3.352   5.889   6.786
 6231WAT     H125630   3.348   5.939   6.714
 6231WAT     H225631   3.385   5.814   6.756
 6231WAT    EPW25632   3.356   5.885   6.771
 6232WAT      O25633   4.512   6.110   6.612
 6232WAT     H125634   4.561   6.182   6.621
 6232WAT     H225635   4.552   6.067   6.546
 6232WAT    EPW25636   4.525   6.114   6.603
 6233WAT      O25637   3.942   6.394   6.729
 6233WAT     H125638   3.977   6.376   6.807
 6233WAT     H225639   3.898   6.321   6.709
 6233WAT    EPW25640   3.941   6.381   6.738
 6234WAT      O25641   4.258   5.786   5.220
 6234WAT     H125642   4.257   5.858   5.171
 6234WAT     H225643   4.194   5.799   5.278
 6234WAT    EPW25644   4.248   5.799   5.222
 6235WAT      O25645   4.755   6.173   5.619
 6235WAT     H125646   4.791   6.138   5.690
 6235WAT     H225647   4.754   6.107   5.562
 6235WAT    EPW25648   4.760   6.158   5.621
 6236WAT      O25649   4.360   6.479   6.003
 6236WAT     H125650   4.299   6.450   5.947
 6236WAT     H225651   4.414   6.525   5.952
 6236WAT    EPW25652   4.359   6.482   5.987
 6237WAT      O25653   4.361   6.165   5.943
 6237WAT     H125654   4.281   6.187   5.970
 6237WAT     H225655   4.387   6.105   6.001
 6237WAT    EPW25656   4.353   6.159   5.956
 6238WAT      O25657   3.750   6.646   5.388
 6238WAT     H125658   3.735   6.568   5.425
 6238WAT     H225659   3.819   6.631   5.336
 6238WAT    EPW25660   3.758   6.632   5.386
 6239WAT      O25661   3.979   6.597   5.228
 6239WAT     H125662   4.042   6.614   5.287
 6239WAT     H225663   3.983   6.666   5.175
 6239WAT    EPW25664   3.989   6.610   5.229
 6240WAT      O25665   4.687   5.964   6.428
 6240WAT     H125666   4.692   5.977   6.341
 6240WAT     H225667   4.762   5.996   6.458
 6240WAT    EPW25668   4.699   5.971   6.419
 6241WAT      O25669   4.306   6.499   6.855
 6241WAT     H125670   4.322   6.528   6.936
 6241WAT     H225671   4.332   6.565   6.805
 6241WAT    EPW25672   4.312   6.513   6.860
 6242WAT      O25673   4.790   4.994   6.726
 6242WAT     H125674   4.726   4.954   6.682
 6242WAT     H225675   4.793   4.951   6.802
 6242WAT    EPW25676   4.781   4.982   6.731
 6243WAT      O25677   3.429   5.851   5.311
 6243WAT     H125678   3.462   5.773   5.289
 6243WAT     H225679   3.494   5.888   5.356
 6243WAT    EPW25680   3.444   5.845   5.314
 6244WAT      O25681   4.260   5.945   6.388
 6244WAT     H125682   4.245   6.006   6.448
 6244WAT     H225683   4.313   5.889   6.428
 6244WAT    EPW25684   4.266   5.946   6.402
 6245WAT      O25685   4.621   6.218   6.040
 6245WAT     H125686   4.573   6.248   5.974
 6245WAT     H225687   4.585   6.140   6.058
 6245WAT    EPW25688   4.609   6.211   6.033
 6246WAT      O25689   4.021   5.990   5.896
 6246WAT     H125690   3.936   5.970   5.905
 6246WAT     H225691   4.053   5.973   5.976
 6246WAT    EPW25692   4.013   5.984   5.909
 6247WAT      O25693   3.696   6.663   4.985
 6247WAT     H125694   3.740   6.593   5.014
 6247WAT     H225695   3.717   6.725   5.042
 6247WAT    EPW25696   3.706   6.662   4.998
 6248WAT      O25697   3.406   5.959   6.128
 6248WAT     H125698   3.478   6.008   6.124
 6248WAT     H225699   3.379   5.956   6.045
 6248WAT    EPW25700   3.412   5.966   6.115
 6249WAT      O25701   4.990   6.634   5.234
 6249WAT     H125702   5.060   6.588   5.209
 6249WAT     H225703   4.936   6.575   5.268
 6249WAT    EPW25704   4.993   6.619   5.236
 6250WAT      O25705   4.714   5.912   6.152
 6250WAT     H125706   4.713   5.834   6.192
 6250WAT     H225707   4.630   5.935   6.151
 6250WAT    EPW25708   4.702   5.904   6.158
 6251WAT      O25709   3.345   6.064   6.556
 6251WAT     H125710   3.303   6.012   6.500
 6251WAT     H225711   3.310   6.143   6.542
 6251WAT    EPW25712   3.334   6.068   6.545
 6252WAT      O25713   4.840   5.919   5.896
 6252WAT     H125714   4.811   5.959   5.968
 6252WAT     H225715   4.926   5.913   5.909
 6252WAT    EPW25716   4.848   5.924   5.908
 6253WAT      O25717   4.606   5.312   6.750
 6253WAT     H125718   4.553   5.357   6.802
 6253WAT     H225719   4.570   5.232   6.749
 6253WAT    EPW25720   4.593   5.307   6.757
 6254WAT      O25721   3.157   5.196   5.940
 6254WAT     H125722   3.161   5.231   5.860
 6254WAT     H225723   3.232   5.220   5.977
 6254WAT    EPW25724   3.168   5.205   5.934
 6255WAT      O25725   4.953   6.482   5.949
 6255WAT     H125726   4.982   6.508   5.871
 6255WAT     H225727   5.022   6.492   6.001
 6255WAT    EPW25728   4.967   6.488   5.945
 6256WAT      O25729   4.455   5.668   6.757
 6256WAT     H125730   4.462   5.679   6.844
 6256WAT     H225731   4.392   5.724   6.735
 6256WAT    EPW25732   4.447   5.678   6.767
 6257WAT      O25733   4.682   5.700   6.594
 6257WAT     H125734   4.714   5.779   6.614
 6257WAT     H225735   4.645   5.673   6.668
 6257WAT    EPW25736   4.681   5.708   6.608
 6258WAT      O25737   4.613   6.343   5.147
 6258WAT     H125738   4.647   6.262   5.150
 6258WAT     H225739   4.538   6.336   5.190
 6258WAT    EPW25740   4.607   6.330   5.154
 6259WAT      O25741   4.662   5.526   5.713
 6259WAT     H125742   4.587   5.494   5.745
 6259WAT     H225743   4.662   5.609   5.741
 6259WAT    EPW25744   4.651   5.534   5.722
 6260WAT      O25745   4.952   5.755   6.867
 6260WAT     H125746   4.947   5.720   6.787
 6260WAT     H225747   5.025   5.801   6.865
 6260WAT    EPW25748   4.962   5.756   6.855
 6261WAT      O25749   4.906   6.122   6.488
 6261WAT     H125750   4.968   6.067   6.462
 6261WAT     H225751   4.899   6.179   6.422
 6261WAT    EPW25752   4.914   6.122   6.474
 6262WAT      O25753   4.351   6.130   5.087
 6262WAT     H125754   4.419   6.079   5.070
 6262WAT     H225755   4.309   6.135   5.011
 6262WAT    EPW25756   4.355   6.123   5.073
 6263WAT      O25757   3.819   6.245   6.218
 6263WAT     H125758   3.789   6.304   6.274
 6263WAT     H225759   3.824   6.289   6.143
 6263WAT    EPW25760   3.815   6.261   6.215
 6264WAT      O25761   3.617   6.140   6.557
 6264WAT     H125762   3.536   6.111   6.574
 6264WAT     H225763   3.608   6.227   6.558
 6264WAT    EPW25764   3.604   6.149   6.560
 6265WAT      O25765   4.553   5.159   6.459
 6265WAT     H125766   4.627   5.204   6.453
 6265WAT     H225767   4.496   5.206   6.412
 6265WAT    EPW25768   4.555   5.173   6.451
 6266WAT      O25769   4.071   5.888   6.167
 6266WAT     H125770   4.118   5.925   6.230
 6266WAT     H225771   3.988   5.901   6.193
 6266WAT    EPW25772   4.065   5.895   6.180
 6267WAT      O25773   3.997   6.627   5.690
 6267WAT     H125774   4.052   6.695   5.695
 6267WAT     H225775   3.962   6.635   5.610
 6267WAT    EPW25776   4.000   6.638   5.679
 6268WAT      O25777   4.681   4.957   6.226
 6268WAT     H125778   4.653   5.040   6.222
 6268WAT     H225779   4.753   4.962   6.276
 6268WAT    EPW25780   4.688   4.970   6.233
 6269WAT      O25781   3.815   6.450   6.028
 6269WAT     H125782   3.753   6.508   6.010
 6269WAT     H225783   3.840   6.421   5.950
 6269WAT    EPW25784   3.810   6.454   6.014
 6270WAT      O25785   4.246   6.113   6.727
 6270WAT     H125786   4.322   6.142   6.695
 6270WAT     H225787   4.191   6.118   6.660
 6270WAT    EPW25788   4.249   6.118   6.712
 6271WAT      O25789   4.637   6.368   6.578
 6271WAT     H125790   4.672   6.395   6.653
 6271WAT     H225791   4.666   6.426   6.520
 6271WAT    EPW25792   4.647   6.381   6.580
 6272WAT      O25793   4.823   5.583   5.112
 6272WAT     H125794   4.861   5.650   5.072
 6272WAT     H225795   4.739   5.605   5.115
 6272WAT    EPW25796   4.816   5.596   5.106
 6273WAT      O25797   3.975   5.927   5.020
 6273WAT     H125798   3.894   5.910   4.991
 6273WAT     H225799   3.971   6.012   5.039
 6273WAT    EPW25800   3.962   5.937   5.019
 6274WAT      O25801   4.369   5.444   6.594
 6274WAT     H125802   4.304   5.491   6.629
 6274WAT     H225803   4.426   5.435   6.660
 6274WAT    EPW25804   4.368   5.450   6.609
 6275WAT      O25805   4.338   5.598   6.224
 6275WAT     H125806   4.368   5.640   6.294
 6275WAT     H225807   4.342   5.514   6.247
 6275WAT    EPW25808   4.343   5.592   6.238
 6276WAT      O25809   4.081   6.615   6.616
 6276WAT     H125810   4.128   6.555   6.575
 6276WAT     H225811   4.045   6.570   6.683
 6276WAT    EPW25812   4.082   6.599   6.620
 6277WAT      O25813   4.593   5.543   5.449
 6277WAT     H125814   4.614   5.522   5.532
 6277WAT     H225815   4.668   5.569   5.415
 6277WAT    EPW25816   4.607   5.544   5.456
 6278WAT      O25817   4.695   5.151   5.597
 6278WAT     H125818   4.624   5.104   5.614
 6278WAT     H225819   4.679   5.185   5.518
 6278WAT    EPW25820   4.682   5.149   5.587
 6279WAT      O25821   4.739   5.945   5.435
 6279WAT     H125822   4.787   5.872   5.430
 6279WAT     H225823   4.657   5.917   5.427
 6279WAT    EPW25824   4.734   5.930   5.433
 6280WAT      O25825   4.086   6.136   6.518
 6280WAT     H125826   4.007   6.130   6.554
 6280WAT     H225827   4.094   6.221   6.499
 6280WAT    EPW25828   4.076   6.148   6.521
 6281WAT      O25829   3.179   5.072   6.643
 6281WAT     H125830   3.165   5.152   6.610
 6281WAT     H225831   3.100   5.048   6.672
 6281WAT    EPW25832   3.165   5.080   6.643
 6282WAT      O25833   3.669   6.757   6.050
 6282WAT     H125834   3.671   6.763   6.137
 6282WAT     H225835   3.627   6.682   6.035
 6282WAT    EPW25836   3.663   6.747   6.061
 6283WAT      O25837   4.361   6.062   5.670
 6283WAT     H125838   4.369   6.096   5.750
 6283WAT     H225839   4.378   5.977   5.682
 6283WAT    EPW25840   4.365   6.054   5.684
 6284WAT      O25841   4.113   5.989   5.627
 6284WAT     H125842   4.083   5.958   5.702
 6284WAT     H225843   4.183   6.037   5.650
 6284WAT    EPW25844   4.119   5.992   5.641
 6285WAT      O25845   4.135   6.401   6.429
 6285WAT     H125846   4.204   6.390   6.482
 6285WAT     H225847   4.149   6.480   6.395
 6285WAT    EPW25848   4.147   6.411   6.432
 6286WAT      O25849   4.953   5.662   6.610
 6286WAT     H125850   4.867   5.650   6.623
 6286WAT     H225851   4.968   5.623   6.534
 6286WAT    EPW25852   4.943   5.654   6.601
 6287WAT      O25853   4.404   5.729   6.468
 6287WAT     H125854   4.379   5.657   6.510
 6287WAT     H225855   4.486   5.740   6.495
 6287WAT    EPW25856   4.413   5.720   6.478
 6288WAT      O25857   3.346   6.707   6.594
 6288WAT     H125858   3.280   6.650   6.604
 6288WAT     H225859   3.308   6.784   6.609
 6288WAT    EPW25860   3.331   6.710   6.598
 6289WAT      O25861   4.198   5.848   6.787
 6289WAT     H125862   4.230   5.916   6.743
 6289WAT     H225863   4.127   5.880   6.827
 6289WAT    EPW25864   4.192   5.862   6.786
 6290WAT      O25865   4.506   6.685   5.880
 6290WAT     H125866   4.461   6.749   5.917
 6290WAT     H225867   4.577   6.677   5.930
 6290WAT    EPW25868   4.510   6.693   5.893
 6291WAT      O25869   4.176   6.194   6.173
 6291WAT     H125870   4.107   6.234   6.207
 6291WAT     H225871   4.244   6.237   6.206
 6291WAT    EPW25872   4.176   6.206   6.183
 6292WAT      O25873   4.714   6.453   6.831
 6292WAT     H125874   4.791   6.414   6.839
 6292WAT     H225875   4.667   6.420   6.896
 6292WAT    EPW25876   4.718   6.443   6.841
 6293WAT      O25877   3.483   5.548   6.407
 6293WAT     H125878   3.520   5.610   6.359
 6293WAT     H225879   3.550   5.500   6.436
 6293WAT    EPW25880   3.498   5.550   6.404
 6294WAT      O25881   3.260   5.393   6.335
 6294WAT     H125882   3.268   5.376   6.249
 6294WAT     H225883   3.335   5.433   6.354
 6294WAT    EPW25884   3.273   5.396   6.325
 6295WAT      O25885   4.816   5.657   5.379
 6295WAT     H125886   4.827   5.651   5.292
 6295WAT     H225887   4.890   5.623   5.411
 6295WAT    EPW25888   4.829   5.651   5.371
 6296WAT      O25889   3.516   5.134   6.576
 6296WAT     H125890   3.508   5.049   6.596
 6296WAT     H225891   3.484   5.138   6.495
 6296WAT    EPW25892   3.510   5.122   6.567
 6297WAT      O25893   4.208   6.353   5.489
 6297WAT     H125894   4.188   6.436   5.474
 6297WAT     H225895   4.131   6.315   5.502
 6297WAT    EPW25896   4.194   6.360   5.489
 6298WAT      O25897   3.200   5.915   6.357
 6298WAT     H125898   3.232   5.937   6.279
 6298WAT     H225899   3.190   5.829   6.352
 6298WAT    EPW25900   3.203   5.906   6.345
 6299WAT      O25901   4.314   5.151   6.693
 6299WAT     H125902   4.324   5.222   6.742
 6299WAT     H225903   4.251   5.107   6.732
 6299WAT    EPW25904   4.306   5.155   6.706
 6300WAT      O25905   3.745   6.379   5.130
 6300WAT     H125906   3.789   6.387   5.205
 6300WAT     H225907   3.664   6.358   5.156
 6300WAT    EPW25908   3.739   6.377   5.145
 6301WAT      O25909   4.574   5.222   6.058
 6301WAT     H125910   4.659   5.232   6.072
 6301WAT     H225911   4.537   5.277   6.114
 6301WAT    EPW25912   4.581   5.231   6.068
 6302WAT      O25913   3.676   5.844   6.496
 6302WAT     H125914   3.637   5.922   6.503
 6302WAT     H225915   3.636   5.807   6.428
 6302WAT    EPW25916   3.665   5.850   6.487
 6303WAT      O25917   4.604   5.750   5.907
 6303WAT     H125918   4.671   5.804   5.923
 6303WAT     H225919   4.570   5.781   5.833
 6303WAT    EPW25920   4.609   5.762   5.899
 6304WAT      O25921   4.635   6.556   5.488
 6304WAT     H125922   4.618   6.491   5.543
 6304WAT     H225923   4.707   6.529   5.445
 6304WAT    EPW25924   4.643   6.543   5.490
 6305WAT      O25925   3.477   6.286   5.190
 6305WAT     H125926   3.453   6.256   5.268
 6305WAT     H225927   3.474   6.216   5.139
 6305WAT    EPW25928   3.473   6.271   5.194
 6306WAT      O25929   3.759   6.111   5.065
 6306WAT     H125930   3.678   6.084   5.079
 6306WAT     H225931   3.757   6.196   5.083
 6306WAT    EPW25932   3.747   6.119   5.070
 6307WAT      O25933   4.921   5.006   6.374
 6307WAT     H125934   4.916   5.001   6.461
 6307WAT     H225935   4.990   4.955   6.355
 6307WAT    EPW25936   4.931   4.998   6.384
 6308WAT      O25937   4.403   6.302   6.257
 6308WAT     H125938   4.423   6.332   6.336
 6308WAT     H225939   4.397   6.374   6.208
 6308WAT    EPW25940   4.405   6.317   6.261
 6309WAT      O25941   4.356   6.723   6.681
 6309WAT     H125942   4.281   6.721   6.637
 6309WAT     H225943   4.373   6.808   6.690
 6309WAT    EPW25944   4.348   6.735   6.676
 6310WAT      O25945   3.880   5.650   6.598
 6310WAT     H125946   3.848   5.592   6.541
 6310WAT     H225947   3.844   5.725   6.574
 6310WAT    EPW25948   3.870   5.652   6.586
 6311WAT      O25949   4.884   6.166   6.203
 6311WAT     H125950   4.881   6.079   6.189
 6311WAT     H225951   4.815   6.196   6.159
 6311WAT    EPW25952   4.873   6.157   6.194
 6312WAT      O25953   3.723   6.685   6.623
 6312WAT     H125954   3.728   6.698   6.710
 6312WAT     H225955   3.789   6.629   6.608
 6312WAT    EPW25956   3.734   6.679   6.634
 6313WAT      O25957   4.695   6.492   6.082
 6313WAT     H125958   4.747   6.483   6.013
 6313WAT     H225959   4.655   6.414   6.088
 6313WAT    EPW25960   4.697   6.479   6.073
 6314WAT      O25961   3.441   5.150   6.305
 6314WAT     H125962   3.407   5.074   6.282
 6314WAT     H225963   3.372   5.203   6.312
 6314WAT    EPW25964   3.426   5.147   6.303
 6315WAT      O25965   3.483   6.524   6.759
 6315WAT     H125966   3.542   6.567   6.806
 6315WAT     H225967   3.446   6.586   6.710
 6315WAT    EPW25968   3.486   6.539   6.759
 6316WAT      O25969   3.275   6.323   6.452
 6316WAT     H125970   3.218   6.364   6.503
 6316WAT     H225971   3.349   6.369   6.462
 6316WAT    EPW25972   3.278   6.336   6.461
 6317WAT      O25973   4.479   5.800   5.409
 6317WAT     H125974   4.486   5.715   5.427
 6317WAT     H225975   4.397   5.808   5.381
 6317WAT    EPW25976   4.468   5.789   5.407
 6318WAT      O25977   3.454   6.649   5.330
 6318WAT     H125978   3.440   6.665   5.245
 6318WAT     H225979   3.541   6.657   5.337
 6318WAT    EPW25980   3.465   6.653   5.318
 6319WAT      O25981   4.787   6.695   5.050
 6319WAT     H125982   4.850   6.682   5.109
 6319WAT     H225983   4.753   6.616   5.039
 6319WAT    EPW25984   4.791   6.682   5.057
 6320WAT      O25985   4.806   5.937   6.724
 6320WAT     H125986   4.870   5.920   6.781
 6320WAT     H225987   4.848   5.977   6.659
 6320WAT    EPW25988   4.822   5.941   6.723
 6321WAT      O25989   4.394   6.322   5.283
 6321WAT     H125990   4.369   6.309   5.365
 6321WAT     H225991   4.363   6.252   5.241
 6321WAT    EPW25992   4.386   6.310   5.289
 6322WAT      O25993   4.869   5.394   6.798
 6322WAT     H125994   4.849   5.458   6.853
 6322WAT     H225995   4.797   5.345   6.797
 6322WAT    EPW25996   4.855   5.396   6.806
 6323WAT      O25997   4.859   5.488   6.095
 6323WAT     H125998   4.775   5.513   6.087
 6323WAT     H225999   4.853   5.404   6.118
 6323WAT    EPW26000   4.846   5.479   6.097
 6324WAT      O26001   3.785   5.186   6.614
 6324WAT     H126002   3.808   5.129   6.553
 6324WAT     H226003   3.700   5.168   6.628
 6324WAT    EPW26004   3.776   5.175   6.607
 6325WAT      O26005   4.547   5.948   6.859
 6325WAT     H126006   4.634   5.945   6.856
 6325WAT     H226007   4.525   5.990   6.786
 6325WAT    EPW26008   4.557   5.954   6.848
 6326WAT      O26009   3.523   6.531   5.977
 6326WAT     H126010   3.515   6.450   5.946
 6326WAT     H226011   3.478   6.579   5.920
 6326WAT    EPW26012   3.515   6.526   5.964
 6327WAT      O26013   4.083   6.143   5.226
 6327WAT     H126014   4.155   6.108   5.190
 6327WAT     H226015   4.079   6.223   5.191
 6327WAT    EPW26016   4.093   6.149   5.215
 6328WAT      O26017   3.280   6.755   6.335
 6328WAT     H126018   3.329   6.750   6.407
 6328WAT     H226019   3.299   6.682   6.292
 6328WAT    EPW26020   3.290   6.743   6.340
 6329WAT      O26021   3.192   6.112   3.662
 6329WAT     H126022   3.147   6.124   3.737
 6329WAT     H226023   3.163   6.035   3.634
 6329WAT    EPW26024   3.181   6.103   3.669
 6330WAT      O26025   4.819   6.442   3.414
 6330WAT     H126026   4.889   6.391   3.413
 6330WAT     H226027   4.760   6.398   3.367
 6330WAT    EPW26028   4.821   6.428   3.407
 6331WAT      O26029   3.166   5.492   3.313
 6331WAT     H126030   3.088   5.508   3.277
 6331WAT     H226031   3.170   5.404   3.315
 6331WAT    EPW26032   3.155   5.481   3.308
 6332WAT      O26033   4.472   5.805   3.784
 6332WAT     H126034   4.480   5.805   3.697
 6332WAT     H226035   4.413   5.742   3.799
 6332WAT    EPW26036   4.464   5.796   3.774
 6333WAT      O26037   3.442   6.182   3.570
 6333WAT     H126038   3.503   6.165   3.630
 6333WAT     H226039   3.367   6.168   3.612
 6333WAT    EPW26040   3.440   6.177   3.585
 6334WAT      O26041   3.332   6.491   3.178
 6334WAT     H126042   3.378   6.499   3.105
 6334WAT     H226043   3.377   6.433   3.225
 6334WAT    EPW26044   3.345   6.484   3.174
 6335WAT      O26045   3.186   6.386   4.288
 6335WAT     H126046   3.198   6.358   4.369
 6335WAT     H226047   3.125   6.332   4.257
 6335WAT    EPW26048   3.178   6.374   4.295
 6336WAT      O26049   3.843   6.138   4.794
 6336WAT     H126050   3.819   6.138   4.878
 6336WAT     H226051   3.768   6.124   4.752
 6336WAT    EPW26052   3.828   6.136   4.801
 6337WAT      O26053   3.330   5.838   3.708
 6337WAT     H126054   3.284   5.799   3.645
 6337WAT     H226055   3.400   5.787   3.717
 6337WAT    EPW26056   3.334   5.825   3.700
 6338WAT      O26057   3.841   6.458   4.521
 6338WAT     H126058   3.855   6.534   4.480
 6338WAT     H226059   3.920   6.421   4.523
 6338WAT    EPW26060   3.855   6.463   4.515
 6339WAT      O26061   3.951   6.246   3.971
 6339WAT     H126062   3.985   6.166   3.974
 6339WAT     H226063   4.017   6.296   3.946
 6339WAT    EPW26064   3.966   6.242   3.968
 6340WAT      O26065   3.956   6.191   3.592
 6340WAT     H126066   3.989   6.127   3.641
 6340WAT     H226067   3.980   6.170   3.511
 6340WAT    EPW26068   3.965   6.178   3.588
 6341WAT      O26069   4.355   5.364   3.089
 6341WAT     H126070   4.310   5.432   3.120
 6341WAT     H226071   4.367   5.314   3.159
 6341WAT    EPW26072   4.350   5.367   3.104
 6342WAT      O26073   3.167   6.585   3.799
 6342WAT     H126074   3.108   6.641   3.768
 6342WAT     H226075   3.209   6.558   3.728
 6342WAT    EPW26076   3.164   6.589   3.784
 6343WAT      O26077   3.751   6.369   3.547
 6343WAT     H126078   3.693   6.342   3.606
 6343WAT     H226079   3.813   6.309   3.550
 6343WAT    EPW26080   3.751   6.356   3.556
 6344WAT      O26081   4.365   6.598   3.299
 6344WAT     H126082   4.438   6.645   3.310
 6344WAT     H226083   4.388   6.519   3.327
 6344WAT    EPW26084   4.379   6.594   3.305
 6345WAT      O26085   4.182   6.637   3.498
 6345WAT     H126086   4.203   6.690   3.565
 6345WAT     H226087   4.259   6.620   3.461
 6345WAT    EPW26088   4.196   6.643   3.503
 6346WAT      O26089   3.321   6.452   3.592
 6346WAT     H126090   3.387   6.395   3.594
 6346WAT     H226091   3.360   6.527   3.570
 6346WAT    EPW26092   3.337   6.455   3.589
 6347WAT      O26093   4.895   5.361   3.719
 6347WAT     H126094   4.860   5.429   3.761
 6347WAT     H226095   4.831   5.302   3.720
 6347WAT    EPW26096   4.880   5.363   3.725
 6348WAT      O26097   4.426   6.638   4.329
 6348WAT     H126098   4.500   6.684   4.328
 6348WAT     H226099   4.414   6.617   4.245
 6348WAT    EPW26100   4.435   6.642   4.316
 6349WAT      O26101   3.403   6.301   3.942
 6349WAT     H126102   3.445   6.265   3.875
 6349WAT     H226103   3.435   6.259   4.012
 6349WAT    EPW26104   3.414   6.289   3.943
 6350WAT      O26105   3.726   6.586   3.872
 6350WAT     H126106   3.811   6.596   3.852
 6350WAT     H226107   3.696   6.668   3.879
 6350WAT    EPW26108   3.734   6.600   3.870
 6351WAT      O26109   4.179   5.560   3.193
 6351WAT     H126110   4.207   5.638   3.218
 6351WAT     H226111   4.101   5.576   3.156
 6351WAT    EPW26112   4.172   5.574   3.191
 6352WAT      O26113   4.583   6.757   3.339
 6352WAT     H126114   4.650   6.742   3.285
 6352WAT     H226115   4.619   6.749   3.418
 6352WAT    EPW26116   4.598   6.754   3.343
 6353WAT      O26117   3.626   6.708   4.446
 6353WAT     H126118   3.655   6.701   4.528
 6353WAT     H226119   3.563   6.647   4.441
 6353WAT    EPW26120   3.621   6.698   4.457
 6354WAT      O26121   4.862   5.194   4.255
 6354WAT     H126122   4.938   5.201   4.213
 6354WAT     H226123   4.868   5.116   4.295
 6354WAT    EPW26124   4.874   5.183   4.255
 6355WAT      O26125   4.351   6.357   4.699
 6355WAT     H126126   4.348   6.395   4.778
 6355WAT     H226127   4.437   6.353   4.682
 6355WAT    EPW26128   4.363   6.362   4.708
 6356WAT      O26129   4.065   6.377   3.174
 6356WAT     H126130   4.047   6.431   3.240
 6356WAT     H226131   4.142   6.406   3.144
 6356WAT    EPW26132   4.074   6.389   3.180
 6357WAT      O26133   4.416   5.166   3.280
 6357WAT     H126134   4.470   5.098   3.287
 6357WAT     H226135   4.422   5.206   3.357
 6357WAT    EPW26136   4.425   5.162   3.292
 6358WAT      O26137   3.425   6.524   4.358
 6358WAT     H126138   3.355   6.473   4.371
 6358WAT     H226139   3.451   6.504   4.277
 6358WAT    EPW26140   3.419   6.514   4.348
 6359WAT      O26141   4.141   5.404   3.411
 6359WAT     H126142   4.091   5.338   3.386
 6359WAT     H226143   4.147   5.454   3.340
 6359WAT    EPW26144   4.135   5.402   3.397
 6360WAT      O26145   4.196   6.673   4.449
 6360WAT     H126146   4.273   6.665   4.409
 6360WAT     H226147   4.138   6.661   4.385
 6360WAT    EPW26148   4.199   6.670   4.434
 6361WAT      O26149   4.824   6.734   3.739
 6361WAT     H126150   4.779   6.805   3.759
 6361WAT     H226151   4.763   6.677   3.715
 6361WAT    EPW26152   4.808   6.736   3.739
 6362WAT      O26153   4.524   6.318   3.694
 6362WAT     H126154   4.594   6.270   3.713
 6362WAT     H226155   4.458   6.261   3.698
 6362WAT    EPW26156   4.524   6.303   3.697
 6363WAT      O26157   3.462   4.917   3.687
 6363WAT     H126158   3.516   4.986   3.686
 6363WAT     H226159   3.462   4.890   3.604
 6363WAT    EPW26160   3.470   4.923   3.675
 6364WAT      O26161   3.758   5.960   4.090
 6364WAT     H126162   3.775   5.939   4.173
 6364WAT     H226163   3.692   5.907   4.068
 6364WAT    EPW26164   3.751   5.949   4.099
 6365WAT      O26165   3.833   5.954   4.349
 6365WAT     H126166   3.838   6.039   4.369
 6365WAT     H226167   3.804   5.917   4.422
 6365WAT    EPW26168   3.829   5.961   4.363
 6366WAT      O26169   4.450   6.024   4.262
 6366WAT     H126170   4.399   5.982   4.319
 6366WAT     H226171   4.438   6.108   4.280
 6366WAT    EPW26172   4.441   6.030   4.273
 6367WAT      O26173   3.115   6.391   4.970
 6367WAT     H126174   3.190   6.426   4.996
 6367WAT     H226175   3.132   6.306   4.964
 6367WAT    EPW26176   3.129   6.384   4.973
 6368WAT      O26177   4.752   5.370   4.556
 6368WAT     H126178   4.830   5.347   4.589
 6368WAT     H226179   4.705   5.391   4.626
 6368WAT    EPW26180   4.757   5.370   4.571
 6369WAT      O26181   4.776   6.067   3.274
 6369WAT     H126182   4.788   6.039   3.356
 6369WAT     H226183   4.856   6.070   3.241
 6369WAT    EPW26184   4.789   6.064   3.282
 6370WAT      O26185   3.489   6.041   3.808
 6370WAT     H126186   3.574   6.033   3.790
 6370WAT     H226187   3.454   5.972   3.766
 6370WAT    EPW26188   3.497   6.029   3.799
 6371WAT      O26189   3.366   6.713   3.931
 6371WAT     H126190   3.299   6.663   3.907
 6371WAT     H226191   3.406   6.732   3.856
 6371WAT    EPW26192   3.362   6.709   3.917
 6372WAT      O26193   4.999   6.518   4.700
 6372WAT     H126194   4.931   6.549   4.655
 6372WAT     H226195   4.962   6.473   4.764
 6372WAT    EPW26196   4.983   6.516   4.703
 6373WAT      O26197   3.726   6.041   3.631
 6373WAT     H126198   3.797   6.091   3.640
 6373WAT     H226199   3.748   5.985   3.568
 6373WAT    EPW26200   3.740   6.040   3.623
 6374WAT      O26201   4.984   5.207   3.178
 6374WAT     H126202   4.918   5.150   3.181
 6374WAT     H226203   4.965   5.258   3.110
 6374WAT    EPW26204   4.971   5.206   3.169
 6375WAT      O26205   5.016   5.645   4.434
 6375WAT     H126206   5.038   5.565   4.406
 6375WAT     H226207   4.931   5.651   4.415
 6375WAT    EPW26208   5.007   5.634   4.427
 6376WAT      O26209   3.148   5.874   3.473
 6376WAT     H126210   3.130   5.790   3.489
 6376WAT     H226211   3.214   5.870   3.416
 6376WAT    EPW26212   3.155   5.861   3.467
 6377WAT      O26213   4.178   6.412   3.864
 6377WAT     H126214   4.126   6.475   3.834
 6377WAT     H226215   4.209   6.375   3.791
 6377WAT    EPW26216   4.175   6.416   3.849
 6378WAT      O26217   3.165   6.290   3.431
 6378WAT     H126218   3.221   6.347   3.467
 6378WAT     H226219   3.142   6.239   3.497
 6378WAT    EPW26220   3.170   6.291   3.446
 6379WAT      O26221   3.586   6.190   4.140
 6379WAT     H126222   3.633   6.219   4.208
 6379WAT     H226223   3.643   6.143   4.094
 6379WAT    EPW26224   3.601   6.188   4.143
 6380WAT      O26225   4.429   5.392   3.913
 6380WAT     H126226   4.464   5.407   3.992
 6380WAT     H226227   4.384   5.318   3.925
 6380WAT    EPW26228   4.428   5.383   3.927
 6381WAT      O26229   3.148   6.135   3.194
 6381WAT     H126230   3.224   6.092   3.199
 6381WAT     H226231   3.150   6.189   3.263
 6381WAT    EPW26232   3.160   6.137   3.205
 6382WAT      O26233   3.242   5.957   3.994
 6382WAT     H126234   3.286   5.945   3.919
 6382WAT     H226235   3.222   6.042   3.992
 6382WAT    EPW26236   3.246   5.968   3.983
 6383WAT      O26237   3.877   5.314   3.359
 6383WAT     H126238   3.877   5.302   3.273
 6383WAT     H226239   3.859   5.399   3.368
 6383WAT    EPW26240   3.874   5.325   3.348
 6384WAT      O26241   4.782   6.557   4.509
 6384WAT     H126242   4.715   6.608   4.531
 6384WAT     H226243   4.789   6.567   4.422
 6384WAT    EPW26244   4.773   6.566   4.499
 6385WAT      O26245   3.651   6.309   3.822
 6385WAT     H126246   3.663   6.393   3.841
 6385WAT     H226247   3.718   6.269   3.862
 6385WAT    EPW26248   3.663   6.316   3.831
 6386WAT      O26249   4.562   5.525   4.169
 6386WAT     H126250   4.495   5.558   4.215
 6386WAT     H226251   4.580   5.588   4.112
 6386WAT    EPW26252   4.555   5.539   4.167
 6387WAT      O26253   3.982   6.631   4.268
 6387WAT     H126254   3.954   6.567   4.216
 6387WAT     H226255   3.961   6.704   4.225
 6387WAT    EPW26256   3.975   6.633   4.254
 6388WAT      O26257   4.381   5.322   3.520
 6388WAT     H126258   4.430   5.394   3.512
 6388WAT     H226259   4.302   5.348   3.494
 6388WAT    EPW26260   4.376   5.336   3.515
 6389WAT      O26261   3.352   5.889   4.885
 6389WAT     H126262   3.348   5.939   4.814
 6389WAT     H226263   3.385   5.814   4.856
 6389WAT    EPW26264   3.356   5.885   4.870
 6390WAT      O26265   4.512   6.110   4.711
 6390WAT     H126266   4.561   6.182   4.721
 6390WAT     H226267   4.552   6.067   4.646
 6390WAT    EPW26268   4.525   6.114   4.703
 6391WAT      O26269   3.942   6.394   4.829
 6391WAT     H126270   3.977   6.376   4.906
 6391WAT     H226271   3.898   6.321   4.809
 6391WAT    EPW26272   3.941   6.381   4.837
 6392WAT      O26273   4.258   5.786   3.320
 6392WAT     H126274   4.257   5.858   3.271
 6392WAT     H226275   4.194   5.799   3.378
 6392WAT    EPW26276   4.248   5.799   3.321
 6393WAT      O26277   4.755   6.173   3.718
 6393WAT     H126278   4.791   6.138   3.789
 6393WAT     H226279   4.754   6.107   3.661
 6393WAT    EPW26280   4.760   6.158   3.720
 6394WAT      O26281   4.360   6.479   4.102
 6394WAT     H126282   4.299   6.450   4.047
 6394WAT     H226283   4.414   6.525   4.051
 6394WAT    EPW26284   4.359   6.482   4.087
 6395WAT      O26285   4.361   6.165   4.042
 6395WAT     H126286   4.281   6.187   4.070
 6395WAT     H226287   4.387   6.105   4.101
 6395WAT    EPW26288   4.353   6.159   4.055
 6396WAT      O26289   3.750   6.646   3.487
 6396WAT     H126290   3.735   6.568   3.524
 6396WAT     H226291   3.819   6.631   3.436
 6396WAT    EPW26292   3.758   6.632   3.485
 6397WAT      O26293   3.979   6.597   3.327
 6397WAT     H126294   4.042   6.614   3.386
 6397WAT     H226295   3.983   6.666   3.274
 6397WAT    EPW26296   3.989   6.610   3.328
 6398WAT      O26297   4.306   6.499   4.955
 6398WAT     H126298   4.322   6.528   5.036
 6398WAT     H226299   4.332   6.565   4.904
 6398WAT    EPW26300   4.312   6.513   4.959
 6399WAT      O26301   4.790   4.994   4.826
 6399WAT     H126302   4.726   4.954   4.781
 6399WAT     H226303   4.793   4.951   4.901
 6399WAT    EPW26304   4.781   4.982   4.830
 6400WAT      O26305   3.429   5.851   3.410
 6400WAT     H126306   3.462   5.773   3.388
 6400WAT     H226307   3.494   5.888   3.456
 6400WAT    EPW26308   3.444   5.845   3.414
 6401WAT      O26309   4.260   5.945   4.487
 6401WAT     H126310   4.245   6.006   4.547
 6401WAT     H226311   4.313   5.889   4.528
 6401WAT    EPW26312   4.266   5.946   4.502
 6402WAT      O26313   3.129   5.017   3.507
 6402WAT     H126314   3.142   4.946   3.458
 6402WAT     H226315   3.092   4.985   3.580
 6402WAT    EPW26316   3.126   5.002   3.511
 6403WAT      O26317   4.098   5.785   3.553
 6403WAT     H126318   4.104   5.850   3.611
 6403WAT     H226319   4.080   5.715   3.602
 6403WAT    EPW26320   4.097   5.784   3.569
 6404WAT      O26321   4.621   6.218   4.140
 6404WAT     H126322   4.573   6.248   4.073
 6404WAT     H226323   4.585   6.140   4.157
 6404WAT    EPW26324   4.609   6.211   4.132
 6405WAT      O26325   3.548   5.237   3.204
 6405WAT     H126326   3.497   5.242   3.133
 6405WAT     H226327   3.626   5.261   3.174
 6405WAT    EPW26328   3.552   5.241   3.189
 6406WAT      O26329   4.021   5.990   3.996
 6406WAT     H126330   3.936   5.970   4.004
 6406WAT     H226331   4.053   5.973   4.075
 6406WAT    EPW26332   4.013   5.984   4.009
 6407WAT      O26333   3.696   6.663   3.084
 6407WAT     H126334   3.740   6.593   3.113
 6407WAT     H226335   3.717   6.725   3.142
 6407WAT    EPW26336   3.706   6.662   3.097
 6408WAT      O26337   3.406   5.959   4.227
 6408WAT     H126338   3.478   6.008   4.224
 6408WAT     H226339   3.379   5.956   4.145
 6408WAT    EPW26340   3.412   5.966   4.215
 6409WAT      O26341   4.990   6.634   3.334
 6409WAT     H126342   5.060   6.588   3.309
 6409WAT     H226343   4.936   6.575   3.367
 6409WAT    EPW26344   4.993   6.619   3.335
 6410WAT      O26345   4.714   5.912   4.252
 6410WAT     H126346   4.713   5.834   4.291
 6410WAT     H226347   4.630   5.935   4.251
 6410WAT    EPW26348   4.702   5.904   4.257
 6411WAT      O26349   3.663   5.753   3.115
 6411WAT     H126350   3.602   5.713   3.162
 6411WAT     H226351   3.625   5.765   3.038
 6411WAT    EPW26352   3.648   5.749   3.111
 6412WAT      O26353   3.345   6.064   4.655
 6412WAT     H126354   3.303   6.012   4.599
 6412WAT     H226355   3.310   6.143   4.641
 6412WAT    EPW26356   3.334   6.068   4.645
 6413WAT      O26357   4.840   5.919   3.995
 6413WAT     H126358   4.811   5.959   4.067
 6413WAT     H226359   4.926   5.913   4.008
 6413WAT    EPW26360   4.848   5.924   4.008
 6414WAT      O26361   3.809   5.599   3.386
 6414WAT     H126362   3.836   5.682   3.393
 6414WAT     H226363   3.722   5.607   3.376
 6414WAT    EPW26364   3.800   5.613   3.386
 6415WAT      O26365   4.606   5.312   4.849
 6415WAT     H126366   4.553   5.357   4.902
 6415WAT     H226367   4.570   5.232   4.849
 6415WAT    EPW26368   4.593   5.307   4.857
 6416WAT      O26369   4.953   6.482   4.048
 6416WAT     H126370   4.982   6.508   3.970
 6416WAT     H226371   5.022   6.492   4.100
 6416WAT    EPW26372   4.967   6.488   4.044
 6417WAT      O26373   4.455   5.668   4.857
 6417WAT     H126374   4.462   5.679   4.943
 6417WAT     H226375   4.392   5.724   4.835
 6417WAT    EPW26376   4.447   5.678   4.866
 6418WAT      O26377   4.682   5.700   4.693
 6418WAT     H126378   4.714   5.779   4.714
 6418WAT     H226379   4.645   5.673   4.768
 6418WAT    EPW26380   4.681   5.708   4.707
 6419WAT      O26381   4.613   6.343   3.246
 6419WAT     H126382   4.647   6.262   3.250
 6419WAT     H226383   4.538   6.336   3.289
 6419WAT    EPW26384   4.607   6.330   3.253
 6420WAT      O26385   4.662   5.526   3.812
 6420WAT     H126386   4.587   5.494   3.844
 6420WAT     H226387   4.662   5.609   3.840
 6420WAT    EPW26388   4.651   5.534   3.821
 6421WAT      O26389   4.952   5.755   4.967
 6421WAT     H126390   4.947   5.720   4.887
 6421WAT     H226391   5.025   5.801   4.965
 6421WAT    EPW26392   4.962   5.756   4.955
 6422WAT      O26393   4.906   6.122   4.587
 6422WAT     H126394   4.968   6.067   4.562
 6422WAT     H226395   4.899   6.179   4.521
 6422WAT    EPW26396   4.914   6.122   4.574
 6423WAT      O26397   4.351   6.130   3.187
 6423WAT     H126398   4.419   6.079   3.170
 6423WAT     H226399   4.309   6.135   3.110
 6423WAT    EPW26400   4.355   6.123   3.173
 6424WAT      O26401   3.819   6.245   4.317
 6424WAT     H126402   3.789   6.304   4.374
 6424WAT     H226403   3.824   6.289   4.242
 6424WAT    EPW26404   3.815   6.261   4.314
 6425WAT      O26405   3.617   6.140   4.657
 6425WAT     H126406   3.536   6.111   4.674
 6425WAT     H226407   3.608   6.227   4.657
 6425WAT    EPW26408   3.604   6.149   4.659
 6426WAT      O26409   4.071   5.888   4.266
 6426WAT     H126410   4.118   5.925   4.329
 6426WAT     H226411   3.988   5.901   4.292
 6426WAT    EPW26412   4.065   5.895   4.279
 6427WAT      O26413   3.997   6.627   3.789
 6427WAT     H126414   4.052   6.695   3.794
 6427WAT     H226415   3.962   6.635   3.709
 6427WAT    EPW26416   4.000   6.638   3.778
 6428WAT      O26417   4.681   4.957   4.325
 6428WAT     H126418   4.653   5.040   4.321
 6428WAT     H226419   4.753   4.962   4.375
 6428WAT    EPW26420   4.688   4.970   4.332
 6429WAT      O26421   3.815   6.450   4.128
 6429WAT     H126422   3.753   6.508   4.110
 6429WAT     H226423   3.840   6.421   4.049
 6429WAT    EPW26424   3.810   6.454   4.114
 6430WAT      O26425   4.246   6.113   4.827
 6430WAT     H126426   4.322   6.142   4.794
 6430WAT     H226427   4.191   6.118   4.759
 6430WAT    EPW26428   4.249   6.118   4.812
 6431WAT      O26429   4.637   6.368   4.677
 6431WAT     H126430   4.672   6.395   4.753
 6431WAT     H226431   4.666   6.426   4.619
 6431WAT    EPW26432   4.647   6.381   4.680
 6432WAT      O26433   4.823   5.583   3.211
 6432WAT     H126434   4.861   5.650   3.171
 6432WAT     H226435   4.739   5.605   3.214
 6432WAT    EPW26436   4.816   5.596   3.206
 6433WAT      O26437   3.975   5.927   3.119
 6433WAT     H126438   3.894   5.910   3.091
 6433WAT     H226439   3.971   6.012   3.139
 6433WAT    EPW26440   3.962   5.937   3.118
 6434WAT      O26441   4.081   6.615   4.716
 6434WAT     H126442   4.128   6.555   4.674
 6434WAT     H226443   4.045   6.570   4.782
 6434WAT    EPW26444   4.082   6.599   4.720
 6435WAT      O26445   4.593   5.543   3.549
 6435WAT     H126446   4.614   5.522   3.631
 6435WAT     H226447   4.668   5.569   3.514
 6435WAT    EPW26448   4.607   5.544   3.556
 6436WAT      O26449   4.739   5.945   3.534
 6436WAT     H126450   4.787   5.872   3.529
 6436WAT     H226451   4.657   5.917   3.526
 6436WAT    EPW26452   4.734   5.930   3.532
 6437WAT      O26453   4.086   6.136   4.618
 6437WAT     H126454   4.007   6.130   4.653
 6437WAT     H226455   4.094   6.221   4.598
 6437WAT    EPW26456   4.076   6.148   4.620
 6438WAT      O26457   3.669   6.757   4.150
 6438WAT     H126458   3.671   6.763   4.237
 6438WAT     H226459   3.627   6.682   4.135
 6438WAT    EPW26460   3.663   6.747   4.160
 6439WAT      O26461   4.361   6.062   3.769
 6439WAT     H126462   4.369   6.096   3.849
 6439WAT     H226463   4.378   5.977   3.782
 6439WAT    EPW26464   4.365   6.054   3.783
 6440WAT      O26465   4.113   5.989   3.726
 6440WAT     H126466   4.083   5.958   3.802
 6440WAT     H226467   4.183   6.037   3.749
 6440WAT    EPW26468   4.119   5.992   3.741
 6441WAT      O26469   4.135   6.401   4.529
 6441WAT     H126470   4.204   6.390   4.581
 6441WAT     H226471   4.149   6.480   4.494
 6441WAT    EPW26472   4.147   6.411   4.531
 6442WAT      O26473   4.953   5.662   4.710
 6442WAT     H126474   4.867   5.650   4.722
 6442WAT     H226475   4.968   5.623   4.633
 6442WAT    EPW26476   4.943   5.654   4.700
 6443WAT      O26477   4.404   5.729   4.567
 6443WAT     H126478   4.379   5.657   4.610
 6443WAT     H226479   4.486   5.740   4.594
 6443WAT    EPW26480   4.413   5.720   4.578
 6444WAT      O26481   3.346   6.707   4.694
 6444WAT     H126482   3.280   6.650   4.704
 6444WAT     H226483   3.308   6.784   4.709
 6444WAT    EPW26484   3.331   6.710   4.697
 6445WAT      O26485   4.198   5.848   4.886
 6445WAT     H126486   4.230   5.916   4.843
 6445WAT     H226487   4.127   5.880   4.926
 6445WAT    EPW26488   4.192   5.862   4.886
 6446WAT      O26489   4.506   6.685   3.979
 6446WAT     H126490   4.461   6.749   4.017
 6446WAT     H226491   4.577   6.677   4.029
 6446WAT    EPW26492   4.510   6.693   3.992
 6447WAT      O26493   4.176   6.194   4.272
 6447WAT     H126494   4.107   6.234   4.306
 6447WAT     H226495   4.244   6.237   4.306
 6447WAT    EPW26496   4.176   6.206   4.282
 6448WAT      O26497   4.714   6.453   4.930
 6448WAT     H126498   4.791   6.414   4.938
 6448WAT     H226499   4.667   6.420   4.995
 6448WAT    EPW26500   4.718   6.443   4.941
 6449WAT      O26501   4.816   5.657   3.478
 6449WAT     H126502   4.827   5.651   3.392
 6449WAT     H226503   4.890   5.623   3.510
 6449WAT    EPW26504   4.829   5.651   3.470
 6450WAT      O26505   4.208   6.353   3.589
 6450WAT     H126506   4.188   6.436   3.573
 6450WAT     H226507   4.131   6.315   3.601
 6450WAT    EPW26508   4.194   6.360   3.588
 6451WAT      O26509   4.727   5.671   4.414
 6451WAT     H126510   4.726   5.585   4.426
 6451WAT     H226511   4.733   5.704   4.494
 6451WAT    EPW26512   4.728   5.663   4.427
 6452WAT      O26513   3.200   5.915   4.457
 6452WAT     H126514   3.232   5.937   4.378
 6452WAT     H226515   3.190   5.829   4.451
 6452WAT    EPW26516   3.203   5.906   4.444
 6453WAT      O26517   3.346   5.509   3.118
 6453WAT     H126518   3.279   5.510   3.174
 6453WAT     H226519   3.355   5.424   3.100
 6453WAT    EPW26520   3.337   5.496   3.124
 6454WAT      O26521   3.745   6.379   3.230
 6454WAT     H126522   3.789   6.387   3.305
 6454WAT     H226523   3.664   6.358   3.256
 6454WAT    EPW26524   3.739   6.377   3.245
 6455WAT      O26525   4.604   5.750   4.006
 6455WAT     H126526   4.671   5.804   4.022
 6455WAT     H226527   4.570   5.781   3.933
 6455WAT    EPW26528   4.609   5.762   3.998
 6456WAT      O26529   4.635   6.556   3.587
 6456WAT     H126530   4.618   6.491   3.642
 6456WAT     H226531   4.707   6.529   3.545
 6456WAT    EPW26532   4.643   6.543   3.589
 6457WAT      O26533   3.477   6.286   3.290
 6457WAT     H126534   3.453   6.256   3.368
 6457WAT     H226535   3.474   6.216   3.238
 6457WAT    EPW26536   3.473   6.271   3.294
 6458WAT      O26537   3.759   6.111   3.164
 6458WAT     H126538   3.678   6.084   3.178
 6458WAT     H226539   3.757   6.196   3.183
 6458WAT    EPW26540   3.747   6.119   3.169
 6459WAT      O26541   4.921   5.006   4.473
 6459WAT     H126542   4.916   5.001   4.560
 6459WAT     H226543   4.990   4.955   4.454
 6459WAT    EPW26544   4.931   4.998   4.483
 6460WAT      O26545   4.403   6.302   4.356
 6460WAT     H126546   4.423   6.332   4.435
 6460WAT     H226547   4.397   6.374   4.308
 6460WAT    EPW26548   4.405   6.317   4.361
 6461WAT      O26549   4.356   6.723   4.781
 6461WAT     H126550   4.281   6.721   4.737
 6461WAT     H226551   4.373   6.808   4.789
 6461WAT    EPW26552   4.348   6.735   4.776
 6462WAT      O26553   4.884   6.166   4.302
 6462WAT     H126554   4.881   6.079   4.289
 6462WAT     H226555   4.815   6.196   4.259
 6462WAT    EPW26556   4.873   6.157   4.294
 6463WAT      O26557   3.723   6.685   4.723
 6463WAT     H126558   3.728   6.698   4.809
 6463WAT     H226559   3.789   6.629   4.707
 6463WAT    EPW26560   3.734   6.679   4.733
 6464WAT      O26561   4.695   6.492   4.182
 6464WAT     H126562   4.747   6.483   4.113
 6464WAT     H226563   4.655   6.414   4.187
 6464WAT    EPW26564   4.697   6.479   4.172
 6465WAT      O26565   3.483   6.524   4.859
 6465WAT     H126566   3.542   6.567   4.906
 6465WAT     H226567   3.446   6.586   4.810
 6465WAT    EPW26568   3.486   6.539   4.858
 6466WAT      O26569   3.275   6.323   4.552
 6466WAT     H126570   3.218   6.364   4.602
 6466WAT     H226571   3.349   6.369   4.561
 6466WAT    EPW26572   3.278   6.336   4.560
 6467WAT      O26573   4.479   5.800   3.508
 6467WAT     H126574   4.486   5.715   3.526
 6467WAT     H226575   4.397   5.808   3.480
 6467WAT    EPW26576   4.468   5.789   3.507
 6468WAT      O26577   3.454   6.649   3.429
 6468WAT     H126578   3.440   6.665   3.344
 6468WAT     H226579   3.541   6.657   3.437
 6468WAT    EPW26580   3.465   6.653   3.418
 6469WAT      O26581   3.871   5.889   3.402
 6469WAT     H126582   3.881   5.903   3.316
 6469WAT     H226583   3.953   5.883   3.431
 6469WAT    EPW26584   3.884   5.890   3.394
 6470WAT      O26585   4.787   6.695   3.150
 6470WAT     H126586   4.850   6.682   3.208
 6470WAT     H226587   4.753   6.616   3.138
 6470WAT    EPW26588   4.791   6.682   3.157
 6471WAT      O26589   4.806   5.937   4.823
 6471WAT     H126590   4.870   5.920   4.881
 6471WAT     H226591   4.848   5.977   4.758
 6471WAT    EPW26592   4.822   5.941   4.822
 6472WAT      O26593   4.394   6.322   3.382
 6472WAT     H126594   4.369   6.309   3.465
 6472WAT     H226595   4.363   6.252   3.340
 6472WAT    EPW26596   4.386   6.310   3.388
 6473WAT      O26597   4.869   5.394   4.897
 6473WAT     H126598   4.849   5.458   4.952
 6473WAT     H226599   4.797   5.345   4.896
 6473WAT    EPW26600   4.855   5.396   4.905
 6474WAT      O26601   4.859   5.488   4.194
 6474WAT     H126602   4.775   5.513   4.187
 6474WAT     H226603   4.853   5.404   4.217
 6474WAT    EPW26604   4.846   5.479   4.196
 6475WAT      O26605   4.547   5.948   4.959
 6475WAT     H126606   4.634   5.945   4.955
 6475WAT     H226607   4.525   5.990   4.885
 6475WAT    EPW26608   4.557   5.954   4.947
 6476WAT      O26609   3.523   6.531   4.077
 6476WAT     H126610   3.515   6.450   4.045
 6476WAT     H226611   3.478   6.579   4.020
 6476WAT    EPW26612   3.515   6.526   4.064
 6477WAT      O26613   4.083   6.143   3.325
 6477WAT     H126614   4.155   6.108   3.289
 6477WAT     H226615   4.079   6.223   3.290
 6477WAT    EPW26616   4.093   6.149   3.315
 6478WAT      O26617   3.280   6.755   4.435
 6478WAT     H126618   3.329   6.750   4.507
 6478WAT     H226619   3.299   6.682   4.391
 6478WAT    EPW26620   3.290   6.743   4.439
 6479WAT      O26621   4.224   5.007   1.749
 6479WAT     H126622   4.199   5.056   1.681
 6479WAT     H226623   4.310   4.999   1.739
 6479WAT    EPW26624   4.233   5.013   1.737
 6480WAT      O26625   4.205   5.698   2.216
 6480WAT     H126626   4.152   5.758   2.252
 6480WAT     H226627   4.244   5.662   2.284
 6480WAT    EPW26628   4.203   5.702   2.232
 6481WAT      O26629   3.192   6.112   1.762
 6481WAT     H126630   3.147   6.124   1.836
 6481WAT     H226631   3.163   6.035   1.733
 6481WAT    EPW26632   3.181   6.103   1.768
 6482WAT      O26633   4.819   6.442   1.513
 6482WAT     H126634   4.889   6.391   1.513
 6482WAT     H226635   4.760   6.398   1.466
 6482WAT    EPW26636   4.821   6.428   1.506
 6483WAT      O26637   3.166   5.492   1.412
 6483WAT     H126638   3.088   5.508   1.376
 6483WAT     H226639   3.170   5.404   1.415
 6483WAT    EPW26640   3.155   5.481   1.407
 6484WAT      O26641   3.480   6.018   1.280
 6484WAT     H126642   3.441   5.981   1.211
 6484WAT     H226643   3.472   5.958   1.342
 6484WAT    EPW26644   3.473   6.004   1.279
 6485WAT      O26645   4.472   5.805   1.884
 6485WAT     H126646   4.480   5.805   1.797
 6485WAT     H226647   4.413   5.742   1.899
 6485WAT    EPW26648   4.464   5.796   1.873
 6486WAT      O26649   3.442   6.182   1.670
 6486WAT     H126650   3.503   6.165   1.730
 6486WAT     H226651   3.367   6.168   1.712
 6486WAT    EPW26652   3.440   6.177   1.685
 6487WAT      O26653   3.871   5.115   1.664
 6487WAT     H126654   3.864   5.183   1.610
 6487WAT     H226655   3.945   5.077   1.640
 6487WAT    EPW26656   3.881   5.120   1.653
 6488WAT      O26657   3.332   6.491   1.277
 6488WAT     H126658   3.378   6.499   1.204
 6488WAT     H226659   3.377   6.433   1.324
 6488WAT    EPW26660   3.345   6.484   1.273
 6489WAT      O26661   3.186   6.386   2.387
 6489WAT     H126662   3.198   6.358   2.469
 6489WAT     H226663   3.125   6.332   2.356
 6489WAT    EPW26664   3.178   6.374   2.395
 6490WAT      O26665   3.843   6.138   2.894
 6490WAT     H126666   3.819   6.138   2.978
 6490WAT     H226667   3.768   6.124   2.851
 6490WAT    EPW26668   3.828   6.136   2.900
 6491WAT      O26669   3.330   5.838   1.807
 6491WAT     H126670   3.284   5.799   1.745
 6491WAT     H226671   3.400   5.787   1.817
 6491WAT    EPW26672   3.334   5.825   1.799
 6492WAT      O26673   3.781   5.399   2.342
 6492WAT     H126674   3.849   5.401   2.287
 6492WAT     H226675   3.776   5.315   2.367
 6492WAT    EPW26676   3.790   5.387   2.338
 6493WAT      O26677   3.841   6.458   2.620
 6493WAT     H126678   3.855   6.534   2.579
 6493WAT     H226679   3.920   6.421   2.623
 6493WAT    EPW26680   3.855   6.463   2.615
 6494WAT      O26681   3.530   5.648   1.810
 6494WAT     H126682   3.612   5.629   1.834
 6494WAT     H226683   3.483   5.587   1.849
 6494WAT    EPW26684   3.535   5.636   1.819
 6495WAT      O26685   3.951   6.246   2.071
 6495WAT     H126686   3.985   6.166   2.074
 6495WAT     H226687   4.017   6.296   2.045
 6495WAT    EPW26688   3.966   6.242   2.067
 6496WAT      O26689   3.956   6.191   1.692
 6496WAT     H126690   3.989   6.127   1.740
 6496WAT     H226691   3.980   6.170   1.611
 6496WAT    EPW26692   3.965   6.178   1.687
 6497WAT      O26693   4.153   5.604   2.826
 6497WAT     H126694   4.068   5.594   2.808
 6497WAT     H226695   4.156   5.679   2.871
 6497WAT    EPW26696   4.141   5.614   2.830
 6498WAT      O26697   3.590   5.157   1.736
 6498WAT     H126698   3.560   5.207   1.671
 6498WAT     H226699   3.677   5.165   1.731
 6498WAT    EPW26700   3.598   5.166   1.726
 6499WAT      O26701   4.609   4.900   2.737
 6499WAT     H126702   4.593   4.977   2.699
 6499WAT     H226703   4.532   4.878   2.771
 6499WAT    EPW26704   4.595   4.908   2.737
 6500WAT      O26705   3.888   5.072   1.959
 6500WAT     H126706   3.895   5.158   1.971
 6500WAT     H226707   3.884   5.064   1.872
 6500WAT    EPW26708   3.888   5.083   1.948
 6501WAT      O26709   4.355   5.364   1.188
 6501WAT     H126710   4.310   5.432   1.219
 6501WAT     H226711   4.367   5.314   1.259
 6501WAT    EPW26712   4.350   5.367   1.203
 6502WAT      O26713   3.176   5.614   2.109
 6502WAT     H126714   3.150   5.697   2.101
 6502WAT     H226715   3.109   5.576   2.150
 6502WAT    EPW26716   3.162   5.621   2.114
 6503WAT      O26717   3.167   6.585   1.899
 6503WAT     H126718   3.108   6.641   1.867
 6503WAT     H226719   3.209   6.558   1.827
 6503WAT    EPW26720   3.164   6.589   1.884
 6504WAT      O26721   3.751   6.369   1.647
 6504WAT     H126722   3.693   6.342   1.706
 6504WAT     H226723   3.813   6.309   1.649
 6504WAT    EPW26724   3.751   6.356   1.656
 6505WAT      O26725   4.365   6.598   1.399
 6505WAT     H126726   4.438   6.645   1.409
 6505WAT     H226727   4.388   6.519   1.427
 6505WAT    EPW26728   4.379   6.594   1.405
 6506WAT      O26729   4.182   6.637   1.598
 6506WAT     H126730   4.203   6.690   1.664
 6506WAT     H226731   4.259   6.620   1.560
 6506WAT    EPW26732   4.196   6.643   1.602
 6507WAT      O26733   3.479   5.096   2.158
 6507WAT     H126734   3.427   5.033   2.127
 6507WAT     H226735   3.538   5.052   2.205
 6507WAT    EPW26736   3.480   5.080   2.160
 6508WAT      O26737   3.809   5.309   3.088
 6508WAT     H126738   3.821   5.264   3.014
 6508WAT     H226739   3.838   5.389   3.067
 6508WAT    EPW26740   3.815   5.314   3.074
 6509WAT      O26741   3.321   6.452   1.692
 6509WAT     H126742   3.387   6.395   1.693
 6509WAT     H226743   3.360   6.527   1.670
 6509WAT    EPW26744   3.337   6.455   1.689
 6510WAT      O26745   4.895   5.361   1.818
 6510WAT     H126746   4.860   5.429   1.861
 6510WAT     H226747   4.831   5.302   1.820
 6510WAT    EPW26748   4.880   5.363   1.824
 6511WAT      O26749   4.426   6.638   2.428
 6511WAT     H126750   4.500   6.684   2.427
 6511WAT     H226751   4.414   6.617   2.345
 6511WAT    EPW26752   4.435   6.642   2.416
 6512WAT      O26753   3.383   5.269   2.986
 6512WAT     H126754   3.305   5.230   2.979
 6512WAT     H226755   3.432   5.228   2.927
 6512WAT    EPW26756   3.378   5.257   2.976
 6513WAT      O26757   3.403   6.301   2.042
 6513WAT     H126758   3.445   6.265   1.974
 6513WAT     H226759   3.435   6.259   2.111
 6513WAT    EPW26760   3.414   6.289   2.042
 6514WAT      O26761   3.726   6.586   1.971
 6514WAT     H126762   3.811   6.596   1.952
 6514WAT     H226763   3.696   6.668   1.978
 6514WAT    EPW26764   3.734   6.600   1.969
 6515WAT      O26765   4.107   5.526   1.780
 6515WAT     H126766   4.136   5.502   1.701
 6515WAT     H226767   4.180   5.534   1.827
 6515WAT    EPW26768   4.122   5.523   1.775
 6516WAT      O26769   4.179   5.560   1.292
 6516WAT     H126770   4.207   5.638   1.317
 6516WAT     H226771   4.101   5.576   1.256
 6516WAT    EPW26772   4.172   5.574   1.290
 6517WAT      O26773   4.583   6.757   1.439
 6517WAT     H126774   4.650   6.742   1.384
 6517WAT     H226775   4.619   6.749   1.518
 6517WAT    EPW26776   4.598   6.754   1.442
 6518WAT      O26777   3.626   6.708   2.545
 6518WAT     H126778   3.655   6.701   2.627
 6518WAT     H226779   3.563   6.647   2.541
 6518WAT    EPW26780   3.621   6.698   2.557
 6519WAT      O26781   4.862   5.194   2.355
 6519WAT     H126782   4.938   5.201   2.312
 6519WAT     H226783   4.868   5.116   2.395
 6519WAT    EPW26784   4.874   5.183   2.354
 6520WAT      O26785   3.117   5.324   2.745
 6520WAT     H126786   3.117   5.382   2.809
 6520WAT     H226787   3.177   5.355   2.689
 6520WAT    EPW26788   3.126   5.337   2.746
 6521WAT      O26789   4.351   6.357   2.799
 6521WAT     H126790   4.348   6.395   2.877
 6521WAT     H226791   4.437   6.353   2.782
 6521WAT    EPW26792   4.363   6.362   2.808
 6522WAT      O26793   4.065   6.377   1.274
 6522WAT     H126794   4.047   6.431   1.339
 6522WAT     H226795   4.142   6.406   1.244
 6522WAT    EPW26796   4.074   6.389   1.279
 6523WAT      O26797   4.416   5.166   1.379
 6523WAT     H126798   4.470   5.098   1.387
 6523WAT     H226799   4.422   5.206   1.457
 6523WAT    EPW26800   4.425   5.162   1.392
 6524WAT      O26801   3.211   5.283   1.636
 6524WAT     H126802   3.200   5.197   1.639
 6524WAT     H226803   3.164   5.312   1.703
 6524WAT    EPW26804   3.202   5.275   1.646
 6525WAT      O26805   3.425   6.524   2.458
 6525WAT     H126806   3.355   6.473   2.470
 6525WAT     H226807   3.451   6.504   2.377
 6525WAT    EPW26808   3.419   6.514   2.447
 6526WAT      O26809   4.141   5.404   1.511
 6526WAT     H126810   4.091   5.338   1.485
 6526WAT     H226811   4.147   5.454   1.440
 6526WAT    EPW26812   4.135   5.402   1.496
 6527WAT      O26813   4.196   6.673   2.549
 6527WAT     H126814   4.273   6.665   2.508
 6527WAT     H226815   4.138   6.661   2.485
 6527WAT    EPW26816   4.199   6.670   2.533
 6528WAT      O26817   4.141   5.098   1.500
 6528WAT     H126818   4.096   5.058   1.437
 6528WAT     H226819   4.219   5.113   1.462
 6528WAT    EPW26820   4.146   5.094   1.485
 6529WAT      O26821   4.824   6.734   1.839
 6529WAT     H126822   4.779   6.805   1.859
 6529WAT     H226823   4.763   6.677   1.814
 6529WAT    EPW26824   4.808   6.736   1.838
 6530WAT      O26825   4.001   5.335   1.952
 6530WAT     H126826   4.009   5.391   1.886
 6530WAT     H226827   4.013   5.384   2.023
 6530WAT    EPW26828   4.004   5.350   1.953
 6531WAT      O26829   4.524   6.318   1.793
 6531WAT     H126830   4.594   6.270   1.812
 6531WAT     H226831   4.458   6.261   1.798
 6531WAT    EPW26832   4.524   6.303   1.796
 6532WAT      O26833   3.561   6.409   2.714
 6532WAT     H126834   3.645   6.415   2.692
 6532WAT     H226835   3.558   6.449   2.792
 6532WAT    EPW26836   3.573   6.416   2.722
 6533WAT      O26837   3.462   4.917   1.787
 6533WAT     H126838   3.516   4.986   1.786
 6533WAT     H226839   3.462   4.890   1.704
 6533WAT    EPW26840   3.470   4.923   1.774
 6534WAT      O26841   3.758   5.960   2.189
 6534WAT     H126842   3.775   5.939   2.272
 6534WAT     H226843   3.692   5.907   2.168
 6534WAT    EPW26844   3.751   5.949   2.198
 6535WAT      O26845   4.380   5.352   2.541
 6535WAT     H126846   4.371   5.384   2.621
 6535WAT     H226847   4.321   5.288   2.537
 6535WAT    EPW26848   4.370   5.347   2.552
 6536WAT      O26849   3.833   5.954   2.448
 6536WAT     H126850   3.838   6.039   2.468
 6536WAT     H226851   3.804   5.917   2.522
 6536WAT    EPW26852   3.829   5.961   2.462
 6537WAT      O26853   4.450   6.024   2.361
 6537WAT     H126854   4.399   5.982   2.418
 6537WAT     H226855   4.438   6.108   2.379
 6537WAT    EPW26856   4.441   6.030   2.372
 6538WAT      O26857   4.506   4.946   1.824
 6538WAT     H126858   4.511   4.914   1.905
 6538WAT     H226859   4.538   4.882   1.775
 6538WAT    EPW26860   4.512   4.932   1.829
 6539WAT      O26861   3.115   6.391   3.069
 6539WAT     H126862   3.190   6.426   3.095
 6539WAT     H226863   3.132   6.306   3.064
 6539WAT    EPW26864   3.129   6.384   3.072
 6540WAT      O26865   4.752   5.370   2.655
 6540WAT     H126866   4.830   5.347   2.689
 6540WAT     H226867   4.705   5.391   2.725
 6540WAT    EPW26868   4.757   5.370   2.670
 6541WAT      O26869   3.507   5.298   1.952
 6541WAT     H126870   3.534   5.255   1.881
 6541WAT     H226871   3.489   5.234   2.009
 6541WAT    EPW26872   3.508   5.282   1.950
 6542WAT      O26873   4.776   6.067   1.374
 6542WAT     H126874   4.788   6.039   1.455
 6542WAT     H226875   4.856   6.070   1.341
 6542WAT    EPW26876   4.789   6.064   1.381
 6543WAT      O26877   3.489   6.041   1.907
 6543WAT     H126878   3.574   6.033   1.890
 6543WAT     H226879   3.454   5.972   1.866
 6543WAT    EPW26880   3.497   6.029   1.898
 6544WAT      O26881   3.366   6.713   2.031
 6544WAT     H126882   3.299   6.663   2.006
 6544WAT     H226883   3.406   6.732   1.956
 6544WAT    EPW26884   3.362   6.709   2.016
 6545WAT      O26885   3.321   5.408   2.260
 6545WAT     H126886   3.405   5.430   2.256
 6545WAT     H226887   3.282   5.465   2.207
 6545WAT    EPW26888   3.328   5.420   2.252
 6546WAT      O26889   4.999   6.518   2.799
 6546WAT     H126890   4.931   6.549   2.755
 6546WAT     H226891   4.962   6.473   2.864
 6546WAT    EPW26892   4.983   6.516   2.802
 6547WAT      O26893   4.565   5.721   1.332
 6547WAT     H126894   4.543   5.794   1.290
 6547WAT     H226895   4.520   5.726   1.407
 6547WAT    EPW26896   4.555   5.733   1.337
 6548WAT      O26897   3.726   6.041   1.730
 6548WAT     H126898   3.797   6.091   1.739
 6548WAT     H226899   3.748   5.985   1.668
 6548WAT    EPW26900   3.740   6.040   1.723
 6549WAT      O26901   4.984   5.207   1.278
 6549WAT     H126902   4.918   5.150   1.280
 6549WAT     H226903   4.965   5.258   1.210
 6549WAT    EPW26904   4.971   5.206   1.268
 6550WAT      O26905   3.142   6.206   2.062
 6550WAT     H126906   3.075   6.254   2.090
 6550WAT     H226907   3.210   6.260   2.065
 6550WAT    EPW26908   3.142   6.221   2.067
 6551WAT      O26909   3.906   5.577   3.072
 6551WAT     H126910   3.858   5.634   3.116
 6551WAT     H226911   3.904   5.606   2.990
 6551WAT    EPW26912   3.899   5.590   3.066
 6552WAT      O26913   5.016   5.645   2.533
 6552WAT     H126914   5.038   5.565   2.506
 6552WAT     H226915   4.931   5.651   2.514
 6552WAT    EPW26916   5.007   5.634   2.526
 6553WAT      O26917   3.148   5.874   1.573
 6553WAT     H126918   3.130   5.790   1.588
 6553WAT     H226919   3.214   5.870   1.516
 6553WAT    EPW26920   3.155   5.861   1.567
 6554WAT      O26921   4.784   5.163   1.506
 6554WAT     H126922   4.859   5.122   1.525
 6554WAT     H226923   4.810   5.235   1.463
 6554WAT    EPW26924   4.799   5.168   1.502
 6555WAT      O26925   4.178   6.412   1.963
 6555WAT     H126926   4.126   6.475   1.934
 6555WAT     H226927   4.209   6.375   1.890
 6555WAT    EPW26928   4.175   6.416   1.948
 6556WAT      O26929   3.165   6.290   1.530
 6556WAT     H126930   3.221   6.347   1.567
 6556WAT     H226931   3.142   6.239   1.597
 6556WAT    EPW26932   3.170   6.291   1.545
 6557WAT      O26933   3.586   6.190   2.239
 6557WAT     H126934   3.633   6.219   2.307
 6557WAT     H226935   3.643   6.143   2.194
 6557WAT    EPW26936   3.601   6.188   2.242
 6558WAT      O26937   4.429   5.392   2.013
 6558WAT     H126938   4.464   5.407   2.092
 6558WAT     H226939   4.384   5.318   2.024
 6558WAT    EPW26940   4.428   5.383   2.026
 6559WAT      O26941   3.148   6.135   1.293
 6559WAT     H126942   3.224   6.092   1.299
 6559WAT     H226943   3.150   6.189   1.362
 6559WAT    EPW26944   3.160   6.137   1.304
 6560WAT      O26945   3.242   5.957   2.094
 6560WAT     H126946   3.286   5.945   2.019
 6560WAT     H226947   3.222   6.042   2.091
 6560WAT    EPW26948   3.246   5.968   2.082
 6561WAT      O26949   3.877   5.314   1.459
 6561WAT     H126950   3.877   5.302   1.372
 6561WAT     H226951   3.859   5.399   1.468
 6561WAT    EPW26952   3.874   5.325   1.447
 6562WAT      O26953   4.782   6.557   2.608
 6562WAT     H126954   4.715   6.608   2.630
 6562WAT     H226955   4.789   6.567   2.522
 6562WAT    EPW26956   4.773   6.566   2.599
 6563WAT      O26957   3.651   6.309   1.922
 6563WAT     H126958   3.663   6.393   1.940
 6563WAT     H226959   3.718   6.269   1.961
 6563WAT    EPW26960   3.663   6.316   1.930
 6564WAT      O26961   3.464   5.657   2.908
 6564WAT     H126962   3.410   5.607   2.955
 6564WAT     H226963   3.466   5.618   2.830
 6564WAT    EPW26964   3.456   5.644   2.903
 6565WAT      O26965   3.512   5.597   1.422
 6565WAT     H126966   3.500   5.552   1.496
 6565WAT     H226967   3.454   5.563   1.367
 6565WAT    EPW26968   3.502   5.585   1.425
 6566WAT      O26969   3.529   5.780   2.082
 6566WAT     H126970   3.451   5.774   2.044
 6566WAT     H226971   3.536   5.705   2.126
 6566WAT    EPW26972   3.519   5.768   2.083
 6567WAT      O26973   3.572   5.754   2.429
 6567WAT     H126974   3.575   5.686   2.374
 6567WAT     H226975   3.507   5.803   2.397
 6567WAT    EPW26976   3.563   5.751   2.416
 6568WAT      O26977   4.562   5.525   2.268
 6568WAT     H126978   4.495   5.558   2.315
 6568WAT     H226979   4.580   5.588   2.211
 6568WAT    EPW26980   4.555   5.539   2.267
 6569WAT      O26981   3.982   6.631   2.368
 6569WAT     H126982   3.954   6.567   2.316
 6569WAT     H226983   3.961   6.704   2.324
 6569WAT    EPW26984   3.975   6.633   2.354
 6570WAT      O26985   4.226   5.116   2.611
 6570WAT     H126986   4.241   5.033   2.587
 6570WAT     H226987   4.264   5.121   2.690
 6570WAT    EPW26988   4.234   5.104   2.619
 6571WAT      O26989   4.381   5.322   1.619
 6571WAT     H126990   4.430   5.394   1.612
 6571WAT     H226991   4.302   5.348   1.593
 6571WAT    EPW26992   4.376   5.336   1.614
 6572WAT      O26993   3.352   5.889   2.985
 6572WAT     H126994   3.348   5.939   2.913
 6572WAT     H226995   3.385   5.814   2.955
 6572WAT    EPW26996   3.356   5.885   2.970
 6573WAT      O26997   4.512   6.110   2.810
 6573WAT     H126998   4.561   6.182   2.820
 6573WAT     H226999   4.552   6.067   2.745
 6573WAT    EPW27000   4.525   6.114   2.802
 6574WAT      O27001   3.942   6.394   2.928
 6574WAT     H127002   3.977   6.376   3.006
 6574WAT     H227003   3.898   6.321   2.908
 6574WAT    EPW27004   3.941   6.381   2.937
 6575WAT      O27005   4.039   5.469   2.192
 6575WAT     H127006   4.087   5.539   2.213
 6575WAT     H227007   4.076   5.404   2.237
 6575WAT    EPW27008   4.052   5.470   2.202
 6576WAT      O27009   4.258   5.786   1.419
 6576WAT     H127010   4.257   5.858   1.370
 6576WAT     H227011   4.194   5.799   1.477
 6576WAT    EPW27012   4.248   5.799   1.421
 6577WAT      O27013   4.755   6.173   1.817
 6577WAT     H127014   4.791   6.138   1.889
 6577WAT     H227015   4.754   6.107   1.760
 6577WAT    EPW27016   4.760   6.158   1.819
 6578WAT      O27017   4.360   6.479   2.202
 6578WAT     H127018   4.299   6.450   2.146
 6578WAT     H227019   4.414   6.525   2.151
 6578WAT    EPW27020   4.359   6.482   2.186
 6579WAT      O27021   4.361   6.165   2.142
 6579WAT     H127022   4.281   6.187   2.169
 6579WAT     H227023   4.387   6.105   2.200
 6579WAT    EPW27024   4.353   6.159   2.154
 6580WAT      O27025   3.750   6.646   1.587
 6580WAT     H127026   3.735   6.568   1.624
 6580WAT     H227027   3.819   6.631   1.535
 6580WAT    EPW27028   3.758   6.632   1.584
 6581WAT      O27029   3.717   5.020   1.385
 6581WAT     H127030   3.727   5.009   1.471
 6581WAT     H227031   3.646   5.071   1.379
 6581WAT    EPW27032   3.708   5.026   1.397
 6582WAT      O27033   3.979   6.597   1.427
 6582WAT     H127034   4.042   6.614   1.486
 6582WAT     H227035   3.983   6.666   1.374
 6582WAT    EPW27036   3.989   6.610   1.428
 6583WAT      O27037   4.687   5.964   2.626
 6583WAT     H127038   4.692   5.977   2.540
 6583WAT     H227039   4.762   5.996   2.657
 6583WAT    EPW27040   4.699   5.971   2.618
 6584WAT      O27041   4.306   6.499   3.054
 6584WAT     H127042   4.322   6.528   3.135
 6584WAT     H227043   4.332   6.565   3.004
 6584WAT    EPW27044   4.312   6.513   3.059
 6585WAT      O27045   3.429   5.851   1.510
 6585WAT     H127046   3.462   5.773   1.487
 6585WAT     H227047   3.494   5.888   1.555
 6585WAT    EPW27048   3.444   5.845   1.513
 6586WAT      O27049   4.260   5.945   2.586
 6586WAT     H127050   4.245   6.006   2.647
 6586WAT     H227051   4.313   5.889   2.627
 6586WAT    EPW27052   4.266   5.946   2.601
 6587WAT      O27053   3.129   5.017   1.606
 6587WAT     H127054   3.142   4.946   1.557
 6587WAT     H227055   3.092   4.985   1.679
 6587WAT    EPW27056   3.126   5.002   1.610
 6588WAT      O27057   4.098   5.785   1.652
 6588WAT     H127058   4.104   5.850   1.710
 6588WAT     H227059   4.080   5.715   1.701
 6588WAT    EPW27060   4.097   5.784   1.668
 6589WAT      O27061   4.621   6.218   2.239
 6589WAT     H127062   4.573   6.248   2.172
 6589WAT     H227063   4.585   6.140   2.257
 6589WAT    EPW27064   4.609   6.211   2.232
 6590WAT      O27065   3.548   5.237   1.303
 6590WAT     H127066   3.497   5.242   1.233
 6590WAT     H227067   3.626   5.261   1.274
 6590WAT    EPW27068   3.552   5.241   1.289
 6591WAT      O27069   4.021   5.990   2.095
 6591WAT     H127070   3.936   5.970   2.103
 6591WAT     H227071   4.053   5.973   2.175
 6591WAT    EPW27072   4.013   5.984   2.108
 6592WAT      O27073   3.696   6.663   1.184
 6592WAT     H127074   3.740   6.593   1.213
 6592WAT     H227075   3.717   6.725   1.241
 6592WAT    EPW27076   3.706   6.662   1.197
 6593WAT      O27077   3.406   5.959   2.327
 6593WAT     H127078   3.478   6.008   2.323
 6593WAT     H227079   3.379   5.956   2.244
 6593WAT    EPW27080   3.412   5.966   2.314
 6594WAT      O27081   3.729   5.476   2.000
 6594WAT     H127082   3.813   5.457   2.010
 6594WAT     H227083   3.692   5.398   1.987
 6594WAT    EPW27084   3.736   5.462   2.000
 6595WAT      O27085   4.990   6.634   1.433
 6595WAT     H127086   5.060   6.588   1.408
 6595WAT     H227087   4.936   6.575   1.467
 6595WAT    EPW27088   4.993   6.619   1.434
 6596WAT      O27089   3.211   5.610   1.666
 6596WAT     H127090   3.260   5.581   1.732
 6596WAT     H227091   3.224   5.551   1.603
 6596WAT    EPW27092   3.220   5.597   1.666
 6597WAT      O27093   4.714   5.912   2.351
 6597WAT     H127094   4.713   5.834   2.391
 6597WAT     H227095   4.630   5.935   2.350
 6597WAT    EPW27096   4.702   5.904   2.357
 6598WAT      O27097   3.663   5.753   1.214
 6598WAT     H127098   3.602   5.713   1.262
 6598WAT     H227099   3.625   5.765   1.137
 6598WAT    EPW27100   3.648   5.749   1.210
 6599WAT      O27101   3.345   6.064   2.755
 6599WAT     H127102   3.303   6.012   2.699
 6599WAT     H227103   3.310   6.143   2.740
 6599WAT    EPW27104   3.334   6.068   2.744
 6600WAT      O27105   4.840   5.919   2.095
 6600WAT     H127106   4.811   5.959   2.167
 6600WAT     H227107   4.926   5.913   2.107
 6600WAT    EPW27108   4.848   5.924   2.107
 6601WAT      O27109   3.809   5.599   1.485
 6601WAT     H127110   3.836   5.682   1.492
 6601WAT     H227111   3.722   5.607   1.476
 6601WAT    EPW27112   3.800   5.613   1.485
 6602WAT      O27113   4.606   5.312   2.949
 6602WAT     H127114   4.553   5.357   3.001
 6602WAT     H227115   4.570   5.232   2.948
 6602WAT    EPW27116   4.593   5.307   2.956
 6603WAT      O27117   3.157   5.196   2.139
 6603WAT     H127118   3.161   5.231   2.059
 6603WAT     H227119   3.232   5.220   2.176
 6603WAT    EPW27120   3.168   5.205   2.133
 6604WAT      O27121   4.953   6.482   2.148
 6604WAT     H127122   4.982   6.508   2.069
 6604WAT     H227123   5.022   6.492   2.199
 6604WAT    EPW27124   4.967   6.488   2.144
 6605WAT      O27125   4.455   5.668   2.956
 6605WAT     H127126   4.462   5.679   3.043
 6605WAT     H227127   4.392   5.724   2.934
 6605WAT    EPW27128   4.447   5.678   2.966
 6606WAT      O27129   4.682   5.700   2.793
 6606WAT     H127130   4.714   5.779   2.813
 6606WAT     H227131   4.645   5.673   2.867
 6606WAT    EPW27132   4.681   5.708   2.807
 6607WAT      O27133   4.613   6.343   1.346
 6607WAT     H127134   4.647   6.262   1.349
 6607WAT     H227135   4.538   6.336   1.389
 6607WAT    EPW27136   4.607   6.330   1.353
 6608WAT      O27137   4.662   5.526   1.912
 6608WAT     H127138   4.587   5.494   1.943
 6608WAT     H227139   4.662   5.609   1.940
 6608WAT    EPW27140   4.651   5.534   1.920
 6609WAT      O27141   4.952   5.755   3.066
 6609WAT     H127142   4.947   5.720   2.986
 6609WAT     H227143   5.025   5.801   3.064
 6609WAT    EPW27144   4.962   5.756   3.054
 6610WAT      O27145   4.906   6.122   2.687
 6610WAT     H127146   4.968   6.067   2.661
 6610WAT     H227147   4.899   6.179   2.621
 6610WAT    EPW27148   4.914   6.122   2.673
 6611WAT      O27149   4.351   6.130   1.286
 6611WAT     H127150   4.419   6.079   1.269
 6611WAT     H227151   4.309   6.135   1.210
 6611WAT    EPW27152   4.355   6.123   1.272
 6612WAT      O27153   3.819   6.245   2.416
 6612WAT     H127154   3.789   6.304   2.473
 6612WAT     H227155   3.824   6.289   2.342
 6612WAT    EPW27156   3.815   6.261   2.414
 6613WAT      O27157   3.617   6.140   2.756
 6613WAT     H127158   3.536   6.111   2.773
 6613WAT     H227159   3.608   6.227   2.757
 6613WAT    EPW27160   3.604   6.149   2.759
 6614WAT      O27161   4.553   5.159   2.658
 6614WAT     H127162   4.627   5.204   2.651
 6614WAT     H227163   4.496   5.206   2.611
 6614WAT    EPW27164   4.555   5.173   2.650
 6615WAT      O27165   4.071   5.888   2.366
 6615WAT     H127166   4.118   5.925   2.428
 6615WAT     H227167   3.988   5.901   2.391
 6615WAT    EPW27168   4.065   5.895   2.379
 6616WAT      O27169   3.742   5.448   2.640
 6616WAT     H127170   3.758   5.373   2.682
 6616WAT     H227171   3.737   5.423   2.556
 6616WAT    EPW27172   3.743   5.433   2.634
 6617WAT      O27173   3.997   6.627   1.888
 6617WAT     H127174   4.052   6.695   1.894
 6617WAT     H227175   3.962   6.635   1.809
 6617WAT    EPW27176   4.000   6.638   1.877
 6618WAT      O27177   4.681   4.957   2.425
 6618WAT     H127178   4.653   5.040   2.420
 6618WAT     H227179   4.753   4.962   2.474
 6618WAT    EPW27180   4.688   4.970   2.431
 6619WAT      O27181   3.917   5.029   2.628
 6619WAT     H127182   3.987   5.061   2.587
 6619WAT     H227183   3.941   4.948   2.650
 6619WAT    EPW27184   3.931   5.021   2.625
 6620WAT      O27185   3.815   6.450   2.227
 6620WAT     H127186   3.753   6.508   2.209
 6620WAT     H227187   3.840   6.421   2.149
 6620WAT    EPW27188   3.810   6.454   2.213
 6621WAT      O27189   4.246   6.113   2.926
 6621WAT     H127190   4.322   6.142   2.894
 6621WAT     H227191   4.191   6.118   2.858
 6621WAT    EPW27192   4.249   6.118   2.911
 6622WAT      O27193   4.637   6.368   2.777
 6622WAT     H127194   4.672   6.395   2.852
 6622WAT     H227195   4.666   6.426   2.719
 6622WAT    EPW27196   4.647   6.381   2.779
 6623WAT      O27197   4.823   5.583   1.310
 6623WAT     H127198   4.861   5.650   1.270
 6623WAT     H227199   4.739   5.605   1.314
 6623WAT    EPW27200   4.816   5.596   1.305
 6624WAT      O27201   3.975   5.927   1.219
 6624WAT     H127202   3.894   5.910   1.190
 6624WAT     H227203   3.971   6.012   1.238
 6624WAT    EPW27204   3.962   5.937   1.217
 6625WAT      O27205   3.568   5.534   2.234
 6625WAT     H127206   3.612   5.524   2.159
 6625WAT     H227207   3.622   5.503   2.294
 6625WAT    EPW27208   3.582   5.528   2.232
 6626WAT      O27209   4.369   5.444   2.793
 6626WAT     H127210   4.304   5.491   2.828
 6626WAT     H227211   4.426   5.435   2.859
 6626WAT    EPW27212   4.368   5.450   2.808
 6627WAT      O27213   4.338   5.598   2.423
 6627WAT     H127214   4.368   5.640   2.493
 6627WAT     H227215   4.342   5.514   2.446
 6627WAT    EPW27216   4.343   5.592   2.437
 6628WAT      O27217   4.081   6.615   2.815
 6628WAT     H127218   4.128   6.555   2.774
 6628WAT     H227219   4.045   6.570   2.882
 6628WAT    EPW27220   4.082   6.599   2.819
 6629WAT      O27221   4.593   5.543   1.648
 6629WAT     H127222   4.614   5.522   1.730
 6629WAT     H227223   4.668   5.569   1.614
 6629WAT    EPW27224   4.607   5.544   1.655
 6630WAT      O27225   3.922   5.032   2.238
 6630WAT     H127226   3.840   5.018   2.262
 6630WAT     H227227   3.918   5.036   2.151
 6630WAT    EPW27228   3.910   5.031   2.229
 6631WAT      O27229   4.695   5.151   1.795
 6631WAT     H127230   4.624   5.104   1.812
 6631WAT     H227231   4.679   5.185   1.717
 6631WAT    EPW27232   4.682   5.149   1.786
 6632WAT      O27233   4.739   5.945   1.633
 6632WAT     H127234   4.787   5.872   1.629
 6632WAT     H227235   4.657   5.917   1.626
 6632WAT    EPW27236   4.734   5.930   1.631
 6633WAT      O27237   4.086   6.136   2.717
 6633WAT     H127238   4.007   6.130   2.752
 6633WAT     H227239   4.094   6.221   2.698
 6633WAT    EPW27240   4.076   6.148   2.720
 6634WAT      O27241   3.179   5.072   2.842
 6634WAT     H127242   3.165   5.152   2.809
 6634WAT     H227243   3.100   5.048   2.871
 6634WAT    EPW27244   3.165   5.080   2.841
 6635WAT      O27245   3.669   6.757   2.249
 6635WAT     H127246   3.671   6.763   2.336
 6635WAT     H227247   3.627   6.682   2.234
 6635WAT    EPW27248   3.663   6.747   2.260
 6636WAT      O27249   3.485   5.347   1.564
 6636WAT     H127250   3.498   5.314   1.485
 6636WAT     H227251   3.404   5.322   1.584
 6636WAT    EPW27252   3.475   5.338   1.556
 6637WAT      O27253   4.361   6.062   1.869
 6637WAT     H127254   4.369   6.096   1.949
 6637WAT     H227255   4.378   5.977   1.881
 6637WAT    EPW27256   4.365   6.054   1.882
 6638WAT      O27257   4.113   5.989   1.825
 6638WAT     H127258   4.083   5.958   1.901
 6638WAT     H227259   4.183   6.037   1.849
 6638WAT    EPW27260   4.119   5.992   1.840
 6639WAT      O27261   4.135   6.401   2.628
 6639WAT     H127262   4.204   6.390   2.681
 6639WAT     H227263   4.149   6.480   2.594
 6639WAT    EPW27264   4.147   6.411   2.631
 6640WAT      O27265   4.953   5.662   2.809
 6640WAT     H127266   4.867   5.650   2.822
 6640WAT     H227267   4.968   5.623   2.733
 6640WAT    EPW27268   4.943   5.654   2.800
 6641WAT      O27269   4.404   5.729   2.667
 6641WAT     H127270   4.379   5.657   2.709
 6641WAT     H227271   4.486   5.740   2.694
 6641WAT    EPW27272   4.413   5.720   2.677
 6642WAT      O27273   3.346   6.707   2.793
 6642WAT     H127274   3.280   6.650   2.803
 6642WAT     H227275   3.308   6.784   2.808
 6642WAT    EPW27276   3.331   6.710   2.797
 6643WAT      O27277   4.198   5.848   2.985
 6643WAT     H127278   4.230   5.916   2.942
 6643WAT     H227279   4.127   5.880   3.026
 6643WAT    EPW27280   4.192   5.862   2.985
 6644WAT      O27281   4.506   6.685   2.078
 6644WAT     H127282   4.461   6.749   2.116
 6644WAT     H227283   4.577   6.677   2.129
 6644WAT    EPW27284   4.510   6.693   2.091
 6645WAT      O27285   4.176   6.194   2.371
 6645WAT     H127286   4.107   6.234   2.406
 6645WAT     H227287   4.244   6.237   2.405
 6645WAT    EPW27288   4.176   6.206   2.381
 6646WAT      O27289   4.714   6.453   3.029
 6646WAT     H127290   4.791   6.414   3.038
 6646WAT     H227291   4.667   6.420   3.095
 6646WAT    EPW27292   4.718   6.443   3.040
 6647WAT      O27293   3.483   5.548   2.606
 6647WAT     H127294   3.520   5.610   2.557
 6647WAT     H227295   3.550   5.500   2.635
 6647WAT    EPW27296   3.498   5.550   2.603
 6648WAT      O27297   3.260   5.393   2.534
 6648WAT     H127298   3.268   5.376   2.448
 6648WAT     H227299   3.335   5.433   2.553
 6648WAT    EPW27300   3.273   5.396   2.524
 6649WAT      O27301   4.816   5.657   1.578
 6649WAT     H127302   4.827   5.651   1.491
 6649WAT     H227303   4.890   5.623   1.609
 6649WAT    EPW27304   4.829   5.651   1.569
 6650WAT      O27305   3.516   5.134   2.775
 6650WAT     H127306   3.508   5.049   2.795
 6650WAT     H227307   3.484   5.138   2.693
 6650WAT    EPW27308   3.510   5.122   2.766
 6651WAT      O27309   4.208   6.353   1.688
 6651WAT     H127310   4.188   6.436   1.672
 6651WAT     H227311   4.131   6.315   1.700
 6651WAT    EPW27312   4.194   6.360   1.688
 6652WAT      O27313   4.727   5.671   2.513
 6652WAT     H127314   4.726   5.585   2.526
 6652WAT     H227315   4.733   5.704   2.594
 6652WAT    EPW27316   4.728   5.663   2.527
 6653WAT      O27317   3.200   5.915   2.556
 6653WAT     H127318   3.232   5.937   2.478
 6653WAT     H227319   3.190   5.829   2.550
 6653WAT    EPW27320   3.203   5.906   2.544
 6654WAT      O27321   3.346   5.509   1.218
 6654WAT     H127322   3.279   5.510   1.273
 6654WAT     H227323   3.355   5.424   1.199
 6654WAT    EPW27324   3.337   5.496   1.223
 6655WAT      O27325   4.314   5.151   2.891
 6655WAT     H127326   4.324   5.222   2.941
 6655WAT     H227327   4.251   5.107   2.931
 6655WAT    EPW27328   4.306   5.155   2.905
 6656WAT      O27329   4.214   5.170   1.977
 6656WAT     H127330   4.144   5.222   1.971
 6656WAT     H227331   4.218   5.132   1.898
 6656WAT    EPW27332   4.204   5.172   1.964
 6657WAT      O27333   3.745   6.379   1.329
 6657WAT     H127334   3.789   6.387   1.404
 6657WAT     H227335   3.664   6.358   1.355
 6657WAT    EPW27336   3.739   6.377   1.344
 6658WAT      O27337   4.574   5.222   2.257
 6658WAT     H127338   4.659   5.232   2.271
 6658WAT     H227339   4.537   5.277   2.313
 6658WAT    EPW27340   4.581   5.231   2.267
 6659WAT      O27341   3.676   5.844   2.694
 6659WAT     H127342   3.637   5.922   2.702
 6659WAT     H227343   3.636   5.807   2.627
 6659WAT    EPW27344   3.665   5.850   2.686
 6660WAT      O27345   4.604   5.750   2.106
 6660WAT     H127346   4.671   5.804   2.122
 6660WAT     H227347   4.570   5.781   2.032
 6660WAT    EPW27348   4.609   5.762   2.097
 6661WAT      O27349   4.635   6.556   1.687
 6661WAT     H127350   4.618   6.491   1.742
 6661WAT     H227351   4.707   6.529   1.644
 6661WAT    EPW27352   4.643   6.543   1.688
 6662WAT      O27353   3.477   6.286   1.389
 6662WAT     H127354   3.453   6.256   1.467
 6662WAT     H227355   3.474   6.216   1.338
 6662WAT    EPW27356   3.473   6.271   1.393
 6663WAT      O27357   3.759   6.111   1.264
 6663WAT     H127358   3.678   6.084   1.278
 6663WAT     H227359   3.757   6.196   1.282
 6663WAT    EPW27360   3.747   6.119   1.268
 6664WAT      O27361   3.719   5.142   2.439
 6664WAT     H127362   3.633   5.150   2.447
 6664WAT     H227363   3.741   5.091   2.506
 6664WAT    EPW27364   3.710   5.136   2.451
 6665WAT      O27365   4.921   5.006   2.572
 6665WAT     H127366   4.916   5.001   2.659
 6665WAT     H227367   4.990   4.955   2.553
 6665WAT    EPW27368   4.931   4.998   2.582
 6666WAT      O27369   4.130   5.217   2.277
 6666WAT     H127370   4.056   5.171   2.288
 6666WAT     H227371   4.187   5.177   2.329
 6666WAT    EPW27372   4.127   5.204   2.286
 6667WAT      O27373   4.403   6.302   2.456
 6667WAT     H127374   4.423   6.332   2.535
 6667WAT     H227375   4.397   6.374   2.407
 6667WAT    EPW27376   4.405   6.317   2.460
 6668WAT      O27377   4.356   6.723   2.880
 6668WAT     H127378   4.281   6.721   2.836
 6668WAT     H227379   4.373   6.808   2.889
 6668WAT    EPW27380   4.348   6.735   2.875
 6669WAT      O27381   3.880   5.650   2.797
 6669WAT     H127382   3.848   5.592   2.740
 6669WAT     H227383   3.844   5.725   2.773
 6669WAT    EPW27384   3.870   5.652   2.785
 6670WAT      O27385   3.960   4.975   1.260
 6670WAT     H127386   3.967   5.000   1.177
 6670WAT     H227387   3.885   5.013   1.286
 6670WAT    EPW27388   3.950   4.984   1.251
 6671WAT      O27389   4.884   6.166   2.401
 6671WAT     H127390   4.881   6.079   2.388
 6671WAT     H227391   4.815   6.196   2.358
 6671WAT    EPW27392   4.873   6.157   2.393
 6672WAT      O27393   3.723   6.685   2.822
 6672WAT     H127394   3.728   6.698   2.908
 6672WAT     H227395   3.789   6.629   2.806
 6672WAT    EPW27396   3.734   6.679   2.833
 6673WAT      O27397   4.695   6.492   2.281
 6673WAT     H127398   4.747   6.483   2.212
 6673WAT     H227399   4.655   6.414   2.287
 6673WAT    EPW27400   4.697   6.479   2.272
 6674WAT      O27401   3.441   5.150   2.504
 6674WAT     H127402   3.407   5.074   2.481
 6674WAT     H227403   3.372   5.203   2.511
 6674WAT    EPW27404   3.426   5.147   2.502
 6675WAT      O27405   4.346   5.036   2.202
 6675WAT     H127406   4.413   5.090   2.215
 6675WAT     H227407   4.296   5.078   2.145
 6675WAT    EPW27408   4.348   5.050   2.195
 6676WAT      O27409   3.483   6.524   2.958
 6676WAT     H127410   3.542   6.567   3.005
 6676WAT     H227411   3.446   6.586   2.909
 6676WAT    EPW27412   3.486   6.539   2.958
 6677WAT      O27413   4.282   5.617   1.951
 6677WAT     H127414   4.337   5.556   1.981
 6677WAT     H227415   4.239   5.643   2.023
 6677WAT    EPW27416   4.284   5.612   1.966
 6678WAT      O27417   3.307   5.482   1.900
 6678WAT     H127418   3.270   5.512   1.973
 6678WAT     H227419   3.360   5.419   1.928
 6678WAT    EPW27420   3.309   5.477   1.915
 6679WAT      O27421   3.275   6.323   2.651
 6679WAT     H127422   3.218   6.364   2.702
 6679WAT     H227423   3.349   6.369   2.660
 6679WAT    EPW27424   3.278   6.336   2.660
 6680WAT      O27425   4.479   5.800   1.607
 6680WAT     H127426   4.486   5.715   1.626
 6680WAT     H227427   4.397   5.808   1.580
 6680WAT    EPW27428   4.468   5.789   1.606
 6681WAT      O27429   3.454   6.649   1.528
 6681WAT     H127430   3.440   6.665   1.444
 6681WAT     H227431   3.541   6.657   1.536
 6681WAT    EPW27432   3.465   6.653   1.517
 6682WAT      O27433   3.871   5.889   1.501
 6682WAT     H127434   3.881   5.903   1.416
 6682WAT     H227435   3.953   5.883   1.531
 6682WAT    EPW27436   3.884   5.890   1.493
 6683WAT      O27437   4.787   6.695   1.249
 6683WAT     H127438   4.850   6.682   1.307
 6683WAT     H227439   4.753   6.616   1.238
 6683WAT    EPW27440   4.791   6.682   1.256
 6684WAT      O27441   4.806   5.937   2.923
 6684WAT     H127442   4.870   5.920   2.980
 6684WAT     H227443   4.848   5.977   2.857
 6684WAT    EPW27444   4.822   5.941   2.921
 6685WAT      O27445   4.394   6.322   1.481
 6685WAT     H127446   4.369   6.309   1.564
 6685WAT     H227447   4.363   6.252   1.439
 6685WAT    EPW27448   4.386   6.310   1.487
 6686WAT      O27449   4.869   5.394   2.996
 6686WAT     H127450   4.849   5.458   3.052
 6686WAT     H227451   4.797   5.345   2.996
 6686WAT    EPW27452   4.855   5.396   3.004
 6687WAT      O27453   4.859   5.488   2.293
 6687WAT     H127454   4.775   5.513   2.286
 6687WAT     H227455   4.853   5.404   2.316
 6687WAT    EPW27456   4.846   5.479   2.296
 6688WAT      O27457   3.785   5.186   2.813
 6688WAT     H127458   3.808   5.129   2.752
 6688WAT     H227459   3.700   5.168   2.827
 6688WAT    EPW27460   3.776   5.175   2.806
 6689WAT      O27461   4.547   5.948   3.058
 6689WAT     H127462   4.634   5.945   3.054
 6689WAT     H227463   4.525   5.990   2.985
 6689WAT    EPW27464   4.557   5.954   3.047
 6690WAT      O27465   3.523   6.531   2.176
 6690WAT     H127466   3.515   6.450   2.145
 6690WAT     H227467   3.478   6.579   2.119
 6690WAT    EPW27468   3.515   6.526   2.163
 6691WAT      O27469   4.083   6.143   1.424
 6691WAT     H127470   4.155   6.108   1.389
 6691WAT     H227471   4.079   6.223   1.390
 6691WAT    EPW27472   4.093   6.149   1.414
 6692WAT      O27473   3.280   6.755   2.534
 6692WAT     H127474   3.329   6.750   2.606
 6692WAT     H227475   3.299   6.682   2.491
 6692WAT    EPW27476   3.290   6.743   2.538
 6693WAT      O27477   4.205   5.698   0.315
 6693WAT     H127478   4.152   5.758   0.352
 6693WAT     H227479   4.244   5.662   0.384
 6693WAT    EPW27480   4.203   5.702   0.331
 6694WAT      O27481   3.186   6.386   0.487
 6694WAT     H127482   3.198   6.358   0.568
 6694WAT     H227483   3.125   6.332   0.456
 6694WAT    EPW27484   3.178   6.374   0.494
 6695WAT      O27485   3.843   6.138   0.993
 6695WAT     H127486   3.819   6.138   1.077
 6695WAT     H227487   3.768   6.124   0.951
 6695WAT    EPW27488   3.828   6.136   0.999
 6696WAT      O27489   3.781   5.399   0.441
 6696WAT     H127490   3.849   5.401   0.387
 6696WAT     H227491   3.776   5.315   0.466
 6696WAT    EPW27492   3.790   5.387   0.437
 6697WAT      O27493   3.841   6.458   0.720
 6697WAT     H127494   3.855   6.534   0.679
 6697WAT     H227495   3.920   6.421   0.722
 6697WAT    EPW27496   3.855   6.463   0.714
 6698WAT      O27497   4.153   5.604   0.925
 6698WAT     H127498   4.068   5.594   0.907
 6698WAT     H227499   4.156   5.679   0.970
 6698WAT    EPW27500   4.141   5.614   0.929
 6699WAT      O27501   4.609   4.900   0.836
 6699WAT     H127502   4.593   4.977   0.798
 6699WAT     H227503   4.532   4.878   0.871
 6699WAT    EPW27504   4.595   4.908   0.836
 6700WAT      O27505   3.176   5.614   0.208
 6700WAT     H127506   3.150   5.697   0.201
 6700WAT     H227507   3.109   5.576   0.250
 6700WAT    EPW27508   3.162   5.621   0.213
 6701WAT      O27509   3.479   5.096   0.257
 6701WAT     H127510   3.427   5.033   0.226
 6701WAT     H227511   3.538   5.052   0.304
 6701WAT    EPW27512   3.480   5.080   0.260
 6702WAT      O27513   3.809   5.309   1.187
 6702WAT     H127514   3.821   5.264   1.113
 6702WAT     H227515   3.838   5.389   1.167
 6702WAT    EPW27516   3.815   5.314   1.173
 6703WAT      O27517   4.426   6.638   0.528
 6703WAT     H127518   4.500   6.684   0.527
 6703WAT     H227519   4.414   6.617   0.444
 6703WAT    EPW27520   4.435   6.642   0.515
 6704WAT      O27521   3.383   5.269   1.085
 6704WAT     H127522   3.305   5.230   1.078
 6704WAT     H227523   3.432   5.228   1.026
 6704WAT    EPW27524   3.378   5.257   1.076
 6705WAT      O27525   4.047   5.033   1.002
 6705WAT     H127526   4.065   4.952   0.975
 6705WAT     H227527   4.033   5.077   0.928
 6705WAT    EPW27528   4.048   5.028   0.987
 6706WAT      O27529   3.626   6.708   0.645
 6706WAT     H127530   3.655   6.701   0.727
 6706WAT     H227531   3.563   6.647   0.640
 6706WAT    EPW27532   3.621   6.698   0.656
 6707WAT      O27533   4.862   5.194   0.454
 6707WAT     H127534   4.938   5.201   0.411
 6707WAT     H227535   4.868   5.116   0.494
 6707WAT    EPW27536   4.874   5.183   0.454
 6708WAT      O27537   3.117   5.324   0.844
 6708WAT     H127538   3.117   5.382   0.909
 6708WAT     H227539   3.177   5.355   0.788
 6708WAT    EPW27540   3.126   5.337   0.845
 6709WAT      O27541   4.351   6.357   0.898
 6709WAT     H127542   4.348   6.395   0.977
 6709WAT     H227543   4.437   6.353   0.881
 6709WAT    EPW27544   4.363   6.362   0.907
 6710WAT      O27545   3.425   6.524   0.557
 6710WAT     H127546   3.355   6.473   0.570
 6710WAT     H227547   3.451   6.504   0.476
 6710WAT    EPW27548   3.419   6.514   0.547
 6711WAT      O27549   4.196   6.673   0.648
 6711WAT     H127550   4.273   6.665   0.607
 6711WAT     H227551   4.138   6.661   0.584
 6711WAT    EPW27552   4.199   6.670   0.633
 6712WAT      O27553   3.561   6.409   0.814
 6712WAT     H127554   3.645   6.415   0.791
 6712WAT     H227555   3.558   6.449   0.891
 6712WAT    EPW27556   3.573   6.416   0.822
 6713WAT      O27557   3.758   5.960   0.289
 6713WAT     H127558   3.775   5.939   0.371
 6713WAT     H227559   3.692   5.907   0.267
 6713WAT    EPW27560   3.751   5.949   0.298
 6714WAT      O27561   4.380   5.352   0.640
 6714WAT     H127562   4.371   5.384   0.721
 6714WAT     H227563   4.321   5.288   0.636
 6714WAT    EPW27564   4.370   5.347   0.651
 6715WAT      O27565   3.833   5.954   0.548
 6715WAT     H127566   3.838   6.039   0.568
 6715WAT     H227567   3.804   5.917   0.621
 6715WAT    EPW27568   3.829   5.961   0.561
 6716WAT      O27569   4.450   6.024   0.461
 6716WAT     H127570   4.399   5.982   0.518
 6716WAT     H227571   4.438   6.108   0.479
 6716WAT    EPW27572   4.441   6.030   0.472
 6717WAT      O27573   3.115   6.391   1.169
 6717WAT     H127574   3.190   6.426   1.194
 6717WAT     H227575   3.132   6.306   1.163
 6717WAT    EPW27576   3.129   6.384   1.172
 6718WAT      O27577   4.752   5.370   0.754
 6718WAT     H127578   4.830   5.347   0.788
 6718WAT     H227579   4.705   5.391   0.824
 6718WAT    EPW27580   4.757   5.370   0.770
 6719WAT      O27581   3.321   5.408   0.360
 6719WAT     H127582   3.405   5.430   0.355
 6719WAT     H227583   3.282   5.465   0.307
 6719WAT    EPW27584   3.328   5.420   0.351
 6720WAT      O27585   4.999   6.518   0.899
 6720WAT     H127586   4.931   6.549   0.854
 6720WAT     H227587   4.962   6.473   0.963
 6720WAT    EPW27588   4.983   6.516   0.902
 6721WAT      O27589   3.906   5.577   1.171
 6721WAT     H127590   3.858   5.634   1.216
 6721WAT     H227591   3.904   5.606   1.089
 6721WAT    EPW27592   3.899   5.590   1.166
 6722WAT      O27593   5.016   5.645   0.633
 6722WAT     H127594   5.038   5.565   0.605
 6722WAT     H227595   4.931   5.651   0.614
 6722WAT    EPW27596   5.007   5.634   0.626
 6723WAT      O27597   3.586   6.190   0.339
 6723WAT     H127598   3.633   6.219   0.406
 6723WAT     H227599   3.643   6.143   0.293
 6723WAT    EPW27600   3.601   6.188   0.342
 6724WAT      O27601   4.782   6.557   0.708
 6724WAT     H127602   4.715   6.608   0.729
 6724WAT     H227603   4.789   6.567   0.621
 6724WAT    EPW27604   4.773   6.566   0.698
 6725WAT      O27605   3.464   5.657   1.007
 6725WAT     H127606   3.410   5.607   1.054
 6725WAT     H227607   3.466   5.618   0.929
 6725WAT    EPW27608   3.456   5.644   1.003
 6726WAT      O27609   3.572   5.754   0.528
 6726WAT     H127610   3.575   5.686   0.473
 6726WAT     H227611   3.507   5.803   0.497
 6726WAT    EPW27612   3.563   5.751   0.515
 6727WAT      O27613   4.562   5.525   0.368
 6727WAT     H127614   4.495   5.558   0.414
 6727WAT     H227615   4.580   5.588   0.311
 6727WAT    EPW27616   4.555   5.539   0.366
 6728WAT      O27617   3.982   6.631   0.467
 6728WAT     H127618   3.954   6.567   0.415
 6728WAT     H227619   3.961   6.704   0.423
 6728WAT    EPW27620   3.975   6.633   0.453
 6729WAT      O27621   4.226   5.116   0.711
 6729WAT     H127622   4.241   5.033   0.686
 6729WAT     H227623   4.264   5.121   0.789
 6729WAT    EPW27624   4.234   5.104   0.719
 6730WAT      O27625   3.352   5.889   1.084
 6730WAT     H127626   3.348   5.939   1.013
 6730WAT     H227627   3.385   5.814   1.054
 6730WAT    EPW27628   3.356   5.885   1.069
 6731WAT      O27629   4.512   6.110   0.910
 6731WAT     H127630   4.561   6.182   0.920
 6731WAT     H227631   4.552   6.067   0.845
 6731WAT    EPW27632   4.525   6.114   0.902
 6732WAT      O27633   3.942   6.394   1.027
 6732WAT     H127634   3.977   6.376   1.105
 6732WAT     H227635   3.898   6.321   1.008
 6732WAT    EPW27636   3.941   6.381   1.036
 6733WAT      O27637   4.039   5.469   0.291
 6733WAT     H127638   4.087   5.539   0.312
 6733WAT     H227639   4.076   5.404   0.336
 6733WAT    EPW27640   4.052   5.470   0.301
 6734WAT      O27641   4.360   6.479   0.301
 6734WAT     H127642   4.299   6.450   0.245
 6734WAT     H227643   4.414   6.525   0.250
 6734WAT    EPW27644   4.359   6.482   0.285
 6735WAT      O27645   4.361   6.165   0.241
 6735WAT     H127646   4.281   6.187   0.269
 6735WAT     H227647   4.387   6.105   0.300
 6735WAT    EPW27648   4.353   6.159   0.254
 6736WAT      O27649   4.687   5.964   0.726
 6736WAT     H127650   4.692   5.977   0.640
 6736WAT     H227651   4.762   5.996   0.756
 6736WAT    EPW27652   4.699   5.971   0.717
 6737WAT      O27653   4.306   6.499   1.153
 6737WAT     H127654   4.322   6.528   1.234
 6737WAT     H227655   4.332   6.565   1.103
 6737WAT    EPW27656   4.312   6.513   1.158
 6738WAT      O27657   4.790   4.994   1.024
 6738WAT     H127658   4.726   4.954   0.980
 6738WAT     H227659   4.793   4.951   1.100
 6738WAT    EPW27660   4.781   4.982   1.029
 6739WAT      O27661   4.260   5.945   0.686
 6739WAT     H127662   4.245   6.006   0.746
 6739WAT     H227663   4.313   5.889   0.726
 6739WAT    EPW27664   4.266   5.946   0.701
 6740WAT      O27665   4.621   6.218   0.338
 6740WAT     H127666   4.573   6.248   0.272
 6740WAT     H227667   4.585   6.140   0.356
 6740WAT    EPW27668   4.609   6.211   0.331
 6741WAT      O27669   4.021   5.990   0.195
 6741WAT     H127670   3.936   5.970   0.203
 6741WAT     H227671   4.053   5.973   0.274
 6741WAT    EPW27672   4.013   5.984   0.208
 6742WAT      O27673   3.406   5.959   0.426
 6742WAT     H127674   3.478   6.008   0.423
 6742WAT     H227675   3.379   5.956   0.343
 6742WAT    EPW27676   3.412   5.966   0.413
 6743WAT      O27677   4.714   5.912   0.450
 6743WAT     H127678   4.713   5.834   0.490
 6743WAT     H227679   4.630   5.935   0.450
 6743WAT    EPW27680   4.702   5.904   0.456
 6744WAT      O27681   3.345   6.064   0.854
 6744WAT     H127682   3.303   6.012   0.798
 6744WAT     H227683   3.310   6.143   0.840
 6744WAT    EPW27684   3.334   6.068   0.844
 6745WAT      O27685   4.840   5.919   0.194
 6745WAT     H127686   4.811   5.959   0.266
 6745WAT     H227687   4.926   5.913   0.207
 6745WAT    EPW27688   4.848   5.924   0.207
 6746WAT      O27689   4.606   5.312   1.048
 6746WAT     H127690   4.553   5.357   1.100
 6746WAT     H227691   4.570   5.232   1.047
 6746WAT    EPW27692   4.593   5.307   1.056
 6747WAT      O27693   4.953   6.482   0.247
 6747WAT     H127694   4.982   6.508   0.169
 6747WAT     H227695   5.022   6.492   0.299
 6747WAT    EPW27696   4.967   6.488   0.243
 6748WAT      O27697   4.455   5.668   1.056
 6748WAT     H127698   4.462   5.679   1.142
 6748WAT     H227699   4.392   5.724   1.034
 6748WAT    EPW27700   4.447   5.678   1.065
 6749WAT      O27701   4.682   5.700   0.892
 6749WAT     H127702   4.714   5.779   0.912
 6749WAT     H227703   4.645   5.673   0.966
 6749WAT    EPW27704   4.681   5.708   0.906
 6750WAT      O27705   4.952   5.755   1.166
 6750WAT     H127706   4.947   5.720   1.086
 6750WAT     H227707   5.025   5.801   1.163
 6750WAT    EPW27708   4.962   5.756   1.153
 6751WAT      O27709   4.906   6.122   0.786
 6751WAT     H127710   4.968   6.067   0.761
 6751WAT     H227711   4.899   6.179   0.720
 6751WAT    EPW27712   4.914   6.122   0.773
 6752WAT      O27713   3.819   6.245   0.516
 6752WAT     H127714   3.789   6.304   0.573
 6752WAT     H227715   3.824   6.289   0.441
 6752WAT    EPW27716   3.815   6.261   0.513
 6753WAT      O27717   3.617   6.140   0.856
 6753WAT     H127718   3.536   6.111   0.872
 6753WAT     H227719   3.608   6.227   0.856
 6753WAT    EPW27720   3.604   6.149   0.858
 6754WAT      O27721   4.553   5.159   0.757
 6754WAT     H127722   4.627   5.204   0.751
 6754WAT     H227723   4.496   5.206   0.710
 6754WAT    EPW27724   4.555   5.173   0.749
 6755WAT      O27725   4.071   5.888   0.465
 6755WAT     H127726   4.118   5.925   0.528
 6755WAT     H227727   3.988   5.901   0.491
 6755WAT    EPW27728   4.065   5.895   0.478
 6756WAT      O27729   3.742   5.448   0.739
 6756WAT     H127730   3.758   5.373   0.782
 6756WAT     H227731   3.737   5.423   0.656
 6756WAT    EPW27732   3.743   5.433   0.733
 6757WAT      O27733   4.681   4.957   0.524
 6757WAT     H127734   4.653   5.040   0.520
 6757WAT     H227735   4.753   4.962   0.574
 6757WAT    EPW27736   4.688   4.970   0.531
 6758WAT      O27737   3.917   5.029   0.727
 6758WAT     H127738   3.987   5.061   0.687
 6758WAT     H227739   3.941   4.948   0.750
 6758WAT    EPW27740   3.931   5.021   0.724
 6759WAT      O27741   3.815   6.450   0.327
 6759WAT     H127742   3.753   6.508   0.308
 6759WAT     H227743   3.840   6.421   0.248
 6759WAT    EPW27744   3.810   6.454   0.312
 6760WAT      O27745   4.246   6.113   1.026
 6760WAT     H127746   4.322   6.142   0.993
 6760WAT     H227747   4.191   6.118   0.958
 6760WAT    EPW27748   4.249   6.118   1.011
 6761WAT      O27749   4.637   6.368   0.876
 6761WAT     H127750   4.672   6.395   0.951
 6761WAT     H227751   4.666   6.426   0.818
 6761WAT    EPW27752   4.647   6.381   0.879
 6762WAT      O27753   3.568   5.534   0.333
 6762WAT     H127754   3.612   5.524   0.259
 6762WAT     H227755   3.622   5.503   0.394
 6762WAT    EPW27756   3.582   5.528   0.331
 6763WAT      O27757   4.369   5.444   0.892
 6763WAT     H127758   4.304   5.491   0.927
 6763WAT     H227759   4.426   5.435   0.958
 6763WAT    EPW27760   4.368   5.450   0.907
 6764WAT      O27761   4.338   5.598   0.522
 6764WAT     H127762   4.368   5.640   0.592
 6764WAT     H227763   4.342   5.514   0.545
 6764WAT    EPW27764   4.343   5.592   0.536
 6765WAT      O27765   4.081   6.615   0.915
 6765WAT     H127766   4.128   6.555   0.873
 6765WAT     H227767   4.045   6.570   0.981
 6765WAT    EPW27768   4.082   6.599   0.918
 6766WAT      O27769   3.922   5.032   0.338
 6766WAT     H127770   3.840   5.018   0.362
 6766WAT     H227771   3.918   5.036   0.251
 6766WAT    EPW27772   3.910   5.031   0.328
 6767WAT      O27773   4.086   6.136   0.817
 6767WAT     H127774   4.007   6.130   0.852
 6767WAT     H227775   4.094   6.221   0.797
 6767WAT    EPW27776   4.076   6.148   0.819
 6768WAT      O27777   3.179   5.072   0.941
 6768WAT     H127778   3.165   5.152   0.908
 6768WAT     H227779   3.100   5.048   0.970
 6768WAT    EPW27780   3.165   5.080   0.941
 6769WAT      O27781   3.669   6.757   0.348
 6769WAT     H127782   3.671   6.763   0.435
 6769WAT     H227783   3.627   6.682   0.333
 6769WAT    EPW27784   3.663   6.747   0.359
 6770WAT      O27785   4.135   6.401   0.727
 6770WAT     H127786   4.204   6.390   0.780
 6770WAT     H227787   4.149   6.480   0.693
 6770WAT    EPW27788   4.147   6.411   0.730
 6771WAT      O27789   4.953   5.662   0.909
 6771WAT     H127790   4.867   5.650   0.921
 6771WAT     H227791   4.968   5.623   0.832
 6771WAT    EPW27792   4.943   5.654   0.899
 6772WAT      O27793   4.404   5.729   0.766
 6772WAT     H127794   4.379   5.657   0.808
 6772WAT     H227795   4.486   5.740   0.793
 6772WAT    EPW27796   4.413   5.720   0.776
 6773WAT      O27797   3.346   6.707   0.893
 6773WAT     H127798   3.280   6.650   0.902
 6773WAT     H227799   3.308   6.784   0.908
 6773WAT    EPW27800   3.331   6.710   0.896
 6774WAT      O27801   4.198   5.848   1.085
 6774WAT     H127802   4.230   5.916   1.042
 6774WAT     H227803   4.127   5.880   1.125
 6774WAT    EPW27804   4.192   5.862   1.084
 6775WAT      O27805   4.506   6.685   0.178
 6775WAT     H127806   4.461   6.749   0.216
 6775WAT     H227807   4.577   6.677   0.228
 6775WAT    EPW27808   4.510   6.693   0.191
 6776WAT      O27809   4.176   6.194   0.471
 6776WAT     H127810   4.107   6.234   0.505
 6776WAT     H227811   4.244   6.237   0.505
 6776WAT    EPW27812   4.176   6.206   0.481
 6777WAT      O27813   4.714   6.453   1.129
 6777WAT     H127814   4.791   6.414   1.137
 6777WAT     H227815   4.667   6.420   1.194
 6777WAT    EPW27816   4.718   6.443   1.140
 6778WAT      O27817   3.483   5.548   0.705
 6778WAT     H127818   3.520   5.610   0.657
 6778WAT     H227819   3.550   5.500   0.734
 6778WAT    EPW27820   3.498   5.550   0.702
 6779WAT      O27821   3.260   5.393   0.633
 6779WAT     H127822   3.268   5.376   0.548
 6779WAT     H227823   3.335   5.433   0.653
 6779WAT    EPW27824   3.273   5.396   0.623
 6780WAT      O27825   3.516   5.134   0.874
 6780WAT     H127826   3.508   5.049   0.895
 6780WAT     H227827   3.484   5.138   0.793
 6780WAT    EPW27828   3.510   5.122   0.865
 6781WAT      O27829   4.727   5.671   0.613
 6781WAT     H127830   4.726   5.585   0.625
 6781WAT     H227831   4.733   5.704   0.693
 6781WAT    EPW27832   4.728   5.663   0.626
 6782WAT      O27833   3.200   5.915   0.655
 6782WAT     H127834   3.232   5.937   0.577
 6782WAT     H227835   3.190   5.829   0.650
 6782WAT    EPW27836   3.203   5.906   0.643
 6783WAT      O27837   4.314   5.151   0.991
 6783WAT     H127838   4.324   5.222   1.040
 6783WAT     H227839   4.251   5.107   1.030
 6783WAT    EPW27840   4.306   5.155   1.004
 6784WAT      O27841   4.574   5.222   0.356
 6784WAT     H127842   4.659   5.232   0.371
 6784WAT     H227843   4.537   5.277   0.413
 6784WAT    EPW27844   4.581   5.231   0.367
 6785WAT      O27845   3.676   5.844   0.794
 6785WAT     H127846   3.637   5.922   0.801
 6785WAT     H227847   3.636   5.807   0.726
 6785WAT    EPW27848   3.665   5.850   0.785
 6786WAT      O27849   3.719   5.142   0.539
 6786WAT     H127850   3.633   5.150   0.547
 6786WAT     H227851   3.741   5.091   0.606
 6786WAT    EPW27852   3.710   5.136   0.550
 6787WAT      O27853   4.921   5.006   0.672
 6787WAT     H127854   4.916   5.001   0.759
 6787WAT     H227855   4.990   4.955   0.653
 6787WAT    EPW27856   4.931   4.998   0.682
 6788WAT      O27857   4.130   5.217   0.376
 6788WAT     H127858   4.056   5.171   0.388
 6788WAT     H227859   4.187   5.177   0.429
 6788WAT    EPW27860   4.127   5.204   0.386
 6789WAT      O27861   4.403   6.302   0.555
 6789WAT     H127862   4.423   6.332   0.634
 6789WAT     H227863   4.397   6.374   0.507
 6789WAT    EPW27864   4.405   6.317   0.560
 6790WAT      O27865   4.356   6.723   0.980
 6790WAT     H127866   4.281   6.721   0.936
 6790WAT     H227867   4.373   6.808   0.988
 6790WAT    EPW27868   4.348   6.735   0.974
 6791WAT      O27869   3.880   5.650   0.897
 6791WAT     H127870   3.848   5.592   0.840
 6791WAT     H227871   3.844   5.725   0.872
 6791WAT    EPW27872   3.870   5.652   0.885
 6792WAT      O27873   4.884   6.166   0.501
 6792WAT     H127874   4.881   6.079   0.487
 6792WAT     H227875   4.815   6.196   0.457
 6792WAT    EPW27876   4.873   6.157   0.492
 6793WAT      O27877   3.723   6.685   0.921
 6793WAT     H127878   3.728   6.698   1.008
 6793WAT     H227879   3.789   6.629   0.906
 6793WAT    EPW27880   3.734   6.679   0.932
 6794WAT      O27881   4.695   6.492   0.381
 6794WAT     H127882   4.747   6.483   0.311
 6794WAT     H227883   4.655   6.414   0.386
 6794WAT    EPW27884   4.697   6.479   0.371
 6795WAT      O27885   3.441   5.150   0.604
 6795WAT     H127886   3.407   5.074   0.580
 6795WAT     H227887   3.372   5.203   0.610
 6795WAT    EPW27888   3.426   5.147   0.601
 6796WAT      O27889   4.346   5.036   0.301
 6796WAT     H127890   4.413   5.090   0.314
 6796WAT     H227891   4.296   5.078   0.244
 6796WAT    EPW27892   4.348   5.050   0.295
 6797WAT      O27893   3.483   6.524   1.057
 6797WAT     H127894   3.542   6.567   1.105
 6797WAT     H227895   3.446   6.586   1.009
 6797WAT    EPW27896   3.486   6.539   1.057
 6798WAT      O27897   3.275   6.323   0.750
 6798WAT     H127898   3.218   6.364   0.801
 6798WAT     H227899   3.349   6.369   0.760
 6798WAT    EPW27900   3.278   6.336   0.759
 6799WAT      O27901   4.806   5.937   1.022
 6799WAT     H127902   4.870   5.920   1.079
 6799WAT     H227903   4.848   5.977   0.957
 6799WAT    EPW27904   4.822   5.941   1.021
 6800WAT      O27905   4.869   5.394   1.096
 6800WAT     H127906   4.849   5.458   1.151
 6800WAT     H227907   4.797   5.345   1.095
 6800WAT    EPW27908   4.855   5.396   1.104
 6801WAT      O27909   4.859   5.488   0.393
 6801WAT     H127910   4.775   5.513   0.386
 6801WAT     H227911   4.853   5.404   0.416
 6801WAT    EPW27912   4.846   5.479   0.395
 6802WAT      O27913   3.785   5.186   0.912
 6802WAT     H127914   3.808   5.129   0.851
 6802WAT     H227915   3.700   5.168   0.926
 6802WAT    EPW27916   3.776   5.175   0.905
 6803WAT      O27917   4.547   5.948   1.157
 6803WAT     H127918   4.634   5.945   1.154
 6803WAT     H227919   4.525   5.990   1.084
 6803WAT    EPW27920   4.557   5.954   1.146
 6804WAT      O27921   3.523   6.531   0.276
 6804WAT     H127922   3.515   6.450   0.244
 6804WAT     H227923   3.478   6.579   0.218
 6804WAT    EPW27924   3.515   6.526   0.262
 6805WAT      O27925   3.280   6.755   0.634
 6805WAT     H127926   3.329   6.750   0.705
 6805WAT     H227927   3.299   6.682   0.590
 6805WAT    EPW27928   3.290   6.743   0.638
 6806WAT      O27929   4.224   3.159   7.451
 6806WAT     H127930   4.199   3.208   7.383
 6806WAT     H227931   4.310   3.152   7.441
 6806WAT    EPW27932   4.233   3.165   7.439
 6807WAT      O27933   3.192   4.265   7.464
 6807WAT     H127934   3.147   4.276   7.538
 6807WAT     H227935   3.163   4.187   7.435
 6807WAT    EPW27936   3.181   4.255   7.470
 6808WAT      O27937   4.819   4.595   7.215
 6808WAT     H127938   4.889   4.543   7.215
 6808WAT     H227939   4.760   4.550   7.168
 6808WAT    EPW27940   4.821   4.580   7.208
 6809WAT      O27941   3.166   3.644   7.114
 6809WAT     H127942   3.088   3.660   7.078
 6809WAT     H227943   3.170   3.557   7.116
 6809WAT    EPW27944   3.155   3.633   7.109
 6810WAT      O27945   3.480   4.170   6.981
 6810WAT     H127946   3.441   4.133   6.913
 6810WAT     H227947   3.472   4.110   7.044
 6810WAT    EPW27948   3.473   4.156   6.981
 6811WAT      O27949   4.472   3.957   7.586
 6811WAT     H127950   4.480   3.958   7.499
 6811WAT     H227951   4.413   3.894   7.600
 6811WAT    EPW27952   4.464   3.948   7.575
 6812WAT      O27953   3.442   4.334   7.371
 6812WAT     H127954   3.503   4.317   7.432
 6812WAT     H227955   3.367   4.320   7.414
 6812WAT    EPW27956   3.440   4.330   7.387
 6813WAT      O27957   3.871   3.268   7.366
 6813WAT     H127958   3.864   3.335   7.312
 6813WAT     H227959   3.945   3.229   7.341
 6813WAT    EPW27960   3.881   3.272   7.355
 6814WAT      O27961   3.332   4.643   6.979
 6814WAT     H127962   3.378   4.652   6.906
 6814WAT     H227963   3.377   4.585   7.026
 6814WAT    EPW27964   3.345   4.636   6.975
 6815WAT      O27965   3.330   3.990   7.509
 6815WAT     H127966   3.284   3.951   7.447
 6815WAT     H227967   3.400   3.939   7.518
 6815WAT    EPW27968   3.334   3.977   7.501
 6816WAT      O27969   3.530   3.800   7.512
 6816WAT     H127970   3.612   3.781   7.536
 6816WAT     H227971   3.483   3.739   7.551
 6816WAT    EPW27972   3.535   3.788   7.521
 6817WAT      O27973   3.951   4.398   7.773
 6817WAT     H127974   3.985   4.318   7.776
 6817WAT     H227975   4.017   4.449   7.747
 6817WAT    EPW27976   3.966   4.394   7.769
 6818WAT      O27977   3.956   4.343   7.394
 6818WAT     H127978   3.989   4.279   7.442
 6818WAT     H227979   3.980   4.322   7.313
 6818WAT    EPW27980   3.965   4.331   7.389
 6819WAT      O27981   3.590   3.310   7.438
 6819WAT     H127982   3.560   3.360   7.373
 6819WAT     H227983   3.677   3.317   7.432
 6819WAT    EPW27984   3.598   3.318   7.428
 6820WAT      O27985   3.888   3.224   7.660
 6820WAT     H127986   3.895   3.310   7.673
 6820WAT     H227987   3.884   3.216   7.574
 6820WAT    EPW27988   3.888   3.235   7.650
 6821WAT      O27989   4.355   3.516   6.890
 6821WAT     H127990   4.310   3.584   6.921
 6821WAT     H227991   4.367   3.466   6.961
 6821WAT    EPW27992   4.350   3.519   6.905
 6822WAT      O27993   3.176   3.766   7.811
 6822WAT     H127994   3.150   3.849   7.803
 6822WAT     H227995   3.109   3.728   7.852
 6822WAT    EPW27996   3.162   3.773   7.816
 6823WAT      O27997   3.167   4.737   7.601
 6823WAT     H127998   3.108   4.793   7.569
 6823WAT     H227999   3.209   4.710   7.529
 6823WAT    EPW28000   3.164   4.741   7.585
 6824WAT      O28001   3.751   4.522   7.349
 6824WAT     H128002   3.693   4.494   7.408
 6824WAT     H228003   3.813   4.461   7.351
 6824WAT    EPW28004   3.751   4.509   7.358
 6825WAT      O28005   4.365   4.750   7.101
 6825WAT     H128006   4.438   4.798   7.111
 6825WAT     H228007   4.388   4.671   7.129
 6825WAT    EPW28008   4.379   4.746   7.106
 6826WAT      O28009   4.182   4.790   7.300
 6826WAT     H128010   4.203   4.842   7.366
 6826WAT     H228011   4.259   4.772   7.262
 6826WAT    EPW28012   4.196   4.795   7.304
 6827WAT      O28013   3.321   4.604   7.394
 6827WAT     H128014   3.387   4.547   7.395
 6827WAT     H228015   3.360   4.679   7.372
 6827WAT    EPW28016   3.337   4.607   7.391
 6828WAT      O28017   4.895   3.514   7.520
 6828WAT     H128018   4.860   3.581   7.562
 6828WAT     H228019   4.831   3.454   7.521
 6828WAT    EPW28020   4.880   3.515   7.526
 6829WAT      O28021   3.403   4.453   7.744
 6829WAT     H128022   3.445   4.417   7.676
 6829WAT     H228023   3.435   4.411   7.813
 6829WAT    EPW28024   3.414   4.441   7.744
 6830WAT      O28025   3.726   4.738   7.673
 6830WAT     H128026   3.811   4.749   7.654
 6830WAT     H228027   3.696   4.820   7.680
 6830WAT    EPW28028   3.734   4.752   7.671
 6831WAT      O28029   4.107   3.678   7.482
 6831WAT     H128030   4.136   3.655   7.403
 6831WAT     H228031   4.180   3.686   7.529
 6831WAT    EPW28032   4.122   3.676   7.477
 6832WAT      O28033   4.179   3.712   6.994
 6832WAT     H128034   4.207   3.791   7.019
 6832WAT     H228035   4.101   3.728   6.958
 6832WAT    EPW28036   4.172   3.726   6.992
 6833WAT      O28037   4.583   4.909   7.141
 6833WAT     H128038   4.650   4.894   7.086
 6833WAT     H228039   4.619   4.901   7.220
 6833WAT    EPW28040   4.598   4.906   7.144
 6834WAT      O28041   4.065   4.529   6.976
 6834WAT     H128042   4.047   4.583   7.041
 6834WAT     H228043   4.142   4.558   6.946
 6834WAT    EPW28044   4.074   4.541   6.981
 6835WAT      O28045   4.416   3.318   7.081
 6835WAT     H128046   4.470   3.250   7.089
 6835WAT     H228047   4.422   3.358   7.158
 6835WAT    EPW28048   4.425   3.314   7.094
 6836WAT      O28049   3.211   3.435   7.338
 6836WAT     H128050   3.200   3.349   7.341
 6836WAT     H228051   3.164   3.465   7.405
 6836WAT    EPW28052   3.202   3.427   7.348
 6837WAT      O28053   4.141   3.556   7.212
 6837WAT     H128054   4.091   3.490   7.187
 6837WAT     H228055   4.147   3.606   7.141
 6837WAT    EPW28056   4.135   3.554   7.198
 6838WAT      O28057   4.141   3.250   7.202
 6838WAT     H128058   4.096   3.210   7.139
 6838WAT     H228059   4.219   3.266   7.164
 6838WAT    EPW28060   4.146   3.247   7.187
 6839WAT      O28061   4.824   4.886   7.541
 6839WAT     H128062   4.779   4.958   7.561
 6839WAT     H228063   4.763   4.829   7.516
 6839WAT    EPW28064   4.808   4.888   7.540
 6840WAT      O28065   4.001   3.487   7.654
 6840WAT     H128066   4.009   3.544   7.588
 6840WAT     H228067   4.013   3.536   7.725
 6840WAT    EPW28068   4.004   3.503   7.655
 6841WAT      O28069   4.524   4.470   7.495
 6841WAT     H128070   4.594   4.422   7.514
 6841WAT     H228071   4.458   4.413   7.499
 6841WAT    EPW28072   4.524   4.455   7.498
 6842WAT      O28073   3.462   3.069   7.489
 6842WAT     H128074   3.516   3.138   7.488
 6842WAT     H228075   3.462   3.042   7.406
 6842WAT    EPW28076   3.470   3.075   7.476
 6843WAT      O28077   4.506   3.098   7.526
 6843WAT     H128078   4.511   3.066   7.607
 6843WAT     H228079   4.538   3.034   7.477
 6843WAT    EPW28080   4.512   3.084   7.531
 6844WAT      O28081   3.507   3.450   7.654
 6844WAT     H128082   3.534   3.407   7.583
 6844WAT     H228083   3.489   3.387   7.711
 6844WAT    EPW28084   3.508   3.434   7.652
 6845WAT      O28085   4.776   4.220   7.076
 6845WAT     H128086   4.788   4.191   7.157
 6845WAT     H228087   4.856   4.222   7.043
 6845WAT    EPW28088   4.789   4.216   7.083
 6846WAT      O28089   3.489   4.193   7.609
 6846WAT     H128090   3.574   4.185   7.592
 6846WAT     H228091   3.454   4.125   7.568
 6846WAT    EPW28092   3.497   4.182   7.600
 6847WAT      O28093   3.366   4.865   7.733
 6847WAT     H128094   3.299   4.816   7.708
 6847WAT     H228095   3.406   4.884   7.657
 6847WAT    EPW28096   3.362   4.861   7.718
 6848WAT      O28097   4.565   3.873   7.034
 6848WAT     H128098   4.543   3.946   6.992
 6848WAT     H228099   4.520   3.878   7.109
 6848WAT    EPW28100   4.555   3.885   7.039
 6849WAT      O28101   3.726   4.194   7.432
 6849WAT     H128102   3.797   4.243   7.441
 6849WAT     H228103   3.748   4.137   7.370
 6849WAT    EPW28104   3.740   4.192   7.424
 6850WAT      O28105   4.984   3.359   6.980
 6850WAT     H128106   4.918   3.303   6.982
 6850WAT     H228107   4.965   3.411   6.912
 6850WAT    EPW28108   4.971   3.359   6.970
 6851WAT      O28109   3.142   4.358   7.764
 6851WAT     H128110   3.075   4.407   7.792
 6851WAT     H228111   3.210   4.412   7.767
 6851WAT    EPW28112   3.142   4.373   7.769
 6852WAT      O28113   3.148   4.026   7.275
 6852WAT     H128114   3.130   3.942   7.290
 6852WAT     H228115   3.214   4.023   7.218
 6852WAT    EPW28116   3.155   4.013   7.268
 6853WAT      O28117   4.784   3.315   7.207
 6853WAT     H128118   4.859   3.275   7.227
 6853WAT     H228119   4.810   3.387   7.165
 6853WAT    EPW28120   4.799   3.320   7.204
 6854WAT      O28121   4.178   4.564   7.665
 6854WAT     H128122   4.126   4.627   7.636
 6854WAT     H228123   4.209   4.527   7.592
 6854WAT    EPW28124   4.175   4.568   7.650
 6855WAT      O28125   3.165   4.443   7.232
 6855WAT     H128126   3.221   4.500   7.269
 6855WAT     H228127   3.142   4.391   7.299
 6855WAT    EPW28128   3.170   4.443   7.247
 6856WAT      O28129   4.429   3.544   7.715
 6856WAT     H128130   4.464   3.559   7.793
 6856WAT     H228131   4.384   3.470   7.726
 6856WAT    EPW28132   4.428   3.535   7.728
 6857WAT      O28133   3.148   4.288   6.995
 6857WAT     H128134   3.224   4.244   7.001
 6857WAT     H228135   3.150   4.341   7.064
 6857WAT    EPW28136   3.160   4.289   7.006
 6858WAT      O28137   3.242   4.110   7.795
 6858WAT     H128138   3.286   4.097   7.721
 6858WAT     H228139   3.222   4.194   7.793
 6858WAT    EPW28140   3.246   4.120   7.784
 6859WAT      O28141   3.877   3.466   7.160
 6859WAT     H128142   3.877   3.454   7.074
 6859WAT     H228143   3.859   3.551   7.170
 6859WAT    EPW28144   3.874   3.477   7.149
 6860WAT      O28145   3.651   4.461   7.624
 6860WAT     H128146   3.663   4.546   7.642
 6860WAT     H228147   3.718   4.421   7.663
 6860WAT    EPW28148   3.663   4.468   7.632
 6861WAT      O28149   3.512   3.749   7.124
 6861WAT     H128150   3.500   3.704   7.198
 6861WAT     H228151   3.454   3.715   7.069
 6861WAT    EPW28152   3.502   3.738   7.127
 6862WAT      O28153   3.529   3.932   7.784
 6862WAT     H128154   3.451   3.926   7.745
 6862WAT     H228155   3.536   3.857   7.827
 6862WAT    EPW28156   3.519   3.920   7.785
 6863WAT      O28157   4.381   3.474   7.321
 6863WAT     H128158   4.430   3.546   7.314
 6863WAT     H228159   4.302   3.500   7.295
 6863WAT    EPW28160   4.376   3.489   7.316
 6864WAT      O28161   4.258   3.938   7.121
 6864WAT     H128162   4.257   4.010   7.072
 6864WAT     H228163   4.194   3.952   7.179
 6864WAT    EPW28164   4.248   3.951   7.122
 6865WAT      O28165   4.755   4.325   7.519
 6865WAT     H128166   4.791   4.290   7.591
 6865WAT     H228167   4.754   4.259   7.462
 6865WAT    EPW28168   4.760   4.310   7.521
 6866WAT      O28169   4.361   4.317   7.844
 6866WAT     H128170   4.281   4.339   7.871
 6866WAT     H228171   4.387   4.257   7.902
 6866WAT    EPW28172   4.353   4.311   7.856
 6867WAT      O28173   3.750   4.798   7.288
 6867WAT     H128174   3.735   4.720   7.326
 6867WAT     H228175   3.819   4.783   7.237
 6867WAT    EPW28176   3.758   4.784   7.286
 6868WAT      O28177   3.717   3.172   7.087
 6868WAT     H128178   3.727   3.162   7.173
 6868WAT     H228179   3.646   3.223   7.081
 6868WAT    EPW28180   3.708   3.178   7.099
 6869WAT      O28181   3.979   4.750   7.129
 6869WAT     H128182   4.042   4.766   7.188
 6869WAT     H228183   3.983   4.819   7.075
 6869WAT    EPW28184   3.989   4.762   7.130
 6870WAT      O28185   3.429   4.003   7.212
 6870WAT     H128186   3.462   3.925   7.189
 6870WAT     H228187   3.494   4.040   7.257
 6870WAT    EPW28188   3.444   3.997   7.215
 6871WAT      O28189   3.129   3.169   7.308
 6871WAT     H128190   3.142   3.098   7.259
 6871WAT     H228191   3.092   3.137   7.381
 6871WAT    EPW28192   3.126   3.154   7.312
 6872WAT      O28193   4.098   3.937   7.354
 6872WAT     H128194   4.104   4.002   7.412
 6872WAT     H228195   4.080   3.868   7.403
 6872WAT    EPW28196   4.097   3.936   7.370
 6873WAT      O28197   3.548   3.389   7.005
 6873WAT     H128198   3.497   3.394   6.935
 6873WAT     H228199   3.626   3.413   6.976
 6873WAT    EPW28200   3.552   3.393   6.990
 6874WAT      O28201   4.021   4.142   7.797
 6874WAT     H128202   3.936   4.122   7.805
 6874WAT     H228203   4.053   4.125   7.876
 6874WAT    EPW28204   4.013   4.137   7.810
 6875WAT      O28205   3.696   4.815   6.886
 6875WAT     H128206   3.740   4.745   6.915
 6875WAT     H228207   3.717   4.877   6.943
 6875WAT    EPW28208   3.706   4.814   6.898
 6876WAT      O28209   3.729   3.628   7.702
 6876WAT     H128210   3.813   3.609   7.712
 6876WAT     H228211   3.692   3.551   7.688
 6876WAT    EPW28212   3.736   3.614   7.702
 6877WAT      O28213   4.990   4.787   7.135
 6877WAT     H128214   5.060   4.740   7.110
 6877WAT     H228215   4.936   4.727   7.169
 6877WAT    EPW28216   4.993   4.771   7.136
 6878WAT      O28217   3.211   3.762   7.368
 6878WAT     H128218   3.260   3.733   7.434
 6878WAT     H228219   3.224   3.703   7.305
 6878WAT    EPW28220   3.220   3.749   7.368
 6879WAT      O28221   3.663   3.905   6.916
 6879WAT     H128222   3.602   3.865   6.964
 6879WAT     H228223   3.625   3.917   6.839
 6879WAT    EPW28224   3.648   3.901   6.912
 6880WAT      O28225   4.840   4.071   7.797
 6880WAT     H128226   4.811   4.111   7.869
 6880WAT     H228227   4.926   4.065   7.809
 6880WAT    EPW28228   4.848   4.076   7.809
 6881WAT      O28229   3.809   3.752   7.187
 6881WAT     H128230   3.836   3.834   7.194
 6881WAT     H228231   3.722   3.759   7.178
 6881WAT    EPW28232   3.800   3.765   7.187
 6882WAT      O28233   3.157   3.349   7.841
 6882WAT     H128234   3.161   3.383   7.761
 6882WAT     H228235   3.232   3.372   7.878
 6882WAT    EPW28236   3.168   3.357   7.835
 6883WAT      O28237   4.953   4.635   7.849
 6883WAT     H128238   4.982   4.660   7.771
 6883WAT     H228239   5.022   4.644   7.901
 6883WAT    EPW28240   4.967   4.640   7.846
 6884WAT      O28241   4.613   4.495   7.048
 6884WAT     H128242   4.647   4.414   7.051
 6884WAT     H228243   4.538   4.488   7.091
 6884WAT    EPW28244   4.607   4.482   7.055
 6885WAT      O28245   4.662   3.678   7.614
 6885WAT     H128246   4.587   3.646   7.645
 6885WAT     H228247   4.662   3.761   7.642
 6885WAT    EPW28248   4.651   3.686   7.622
 6886WAT      O28249   4.351   4.282   6.988
 6886WAT     H128250   4.419   4.231   6.971
 6886WAT     H228251   4.309   4.287   6.911
 6886WAT    EPW28252   4.355   4.276   6.974
 6887WAT      O28253   3.997   4.779   7.590
 6887WAT     H128254   4.052   4.847   7.596
 6887WAT     H228255   3.962   4.787   7.511
 6887WAT    EPW28256   4.000   4.790   7.579
 6888WAT      O28257   4.823   3.735   7.012
 6888WAT     H128258   4.861   3.803   6.972
 6888WAT     H228259   4.739   3.757   7.015
 6888WAT    EPW28260   4.816   3.748   7.007
 6889WAT      O28261   3.975   4.079   6.921
 6889WAT     H128262   3.894   4.062   6.892
 6889WAT     H228263   3.971   4.165   6.940
 6889WAT    EPW28264   3.962   4.089   6.919
 6890WAT      O28265   4.593   3.695   7.350
 6890WAT     H128266   4.614   3.675   7.432
 6890WAT     H228267   4.668   3.722   7.316
 6890WAT    EPW28268   4.607   3.696   7.357
 6891WAT      O28269   4.695   3.303   7.497
 6891WAT     H128270   4.624   3.256   7.514
 6891WAT     H228271   4.679   3.337   7.419
 6891WAT    EPW28272   4.682   3.301   7.488
 6892WAT      O28273   4.739   4.097   7.335
 6892WAT     H128274   4.787   4.025   7.330
 6892WAT     H228275   4.657   4.069   7.328
 6892WAT    EPW28276   4.734   4.082   7.333
 6893WAT      O28277   3.485   3.499   7.266
 6893WAT     H128278   3.498   3.466   7.187
 6893WAT     H228279   3.404   3.474   7.286
 6893WAT    EPW28280   3.475   3.490   7.258
 6894WAT      O28281   4.361   4.214   7.571
 6894WAT     H128282   4.369   4.248   7.651
 6894WAT     H228283   4.378   4.129   7.583
 6894WAT    EPW28284   4.365   4.207   7.584
 6895WAT      O28285   4.113   4.142   7.527
 6895WAT     H128286   4.083   4.110   7.603
 6895WAT     H228287   4.183   4.189   7.551
 6895WAT    EPW28288   4.119   4.144   7.542
 6896WAT      O28289   4.506   4.837   7.780
 6896WAT     H128290   4.461   4.901   7.818
 6896WAT     H228291   4.577   4.829   7.831
 6896WAT    EPW28292   4.510   4.845   7.793
 6897WAT      O28293   4.816   3.809   7.279
 6897WAT     H128294   4.827   3.803   7.193
 6897WAT     H228295   4.890   3.776   7.311
 6897WAT    EPW28296   4.829   3.803   7.271
 6898WAT      O28297   4.208   4.505   7.390
 6898WAT     H128298   4.188   4.589   7.374
 6898WAT     H228299   4.131   4.467   7.402
 6898WAT    EPW28300   4.194   4.512   7.390
 6899WAT      O28301   3.346   3.661   6.920
 6899WAT     H128302   3.279   3.662   6.975
 6899WAT     H228303   3.355   3.576   6.901
 6899WAT    EPW28304   3.337   3.649   6.925
 6900WAT      O28305   4.214   3.322   7.679
 6900WAT     H128306   4.144   3.374   7.673
 6900WAT     H228307   4.218   3.284   7.600
 6900WAT    EPW28308   4.204   3.324   7.666
 6901WAT      O28309   3.745   4.531   7.031
 6901WAT     H128310   3.789   4.539   7.106
 6901WAT     H228311   3.664   4.510   7.057
 6901WAT    EPW28312   3.739   4.529   7.046
 6902WAT      O28313   4.604   3.902   7.808
 6902WAT     H128314   4.671   3.956   7.824
 6902WAT     H228315   4.570   3.933   7.734
 6902WAT    EPW28316   4.609   3.915   7.799
 6903WAT      O28317   4.635   4.709   7.388
 6903WAT     H128318   4.618   4.643   7.443
 6903WAT     H228319   4.707   4.681   7.346
 6903WAT    EPW28320   4.643   4.695   7.390
 6904WAT      O28321   3.477   4.438   7.091
 6904WAT     H128322   3.453   4.408   7.169
 6904WAT     H228323   3.474   4.368   7.040
 6904WAT    EPW28324   3.473   4.424   7.095
 6905WAT      O28325   3.759   4.263   6.965
 6905WAT     H128326   3.678   4.236   6.979
 6905WAT     H228327   3.757   4.348   6.984
 6905WAT    EPW28328   3.747   4.272   6.970
 6906WAT      O28329   3.960   3.127   6.962
 6906WAT     H128330   3.967   3.152   6.879
 6906WAT     H228331   3.885   3.165   6.988
 6906WAT    EPW28332   3.950   3.136   6.953
 6907WAT      O28333   4.282   3.769   7.653
 6907WAT     H128334   4.337   3.708   7.683
 6907WAT     H228335   4.239   3.795   7.725
 6907WAT    EPW28336   4.284   3.764   7.668
 6908WAT      O28337   3.307   3.634   7.602
 6908WAT     H128338   3.270   3.664   7.675
 6908WAT     H228339   3.360   3.571   7.630
 6908WAT    EPW28340   3.309   3.629   7.617
 6909WAT      O28341   4.479   3.952   7.309
 6909WAT     H128342   4.486   3.867   7.327
 6909WAT     H228343   4.397   3.961   7.282
 6909WAT    EPW28344   4.468   3.941   7.308
 6910WAT      O28345   3.871   4.041   7.203
 6910WAT     H128346   3.881   4.055   7.118
 6910WAT     H228347   3.953   4.035   7.233
 6910WAT    EPW28348   3.884   4.042   7.195
 6911WAT      O28349   4.787   4.848   6.951
 6911WAT     H128350   4.850   4.834   7.009
 6911WAT     H228351   4.753   4.768   6.939
 6911WAT    EPW28352   4.791   4.834   6.958
 6912WAT      O28353   4.394   4.474   7.183
 6912WAT     H128354   4.369   4.461   7.266
 6912WAT     H228355   4.363   4.405   7.141
 6912WAT    EPW28356   4.386   4.462   7.189
 6913WAT      O28357   3.523   4.683   7.878
 6913WAT     H128358   3.515   4.602   7.846
 6913WAT     H228359   3.478   4.732   7.821
 6913WAT    EPW28360   3.515   4.678   7.865
 6914WAT      O28361   4.083   4.295   7.126
 6914WAT     H128362   4.155   4.260   7.091
 6914WAT     H228363   4.079   4.375   7.092
 6914WAT    EPW28364   4.093   4.302   7.116
 6915WAT      O28365   4.205   3.851   6.017
 6915WAT     H128366   4.152   3.910   6.054
 6915WAT     H228367   4.244   3.814   6.086
 6915WAT    EPW28368   4.203   3.854   6.033
 6916WAT      O28369   4.819   4.595   5.314
 6916WAT     H128370   4.889   4.543   5.314
 6916WAT     H228371   4.760   4.550   5.267
 6916WAT    EPW28372   4.821   4.580   5.307
 6917WAT      O28373   4.472   3.957   5.685
 6917WAT     H128374   4.480   3.958   5.598
 6917WAT     H228375   4.413   3.894   5.700
 6917WAT    EPW28376   4.464   3.948   5.674
 6918WAT      O28377   3.843   4.291   6.695
 6918WAT     H128378   3.819   4.290   6.779
 6918WAT     H228379   3.768   4.276   6.653
 6918WAT    EPW28380   3.828   4.288   6.701
 6919WAT      O28381   3.781   3.551   6.143
 6919WAT     H128382   3.849   3.553   6.088
 6919WAT     H228383   3.776   3.468   6.168
 6919WAT    EPW28384   3.790   3.539   6.139
 6920WAT      O28385   3.841   4.610   6.421
 6920WAT     H128386   3.855   4.686   6.381
 6920WAT     H228387   3.920   4.573   6.424
 6920WAT    EPW28388   3.855   4.616   6.416
 6921WAT      O28389   3.951   4.398   5.872
 6921WAT     H128390   3.985   4.318   5.875
 6921WAT     H228391   4.017   4.449   5.846
 6921WAT    EPW28392   3.966   4.394   5.869
 6922WAT      O28393   4.153   3.756   6.627
 6922WAT     H128394   4.068   3.746   6.609
 6922WAT     H228395   4.156   3.831   6.672
 6922WAT    EPW28396   4.141   3.766   6.631
 6923WAT      O28397   4.609   3.052   6.538
 6923WAT     H128398   4.593   3.129   6.500
 6923WAT     H228399   4.532   3.030   6.573
 6923WAT    EPW28400   4.595   3.060   6.538
 6924WAT      O28401   3.176   3.766   5.910
 6924WAT     H128402   3.150   3.849   5.902
 6924WAT     H228403   3.109   3.728   5.952
 6924WAT    EPW28404   3.162   3.773   5.915
 6925WAT      O28405   3.167   4.737   5.700
 6925WAT     H128406   3.108   4.793   5.669
 6925WAT     H228407   3.209   4.710   5.629
 6925WAT    EPW28408   3.164   4.741   5.685
 6926WAT      O28409   4.365   4.750   5.200
 6926WAT     H128410   4.438   4.798   5.210
 6926WAT     H228411   4.388   4.671   5.228
 6926WAT    EPW28412   4.379   4.746   5.206
 6927WAT      O28413   3.479   3.248   5.959
 6927WAT     H128414   3.427   3.185   5.928
 6927WAT     H228415   3.538   3.204   6.006
 6927WAT    EPW28416   3.480   3.232   5.961
 6928WAT      O28417   3.809   3.461   6.889
 6928WAT     H128418   3.821   3.416   6.815
 6928WAT     H228419   3.838   3.541   6.868
 6928WAT    EPW28420   3.815   3.466   6.875
 6929WAT      O28421   4.895   3.514   5.619
 6929WAT     H128422   4.860   3.581   5.662
 6929WAT     H228423   4.831   3.454   5.621
 6929WAT    EPW28424   4.880   3.515   5.626
 6930WAT      O28425   4.426   4.791   6.230
 6930WAT     H128426   4.500   4.836   6.229
 6930WAT     H228427   4.414   4.769   6.146
 6930WAT    EPW28428   4.435   4.794   6.217
 6931WAT      O28429   3.383   3.421   6.787
 6931WAT     H128430   3.305   3.382   6.780
 6931WAT     H228431   3.432   3.380   6.728
 6931WAT    EPW28432   3.378   3.409   6.777
 6932WAT      O28433   3.403   4.453   5.843
 6932WAT     H128434   3.445   4.417   5.776
 6932WAT     H228435   3.435   4.411   5.912
 6932WAT    EPW28436   3.414   4.441   5.843
 6933WAT      O28437   4.047   3.185   6.704
 6933WAT     H128438   4.065   3.104   6.676
 6933WAT     H228439   4.033   3.229   6.630
 6933WAT    EPW28440   4.048   3.180   6.689
 6934WAT      O28441   4.179   3.712   5.093
 6934WAT     H128442   4.207   3.791   5.118
 6934WAT     H228443   4.101   3.728   5.057
 6934WAT    EPW28444   4.172   3.726   5.092
 6935WAT      O28445   4.583   4.909   5.240
 6935WAT     H128446   4.650   4.894   5.186
 6935WAT     H228447   4.619   4.901   5.319
 6935WAT    EPW28448   4.598   4.906   5.244
 6936WAT      O28449   3.626   4.860   6.347
 6936WAT     H128450   3.655   4.853   6.429
 6936WAT     H228451   3.563   4.800   6.342
 6936WAT    EPW28452   3.621   4.850   6.358
 6937WAT      O28453   4.862   3.346   6.156
 6937WAT     H128454   4.938   3.353   6.113
 6937WAT     H228455   4.868   3.269   6.196
 6937WAT    EPW28456   4.874   3.336   6.156
 6938WAT      O28457   3.117   3.476   6.546
 6938WAT     H128458   3.117   3.534   6.610
 6938WAT     H228459   3.177   3.507   6.490
 6938WAT    EPW28460   3.126   3.489   6.547
 6939WAT      O28461   4.351   4.509   6.600
 6939WAT     H128462   4.348   4.547   6.678
 6939WAT     H228463   4.437   4.505   6.583
 6939WAT    EPW28464   4.363   4.514   6.609
 6940WAT      O28465   4.416   3.318   5.180
 6940WAT     H128466   4.470   3.250   5.188
 6940WAT     H228467   4.422   3.358   5.258
 6940WAT    EPW28468   4.425   3.314   5.193
 6941WAT      O28469   3.425   4.676   6.259
 6941WAT     H128470   3.355   4.625   6.271
 6941WAT     H228471   3.451   4.656   6.178
 6941WAT    EPW28472   3.419   4.666   6.249
 6942WAT      O28473   4.196   4.826   6.350
 6942WAT     H128474   4.273   4.818   6.309
 6942WAT     H228475   4.138   4.813   6.286
 6942WAT    EPW28476   4.199   4.823   6.334
 6943WAT      O28477   4.824   4.886   5.640
 6943WAT     H128478   4.779   4.958   5.660
 6943WAT     H228479   4.763   4.829   5.616
 6943WAT    EPW28480   4.808   4.888   5.639
 6944WAT      O28481   4.524   4.470   5.594
 6944WAT     H128482   4.594   4.422   5.613
 6944WAT     H228483   4.458   4.413   5.599
 6944WAT    EPW28484   4.524   4.455   5.598
 6945WAT      O28485   3.561   4.561   6.515
 6945WAT     H128486   3.645   4.568   6.493
 6945WAT     H228487   3.558   4.601   6.593
 6945WAT    EPW28488   3.573   4.568   6.524
 6946WAT      O28489   3.758   4.112   5.990
 6946WAT     H128490   3.775   4.091   6.073
 6946WAT     H228491   3.692   4.059   5.969
 6946WAT    EPW28492   3.751   4.101   5.999
 6947WAT      O28493   4.380   3.504   6.342
 6947WAT     H128494   4.371   3.536   6.422
 6947WAT     H228495   4.321   3.440   6.338
 6947WAT    EPW28496   4.370   3.499   6.353
 6948WAT      O28497   3.833   4.106   6.249
 6948WAT     H128498   3.838   4.191   6.270
 6948WAT     H228499   3.804   4.069   6.323
 6948WAT    EPW28500   3.829   4.113   6.263
 6949WAT      O28501   4.450   4.176   6.162
 6949WAT     H128502   4.399   4.135   6.219
 6949WAT     H228503   4.438   4.260   6.180
 6949WAT    EPW28504   4.441   4.182   6.173
 6950WAT      O28505   4.506   3.098   5.625
 6950WAT     H128506   4.511   3.066   5.707
 6950WAT     H228507   4.538   3.034   5.576
 6950WAT    EPW28508   4.512   3.084   5.630
 6951WAT      O28509   3.115   4.543   6.870
 6951WAT     H128510   3.190   4.578   6.896
 6951WAT     H228511   3.132   4.458   6.865
 6951WAT    EPW28512   3.129   4.536   6.873
 6952WAT      O28513   4.752   3.522   6.456
 6952WAT     H128514   4.830   3.499   6.490
 6952WAT     H228515   4.705   3.544   6.526
 6952WAT    EPW28516   4.757   3.522   6.472
 6953WAT      O28517   4.776   4.220   5.175
 6953WAT     H128518   4.788   4.191   5.257
 6953WAT     H228519   4.856   4.222   5.142
 6953WAT    EPW28520   4.789   4.216   5.182
 6954WAT      O28521   3.366   4.865   5.832
 6954WAT     H128522   3.299   4.816   5.807
 6954WAT     H228523   3.406   4.884   5.757
 6954WAT    EPW28524   3.362   4.861   5.817
 6955WAT      O28525   3.321   3.560   6.061
 6955WAT     H128526   3.405   3.582   6.057
 6955WAT     H228527   3.282   3.618   6.008
 6955WAT    EPW28528   3.328   3.572   6.053
 6956WAT      O28529   4.999   4.671   6.600
 6956WAT     H128530   4.931   4.702   6.556
 6956WAT     H228531   4.962   4.625   6.665
 6956WAT    EPW28532   4.983   4.668   6.603
 6957WAT      O28533   4.565   3.873   5.134
 6957WAT     H128534   4.543   3.946   5.091
 6957WAT     H228535   4.520   3.878   5.208
 6957WAT    EPW28536   4.555   3.885   5.138
 6958WAT      O28537   4.984   3.359   5.079
 6958WAT     H128538   4.918   3.303   5.081
 6958WAT     H228539   4.965   3.411   5.011
 6958WAT    EPW28540   4.971   3.359   5.069
 6959WAT      O28541   3.142   4.358   5.864
 6959WAT     H128542   3.075   4.407   5.891
 6959WAT     H228543   3.210   4.412   5.867
 6959WAT    EPW28544   3.142   4.373   5.868
 6960WAT      O28545   3.906   3.729   6.873
 6960WAT     H128546   3.858   3.787   6.917
 6960WAT     H228547   3.904   3.758   6.791
 6960WAT    EPW28548   3.899   3.742   6.868
 6961WAT      O28549   5.016   3.797   6.334
 6961WAT     H128550   5.038   3.717   6.307
 6961WAT     H228551   4.931   3.803   6.316
 6961WAT    EPW28552   5.007   3.786   6.328
 6962WAT      O28553   3.586   4.343   6.040
 6962WAT     H128554   3.633   4.372   6.108
 6962WAT     H228555   3.643   4.295   5.995
 6962WAT    EPW28556   3.601   4.340   6.044
 6963WAT      O28557   4.429   3.544   5.814
 6963WAT     H128558   4.464   3.559   5.893
 6963WAT     H228559   4.384   3.470   5.825
 6963WAT    EPW28560   4.428   3.535   5.827
 6964WAT      O28561   3.242   4.110   5.895
 6964WAT     H128562   3.286   4.097   5.820
 6964WAT     H228563   3.222   4.194   5.892
 6964WAT    EPW28564   3.246   4.120   5.883
 6965WAT      O28565   4.782   4.709   6.409
 6965WAT     H128566   4.715   4.760   6.431
 6965WAT     H228567   4.789   4.719   6.323
 6965WAT    EPW28568   4.773   4.718   6.400
 6966WAT      O28569   3.464   3.810   6.709
 6966WAT     H128570   3.410   3.759   6.756
 6966WAT     H228571   3.466   3.771   6.631
 6966WAT    EPW28572   3.456   3.796   6.705
 6967WAT      O28573   3.572   3.906   6.230
 6967WAT     H128574   3.575   3.838   6.175
 6967WAT     H228575   3.507   3.956   6.199
 6967WAT    EPW28576   3.563   3.903   6.217
 6968WAT      O28577   4.562   3.677   6.069
 6968WAT     H128578   4.495   3.710   6.116
 6968WAT     H228579   4.580   3.741   6.013
 6968WAT    EPW28580   4.555   3.691   6.068
 6969WAT      O28581   4.226   3.268   6.412
 6969WAT     H128582   4.241   3.185   6.388
 6969WAT     H228583   4.264   3.273   6.491
 6969WAT    EPW28584   4.234   3.256   6.420
 6970WAT      O28585   4.381   3.474   5.421
 6970WAT     H128586   4.430   3.546   5.413
 6970WAT     H228587   4.302   3.500   5.394
 6970WAT    EPW28588   4.376   3.489   5.416
 6971WAT      O28589   3.352   4.041   6.786
 6971WAT     H128590   3.348   4.092   6.714
 6971WAT     H228591   3.385   3.966   6.756
 6971WAT    EPW28592   3.356   4.038   6.771
 6972WAT      O28593   4.512   4.262   6.612
 6972WAT     H128594   4.561   4.334   6.621
 6972WAT     H228595   4.552   4.219   6.546
 6972WAT    EPW28596   4.525   4.266   6.603
 6973WAT      O28597   3.942   4.546   6.729
 6973WAT     H128598   3.977   4.529   6.807
 6973WAT     H228599   3.898   4.474   6.709
 6973WAT    EPW28600   3.941   4.533   6.738
 6974WAT      O28601   4.039   3.621   5.993
 6974WAT     H128602   4.087   3.691   6.014
 6974WAT     H228603   4.076   3.556   6.038
 6974WAT    EPW28604   4.052   3.622   6.003
 6975WAT      O28605   4.360   4.632   6.003
 6975WAT     H128606   4.299   4.602   5.947
 6975WAT     H228607   4.414   4.677   5.952
 6975WAT    EPW28608   4.359   4.634   5.987
 6976WAT      O28609   4.361   4.317   5.943
 6976WAT     H128610   4.281   4.339   5.970
 6976WAT     H228611   4.387   4.257   6.001
 6976WAT    EPW28612   4.353   4.311   5.956
 6977WAT      O28613   4.687   4.117   6.428
 6977WAT     H128614   4.692   4.129   6.341
 6977WAT     H228615   4.762   4.149   6.458
 6977WAT    EPW28616   4.699   4.123   6.419
 6978WAT      O28617   4.306   4.651   6.855
 6978WAT     H128618   4.322   4.680   6.936
 6978WAT     H228619   4.332   4.718   6.805
 6978WAT    EPW28620   4.312   4.665   6.860
 6979WAT      O28621   4.790   3.146   6.726
 6979WAT     H128622   4.726   3.106   6.682
 6979WAT     H228623   4.793   3.103   6.802
 6979WAT    EPW28624   4.781   3.134   6.731
 6980WAT      O28625   3.129   3.169   5.408
 6980WAT     H128626   3.142   3.098   5.358
 6980WAT     H228627   3.092   3.137   5.480
 6980WAT    EPW28628   3.126   3.154   5.411
 6981WAT      O28629   4.621   4.370   6.040
 6981WAT     H128630   4.573   4.400   5.974
 6981WAT     H228631   4.585   4.292   6.058
 6981WAT    EPW28632   4.609   4.363   6.033
 6982WAT      O28633   4.021   4.142   5.896
 6982WAT     H128634   3.936   4.122   5.905
 6982WAT     H228635   4.053   4.125   5.976
 6982WAT    EPW28636   4.013   4.137   5.909
 6983WAT      O28637   3.406   4.111   6.128
 6983WAT     H128638   3.478   4.160   6.124
 6983WAT     H228639   3.379   4.108   6.045
 6983WAT    EPW28640   3.412   4.118   6.115
 6984WAT      O28641   4.990   4.787   5.234
 6984WAT     H128642   5.060   4.740   5.209
 6984WAT     H228643   4.936   4.727   5.268
 6984WAT    EPW28644   4.993   4.771   5.236
 6985WAT      O28645   4.714   4.064   6.152
 6985WAT     H128646   4.713   3.987   6.192
 6985WAT     H228647   4.630   4.088   6.151
 6985WAT    EPW28648   4.702   4.056   6.158
 6986WAT      O28649   3.345   4.216   6.556
 6986WAT     H128650   3.303   4.165   6.500
 6986WAT     H228651   3.310   4.295   6.542
 6986WAT    EPW28652   3.334   4.220   6.545
 6987WAT      O28653   4.840   4.071   5.896
 6987WAT     H128654   4.811   4.111   5.968
 6987WAT     H228655   4.926   4.065   5.909
 6987WAT    EPW28656   4.848   4.076   5.908
 6988WAT      O28657   4.606   3.464   6.750
 6988WAT     H128658   4.553   3.510   6.802
 6988WAT     H228659   4.570   3.384   6.749
 6988WAT    EPW28660   4.593   3.459   6.757
 6989WAT      O28661   3.157   3.349   5.940
 6989WAT     H128662   3.161   3.383   5.860
 6989WAT     H228663   3.232   3.372   5.977
 6989WAT    EPW28664   3.168   3.357   5.934
 6990WAT      O28665   4.953   4.635   5.949
 6990WAT     H128666   4.982   4.660   5.871
 6990WAT     H228667   5.022   4.644   6.001
 6990WAT    EPW28668   4.967   4.640   5.945
 6991WAT      O28669   4.455   3.821   6.757
 6991WAT     H128670   4.462   3.831   6.844
 6991WAT     H228671   4.392   3.876   6.735
 6991WAT    EPW28672   4.447   3.830   6.767
 6992WAT      O28673   4.682   3.853   6.594
 6992WAT     H128674   4.714   3.931   6.614
 6992WAT     H228675   4.645   3.826   6.668
 6992WAT    EPW28676   4.681   3.860   6.608
 6993WAT      O28677   4.613   4.495   5.147
 6993WAT     H128678   4.647   4.414   5.150
 6993WAT     H228679   4.538   4.488   5.190
 6993WAT    EPW28680   4.607   4.482   5.154
 6994WAT      O28681   4.662   3.678   5.713
 6994WAT     H128682   4.587   3.646   5.745
 6994WAT     H228683   4.662   3.761   5.741
 6994WAT    EPW28684   4.651   3.686   5.722
 6995WAT      O28685   4.952   3.907   6.867
 6995WAT     H128686   4.947   3.873   6.787
 6995WAT     H228687   5.025   3.953   6.865
 6995WAT    EPW28688   4.962   3.909   6.855
 6996WAT      O28689   4.906   4.274   6.488
 6996WAT     H128690   4.968   4.219   6.462
 6996WAT     H228691   4.899   4.331   6.422
 6996WAT    EPW28692   4.914   4.275   6.474
 6997WAT      O28693   3.819   4.397   6.218
 6997WAT     H128694   3.789   4.457   6.274
 6997WAT     H228695   3.824   4.442   6.143
 6997WAT    EPW28696   3.815   4.413   6.215
 6998WAT      O28697   3.617   4.292   6.557
 6998WAT     H128698   3.536   4.263   6.574
 6998WAT     H228699   3.608   4.379   6.558
 6998WAT    EPW28700   3.604   4.301   6.560
 6999WAT      O28701   4.553   3.311   6.459
 6999WAT     H128702   4.627   3.357   6.453
 6999WAT     H228703   4.496   3.358   6.412
 6999WAT    EPW28704   4.555   3.325   6.451
 7000WAT      O28705   4.071   4.040   6.167
 7000WAT     H128706   4.118   4.077   6.230
 7000WAT     H228707   3.988   4.053   6.193
 7000WAT    EPW28708   4.065   4.047   6.180
 7001WAT      O28709   3.742   3.600   6.441
 7001WAT     H128710   3.758   3.526   6.484
 7001WAT     H228711   3.737   3.575   6.357
 7001WAT    EPW28712   3.743   3.585   6.435
 7002WAT      O28713   4.681   3.109   6.226
 7002WAT     H128714   4.653   3.192   6.222
 7002WAT     H228715   4.753   3.115   6.276
 7002WAT    EPW28716   4.688   3.122   6.233
 7003WAT      O28717   3.917   3.181   6.429
 7003WAT     H128718   3.987   3.213   6.389
 7003WAT     H228719   3.941   3.100   6.452
 7003WAT    EPW28720   3.931   3.174   6.426
 7004WAT      O28721   3.815   4.602   6.028
 7004WAT     H128722   3.753   4.660   6.010
 7004WAT     H228723   3.840   4.573   5.950
 7004WAT    EPW28724   3.810   4.606   6.014
 7005WAT      O28725   4.246   4.265   6.727
 7005WAT     H128726   4.322   4.294   6.695
 7005WAT     H228727   4.191   4.270   6.660
 7005WAT    EPW28728   4.249   4.270   6.712
 7006WAT      O28729   4.637   4.520   6.578
 7006WAT     H128730   4.672   4.547   6.653
 7006WAT     H228731   4.666   4.578   6.520
 7006WAT    EPW28732   4.647   4.533   6.580
 7007WAT      O28733   4.823   3.735   5.112
 7007WAT     H128734   4.861   3.803   5.072
 7007WAT     H228735   4.739   3.757   5.115
 7007WAT    EPW28736   4.816   3.748   5.106
 7008WAT      O28737   3.568   3.686   6.035
 7008WAT     H128738   3.612   3.676   5.960
 7008WAT     H228739   3.622   3.655   6.095
 7008WAT    EPW28740   3.582   3.680   6.033
 7009WAT      O28741   4.369   3.596   6.594
 7009WAT     H128742   4.304   3.643   6.629
 7009WAT     H228743   4.426   3.587   6.660
 7009WAT    EPW28744   4.368   3.602   6.609
 7010WAT      O28745   4.338   3.750   6.224
 7010WAT     H128746   4.368   3.792   6.294
 7010WAT     H228747   4.342   3.666   6.247
 7010WAT    EPW28748   4.343   3.744   6.238
 7011WAT      O28749   4.081   4.767   6.616
 7011WAT     H128750   4.128   4.707   6.575
 7011WAT     H228751   4.045   4.722   6.683
 7011WAT    EPW28752   4.082   4.751   6.620
 7012WAT      O28753   4.593   3.695   5.449
 7012WAT     H128754   4.614   3.675   5.532
 7012WAT     H228755   4.668   3.722   5.415
 7012WAT    EPW28756   4.607   3.696   5.456
 7013WAT      O28757   3.922   3.185   6.040
 7013WAT     H128758   3.840   3.170   6.063
 7013WAT     H228759   3.918   3.188   5.953
 7013WAT    EPW28760   3.910   3.183   6.030
 7014WAT      O28761   4.695   3.303   5.597
 7014WAT     H128762   4.624   3.256   5.614
 7014WAT     H228763   4.679   3.337   5.518
 7014WAT    EPW28764   4.682   3.301   5.587
 7015WAT      O28765   4.739   4.097   5.435
 7015WAT     H128766   4.787   4.025   5.430
 7015WAT     H228767   4.657   4.069   5.427
 7015WAT    EPW28768   4.734   4.082   5.433
 7016WAT      O28769   4.086   4.289   6.518
 7016WAT     H128770   4.007   4.282   6.554
 7016WAT     H228771   4.094   4.373   6.499
 7016WAT    EPW28772   4.076   4.300   6.521
 7017WAT      O28773   3.179   3.224   6.643
 7017WAT     H128774   3.165   3.304   6.610
 7017WAT     H228775   3.100   3.200   6.672
 7017WAT    EPW28776   3.165   3.233   6.643
 7018WAT      O28777   4.361   4.214   5.670
 7018WAT     H128778   4.369   4.248   5.750
 7018WAT     H228779   4.378   4.129   5.682
 7018WAT    EPW28780   4.365   4.207   5.684
 7019WAT      O28781   4.135   4.553   6.429
 7019WAT     H128782   4.204   4.542   6.482
 7019WAT     H228783   4.149   4.632   6.395
 7019WAT    EPW28784   4.147   4.563   6.432
 7020WAT      O28785   4.953   3.814   6.610
 7020WAT     H128786   4.867   3.802   6.623
 7020WAT     H228787   4.968   3.775   6.534
 7020WAT    EPW28788   4.943   3.807   6.601
 7021WAT      O28789   4.404   3.881   6.468
 7021WAT     H128790   4.379   3.809   6.510
 7021WAT     H228791   4.486   3.892   6.495
 7021WAT    EPW28792   4.413   3.872   6.478
 7022WAT      O28793   3.346   4.859   6.594
 7022WAT     H128794   3.280   4.802   6.604
 7022WAT     H228795   3.308   4.936   6.609
 7022WAT    EPW28796   3.331   4.862   6.598
 7023WAT      O28797   4.198   4.000   6.787
 7023WAT     H128798   4.230   4.068   6.743
 7023WAT     H228799   4.127   4.032   6.827
 7023WAT    EPW28800   4.192   4.015   6.786
 7024WAT      O28801   4.506   4.837   5.880
 7024WAT     H128802   4.461   4.901   5.917
 7024WAT     H228803   4.577   4.829   5.930
 7024WAT    EPW28804   4.510   4.845   5.893
 7025WAT      O28805   4.176   4.346   6.173
 7025WAT     H128806   4.107   4.386   6.207
 7025WAT     H228807   4.244   4.389   6.206
 7025WAT    EPW28808   4.176   4.358   6.183
 7026WAT      O28809   4.714   4.605   6.831
 7026WAT     H128810   4.791   4.566   6.839
 7026WAT     H228811   4.667   4.572   6.896
 7026WAT    EPW28812   4.718   4.595   6.841
 7027WAT      O28813   3.483   3.700   6.407
 7027WAT     H128814   3.520   3.762   6.359
 7027WAT     H228815   3.550   3.653   6.436
 7027WAT    EPW28816   3.498   3.702   6.404
 7028WAT      O28817   3.260   3.545   6.335
 7028WAT     H128818   3.268   3.528   6.249
 7028WAT     H228819   3.335   3.585   6.354
 7028WAT    EPW28820   3.273   3.548   6.325
 7029WAT      O28821   4.816   3.809   5.379
 7029WAT     H128822   4.827   3.803   5.292
 7029WAT     H228823   4.890   3.776   5.411
 7029WAT    EPW28824   4.829   3.803   5.371
 7030WAT      O28825   3.516   3.286   6.576
 7030WAT     H128826   3.508   3.201   6.596
 7030WAT     H228827   3.484   3.290   6.495
 7030WAT    EPW28828   3.510   3.274   6.567
 7031WAT      O28829   4.727   3.823   6.314
 7031WAT     H128830   4.726   3.737   6.327
 7031WAT     H228831   4.733   3.856   6.395
 7031WAT    EPW28832   4.728   3.815   6.328
 7032WAT      O28833   3.200   4.067   6.357
 7032WAT     H128834   3.232   4.089   6.279
 7032WAT     H228835   3.190   3.981   6.352
 7032WAT    EPW28836   3.203   4.058   6.345
 7033WAT      O28837   4.314   3.303   6.693
 7033WAT     H128838   4.324   3.375   6.742
 7033WAT     H228839   4.251   3.259   6.732
 7033WAT    EPW28840   4.306   3.307   6.706
 7034WAT      O28841   4.214   3.322   5.778
 7034WAT     H128842   4.144   3.374   5.772
 7034WAT     H228843   4.218   3.284   5.700
 7034WAT    EPW28844   4.204   3.324   5.766
 7035WAT      O28845   4.574   3.374   6.058
 7035WAT     H128846   4.659   3.384   6.072
 7035WAT     H228847   4.537   3.429   6.114
 7035WAT    EPW28848   4.581   3.384   6.068
 7036WAT      O28849   3.676   3.997   6.496
 7036WAT     H128850   3.637   4.074   6.503
 7036WAT     H228851   3.636   3.959   6.428
 7036WAT    EPW28852   3.665   4.002   6.487
 7037WAT      O28853   4.604   3.902   5.907
 7037WAT     H128854   4.671   3.956   5.923
 7037WAT     H228855   4.570   3.933   5.833
 7037WAT    EPW28856   4.609   3.915   5.899
 7038WAT      O28857   4.635   4.709   5.488
 7038WAT     H128858   4.618   4.643   5.543
 7038WAT     H228859   4.707   4.681   5.445
 7038WAT    EPW28860   4.643   4.695   5.490
 7039WAT      O28861   3.719   3.294   6.241
 7039WAT     H128862   3.633   3.303   6.249
 7039WAT     H228863   3.741   3.243   6.308
 7039WAT    EPW28864   3.710   3.288   6.252
 7040WAT      O28865   4.921   3.158   6.374
 7040WAT     H128866   4.916   3.153   6.461
 7040WAT     H228867   4.990   3.107   6.355
 7040WAT    EPW28868   4.931   3.150   6.384
 7041WAT      O28869   4.130   3.369   6.078
 7041WAT     H128870   4.056   3.324   6.089
 7041WAT     H228871   4.187   3.329   6.130
 7041WAT    EPW28872   4.127   3.356   6.087
 7042WAT      O28873   4.403   4.454   6.257
 7042WAT     H128874   4.423   4.484   6.336
 7042WAT     H228875   4.397   4.526   6.208
 7042WAT    EPW28876   4.405   4.469   6.261
 7043WAT      O28877   4.356   4.875   6.681
 7043WAT     H128878   4.281   4.873   6.637
 7043WAT     H228879   4.373   4.960   6.690
 7043WAT    EPW28880   4.348   4.888   6.676
 7044WAT      O28881   3.880   3.802   6.598
 7044WAT     H128882   3.848   3.744   6.541
 7044WAT     H228883   3.844   3.877   6.574
 7044WAT    EPW28884   3.870   3.805   6.586
 7045WAT      O28885   4.884   4.318   6.203
 7045WAT     H128886   4.881   4.232   6.189
 7045WAT     H228887   4.815   4.348   6.159
 7045WAT    EPW28888   4.873   4.309   6.194
 7046WAT      O28889   3.723   4.838   6.623
 7046WAT     H128890   3.728   4.850   6.710
 7046WAT     H228891   3.789   4.782   6.608
 7046WAT    EPW28892   3.734   4.831   6.634
 7047WAT      O28893   4.695   4.644   6.082
 7047WAT     H128894   4.747   4.635   6.013
 7047WAT     H228895   4.655   4.566   6.088
 7047WAT    EPW28896   4.697   4.631   6.073
 7048WAT      O28897   3.441   3.303   6.305
 7048WAT     H128898   3.407   3.226   6.282
 7048WAT     H228899   3.372   3.355   6.312
 7048WAT    EPW28900   3.426   3.299   6.303
 7049WAT      O28901   4.346   3.188   6.003
 7049WAT     H128902   4.413   3.243   6.016
 7049WAT     H228903   4.296   3.231   5.946
 7049WAT    EPW28904   4.348   3.202   5.997
 7050WAT      O28905   3.483   4.676   6.759
 7050WAT     H128906   3.542   4.719   6.806
 7050WAT     H228907   3.446   4.738   6.710
 7050WAT    EPW28908   3.486   4.691   6.759
 7051WAT      O28909   4.282   3.769   5.752
 7051WAT     H128910   4.337   3.708   5.782
 7051WAT     H228911   4.239   3.795   5.824
 7051WAT    EPW28912   4.284   3.764   5.767
 7052WAT      O28913   3.275   4.475   6.452
 7052WAT     H128914   3.218   4.516   6.503
 7052WAT     H228915   3.349   4.521   6.462
 7052WAT    EPW28916   3.278   4.488   6.461
 7053WAT      O28917   4.479   3.952   5.409
 7053WAT     H128918   4.486   3.867   5.427
 7053WAT     H228919   4.397   3.961   5.381
 7053WAT    EPW28920   4.468   3.941   5.407
 7054WAT      O28921   4.787   4.848   5.050
 7054WAT     H128922   4.850   4.834   5.109
 7054WAT     H228923   4.753   4.768   5.039
 7054WAT    EPW28924   4.791   4.834   5.057
 7055WAT      O28925   4.806   4.089   6.724
 7055WAT     H128926   4.870   4.072   6.781
 7055WAT     H228927   4.848   4.130   6.659
 7055WAT    EPW28928   4.822   4.093   6.723
 7056WAT      O28929   4.394   4.474   5.283
 7056WAT     H128930   4.369   4.461   5.365
 7056WAT     H228931   4.363   4.405   5.241
 7056WAT    EPW28932   4.386   4.462   5.289
 7057WAT      O28933   4.869   3.546   6.798
 7057WAT     H128934   4.849   3.610   6.853
 7057WAT     H228935   4.797   3.497   6.797
 7057WAT    EPW28936   4.855   3.548   6.806
 7058WAT      O28937   4.547   4.100   6.859
 7058WAT     H128938   4.634   4.097   6.856
 7058WAT     H228939   4.525   4.142   6.786
 7058WAT    EPW28940   4.557   4.106   6.848
 7059WAT      O28941   3.523   4.683   5.977
 7059WAT     H128942   3.515   4.602   5.946
 7059WAT     H228943   3.478   4.732   5.920
 7059WAT    EPW28944   3.515   4.678   5.964
 7060WAT      O28945   3.280   4.907   6.335
 7060WAT     H128946   3.329   4.902   6.407
 7060WAT     H228947   3.299   4.834   6.292
 7060WAT    EPW28948   3.290   4.896   6.340
 7061WAT      O28949   3.332   4.643   3.178
 7061WAT     H128950   3.378   4.652   3.105
 7061WAT     H228951   3.377   4.585   3.225
 7061WAT    EPW28952   3.345   4.636   3.174
 7062WAT      O28953   3.167   4.737   3.799
 7062WAT     H128954   3.108   4.793   3.768
 7062WAT     H228955   3.209   4.710   3.728
 7062WAT    EPW28956   3.164   4.741   3.784
 7063WAT      O28957   3.321   4.604   3.592
 7063WAT     H128958   3.387   4.547   3.594
 7063WAT     H228959   3.360   4.679   3.570
 7063WAT    EPW28960   3.337   4.607   3.589
 7064WAT      O28961   3.726   4.738   3.872
 7064WAT     H128962   3.811   4.749   3.852
 7064WAT     H228963   3.696   4.820   3.879
 7064WAT    EPW28964   3.734   4.752   3.870
 7065WAT      O28965   4.862   3.346   4.255
 7065WAT     H128966   4.938   3.353   4.213
 7065WAT     H228967   4.868   3.269   4.295
 7065WAT    EPW28968   4.874   3.336   4.255
 7066WAT      O28969   4.999   4.671   4.700
 7066WAT     H128970   4.931   4.702   4.655
 7066WAT     H228971   4.962   4.625   4.764
 7066WAT    EPW28972   4.983   4.668   4.703
 7067WAT      O28973   3.142   4.358   3.963
 7067WAT     H128974   3.075   4.407   3.991
 7067WAT     H228975   3.210   4.412   3.966
 7067WAT    EPW28976   3.142   4.373   3.968
 7068WAT      O28977   5.016   3.797   4.434
 7068WAT     H128978   5.038   3.717   4.406
 7068WAT     H228979   4.931   3.803   4.415
 7068WAT    EPW28980   5.007   3.786   4.427
 7069WAT      O28981   4.790   3.146   4.826
 7069WAT     H128982   4.726   3.106   4.781
 7069WAT     H228983   4.793   3.103   4.901
 7069WAT    EPW28984   4.781   3.134   4.830
 7070WAT      O28985   4.621   4.370   4.140
 7070WAT     H128986   4.573   4.400   4.073
 7070WAT     H228987   4.585   4.292   4.157
 7070WAT    EPW28988   4.609   4.363   4.132
 7071WAT      O28989   4.714   4.064   4.252
 7071WAT     H128990   4.713   3.987   4.291
 7071WAT     H228991   4.630   4.088   4.251
 7071WAT    EPW28992   4.702   4.056   4.257
 7072WAT      O28993   4.840   4.071   3.995
 7072WAT     H128994   4.811   4.111   4.067
 7072WAT     H228995   4.926   4.065   4.008
 7072WAT    EPW28996   4.848   4.076   4.008
 7073WAT      O28997   4.953   4.635   4.048
 7073WAT     H128998   4.982   4.660   3.970
 7073WAT     H228999   5.022   4.644   4.100
 7073WAT    EPW29000   4.967   4.640   4.044
 7074WAT      O29001   4.952   3.907   4.967
 7074WAT     H129002   4.947   3.873   4.887
 7074WAT     H229003   5.025   3.953   4.965
 7074WAT    EPW29004   4.962   3.909   4.955
 7075WAT      O29005   4.906   4.274   4.587
 7075WAT     H129006   4.968   4.219   4.562
 7075WAT     H229007   4.899   4.331   4.521
 7075WAT    EPW29008   4.914   4.275   4.574
 7076WAT      O29009   4.953   3.814   4.710
 7076WAT     H129010   4.867   3.802   4.722
 7076WAT     H229011   4.968   3.775   4.633
 7076WAT    EPW29012   4.943   3.807   4.700
 7077WAT      O29013   4.506   4.837   3.979
 7077WAT     H129014   4.461   4.901   4.017
 7077WAT     H229015   4.577   4.829   4.029
 7077WAT    EPW29016   4.510   4.845   3.992
 7078WAT      O29017   4.727   3.823   4.414
 7078WAT     H129018   4.726   3.737   4.426
 7078WAT     H229019   4.733   3.856   4.494
 7078WAT    EPW29020   4.728   3.815   4.427
 7079WAT      O29021   4.604   3.902   4.006
 7079WAT     H129022   4.671   3.956   4.022
 7079WAT     H229023   4.570   3.933   3.933
 7079WAT    EPW29024   4.609   3.915   3.998
 7080WAT      O29025   4.921   3.158   4.473
 7080WAT     H129026   4.916   3.153   4.560
 7080WAT     H229027   4.990   3.107   4.454
 7080WAT    EPW29028   4.931   3.150   4.483
 7081WAT      O29029   4.884   4.318   4.302
 7081WAT     H129030   4.881   4.232   4.289
 7081WAT     H229031   4.815   4.348   4.259
 7081WAT    EPW29032   4.873   4.309   4.294
 7082WAT      O29033   4.695   4.644   4.182
 7082WAT     H129034   4.747   4.635   4.113
 7082WAT     H229035   4.655   4.566   4.187
 7082WAT    EPW29036   4.697   4.631   4.172
 7083WAT      O29037   3.454   4.801   3.429
 7083WAT     H129038   3.440   4.817   3.344
 7083WAT     H229039   3.541   4.809   3.437
 7083WAT    EPW29040   3.465   4.805   3.418
 7084WAT      O29041   4.869   3.546   4.897
 7084WAT     H129042   4.849   3.610   4.952
 7084WAT     H229043   4.797   3.497   4.896
 7084WAT    EPW29044   4.855   3.548   4.905
 7085WAT      O29045   4.224   3.159   1.749
 7085WAT     H129046   4.199   3.208   1.681
 7085WAT     H229047   4.310   3.152   1.739
 7085WAT    EPW29048   4.233   3.165   1.737
 7086WAT      O29049   3.192   4.265   1.762
 7086WAT     H129050   3.147   4.276   1.836
 7086WAT     H229051   3.163   4.187   1.733
 7086WAT    EPW29052   3.181   4.255   1.768
 7087WAT      O29053   4.819   4.595   1.513
 7087WAT     H129054   4.889   4.543   1.513
 7087WAT     H229055   4.760   4.550   1.466
 7087WAT    EPW29056   4.821   4.580   1.506
 7088WAT      O29057   3.166   3.644   1.412
 7088WAT     H129058   3.088   3.660   1.376
 7088WAT     H229059   3.170   3.557   1.415
 7088WAT    EPW29060   3.155   3.633   1.407
 7089WAT      O29061   3.480   4.170   1.280
 7089WAT     H129062   3.441   4.133   1.211
 7089WAT     H229063   3.472   4.110   1.342
 7089WAT    EPW29064   3.473   4.156   1.279
 7090WAT      O29065   3.442   4.334   1.670
 7090WAT     H129066   3.503   4.317   1.730
 7090WAT     H229067   3.367   4.320   1.712
 7090WAT    EPW29068   3.440   4.330   1.685
 7091WAT      O29069   3.871   3.268   1.664
 7091WAT     H129070   3.864   3.335   1.610
 7091WAT     H229071   3.945   3.229   1.640
 7091WAT    EPW29072   3.881   3.272   1.653
 7092WAT      O29073   3.332   4.643   1.277
 7092WAT     H129074   3.378   4.652   1.204
 7092WAT     H229075   3.377   4.585   1.324
 7092WAT    EPW29076   3.345   4.636   1.273
 7093WAT      O29077   3.186   4.538   2.387
 7093WAT     H129078   3.198   4.510   2.469
 7093WAT     H229079   3.125   4.484   2.356
 7093WAT    EPW29080   3.178   4.526   2.395
 7094WAT      O29081   3.330   3.990   1.807
 7094WAT     H129082   3.284   3.951   1.745
 7094WAT     H229083   3.400   3.939   1.817
 7094WAT    EPW29084   3.334   3.977   1.799
 7095WAT      O29085   3.781   3.551   2.342
 7095WAT     H129086   3.849   3.553   2.287
 7095WAT     H229087   3.776   3.468   2.367
 7095WAT    EPW29088   3.790   3.539   2.338
 7096WAT      O29089   3.841   4.610   2.620
 7096WAT     H129090   3.855   4.686   2.579
 7096WAT     H229091   3.920   4.573   2.623
 7096WAT    EPW29092   3.855   4.616   2.615
 7097WAT      O29093   3.530   3.800   1.810
 7097WAT     H129094   3.612   3.781   1.834
 7097WAT     H229095   3.483   3.739   1.849
 7097WAT    EPW29096   3.535   3.788   1.819
 7098WAT      O29097   3.951   4.398   2.071
 7098WAT     H129098   3.985   4.318   2.074
 7098WAT     H229099   4.017   4.449   2.045
 7098WAT    EPW29100   3.966   4.394   2.067
 7099WAT      O29101   3.956   4.343   1.692
 7099WAT     H129102   3.989   4.279   1.740
 7099WAT     H229103   3.980   4.322   1.611
 7099WAT    EPW29104   3.965   4.331   1.687
 7100WAT      O29105   4.153   3.756   2.826
 7100WAT     H129106   4.068   3.746   2.808
 7100WAT     H229107   4.156   3.831   2.871
 7100WAT    EPW29108   4.141   3.766   2.830
 7101WAT      O29109   3.590   3.310   1.736
 7101WAT     H129110   3.560   3.360   1.671
 7101WAT     H229111   3.677   3.317   1.731
 7101WAT    EPW29112   3.598   3.318   1.726
 7102WAT      O29113   3.888   3.224   1.959
 7102WAT     H129114   3.895   3.310   1.971
 7102WAT     H229115   3.884   3.216   1.872
 7102WAT    EPW29116   3.888   3.235   1.948
 7103WAT      O29117   4.355   3.516   1.188
 7103WAT     H129118   4.310   3.584   1.219
 7103WAT     H229119   4.367   3.466   1.259
 7103WAT    EPW29120   4.350   3.519   1.203
 7104WAT      O29121   3.176   3.766   2.109
 7104WAT     H129122   3.150   3.849   2.101
 7104WAT     H229123   3.109   3.728   2.150
 7104WAT    EPW29124   3.162   3.773   2.114
 7105WAT      O29125   3.167   4.737   1.899
 7105WAT     H129126   3.108   4.793   1.867
 7105WAT     H229127   3.209   4.710   1.827
 7105WAT    EPW29128   3.164   4.741   1.884
 7106WAT      O29129   3.751   4.522   1.647
 7106WAT     H129130   3.693   4.494   1.706
 7106WAT     H229131   3.813   4.461   1.649
 7106WAT    EPW29132   3.751   4.509   1.656
 7107WAT      O29133   4.365   4.750   1.399
 7107WAT     H129134   4.438   4.798   1.409
 7107WAT     H229135   4.388   4.671   1.427
 7107WAT    EPW29136   4.379   4.746   1.405
 7108WAT      O29137   3.479   3.248   2.158
 7108WAT     H129138   3.427   3.185   2.127
 7108WAT     H229139   3.538   3.204   2.205
 7108WAT    EPW29140   3.480   3.232   2.160
 7109WAT      O29141   3.321   4.604   1.692
 7109WAT     H129142   3.387   4.547   1.693
 7109WAT     H229143   3.360   4.679   1.670
 7109WAT    EPW29144   3.337   4.607   1.689
 7110WAT      O29145   4.426   4.791   2.428
 7110WAT     H129146   4.500   4.836   2.427
 7110WAT     H229147   4.414   4.769   2.345
 7110WAT    EPW29148   4.435   4.794   2.416
 7111WAT      O29149   3.403   4.453   2.042
 7111WAT     H129150   3.445   4.417   1.974
 7111WAT     H229151   3.435   4.411   2.111
 7111WAT    EPW29152   3.414   4.441   2.042
 7112WAT      O29153   3.726   4.738   1.971
 7112WAT     H129154   3.811   4.749   1.952
 7112WAT     H229155   3.696   4.820   1.978
 7112WAT    EPW29156   3.734   4.752   1.969
 7113WAT      O29157   4.107   3.678   1.780
 7113WAT     H129158   4.136   3.655   1.701
 7113WAT     H229159   4.180   3.686   1.827
 7113WAT    EPW29160   4.122   3.676   1.775
 7114WAT      O29161   4.179   3.712   1.292
 7114WAT     H129162   4.207   3.791   1.317
 7114WAT     H229163   4.101   3.728   1.256
 7114WAT    EPW29164   4.172   3.726   1.290
 7115WAT      O29165   4.583   4.909   1.439
 7115WAT     H129166   4.650   4.894   1.384
 7115WAT     H229167   4.619   4.901   1.518
 7115WAT    EPW29168   4.598   4.906   1.442
 7116WAT      O29169   3.626   4.860   2.545
 7116WAT     H129170   3.655   4.853   2.627
 7116WAT     H229171   3.563   4.800   2.541
 7116WAT    EPW29172   3.621   4.850   2.557
 7117WAT      O29173   3.117   3.476   2.745
 7117WAT     H129174   3.117   3.534   2.809
 7117WAT     H229175   3.177   3.507   2.689
 7117WAT    EPW29176   3.126   3.489   2.746
 7118WAT      O29177   4.065   4.529   1.274
 7118WAT     H129178   4.047   4.583   1.339
 7118WAT     H229179   4.142   4.558   1.244
 7118WAT    EPW29180   4.074   4.541   1.279
 7119WAT      O29181   4.416   3.318   1.379
 7119WAT     H129182   4.470   3.250   1.387
 7119WAT     H229183   4.422   3.358   1.457
 7119WAT    EPW29184   4.425   3.314   1.392
 7120WAT      O29185   3.211   3.435   1.636
 7120WAT     H129186   3.200   3.349   1.639
 7120WAT     H229187   3.164   3.465   1.703
 7120WAT    EPW29188   3.202   3.427   1.646
 7121WAT      O29189   3.425   4.676   2.458
 7121WAT     H129190   3.355   4.625   2.470
 7121WAT     H229191   3.451   4.656   2.377
 7121WAT    EPW29192   3.419   4.666   2.447
 7122WAT      O29193   4.141   3.556   1.511
 7122WAT     H129194   4.091   3.490   1.485
 7122WAT     H229195   4.147   3.606   1.440
 7122WAT    EPW29196   4.135   3.554   1.496
 7123WAT      O29197   4.141   3.250   1.500
 7123WAT     H129198   4.096   3.210   1.437
 7123WAT     H229199   4.219   3.266   1.462
 7123WAT    EPW29200   4.146   3.247   1.485
 7124WAT      O29201   4.824   4.886   1.839
 7124WAT     H129202   4.779   4.958   1.859
 7124WAT     H229203   4.763   4.829   1.814
 7124WAT    EPW29204   4.808   4.888   1.838
 7125WAT      O29205   4.524   4.470   1.793
 7125WAT     H129206   4.594   4.422   1.812
 7125WAT     H229207   4.458   4.413   1.798
 7125WAT    EPW29208   4.524   4.455   1.796
 7126WAT      O29209   3.561   4.561   2.714
 7126WAT     H129210   3.645   4.568   2.692
 7126WAT     H229211   3.558   4.601   2.792
 7126WAT    EPW29212   3.573   4.568   2.722
 7127WAT      O29213   3.758   4.112   2.189
 7127WAT     H129214   3.775   4.091   2.272
 7127WAT     H229215   3.692   4.059   2.168
 7127WAT    EPW29216   3.751   4.101   2.198
 7128WAT      O29217   4.450   4.176   2.361
 7128WAT     H129218   4.399   4.135   2.418
 7128WAT     H229219   4.438   4.260   2.379
 7128WAT    EPW29220   4.441   4.182   2.372
 7129WAT      O29221   3.115   4.543   3.069
 7129WAT     H129222   3.190   4.578   3.095
 7129WAT     H229223   3.132   4.458   3.064
 7129WAT    EPW29224   3.129   4.536   3.072
 7130WAT      O29225   3.507   3.450   1.952
 7130WAT     H129226   3.534   3.407   1.881
 7130WAT     H229227   3.489   3.387   2.009
 7130WAT    EPW29228   3.508   3.434   1.950
 7131WAT      O29229   4.776   4.220   1.374
 7131WAT     H129230   4.788   4.191   1.455
 7131WAT     H229231   4.856   4.222   1.341
 7131WAT    EPW29232   4.789   4.216   1.381
 7132WAT      O29233   3.489   4.193   1.907
 7132WAT     H129234   3.574   4.185   1.890
 7132WAT     H229235   3.454   4.125   1.866
 7132WAT    EPW29236   3.497   4.182   1.898
 7133WAT      O29237   3.366   4.865   2.031
 7133WAT     H129238   3.299   4.816   2.006
 7133WAT     H229239   3.406   4.884   1.956
 7133WAT    EPW29240   3.362   4.861   2.016
 7134WAT      O29241   3.321   3.560   2.260
 7134WAT     H129242   3.405   3.582   2.256
 7134WAT     H229243   3.282   3.618   2.207
 7134WAT    EPW29244   3.328   3.572   2.252
 7135WAT      O29245   4.565   3.873   1.332
 7135WAT     H129246   4.543   3.946   1.290
 7135WAT     H229247   4.520   3.878   1.407
 7135WAT    EPW29248   4.555   3.885   1.337
 7136WAT      O29249   3.726   4.194   1.730
 7136WAT     H129250   3.797   4.243   1.739
 7136WAT     H229251   3.748   4.137   1.668
 7136WAT    EPW29252   3.740   4.192   1.723
 7137WAT      O29253   4.984   3.359   1.278
 7137WAT     H129254   4.918   3.303   1.280
 7137WAT     H229255   4.965   3.411   1.210
 7137WAT    EPW29256   4.971   3.359   1.268
 7138WAT      O29257   3.142   4.358   2.062
 7138WAT     H129258   3.075   4.407   2.090
 7138WAT     H229259   3.210   4.412   2.065
 7138WAT    EPW29260   3.142   4.373   2.067
 7139WAT      O29261   3.148   4.026   1.573
 7139WAT     H129262   3.130   3.942   1.588
 7139WAT     H229263   3.214   4.023   1.516
 7139WAT    EPW29264   3.155   4.013   1.567
 7140WAT      O29265   4.784   3.315   1.506
 7140WAT     H129266   4.859   3.275   1.525
 7140WAT     H229267   4.810   3.387   1.463
 7140WAT    EPW29268   4.799   3.320   1.502
 7141WAT      O29269   4.178   4.564   1.963
 7141WAT     H129270   4.126   4.627   1.934
 7141WAT     H229271   4.209   4.527   1.890
 7141WAT    EPW29272   4.175   4.568   1.948
 7142WAT      O29273   3.165   4.443   1.530
 7142WAT     H129274   3.221   4.500   1.567
 7142WAT     H229275   3.142   4.391   1.597
 7142WAT    EPW29276   3.170   4.443   1.545
 7143WAT      O29277   3.586   4.343   2.239
 7143WAT     H129278   3.633   4.372   2.307
 7143WAT     H229279   3.643   4.295   2.194
 7143WAT    EPW29280   3.601   4.340   2.242
 7144WAT      O29281   3.148   4.288   1.293
 7144WAT     H129282   3.224   4.244   1.299
 7144WAT     H229283   3.150   4.341   1.362
 7144WAT    EPW29284   3.160   4.289   1.304
 7145WAT      O29285   3.242   4.110   2.094
 7145WAT     H129286   3.286   4.097   2.019
 7145WAT     H229287   3.222   4.194   2.091
 7145WAT    EPW29288   3.246   4.120   2.082
 7146WAT      O29289   3.877   3.466   1.459
 7146WAT     H129290   3.877   3.454   1.372
 7146WAT     H229291   3.859   3.551   1.468
 7146WAT    EPW29292   3.874   3.477   1.447
 7147WAT      O29293   4.782   4.709   2.608
 7147WAT     H129294   4.715   4.760   2.630
 7147WAT     H229295   4.789   4.719   2.522
 7147WAT    EPW29296   4.773   4.718   2.599
 7148WAT      O29297   3.651   4.461   1.922
 7148WAT     H129298   3.663   4.546   1.940
 7148WAT     H229299   3.718   4.421   1.961
 7148WAT    EPW29300   3.663   4.468   1.930
 7149WAT      O29301   3.512   3.749   1.422
 7149WAT     H129302   3.500   3.704   1.496
 7149WAT     H229303   3.454   3.715   1.367
 7149WAT    EPW29304   3.502   3.738   1.425
 7150WAT      O29305   3.529   3.932   2.082
 7150WAT     H129306   3.451   3.926   2.044
 7150WAT     H229307   3.536   3.857   2.126
 7150WAT    EPW29308   3.519   3.920   2.083
 7151WAT      O29309   3.572   3.906   2.429
 7151WAT     H129310   3.575   3.838   2.374
 7151WAT     H229311   3.507   3.956   2.397
 7151WAT    EPW29312   3.563   3.903   2.416
 7152WAT      O29313   3.982   4.784   2.368
 7152WAT     H129314   3.954   4.720   2.316
 7152WAT     H229315   3.961   4.856   2.324
 7152WAT    EPW29316   3.975   4.785   2.354
 7153WAT      O29317   4.512   4.262   2.810
 7153WAT     H129318   4.561   4.334   2.820
 7153WAT     H229319   4.552   4.219   2.745
 7153WAT    EPW29320   4.525   4.266   2.802
 7154WAT      O29321   4.755   4.325   1.817
 7154WAT     H129322   4.791   4.290   1.889
 7154WAT     H229323   4.754   4.259   1.760
 7154WAT    EPW29324   4.760   4.310   1.819
 7155WAT      O29325   4.360   4.632   2.202
 7155WAT     H129326   4.299   4.602   2.146
 7155WAT     H229327   4.414   4.677   2.151
 7155WAT    EPW29328   4.359   4.634   2.186
 7156WAT      O29329   4.361   4.317   2.142
 7156WAT     H129330   4.281   4.339   2.169
 7156WAT     H229331   4.387   4.257   2.200
 7156WAT    EPW29332   4.353   4.311   2.154
 7157WAT      O29333   3.750   4.798   1.587
 7157WAT     H129334   3.735   4.720   1.624
 7157WAT     H229335   3.819   4.783   1.535
 7157WAT    EPW29336   3.758   4.784   1.584
 7158WAT      O29337   3.717   3.172   1.385
 7158WAT     H129338   3.727   3.162   1.471
 7158WAT     H229339   3.646   3.223   1.379
 7158WAT    EPW29340   3.708   3.178   1.397
 7159WAT      O29341   3.979   4.750   1.427
 7159WAT     H129342   4.042   4.766   1.486
 7159WAT     H229343   3.983   4.819   1.374
 7159WAT    EPW29344   3.989   4.762   1.428
 7160WAT      O29345   4.687   4.117   2.626
 7160WAT     H129346   4.692   4.129   2.540
 7160WAT     H229347   4.762   4.149   2.657
 7160WAT    EPW29348   4.699   4.123   2.618
 7161WAT      O29349   3.429   4.003   1.510
 7161WAT     H129350   3.462   3.925   1.487
 7161WAT     H229351   3.494   4.040   1.555
 7161WAT    EPW29352   3.444   3.997   1.513
 7162WAT      O29353   3.129   3.169   1.606
 7162WAT     H129354   3.142   3.098   1.557
 7162WAT     H229355   3.092   3.137   1.679
 7162WAT    EPW29356   3.126   3.154   1.610
 7163WAT      O29357   4.098   3.937   1.652
 7163WAT     H129358   4.104   4.002   1.710
 7163WAT     H229359   4.080   3.868   1.701
 7163WAT    EPW29360   4.097   3.936   1.668
 7164WAT      O29361   4.621   4.370   2.239
 7164WAT     H129362   4.573   4.400   2.172
 7164WAT     H229363   4.585   4.292   2.257
 7164WAT    EPW29364   4.609   4.363   2.232
 7165WAT      O29365   3.548   3.389   1.303
 7165WAT     H129366   3.497   3.394   1.233
 7165WAT     H229367   3.626   3.413   1.274
 7165WAT    EPW29368   3.552   3.393   1.289
 7166WAT      O29369   4.021   4.142   2.095
 7166WAT     H129370   3.936   4.122   2.103
 7166WAT     H229371   4.053   4.125   2.175
 7166WAT    EPW29372   4.013   4.137   2.108
 7167WAT      O29373   3.696   4.815   1.184
 7167WAT     H129374   3.740   4.745   1.213
 7167WAT     H229375   3.717   4.877   1.241
 7167WAT    EPW29376   3.706   4.814   1.197
 7168WAT      O29377   3.406   4.111   2.327
 7168WAT     H129378   3.478   4.160   2.323
 7168WAT     H229379   3.379   4.108   2.244
 7168WAT    EPW29380   3.412   4.118   2.314
 7169WAT      O29381   3.729   3.628   2.000
 7169WAT     H129382   3.813   3.609   2.010
 7169WAT     H229383   3.692   3.551   1.987
 7169WAT    EPW29384   3.736   3.614   2.000
 7170WAT      O29385   4.990   4.787   1.433
 7170WAT     H129386   5.060   4.740   1.408
 7170WAT     H229387   4.936   4.727   1.467
 7170WAT    EPW29388   4.993   4.771   1.434
 7171WAT      O29389   3.211   3.762   1.666
 7171WAT     H129390   3.260   3.733   1.732
 7171WAT     H229391   3.224   3.703   1.603
 7171WAT    EPW29392   3.220   3.749   1.666
 7172WAT      O29393   3.663   3.905   1.214
 7172WAT     H129394   3.602   3.865   1.262
 7172WAT     H229395   3.625   3.917   1.137
 7172WAT    EPW29396   3.648   3.901   1.210
 7173WAT      O29397   4.840   4.071   2.095
 7173WAT     H129398   4.811   4.111   2.167
 7173WAT     H229399   4.926   4.065   2.107
 7173WAT    EPW29400   4.848   4.076   2.107
 7174WAT      O29401   3.809   3.752   1.485
 7174WAT     H129402   3.836   3.834   1.492
 7174WAT     H229403   3.722   3.759   1.476
 7174WAT    EPW29404   3.800   3.765   1.485
 7175WAT      O29405   3.157   3.349   2.139
 7175WAT     H129406   3.161   3.383   2.059
 7175WAT     H229407   3.232   3.372   2.176
 7175WAT    EPW29408   3.168   3.357   2.133
 7176WAT      O29409   4.953   4.635   2.148
 7176WAT     H129410   4.982   4.660   2.069
 7176WAT     H229411   5.022   4.644   2.199
 7176WAT    EPW29412   4.967   4.640   2.144
 7177WAT      O29413   4.455   3.821   2.956
 7177WAT     H129414   4.462   3.831   3.043
 7177WAT     H229415   4.392   3.876   2.934
 7177WAT    EPW29416   4.447   3.830   2.966
 7178WAT      O29417   4.613   4.495   1.346
 7178WAT     H129418   4.647   4.414   1.349
 7178WAT     H229419   4.538   4.488   1.389
 7178WAT    EPW29420   4.607   4.482   1.353
 7179WAT      O29421   4.351   4.282   1.286
 7179WAT     H129422   4.419   4.231   1.269
 7179WAT     H229423   4.309   4.287   1.210
 7179WAT    EPW29424   4.355   4.276   1.272
 7180WAT      O29425   3.819   4.397   2.416
 7180WAT     H129426   3.789   4.457   2.473
 7180WAT     H229427   3.824   4.442   2.342
 7180WAT    EPW29428   3.815   4.413   2.414
 7181WAT      O29429   3.997   4.779   1.888
 7181WAT     H129430   4.052   4.847   1.894
 7181WAT     H229431   3.962   4.787   1.809
 7181WAT    EPW29432   4.000   4.790   1.877
 7182WAT      O29433   3.815   4.602   2.227
 7182WAT     H129434   3.753   4.660   2.209
 7182WAT     H229435   3.840   4.573   2.149
 7182WAT    EPW29436   3.810   4.606   2.213
 7183WAT      O29437   4.637   4.520   2.777
 7183WAT     H129438   4.672   4.547   2.852
 7183WAT     H229439   4.666   4.578   2.719
 7183WAT    EPW29440   4.647   4.533   2.779
 7184WAT      O29441   4.823   3.735   1.310
 7184WAT     H129442   4.861   3.803   1.270
 7184WAT     H229443   4.739   3.757   1.314
 7184WAT    EPW29444   4.816   3.748   1.305
 7185WAT      O29445   3.975   4.079   1.219
 7185WAT     H129446   3.894   4.062   1.190
 7185WAT     H229447   3.971   4.165   1.238
 7185WAT    EPW29448   3.962   4.089   1.217
 7186WAT      O29449   3.568   3.686   2.234
 7186WAT     H129450   3.612   3.676   2.159
 7186WAT     H229451   3.622   3.655   2.294
 7186WAT    EPW29452   3.582   3.680   2.232
 7187WAT      O29453   4.593   3.695   1.648
 7187WAT     H129454   4.614   3.675   1.730
 7187WAT     H229455   4.668   3.722   1.614
 7187WAT    EPW29456   4.607   3.696   1.655
 7188WAT      O29457   4.739   4.097   1.633
 7188WAT     H129458   4.787   4.025   1.629
 7188WAT     H229459   4.657   4.069   1.626
 7188WAT    EPW29460   4.734   4.082   1.631
 7189WAT      O29461   3.179   3.224   2.842
 7189WAT     H129462   3.165   3.304   2.809
 7189WAT     H229463   3.100   3.200   2.871
 7189WAT    EPW29464   3.165   3.233   2.841
 7190WAT      O29465   3.485   3.499   1.564
 7190WAT     H129466   3.498   3.466   1.485
 7190WAT     H229467   3.404   3.474   1.584
 7190WAT    EPW29468   3.475   3.490   1.556
 7191WAT      O29469   4.361   4.214   1.869
 7191WAT     H129470   4.369   4.248   1.949
 7191WAT     H229471   4.378   4.129   1.881
 7191WAT    EPW29472   4.365   4.207   1.882
 7192WAT      O29473   4.113   4.142   1.825
 7192WAT     H129474   4.083   4.110   1.901
 7192WAT     H229475   4.183   4.189   1.849
 7192WAT    EPW29476   4.119   4.144   1.840
 7193WAT      O29477   4.404   3.881   2.667
 7193WAT     H129478   4.379   3.809   2.709
 7193WAT     H229479   4.486   3.892   2.694
 7193WAT    EPW29480   4.413   3.872   2.677
 7194WAT      O29481   3.346   4.859   2.793
 7194WAT     H129482   3.280   4.802   2.803
 7194WAT     H229483   3.308   4.936   2.808
 7194WAT    EPW29484   3.331   4.862   2.797
 7195WAT      O29485   4.506   4.837   2.078
 7195WAT     H129486   4.461   4.901   2.116
 7195WAT     H229487   4.577   4.829   2.129
 7195WAT    EPW29488   4.510   4.845   2.091
 7196WAT      O29489   4.176   4.346   2.371
 7196WAT     H129490   4.107   4.386   2.406
 7196WAT     H229491   4.244   4.389   2.405
 7196WAT    EPW29492   4.176   4.358   2.381
 7197WAT      O29493   3.483   3.700   2.606
 7197WAT     H129494   3.520   3.762   2.557
 7197WAT     H229495   3.550   3.653   2.635
 7197WAT    EPW29496   3.498   3.702   2.603
 7198WAT      O29497   3.260   3.545   2.534
 7198WAT     H129498   3.268   3.528   2.448
 7198WAT     H229499   3.335   3.585   2.553
 7198WAT    EPW29500   3.273   3.548   2.524
 7199WAT      O29501   4.816   3.809   1.578
 7199WAT     H129502   4.827   3.803   1.491
 7199WAT     H229503   4.890   3.776   1.609
 7199WAT    EPW29504   4.829   3.803   1.569
 7200WAT      O29505   4.208   4.505   1.688
 7200WAT     H129506   4.188   4.589   1.672
 7200WAT     H229507   4.131   4.467   1.700
 7200WAT    EPW29508   4.194   4.512   1.688
 7201WAT      O29509   3.200   4.067   2.556
 7201WAT     H129510   3.232   4.089   2.478
 7201WAT     H229511   3.190   3.981   2.550
 7201WAT    EPW29512   3.203   4.058   2.544
 7202WAT      O29513   3.346   3.661   1.218
 7202WAT     H129514   3.279   3.662   1.273
 7202WAT     H229515   3.355   3.576   1.199
 7202WAT    EPW29516   3.337   3.649   1.223
 7203WAT      O29517   3.745   4.531   1.329
 7203WAT     H129518   3.789   4.539   1.404
 7203WAT     H229519   3.664   4.510   1.355
 7203WAT    EPW29520   3.739   4.529   1.344
 7204WAT      O29521   4.635   4.709   1.687
 7204WAT     H129522   4.618   4.643   1.742
 7204WAT     H229523   4.707   4.681   1.644
 7204WAT    EPW29524   4.643   4.695   1.688
 7205WAT      O29525   3.477   4.438   1.389
 7205WAT     H129526   3.453   4.408   1.467
 7205WAT     H229527   3.474   4.368   1.338
 7205WAT    EPW29528   3.473   4.424   1.393
 7206WAT      O29529   3.759   4.263   1.264
 7206WAT     H129530   3.678   4.236   1.278
 7206WAT     H229531   3.757   4.348   1.282
 7206WAT    EPW29532   3.747   4.272   1.268
 7207WAT      O29533   4.403   4.454   2.456
 7207WAT     H129534   4.423   4.484   2.535
 7207WAT     H229535   4.397   4.526   2.407
 7207WAT    EPW29536   4.405   4.469   2.460
 7208WAT      O29537   3.960   3.127   1.260
 7208WAT     H129538   3.967   3.152   1.177
 7208WAT     H229539   3.885   3.165   1.286
 7208WAT    EPW29540   3.950   3.136   1.251
 7209WAT      O29541   4.884   4.318   2.401
 7209WAT     H129542   4.881   4.232   2.388
 7209WAT     H229543   4.815   4.348   2.358
 7209WAT    EPW29544   4.873   4.309   2.393
 7210WAT      O29545   3.723   4.838   2.822
 7210WAT     H129546   3.728   4.850   2.908
 7210WAT     H229547   3.789   4.782   2.806
 7210WAT    EPW29548   3.734   4.831   2.833
 7211WAT      O29549   3.441   3.303   2.504
 7211WAT     H129550   3.407   3.226   2.481
 7211WAT     H229551   3.372   3.355   2.511
 7211WAT    EPW29552   3.426   3.299   2.502
 7212WAT      O29553   3.483   4.676   2.958
 7212WAT     H129554   3.542   4.719   3.005
 7212WAT     H229555   3.446   4.738   2.909
 7212WAT    EPW29556   3.486   4.691   2.958
 7213WAT      O29557   3.307   3.634   1.900
 7213WAT     H129558   3.270   3.664   1.973
 7213WAT     H229559   3.360   3.571   1.928
 7213WAT    EPW29560   3.309   3.629   1.915
 7214WAT      O29561   3.275   4.475   2.651
 7214WAT     H129562   3.218   4.516   2.702
 7214WAT     H229563   3.349   4.521   2.660
 7214WAT    EPW29564   3.278   4.488   2.660
 7215WAT      O29565   4.479   3.952   1.607
 7215WAT     H129566   4.486   3.867   1.626
 7215WAT     H229567   4.397   3.961   1.580
 7215WAT    EPW29568   4.468   3.941   1.606
 7216WAT      O29569   3.454   4.801   1.528
 7216WAT     H129570   3.440   4.817   1.444
 7216WAT     H229571   3.541   4.809   1.536
 7216WAT    EPW29572   3.465   4.805   1.517
 7217WAT      O29573   3.871   4.041   1.501
 7217WAT     H129574   3.881   4.055   1.416
 7217WAT     H229575   3.953   4.035   1.531
 7217WAT    EPW29576   3.884   4.042   1.493
 7218WAT      O29577   4.787   4.848   1.249
 7218WAT     H129578   4.850   4.834   1.307
 7218WAT     H229579   4.753   4.768   1.238
 7218WAT    EPW29580   4.791   4.834   1.256
 7219WAT      O29581   4.394   4.474   1.481
 7219WAT     H129582   4.369   4.461   1.564
 7219WAT     H229583   4.363   4.405   1.439
 7219WAT    EPW29584   4.386   4.462   1.487
 7220WAT      O29585   3.523   4.683   2.176
 7220WAT     H129586   3.515   4.602   2.145
 7220WAT     H229587   3.478   4.732   2.119
 7220WAT    EPW29588   3.515   4.678   2.163
 7221WAT      O29589   4.083   4.295   1.424
 7221WAT     H129590   4.155   4.260   1.389
 7221WAT     H229591   4.079   4.375   1.390
 7221WAT    EPW29592   4.093   4.302   1.414
 7222WAT      O29593   3.280   4.907   2.534
 7222WAT     H129594   3.329   4.902   2.606
 7222WAT     H229595   3.299   4.834   2.491
 7222WAT    EPW29596   3.290   4.896   2.538
 7223WAT      O29597   4.205   3.851   0.315
 7223WAT     H129598   4.152   3.910   0.352
 7223WAT     H229599   4.244   3.814   0.384
 7223WAT    EPW29600   4.203   3.854   0.331
 7224WAT      O29601   3.186   4.538   0.487
 7224WAT     H129602   3.198   4.510   0.568
 7224WAT     H229603   3.125   4.484   0.456
 7224WAT    EPW29604   3.178   4.526   0.494
 7225WAT      O29605   3.843   4.291   0.993
 7225WAT     H129606   3.819   4.290   1.077
 7225WAT     H229607   3.768   4.276   0.951
 7225WAT    EPW29608   3.828   4.288   0.999
 7226WAT      O29609   3.781   3.551   0.441
 7226WAT     H129610   3.849   3.553   0.387
 7226WAT     H229611   3.776   3.468   0.466
 7226WAT    EPW29612   3.790   3.539   0.437
 7227WAT      O29613   3.841   4.610   0.720
 7227WAT     H129614   3.855   4.686   0.679
 7227WAT     H229615   3.920   4.573   0.722
 7227WAT    EPW29616   3.855   4.616   0.714
 7228WAT      O29617   4.153   3.756   0.925
 7228WAT     H129618   4.068   3.746   0.907
 7228WAT     H229619   4.156   3.831   0.970
 7228WAT    EPW29620   4.141   3.766   0.929
 7229WAT      O29621   4.609   3.052   0.836
 7229WAT     H129622   4.593   3.129   0.798
 7229WAT     H229623   4.532   3.030   0.871
 7229WAT    EPW29624   4.595   3.060   0.836
 7230WAT      O29625   3.176   3.766   0.208
 7230WAT     H129626   3.150   3.849   0.201
 7230WAT     H229627   3.109   3.728   0.250
 7230WAT    EPW29628   3.162   3.773   0.213
 7231WAT      O29629   3.479   3.248   0.257
 7231WAT     H129630   3.427   3.185   0.226
 7231WAT     H229631   3.538   3.204   0.304
 7231WAT    EPW29632   3.480   3.232   0.260
 7232WAT      O29633   3.809   3.461   1.187
 7232WAT     H129634   3.821   3.416   1.113
 7232WAT     H229635   3.838   3.541   1.167
 7232WAT    EPW29636   3.815   3.466   1.173
 7233WAT      O29637   4.426   4.791   0.528
 7233WAT     H129638   4.500   4.836   0.527
 7233WAT     H229639   4.414   4.769   0.444
 7233WAT    EPW29640   4.435   4.794   0.515
 7234WAT      O29641   3.383   3.421   1.085
 7234WAT     H129642   3.305   3.382   1.078
 7234WAT     H229643   3.432   3.380   1.026
 7234WAT    EPW29644   3.378   3.409   1.076
 7235WAT      O29645   4.047   3.185   1.002
 7235WAT     H129646   4.065   3.104   0.975
 7235WAT     H229647   4.033   3.229   0.928
 7235WAT    EPW29648   4.048   3.180   0.987
 7236WAT      O29649   3.626   4.860   0.645
 7236WAT     H129650   3.655   4.853   0.727
 7236WAT     H229651   3.563   4.800   0.640
 7236WAT    EPW29652   3.621   4.850   0.656
 7237WAT      O29653   4.862   3.346   0.454
 7237WAT     H129654   4.938   3.353   0.411
 7237WAT     H229655   4.868   3.269   0.494
 7237WAT    EPW29656   4.874   3.336   0.454
 7238WAT      O29657   3.117   3.476   0.844
 7238WAT     H129658   3.117   3.534   0.909
 7238WAT     H229659   3.177   3.507   0.788
 7238WAT    EPW29660   3.126   3.489   0.845
 7239WAT      O29661   4.351   4.509   0.898
 7239WAT     H129662   4.348   4.547   0.977
 7239WAT     H229663   4.437   4.505   0.881
 7239WAT    EPW29664   4.363   4.514   0.907
 7240WAT      O29665   3.425   4.676   0.557
 7240WAT     H129666   3.355   4.625   0.570
 7240WAT     H229667   3.451   4.656   0.476
 7240WAT    EPW29668   3.419   4.666   0.547
 7241WAT      O29669   4.196   4.826   0.648
 7241WAT     H129670   4.273   4.818   0.607
 7241WAT     H229671   4.138   4.813   0.584
 7241WAT    EPW29672   4.199   4.823   0.633
 7242WAT      O29673   3.561   4.561   0.814
 7242WAT     H129674   3.645   4.568   0.791
 7242WAT     H229675   3.558   4.601   0.891
 7242WAT    EPW29676   3.573   4.568   0.822
 7243WAT      O29677   3.758   4.112   0.289
 7243WAT     H129678   3.775   4.091   0.371
 7243WAT     H229679   3.692   4.059   0.267
 7243WAT    EPW29680   3.751   4.101   0.298
 7244WAT      O29681   4.380   3.504   0.640
 7244WAT     H129682   4.371   3.536   0.721
 7244WAT     H229683   4.321   3.440   0.636
 7244WAT    EPW29684   4.370   3.499   0.651
 7245WAT      O29685   3.833   4.106   0.548
 7245WAT     H129686   3.838   4.191   0.568
 7245WAT     H229687   3.804   4.069   0.621
 7245WAT    EPW29688   3.829   4.113   0.561
 7246WAT      O29689   4.450   4.176   0.461
 7246WAT     H129690   4.399   4.135   0.518
 7246WAT     H229691   4.438   4.260   0.479
 7246WAT    EPW29692   4.441   4.182   0.472
 7247WAT      O29693   3.115   4.543   1.169
 7247WAT     H129694   3.190   4.578   1.194
 7247WAT     H229695   3.132   4.458   1.163
 7247WAT    EPW29696   3.129   4.536   1.172
 7248WAT      O29697   4.752   3.522   0.754
 7248WAT     H129698   4.830   3.499   0.788
 7248WAT     H229699   4.705   3.544   0.824
 7248WAT    EPW29700   4.757   3.522   0.770
 7249WAT      O29701   3.321   3.560   0.360
 7249WAT     H129702   3.405   3.582   0.355
 7249WAT     H229703   3.282   3.618   0.307
 7249WAT    EPW29704   3.328   3.572   0.351
 7250WAT      O29705   4.999   4.671   0.899
 7250WAT     H129706   4.931   4.702   0.854
 7250WAT     H229707   4.962   4.625   0.963
 7250WAT    EPW29708   4.983   4.668   0.902
 7251WAT      O29709   3.906   3.729   1.171
 7251WAT     H129710   3.858   3.787   1.216
 7251WAT     H229711   3.904   3.758   1.089
 7251WAT    EPW29712   3.899   3.742   1.166
 7252WAT      O29713   5.016   3.797   0.633
 7252WAT     H129714   5.038   3.717   0.605
 7252WAT     H229715   4.931   3.803   0.614
 7252WAT    EPW29716   5.007   3.786   0.626
 7253WAT      O29717   3.586   4.343   0.339
 7253WAT     H129718   3.633   4.372   0.406
 7253WAT     H229719   3.643   4.295   0.293
 7253WAT    EPW29720   3.601   4.340   0.342
 7254WAT      O29721   4.782   4.709   0.708
 7254WAT     H129722   4.715   4.760   0.729
 7254WAT     H229723   4.789   4.719   0.621
 7254WAT    EPW29724   4.773   4.718   0.698
 7255WAT      O29725   3.464   3.810   1.007
 7255WAT     H129726   3.410   3.759   1.054
 7255WAT     H229727   3.466   3.771   0.929
 7255WAT    EPW29728   3.456   3.796   1.003
 7256WAT      O29729   3.572   3.906   0.528
 7256WAT     H129730   3.575   3.838   0.473
 7256WAT     H229731   3.507   3.956   0.497
 7256WAT    EPW29732   3.563   3.903   0.515
 7257WAT      O29733   4.562   3.677   0.368
 7257WAT     H129734   4.495   3.710   0.414
 7257WAT     H229735   4.580   3.741   0.311
 7257WAT    EPW29736   4.555   3.691   0.366
 7258WAT      O29737   3.982   4.784   0.467
 7258WAT     H129738   3.954   4.720   0.415
 7258WAT     H229739   3.961   4.856   0.423
 7258WAT    EPW29740   3.975   4.785   0.453
 7259WAT      O29741   4.226   3.268   0.711
 7259WAT     H129742   4.241   3.185   0.686
 7259WAT     H229743   4.264   3.273   0.789
 7259WAT    EPW29744   4.234   3.256   0.719
 7260WAT      O29745   3.352   4.041   1.084
 7260WAT     H129746   3.348   4.092   1.013
 7260WAT     H229747   3.385   3.966   1.054
 7260WAT    EPW29748   3.356   4.038   1.069
 7261WAT      O29749   4.512   4.262   0.910
 7261WAT     H129750   4.561   4.334   0.920
 7261WAT     H229751   4.552   4.219   0.845
 7261WAT    EPW29752   4.525   4.266   0.902
 7262WAT      O29753   3.942   4.546   1.027
 7262WAT     H129754   3.977   4.529   1.105
 7262WAT     H229755   3.898   4.474   1.008
 7262WAT    EPW29756   3.941   4.533   1.036
 7263WAT      O29757   4.039   3.621   0.291
 7263WAT     H129758   4.087   3.691   0.312
 7263WAT     H229759   4.076   3.556   0.336
 7263WAT    EPW29760   4.052   3.622   0.301
 7264WAT      O29761   4.360   4.632   0.301
 7264WAT     H129762   4.299   4.602   0.245
 7264WAT     H229763   4.414   4.677   0.250
 7264WAT    EPW29764   4.359   4.634   0.285
 7265WAT      O29765   4.361   4.317   0.241
 7265WAT     H129766   4.281   4.339   0.269
 7265WAT     H229767   4.387   4.257   0.300
 7265WAT    EPW29768   4.353   4.311   0.254
 7266WAT      O29769   4.687   4.117   0.726
 7266WAT     H129770   4.692   4.129   0.640
 7266WAT     H229771   4.762   4.149   0.756
 7266WAT    EPW29772   4.699   4.123   0.717
 7267WAT      O29773   4.306   4.651   1.153
 7267WAT     H129774   4.322   4.680   1.234
 7267WAT     H229775   4.332   4.718   1.103
 7267WAT    EPW29776   4.312   4.665   1.158
 7268WAT      O29777   4.790   3.146   1.024
 7268WAT     H129778   4.726   3.106   0.980
 7268WAT     H229779   4.793   3.103   1.100
 7268WAT    EPW29780   4.781   3.134   1.029
 7269WAT      O29781   4.260   4.097   0.686
 7269WAT     H129782   4.245   4.158   0.746
 7269WAT     H229783   4.313   4.041   0.726
 7269WAT    EPW29784   4.266   4.098   0.701
 7270WAT      O29785   4.621   4.370   0.338
 7270WAT     H129786   4.573   4.400   0.272
 7270WAT     H229787   4.585   4.292   0.356
 7270WAT    EPW29788   4.609   4.363   0.331
 7271WAT      O29789   4.021   4.142   0.195
 7271WAT     H129790   3.936   4.122   0.203
 7271WAT     H229791   4.053   4.125   0.274
 7271WAT    EPW29792   4.013   4.137   0.208
 7272WAT      O29793   3.406   4.111   0.426
 7272WAT     H129794   3.478   4.160   0.423
 7272WAT     H229795   3.379   4.108   0.343
 7272WAT    EPW29796   3.412   4.118   0.413
 7273WAT      O29797   4.714   4.064   0.450
 7273WAT     H129798   4.713   3.987   0.490
 7273WAT     H229799   4.630   4.088   0.450
 7273WAT    EPW29800   4.702   4.056   0.456
 7274WAT      O29801   3.345   4.216   0.854
 7274WAT     H129802   3.303   4.165   0.798
 7274WAT     H229803   3.310   4.295   0.840
 7274WAT    EPW29804   3.334   4.220   0.844
 7275WAT      O29805   4.840   4.071   0.194
 7275WAT     H129806   4.811   4.111   0.266
 7275WAT     H229807   4.926   4.065   0.207
 7275WAT    EPW29808   4.848   4.076   0.207
 7276WAT      O29809   4.606   3.464   1.048
 7276WAT     H129810   4.553   3.510   1.100
 7276WAT     H229811   4.570   3.384   1.047
 7276WAT    EPW29812   4.593   3.459   1.056
 7277WAT      O29813   4.953   4.635   0.247
 7277WAT     H129814   4.982   4.660   0.169
 7277WAT     H229815   5.022   4.644   0.299
 7277WAT    EPW29816   4.967   4.640   0.243
 7278WAT      O29817   4.455   3.821   1.056
 7278WAT     H129818   4.462   3.831   1.142
 7278WAT     H229819   4.392   3.876   1.034
 7278WAT    EPW29820   4.447   3.830   1.065
 7279WAT      O29821   4.682   3.853   0.892
 7279WAT     H129822   4.714   3.931   0.912
 7279WAT     H229823   4.645   3.826   0.966
 7279WAT    EPW29824   4.681   3.860   0.906
 7280WAT      O29825   4.952   3.907   1.166
 7280WAT     H129826   4.947   3.873   1.086
 7280WAT     H229827   5.025   3.953   1.163
 7280WAT    EPW29828   4.962   3.909   1.153
 7281WAT      O29829   4.906   4.274   0.786
 7281WAT     H129830   4.968   4.219   0.761
 7281WAT     H229831   4.899   4.331   0.720
 7281WAT    EPW29832   4.914   4.275   0.773
 7282WAT      O29833   3.819   4.397   0.516
 7282WAT     H129834   3.789   4.457   0.573
 7282WAT     H229835   3.824   4.442   0.441
 7282WAT    EPW29836   3.815   4.413   0.513
 7283WAT      O29837   3.617   4.292   0.856
 7283WAT     H129838   3.536   4.263   0.872
 7283WAT     H229839   3.608   4.379   0.856
 7283WAT    EPW29840   3.604   4.301   0.858
 7284WAT      O29841   4.553   3.311   0.757
 7284WAT     H129842   4.627   3.357   0.751
 7284WAT     H229843   4.496   3.358   0.710
 7284WAT    EPW29844   4.555   3.325   0.749
 7285WAT      O29845   4.071   4.040   0.465
 7285WAT     H129846   4.118   4.077   0.528
 7285WAT     H229847   3.988   4.053   0.491
 7285WAT    EPW29848   4.065   4.047   0.478
 7286WAT      O29849   3.742   3.600   0.739
 7286WAT     H129850   3.758   3.526   0.782
 7286WAT     H229851   3.737   3.575   0.656
 7286WAT    EPW29852   3.743   3.585   0.733
 7287WAT      O29853   4.681   3.109   0.524
 7287WAT     H129854   4.653   3.192   0.520
 7287WAT     H229855   4.753   3.115   0.574
 7287WAT    EPW29856   4.688   3.122   0.531
 7288WAT      O29857   3.917   3.181   0.727
 7288WAT     H129858   3.987   3.213   0.687
 7288WAT     H229859   3.941   3.100   0.750
 7288WAT    EPW29860   3.931   3.174   0.724
 7289WAT      O29861   3.815   4.602   0.327
 7289WAT     H129862   3.753   4.660   0.308
 7289WAT     H229863   3.840   4.573   0.248
 7289WAT    EPW29864   3.810   4.606   0.312
 7290WAT      O29865   4.246   4.265   1.026
 7290WAT     H129866   4.322   4.294   0.993
 7290WAT     H229867   4.191   4.270   0.958
 7290WAT    EPW29868   4.249   4.270   1.011
 7291WAT      O29869   4.637   4.520   0.876
 7291WAT     H129870   4.672   4.547   0.951
 7291WAT     H229871   4.666   4.578   0.818
 7291WAT    EPW29872   4.647   4.533   0.879
 7292WAT      O29873   3.568   3.686   0.333
 7292WAT     H129874   3.612   3.676   0.259
 7292WAT     H229875   3.622   3.655   0.394
 7292WAT    EPW29876   3.582   3.680   0.331
 7293WAT      O29877   4.369   3.596   0.892
 7293WAT     H129878   4.304   3.643   0.927
 7293WAT     H229879   4.426   3.587   0.958
 7293WAT    EPW29880   4.368   3.602   0.907
 7294WAT      O29881   4.338   3.750   0.522
 7294WAT     H129882   4.368   3.792   0.592
 7294WAT     H229883   4.342   3.666   0.545
 7294WAT    EPW29884   4.343   3.744   0.536
 7295WAT      O29885   4.081   4.767   0.915
 7295WAT     H129886   4.128   4.707   0.873
 7295WAT     H229887   4.045   4.722   0.981
 7295WAT    EPW29888   4.082   4.751   0.918
 7296WAT      O29889   3.922   3.185   0.338
 7296WAT     H129890   3.840   3.170   0.362
 7296WAT     H229891   3.918   3.188   0.251
 7296WAT    EPW29892   3.910   3.183   0.328
 7297WAT      O29893   4.086   4.289   0.817
 7297WAT     H129894   4.007   4.282   0.852
 7297WAT     H229895   4.094   4.373   0.797
 7297WAT    EPW29896   4.076   4.300   0.819
 7298WAT      O29897   3.179   3.224   0.941
 7298WAT     H129898   3.165   3.304   0.908
 7298WAT     H229899   3.100   3.200   0.970
 7298WAT    EPW29900   3.165   3.233   0.941
 7299WAT      O29901   3.669   4.909   0.348
 7299WAT     H129902   3.671   4.915   0.435
 7299WAT     H229903   3.627   4.835   0.333
 7299WAT    EPW29904   3.663   4.899   0.359
 7300WAT      O29905   4.135   4.553   0.727
 7300WAT     H129906   4.204   4.542   0.780
 7300WAT     H229907   4.149   4.632   0.693
 7300WAT    EPW29908   4.147   4.563   0.730
 7301WAT      O29909   4.953   3.814   0.909
 7301WAT     H129910   4.867   3.802   0.921
 7301WAT     H229911   4.968   3.775   0.832
 7301WAT    EPW29912   4.943   3.807   0.899
 7302WAT      O29913   4.404   3.881   0.766
 7302WAT     H129914   4.379   3.809   0.808
 7302WAT     H229915   4.486   3.892   0.793
 7302WAT    EPW29916   4.413   3.872   0.776
 7303WAT      O29917   3.346   4.859   0.893
 7303WAT     H129918   3.280   4.802   0.902
 7303WAT     H229919   3.308   4.936   0.908
 7303WAT    EPW29920   3.331   4.862   0.896
 7304WAT      O29921   4.198   4.000   1.085
 7304WAT     H129922   4.230   4.068   1.042
 7304WAT     H229923   4.127   4.032   1.125
 7304WAT    EPW29924   4.192   4.015   1.084
 7305WAT      O29925   4.506   4.837   0.178
 7305WAT     H129926   4.461   4.901   0.216
 7305WAT     H229927   4.577   4.829   0.228
 7305WAT    EPW29928   4.510   4.845   0.191
 7306WAT      O29929   4.176   4.346   0.471
 7306WAT     H129930   4.107   4.386   0.505
 7306WAT     H229931   4.244   4.389   0.505
 7306WAT    EPW29932   4.176   4.358   0.481
 7307WAT      O29933   4.714   4.605   1.129
 7307WAT     H129934   4.791   4.566   1.137
 7307WAT     H229935   4.667   4.572   1.194
 7307WAT    EPW29936   4.718   4.595   1.140
 7308WAT      O29937   3.483   3.700   0.705
 7308WAT     H129938   3.520   3.762   0.657
 7308WAT     H229939   3.550   3.653   0.734
 7308WAT    EPW29940   3.498   3.702   0.702
 7309WAT      O29941   3.260   3.545   0.633
 7309WAT     H129942   3.268   3.528   0.548
 7309WAT     H229943   3.335   3.585   0.653
 7309WAT    EPW29944   3.273   3.548   0.623
 7310WAT      O29945   3.516   3.286   0.874
 7310WAT     H129946   3.508   3.201   0.895
 7310WAT     H229947   3.484   3.290   0.793
 7310WAT    EPW29948   3.510   3.274   0.865
 7311WAT      O29949   4.727   3.823   0.613
 7311WAT     H129950   4.726   3.737   0.625
 7311WAT     H229951   4.733   3.856   0.693
 7311WAT    EPW29952   4.728   3.815   0.626
 7312WAT      O29953   3.200   4.067   0.655
 7312WAT     H129954   3.232   4.089   0.577
 7312WAT     H229955   3.190   3.981   0.650
 7312WAT    EPW29956   3.203   4.058   0.643
 7313WAT      O29957   4.314   3.303   0.991
 7313WAT     H129958   4.324   3.375   1.040
 7313WAT     H229959   4.251   3.259   1.030
 7313WAT    EPW29960   4.306   3.307   1.004
 7314WAT      O29961   4.574   3.374   0.356
 7314WAT     H129962   4.659   3.384   0.371
 7314WAT     H229963   4.537   3.429   0.413
 7314WAT    EPW29964   4.581   3.384   0.367
 7315WAT      O29965   3.676   3.997   0.794
 7315WAT     H129966   3.637   4.074   0.801
 7315WAT     H229967   3.636   3.959   0.726
 7315WAT    EPW29968   3.665   4.002   0.785
 7316WAT      O29969   3.719   3.294   0.539
 7316WAT     H129970   3.633   3.303   0.547
 7316WAT     H229971   3.741   3.243   0.606
 7316WAT    EPW29972   3.710   3.288   0.550
 7317WAT      O29973   4.921   3.158   0.672
 7317WAT     H129974   4.916   3.153   0.759
 7317WAT     H229975   4.990   3.107   0.653
 7317WAT    EPW29976   4.931   3.150   0.682
 7318WAT      O29977   4.130   3.369   0.376
 7318WAT     H129978   4.056   3.324   0.388
 7318WAT     H229979   4.187   3.329   0.429
 7318WAT    EPW29980   4.127   3.356   0.386
 7319WAT      O29981   4.403   4.454   0.555
 7319WAT     H129982   4.423   4.484   0.634
 7319WAT     H229983   4.397   4.526   0.507
 7319WAT    EPW29984   4.405   4.469   0.560
 7320WAT      O29985   4.356   4.875   0.980
 7320WAT     H129986   4.281   4.873   0.936
 7320WAT     H229987   4.373   4.960   0.988
 7320WAT    EPW29988   4.348   4.888   0.974
 7321WAT      O29989   3.880   3.802   0.897
 7321WAT     H129990   3.848   3.744   0.840
 7321WAT     H229991   3.844   3.877   0.872
 7321WAT    EPW29992   3.870   3.805   0.885
 7322WAT      O29993   4.884   4.318   0.501
 7322WAT     H129994   4.881   4.232   0.487
 7322WAT     H229995   4.815   4.348   0.457
 7322WAT    EPW29996   4.873   4.309   0.492
 7323WAT      O29997   3.723   4.838   0.921
 7323WAT     H129998   3.728   4.850   1.008
 7323WAT     H229999   3.789   4.782   0.906
 7323WAT    EPW30000   3.734   4.831   0.932
 7324WAT      O30001   4.695   4.644   0.381
 7324WAT     H130002   4.747   4.635   0.311
 7324WAT     H230003   4.655   4.566   0.386
 7324WAT    EPW30004   4.697   4.631   0.371
 7325WAT      O30005   3.441   3.303   0.604
 7325WAT     H130006   3.407   3.226   0.580
 7325WAT     H230007   3.372   3.355   0.610
 7325WAT    EPW30008   3.426   3.299   0.601
 7326WAT      O30009   4.346   3.188   0.301
 7326WAT     H130010   4.413   3.243   0.314
 7326WAT     H230011   4.296   3.231   0.244
 7326WAT    EPW30012   4.348   3.202   0.295
 7327WAT      O30013   3.483   4.676   1.057
 7327WAT     H130014   3.542   4.719   1.105
 7327WAT     H230015   3.446   4.738   1.009
 7327WAT    EPW30016   3.486   4.691   1.057
 7328WAT      O30017   3.275   4.475   0.750
 7328WAT     H130018   3.218   4.516   0.801
 7328WAT     H230019   3.349   4.521   0.760
 7328WAT    EPW30020   3.278   4.488   0.759
 7329WAT      O30021   4.806   4.089   1.022
 7329WAT     H130022   4.870   4.072   1.079
 7329WAT     H230023   4.848   4.130   0.957
 7329WAT    EPW30024   4.822   4.093   1.021
 7330WAT      O30025   4.869   3.546   1.096
 7330WAT     H130026   4.849   3.610   1.151
 7330WAT     H230027   4.797   3.497   1.095
 7330WAT    EPW30028   4.855   3.548   1.104
 7331WAT      O30029   4.859   3.640   0.393
 7331WAT     H130030   4.775   3.665   0.386
 7331WAT     H230031   4.853   3.556   0.416
 7331WAT    EPW30032   4.846   3.631   0.395
 7332WAT      O30033   3.785   3.339   0.912
 7332WAT     H130034   3.808   3.281   0.851
 7332WAT     H230035   3.700   3.321   0.926
 7332WAT    EPW30036   3.776   3.327   0.905
 7333WAT      O30037   4.547   4.100   1.157
 7333WAT     H130038   4.634   4.097   1.154
 7333WAT     H230039   4.525   4.142   1.084
 7333WAT    EPW30040   4.557   4.106   1.146
 7334WAT      O30041   3.523   4.683   0.276
 7334WAT     H130042   3.515   4.602   0.244
 7334WAT     H230043   3.478   4.732   0.218
 7334WAT    EPW30044   3.515   4.678   0.262
 7335WAT      O30045   3.280   4.907   0.634
 7335WAT     H130046   3.329   4.902   0.705
 7335WAT     H230047   3.299   4.834   0.590
 7335WAT    EPW30048   3.290   4.896   0.638
 7336WAT      O30049   4.224   1.311   7.451
 7336WAT     H130050   4.199   1.360   7.383
 7336WAT     H230051   4.310   1.304   7.441
 7336WAT    EPW30052   4.233   1.317   7.439
 7337WAT      O30053   3.192   2.417   7.464
 7337WAT     H130054   3.147   2.429   7.538
 7337WAT     H230055   3.163   2.339   7.435
 7337WAT    EPW30056   3.181   2.407   7.470
 7338WAT      O30057   4.819   2.747   7.215
 7338WAT     H130058   4.889   2.695   7.215
 7338WAT     H230059   4.760   2.702   7.168
 7338WAT    EPW30060   4.821   2.733   7.208
 7339WAT      O30061   3.166   1.796   7.114
 7339WAT     H130062   3.088   1.812   7.078
 7339WAT     H230063   3.170   1.709   7.116
 7339WAT    EPW30064   3.155   1.785   7.109
 7340WAT      O30065   3.480   2.322   6.981
 7340WAT     H130066   3.441   2.285   6.913
 7340WAT     H230067   3.472   2.262   7.044
 7340WAT    EPW30068   3.473   2.308   6.981
 7341WAT      O30069   4.472   2.109   7.586
 7341WAT     H130070   4.480   2.110   7.499
 7341WAT     H230071   4.413   2.046   7.600
 7341WAT    EPW30072   4.464   2.100   7.575
 7342WAT      O30073   3.442   2.486   7.371
 7342WAT     H130074   3.503   2.469   7.432
 7342WAT     H230075   3.367   2.472   7.414
 7342WAT    EPW30076   3.440   2.482   7.387
 7343WAT      O30077   3.871   1.420   7.366
 7343WAT     H130078   3.864   1.488   7.312
 7343WAT     H230079   3.945   1.381   7.341
 7343WAT    EPW30080   3.881   1.424   7.355
 7344WAT      O30081   3.332   2.795   6.979
 7344WAT     H130082   3.378   2.804   6.906
 7344WAT     H230083   3.377   2.738   7.026
 7344WAT    EPW30084   3.345   2.788   6.975
 7345WAT      O30085   3.330   2.142   7.509
 7345WAT     H130086   3.284   2.103   7.447
 7345WAT     H230087   3.400   2.091   7.518
 7345WAT    EPW30088   3.334   2.129   7.501
 7346WAT      O30089   3.530   1.952   7.512
 7346WAT     H130090   3.612   1.934   7.536
 7346WAT     H230091   3.483   1.891   7.551
 7346WAT    EPW30092   3.535   1.941   7.521
 7347WAT      O30093   3.951   2.550   7.773
 7347WAT     H130094   3.985   2.471   7.776
 7347WAT     H230095   4.017   2.601   7.747
 7347WAT    EPW30096   3.966   2.546   7.769
 7348WAT      O30097   3.956   2.495   7.394
 7348WAT     H130098   3.989   2.431   7.442
 7348WAT     H230099   3.980   2.474   7.313
 7348WAT    EPW30100   3.965   2.483   7.389
 7349WAT      O30101   3.590   1.462   7.438
 7349WAT     H130102   3.560   1.512   7.373
 7349WAT     H230103   3.677   1.470   7.432
 7349WAT    EPW30104   3.598   1.470   7.428
 7350WAT      O30105   3.888   1.376   7.660
 7350WAT     H130106   3.895   1.462   7.673
 7350WAT     H230107   3.884   1.368   7.574
 7350WAT    EPW30108   3.888   1.388   7.650
 7351WAT      O30109   4.355   1.669   6.890
 7351WAT     H130110   4.310   1.737   6.921
 7351WAT     H230111   4.367   1.618   6.961
 7351WAT    EPW30112   4.350   1.671   6.905
 7352WAT      O30113   3.176   1.918   7.811
 7352WAT     H130114   3.150   2.002   7.803
 7352WAT     H230115   3.109   1.880   7.852
 7352WAT    EPW30116   3.162   1.925   7.816
 7353WAT      O30117   3.167   2.889   7.601
 7353WAT     H130118   3.108   2.945   7.569
 7353WAT     H230119   3.209   2.863   7.529
 7353WAT    EPW30120   3.164   2.894   7.585
 7354WAT      O30121   3.751   2.674   7.349
 7354WAT     H130122   3.693   2.646   7.408
 7354WAT     H230123   3.813   2.613   7.351
 7354WAT    EPW30124   3.751   2.661   7.358
 7355WAT      O30125   4.365   2.903   7.101
 7355WAT     H130126   4.438   2.950   7.111
 7355WAT     H230127   4.388   2.823   7.129
 7355WAT    EPW30128   4.379   2.898   7.106
 7356WAT      O30129   4.182   2.942   7.300
 7356WAT     H130130   4.203   2.995   7.366
 7356WAT     H230131   4.259   2.924   7.262
 7356WAT    EPW30132   4.196   2.947   7.304
 7357WAT      O30133   3.321   2.756   7.394
 7357WAT     H130134   3.387   2.699   7.395
 7357WAT     H230135   3.360   2.831   7.372
 7357WAT    EPW30136   3.337   2.759   7.391
 7358WAT      O30137   4.895   1.666   7.520
 7358WAT     H130138   4.860   1.734   7.562
 7358WAT     H230139   4.831   1.606   7.521
 7358WAT    EPW30140   4.880   1.667   7.526
 7359WAT      O30141   3.403   2.605   7.744
 7359WAT     H130142   3.445   2.570   7.676
 7359WAT     H230143   3.435   2.563   7.813
 7359WAT    EPW30144   3.414   2.594   7.744
 7360WAT      O30145   3.726   2.890   7.673
 7360WAT     H130146   3.811   2.901   7.654
 7360WAT     H230147   3.696   2.972   7.680
 7360WAT    EPW30148   3.734   2.904   7.671
 7361WAT      O30149   4.107   1.830   7.482
 7361WAT     H130150   4.136   1.807   7.403
 7361WAT     H230151   4.180   1.838   7.529
 7361WAT    EPW30152   4.122   1.828   7.477
 7362WAT      O30153   4.179   1.864   6.994
 7362WAT     H130154   4.207   1.943   7.019
 7362WAT     H230155   4.101   1.880   6.958
 7362WAT    EPW30156   4.172   1.878   6.992
 7363WAT      O30157   4.583   3.061   7.141
 7363WAT     H130158   4.650   3.047   7.086
 7363WAT     H230159   4.619   3.053   7.220
 7363WAT    EPW30160   4.598   3.058   7.144
 7364WAT      O30161   4.065   2.681   6.976
 7364WAT     H130162   4.047   2.736   7.041
 7364WAT     H230163   4.142   2.710   6.946
 7364WAT    EPW30164   4.074   2.693   6.981
 7365WAT      O30165   4.416   1.471   7.081
 7365WAT     H130166   4.470   1.402   7.089
 7365WAT     H230167   4.422   1.510   7.158
 7365WAT    EPW30168   4.425   1.466   7.094
 7366WAT      O30169   3.211   1.587   7.338
 7366WAT     H130170   3.200   1.501   7.341
 7366WAT     H230171   3.164   1.617   7.405
 7366WAT    EPW30172   3.202   1.579   7.348
 7367WAT      O30173   4.141   1.708   7.212
 7367WAT     H130174   4.091   1.642   7.187
 7367WAT     H230175   4.147   1.759   7.141
 7367WAT    EPW30176   4.135   1.706   7.198
 7368WAT      O30177   4.141   1.402   7.202
 7368WAT     H130178   4.096   1.362   7.139
 7368WAT     H230179   4.219   1.418   7.164
 7368WAT    EPW30180   4.146   1.399   7.187
 7369WAT      O30181   4.824   3.038   7.541
 7369WAT     H130182   4.779   3.110   7.561
 7369WAT     H230183   4.763   2.981   7.516
 7369WAT    EPW30184   4.808   3.040   7.540
 7370WAT      O30185   4.001   1.639   7.654
 7370WAT     H130186   4.009   1.696   7.588
 7370WAT     H230187   4.013   1.688   7.725
 7370WAT    EPW30188   4.004   1.655   7.655
 7371WAT      O30189   4.524   2.623   7.495
 7371WAT     H130190   4.594   2.574   7.514
 7371WAT     H230191   4.458   2.566   7.499
 7371WAT    EPW30192   4.524   2.607   7.498
 7372WAT      O30193   3.462   1.221   7.489
 7372WAT     H130194   3.516   1.290   7.488
 7372WAT     H230195   3.462   1.194   7.406
 7372WAT    EPW30196   3.470   1.227   7.476
 7373WAT      O30197   4.506   1.250   7.526
 7373WAT     H130198   4.511   1.219   7.607
 7373WAT     H230199   4.538   1.186   7.477
 7373WAT    EPW30200   4.512   1.236   7.531
 7374WAT      O30201   3.507   1.602   7.654
 7374WAT     H130202   3.534   1.559   7.583
 7374WAT     H230203   3.489   1.539   7.711
 7374WAT    EPW30204   3.508   1.587   7.652
 7375WAT      O30205   4.776   2.372   7.076
 7375WAT     H130206   4.788   2.343   7.157
 7375WAT     H230207   4.856   2.374   7.043
 7375WAT    EPW30208   4.789   2.368   7.083
 7376WAT      O30209   3.489   2.345   7.609
 7376WAT     H130210   3.574   2.337   7.592
 7376WAT     H230211   3.454   2.277   7.568
 7376WAT    EPW30212   3.497   2.334   7.600
 7377WAT      O30213   3.366   3.018   7.733
 7377WAT     H130214   3.299   2.968   7.708
 7377WAT     H230215   3.406   3.036   7.657
 7377WAT    EPW30216   3.362   3.013   7.718
 7378WAT      O30217   4.565   2.026   7.034
 7378WAT     H130218   4.543   2.099   6.992
 7378WAT     H230219   4.520   2.031   7.109
 7378WAT    EPW30220   4.555   2.037   7.039
 7379WAT      O30221   3.726   2.346   7.432
 7379WAT     H130222   3.797   2.395   7.441
 7379WAT     H230223   3.748   2.289   7.370
 7379WAT    EPW30224   3.740   2.345   7.424
 7380WAT      O30225   4.984   1.512   6.980
 7380WAT     H130226   4.918   1.455   6.982
 7380WAT     H230227   4.965   1.563   6.912
 7380WAT    EPW30228   4.971   1.511   6.970
 7381WAT      O30229   3.142   2.510   7.764
 7381WAT     H130230   3.075   2.559   7.792
 7381WAT     H230231   3.210   2.565   7.767
 7381WAT    EPW30232   3.142   2.525   7.769
 7382WAT      O30233   3.148   2.178   7.275
 7382WAT     H130234   3.130   2.095   7.290
 7382WAT     H230235   3.214   2.175   7.218
 7382WAT    EPW30236   3.155   2.166   7.268
 7383WAT      O30237   4.784   1.467   7.207
 7383WAT     H130238   4.859   1.427   7.227
 7383WAT     H230239   4.810   1.539   7.165
 7383WAT    EPW30240   4.799   1.472   7.204
 7384WAT      O30241   4.178   2.716   7.665
 7384WAT     H130242   4.126   2.779   7.636
 7384WAT     H230243   4.209   2.680   7.592
 7384WAT    EPW30244   4.175   2.720   7.650
 7385WAT      O30245   3.165   2.595   7.232
 7385WAT     H130246   3.221   2.652   7.269
 7385WAT     H230247   3.142   2.543   7.299
 7385WAT    EPW30248   3.170   2.596   7.247
 7386WAT      O30249   4.429   1.696   7.715
 7386WAT     H130250   4.464   1.711   7.793
 7386WAT     H230251   4.384   1.622   7.726
 7386WAT    EPW30252   4.428   1.688   7.728
 7387WAT      O30253   3.148   2.440   6.995
 7387WAT     H130254   3.224   2.397   7.001
 7387WAT     H230255   3.150   2.493   7.064
 7387WAT    EPW30256   3.160   2.441   7.006
 7388WAT      O30257   3.242   2.262   7.795
 7388WAT     H130258   3.286   2.249   7.721
 7388WAT     H230259   3.222   2.347   7.793
 7388WAT    EPW30260   3.246   2.272   7.784
 7389WAT      O30261   3.877   1.618   7.160
 7389WAT     H130262   3.877   1.607   7.074
 7389WAT     H230263   3.859   1.703   7.170
 7389WAT    EPW30264   3.874   1.629   7.149
 7390WAT      O30265   3.651   2.613   7.624
 7390WAT     H130266   3.663   2.698   7.642
 7390WAT     H230267   3.718   2.574   7.663
 7390WAT    EPW30268   3.663   2.620   7.632
 7391WAT      O30269   3.512   1.901   7.124
 7391WAT     H130270   3.500   1.857   7.198
 7391WAT     H230271   3.454   1.867   7.069
 7391WAT    EPW30272   3.502   1.890   7.127
 7392WAT      O30273   3.529   2.084   7.784
 7392WAT     H130274   3.451   2.079   7.745
 7392WAT     H230275   3.536   2.009   7.827
 7392WAT    EPW30276   3.519   2.073   7.785
 7393WAT      O30277   4.381   1.626   7.321
 7393WAT     H130278   4.430   1.698   7.314
 7393WAT     H230279   4.302   1.652   7.295
 7393WAT    EPW30280   4.376   1.641   7.316
 7394WAT      O30281   4.258   2.090   7.121
 7394WAT     H130282   4.257   2.162   7.072
 7394WAT     H230283   4.194   2.104   7.179
 7394WAT    EPW30284   4.248   2.103   7.122
 7395WAT      O30285   4.755   2.477   7.519
 7395WAT     H130286   4.791   2.442   7.591
 7395WAT     H230287   4.754   2.411   7.462
 7395WAT    EPW30288   4.760   2.462   7.521
 7396WAT      O30289   4.361   2.469   7.844
 7396WAT     H130290   4.281   2.491   7.871
 7396WAT     H230291   4.387   2.410   7.902
 7396WAT    EPW30292   4.353   2.463   7.856
 7397WAT      O30293   3.750   2.950   7.288
 7397WAT     H130294   3.735   2.873   7.326
 7397WAT     H230295   3.819   2.935   7.237
 7397WAT    EPW30296   3.758   2.936   7.286
 7398WAT      O30297   3.717   1.324   7.087
 7398WAT     H130298   3.727   1.314   7.173
 7398WAT     H230299   3.646   1.375   7.081
 7398WAT    EPW30300   3.708   1.330   7.099
 7399WAT      O30301   3.979   2.902   7.129
 7399WAT     H130302   4.042   2.918   7.188
 7399WAT     H230303   3.983   2.971   7.075
 7399WAT    EPW30304   3.989   2.914   7.130
 7400WAT      O30305   3.429   2.155   7.212
 7400WAT     H130306   3.462   2.077   7.189
 7400WAT     H230307   3.494   2.192   7.257
 7400WAT    EPW30308   3.444   2.149   7.215
 7401WAT      O30309   3.129   1.321   7.308
 7401WAT     H130310   3.142   1.250   7.259
 7401WAT     H230311   3.092   1.289   7.381
 7401WAT    EPW30312   3.126   1.306   7.312
 7402WAT      O30313   4.098   2.089   7.354
 7402WAT     H130314   4.104   2.154   7.412
 7402WAT     H230315   4.080   2.020   7.403
 7402WAT    EPW30316   4.097   2.089   7.370
 7403WAT      O30317   3.548   1.541   7.005
 7403WAT     H130318   3.497   1.546   6.935
 7403WAT     H230319   3.626   1.565   6.976
 7403WAT    EPW30320   3.552   1.545   6.990
 7404WAT      O30321   4.021   2.294   7.797
 7404WAT     H130322   3.936   2.275   7.805
 7404WAT     H230323   4.053   2.278   7.876
 7404WAT    EPW30324   4.013   2.289   7.810
 7405WAT      O30325   3.696   2.967   6.886
 7405WAT     H130326   3.740   2.897   6.915
 7405WAT     H230327   3.717   3.029   6.943
 7405WAT    EPW30328   3.706   2.966   6.898
 7406WAT      O30329   3.729   1.780   7.702
 7406WAT     H130330   3.813   1.761   7.712
 7406WAT     H230331   3.692   1.703   7.688
 7406WAT    EPW30332   3.736   1.766   7.702
 7407WAT      O30333   4.990   2.939   7.135
 7407WAT     H130334   5.060   2.892   7.110
 7407WAT     H230335   4.936   2.879   7.169
 7407WAT    EPW30336   4.993   2.923   7.136
 7408WAT      O30337   3.211   1.914   7.368
 7408WAT     H130338   3.260   1.885   7.434
 7408WAT     H230339   3.224   1.855   7.305
 7408WAT    EPW30340   3.220   1.901   7.368
 7409WAT      O30341   3.663   2.058   6.916
 7409WAT     H130342   3.602   2.017   6.964
 7409WAT     H230343   3.625   2.069   6.839
 7409WAT    EPW30344   3.648   2.053   6.912
 7410WAT      O30345   4.840   2.224   7.797
 7410WAT     H130346   4.811   2.264   7.869
 7410WAT     H230347   4.926   2.217   7.809
 7410WAT    EPW30348   4.848   2.229   7.809
 7411WAT      O30349   3.809   1.904   7.187
 7411WAT     H130350   3.836   1.986   7.194
 7411WAT     H230351   3.722   1.911   7.178
 7411WAT    EPW30352   3.800   1.917   7.187
 7412WAT      O30353   3.157   1.501   7.841
 7412WAT     H130354   3.161   1.535   7.761
 7412WAT     H230355   3.232   1.524   7.878
 7412WAT    EPW30356   3.168   1.509   7.835
 7413WAT      O30357   4.953   2.787   7.849
 7413WAT     H130358   4.982   2.813   7.771
 7413WAT     H230359   5.022   2.796   7.901
 7413WAT    EPW30360   4.967   2.792   7.846
 7414WAT      O30361   4.613   2.647   7.048
 7414WAT     H130362   4.647   2.567   7.051
 7414WAT     H230363   4.538   2.640   7.091
 7414WAT    EPW30364   4.607   2.634   7.055
 7415WAT      O30365   4.662   1.831   7.614
 7415WAT     H130366   4.587   1.798   7.645
 7415WAT     H230367   4.662   1.913   7.642
 7415WAT    EPW30368   4.651   1.838   7.622
 7416WAT      O30369   4.351   2.435   6.988
 7416WAT     H130370   4.419   2.383   6.971
 7416WAT     H230371   4.309   2.439   6.911
 7416WAT    EPW30372   4.355   2.428   6.974
 7417WAT      O30373   3.997   2.931   7.590
 7417WAT     H130374   4.052   2.999   7.596
 7417WAT     H230375   3.962   2.939   7.511
 7417WAT    EPW30376   4.000   2.943   7.579
 7418WAT      O30377   4.823   1.887   7.012
 7418WAT     H130378   4.861   1.955   6.972
 7418WAT     H230379   4.739   1.909   7.015
 7418WAT    EPW30380   4.816   1.900   7.007
 7419WAT      O30381   3.975   2.232   6.921
 7419WAT     H130382   3.894   2.214   6.892
 7419WAT     H230383   3.971   2.317   6.940
 7419WAT    EPW30384   3.962   2.242   6.919
 7420WAT      O30385   4.593   1.847   7.350
 7420WAT     H130386   4.614   1.827   7.432
 7420WAT     H230387   4.668   1.874   7.316
 7420WAT    EPW30388   4.607   1.848   7.357
 7421WAT      O30389   4.695   1.455   7.497
 7421WAT     H130390   4.624   1.408   7.514
 7421WAT     H230391   4.679   1.489   7.419
 7421WAT    EPW30392   4.682   1.453   7.488
 7422WAT      O30393   4.739   2.250   7.335
 7422WAT     H130394   4.787   2.177   7.330
 7422WAT     H230395   4.657   2.221   7.328
 7422WAT    EPW30396   4.734   2.235   7.333
 7423WAT      O30397   3.485   1.651   7.266
 7423WAT     H130398   3.498   1.618   7.187
 7423WAT     H230399   3.404   1.626   7.286
 7423WAT    EPW30400   3.475   1.643   7.258
 7424WAT      O30401   4.361   2.366   7.571
 7424WAT     H130402   4.369   2.400   7.651
 7424WAT     H230403   4.378   2.282   7.583
 7424WAT    EPW30404   4.365   2.359   7.584
 7425WAT      O30405   4.113   2.294   7.527
 7425WAT     H130406   4.083   2.262   7.603
 7425WAT     H230407   4.183   2.341   7.551
 7425WAT    EPW30408   4.119   2.296   7.542
 7426WAT      O30409   4.506   2.989   7.780
 7426WAT     H130410   4.461   3.054   7.818
 7426WAT     H230411   4.577   2.981   7.831
 7426WAT    EPW30412   4.510   2.998   7.793
 7427WAT      O30413   4.816   1.961   7.279
 7427WAT     H130414   4.827   1.955   7.193
 7427WAT     H230415   4.890   1.928   7.311
 7427WAT    EPW30416   4.829   1.955   7.271
 7428WAT      O30417   4.208   2.657   7.390
 7428WAT     H130418   4.188   2.741   7.374
 7428WAT     H230419   4.131   2.619   7.402
 7428WAT    EPW30420   4.194   2.664   7.390
 7429WAT      O30421   3.346   1.813   6.920
 7429WAT     H130422   3.279   1.815   6.975
 7429WAT     H230423   3.355   1.728   6.901
 7429WAT    EPW30424   3.337   1.801   6.925
 7430WAT      O30425   4.214   1.475   7.679
 7430WAT     H130426   4.144   1.526   7.673
 7430WAT     H230427   4.218   1.437   7.600
 7430WAT    EPW30428   4.204   1.477   7.666
 7431WAT      O30429   3.745   2.684   7.031
 7431WAT     H130430   3.789   2.692   7.106
 7431WAT     H230431   3.664   2.662   7.057
 7431WAT    EPW30432   3.739   2.682   7.046
 7432WAT      O30433   4.604   2.054   7.808
 7432WAT     H130434   4.671   2.108   7.824
 7432WAT     H230435   4.570   2.085   7.734
 7432WAT    EPW30436   4.609   2.067   7.799
 7433WAT      O30437   4.635   2.861   7.388
 7433WAT     H130438   4.618   2.795   7.443
 7433WAT     H230439   4.707   2.834   7.346
 7433WAT    EPW30440   4.643   2.847   7.390
 7434WAT      O30441   3.477   2.591   7.091
 7434WAT     H130442   3.453   2.560   7.169
 7434WAT     H230443   3.474   2.520   7.040
 7434WAT    EPW30444   3.473   2.576   7.095
 7435WAT      O30445   3.759   2.415   6.965
 7435WAT     H130446   3.678   2.388   6.979
 7435WAT     H230447   3.757   2.500   6.984
 7435WAT    EPW30448   3.747   2.424   6.970
 7436WAT      O30449   3.960   1.279   6.962
 7436WAT     H130450   3.967   1.304   6.879
 7436WAT     H230451   3.885   1.317   6.988
 7436WAT    EPW30452   3.950   1.289   6.953
 7437WAT      O30453   4.282   1.921   7.653
 7437WAT     H130454   4.337   1.860   7.683
 7437WAT     H230455   4.239   1.947   7.725
 7437WAT    EPW30456   4.284   1.916   7.668
 7438WAT      O30457   3.307   1.786   7.602
 7438WAT     H130458   3.270   1.816   7.675
 7438WAT     H230459   3.360   1.723   7.630
 7438WAT    EPW30460   3.309   1.781   7.617
 7439WAT      O30461   4.479   2.104   7.309
 7439WAT     H130462   4.486   2.019   7.327
 7439WAT     H230463   4.397   2.113   7.282
 7439WAT    EPW30464   4.468   2.093   7.308
 7440WAT      O30465   3.454   2.954   7.230
 7440WAT     H130466   3.440   2.969   7.146
 7440WAT     H230467   3.541   2.962   7.238
 7440WAT    EPW30468   3.465   2.957   7.219
 7441WAT      O30469   3.871   2.193   7.203
 7441WAT     H130470   3.881   2.207   7.118
 7441WAT     H230471   3.953   2.187   7.233
 7441WAT    EPW30472   3.884   2.194   7.195
 7442WAT      O30473   4.787   3.000   6.951
 7442WAT     H130474   4.850   2.986   7.009
 7442WAT     H230475   4.753   2.920   6.939
 7442WAT    EPW30476   4.791   2.986   6.958
 7443WAT      O30477   4.394   2.626   7.183
 7443WAT     H130478   4.369   2.613   7.266
 7443WAT     H230479   4.363   2.557   7.141
 7443WAT    EPW30480   4.386   2.614   7.189
 7444WAT      O30481   3.523   2.835   7.878
 7444WAT     H130482   3.515   2.754   7.846
 7444WAT     H230483   3.478   2.884   7.821
 7444WAT    EPW30484   3.515   2.830   7.865
 7445WAT      O30485   4.083   2.447   7.126
 7445WAT     H130486   4.155   2.412   7.091
 7445WAT     H230487   4.079   2.527   7.092
 7445WAT    EPW30488   4.093   2.454   7.116
 7446WAT      O30489   4.224   1.311   5.550
 7446WAT     H130490   4.199   1.360   5.482
 7446WAT     H230491   4.310   1.304   5.540
 7446WAT    EPW30492   4.233   1.317   5.539
 7447WAT      O30493   4.205   2.003   6.017
 7447WAT     H130494   4.152   2.062   6.054
 7447WAT     H230495   4.244   1.966   6.086
 7447WAT    EPW30496   4.203   2.006   6.033
 7448WAT      O30497   3.192   2.417   5.563
 7448WAT     H130498   3.147   2.429   5.637
 7448WAT     H230499   3.163   2.339   5.534
 7448WAT    EPW30500   3.181   2.407   5.570
 7449WAT      O30501   4.819   2.747   5.314
 7449WAT     H130502   4.889   2.695   5.314
 7449WAT     H230503   4.760   2.702   5.267
 7449WAT    EPW30504   4.821   2.733   5.307
 7450WAT      O30505   3.166   1.796   5.214
 7450WAT     H130506   3.088   1.812   5.178
 7450WAT     H230507   3.170   1.709   5.216
 7450WAT    EPW30508   3.155   1.785   5.209
 7451WAT      O30509   3.480   2.322   5.081
 7451WAT     H130510   3.441   2.285   5.012
 7451WAT     H230511   3.472   2.262   5.144
 7451WAT    EPW30512   3.473   2.308   5.080
 7452WAT      O30513   4.472   2.109   5.685
 7452WAT     H130514   4.480   2.110   5.598
 7452WAT     H230515   4.413   2.046   5.700
 7452WAT    EPW30516   4.464   2.100   5.674
 7453WAT      O30517   3.442   2.486   5.471
 7453WAT     H130518   3.503   2.469   5.531
 7453WAT     H230519   3.367   2.472   5.513
 7453WAT    EPW30520   3.440   2.482   5.486
 7454WAT      O30521   3.871   1.420   5.466
 7454WAT     H130522   3.864   1.488   5.411
 7454WAT     H230523   3.945   1.381   5.441
 7454WAT    EPW30524   3.881   1.424   5.454
 7455WAT      O30525   3.186   2.690   6.188
 7455WAT     H130526   3.198   2.662   6.270
 7455WAT     H230527   3.125   2.636   6.157
 7455WAT    EPW30528   3.178   2.678   6.196
 7456WAT      O30529   3.843   2.443   6.695
 7456WAT     H130530   3.819   2.442   6.779
 7456WAT     H230531   3.768   2.428   6.653
 7456WAT    EPW30532   3.828   2.440   6.701
 7457WAT      O30533   3.330   2.142   5.609
 7457WAT     H130534   3.284   2.103   5.546
 7457WAT     H230535   3.400   2.091   5.618
 7457WAT    EPW30536   3.334   2.129   5.601
 7458WAT      O30537   3.781   1.703   6.143
 7458WAT     H130538   3.849   1.705   6.088
 7458WAT     H230539   3.776   1.620   6.168
 7458WAT    EPW30540   3.790   1.691   6.139
 7459WAT      O30541   3.841   2.762   6.421
 7459WAT     H130542   3.855   2.838   6.381
 7459WAT     H230543   3.920   2.725   6.424
 7459WAT    EPW30544   3.855   2.768   6.416
 7460WAT      O30545   3.530   1.952   5.611
 7460WAT     H130546   3.612   1.934   5.635
 7460WAT     H230547   3.483   1.891   5.650
 7460WAT    EPW30548   3.535   1.941   5.620
 7461WAT      O30549   3.951   2.550   5.872
 7461WAT     H130550   3.985   2.471   5.875
 7461WAT     H230551   4.017   2.601   5.846
 7461WAT    EPW30552   3.966   2.546   5.869
 7462WAT      O30553   3.956   2.495   5.493
 7462WAT     H130554   3.989   2.431   5.542
 7462WAT     H230555   3.980   2.474   5.412
 7462WAT    EPW30556   3.965   2.483   5.488
 7463WAT      O30557   4.153   1.908   6.627
 7463WAT     H130558   4.068   1.899   6.609
 7463WAT     H230559   4.156   1.983   6.672
 7463WAT    EPW30560   4.141   1.918   6.631
 7464WAT      O30561   3.590   1.462   5.537
 7464WAT     H130562   3.560   1.512   5.472
 7464WAT     H230563   3.677   1.470   5.532
 7464WAT    EPW30564   3.598   1.470   5.527
 7465WAT      O30565   4.609   1.204   6.538
 7465WAT     H130566   4.593   1.281   6.500
 7465WAT     H230567   4.532   1.182   6.573
 7465WAT    EPW30568   4.595   1.213   6.538
 7466WAT      O30569   3.888   1.376   5.760
 7466WAT     H130570   3.895   1.462   5.773
 7466WAT     H230571   3.884   1.368   5.673
 7466WAT    EPW30572   3.888   1.388   5.749
 7467WAT      O30573   4.355   1.669   4.990
 7467WAT     H130574   4.310   1.737   5.020
 7467WAT     H230575   4.367   1.618   5.060
 7467WAT    EPW30576   4.350   1.671   5.005
 7468WAT      O30577   3.176   1.918   5.910
 7468WAT     H130578   3.150   2.002   5.902
 7468WAT     H230579   3.109   1.880   5.952
 7468WAT    EPW30580   3.162   1.925   5.915
 7469WAT      O30581   3.167   2.889   5.700
 7469WAT     H130582   3.108   2.945   5.669
 7469WAT     H230583   3.209   2.863   5.629
 7469WAT    EPW30584   3.164   2.894   5.685
 7470WAT      O30585   3.751   2.674   5.448
 7470WAT     H130586   3.693   2.646   5.507
 7470WAT     H230587   3.813   2.613   5.450
 7470WAT    EPW30588   3.751   2.661   5.457
 7471WAT      O30589   4.365   2.903   5.200
 7471WAT     H130590   4.438   2.950   5.210
 7471WAT     H230591   4.388   2.823   5.228
 7471WAT    EPW30592   4.379   2.898   5.206
 7472WAT      O30593   3.479   1.400   5.959
 7472WAT     H130594   3.427   1.337   5.928
 7472WAT     H230595   3.538   1.356   6.006
 7472WAT    EPW30596   3.480   1.384   5.961
 7473WAT      O30597   3.809   1.613   6.889
 7473WAT     H130598   3.821   1.568   6.815
 7473WAT     H230599   3.838   1.693   6.868
 7473WAT    EPW30600   3.815   1.619   6.875
 7474WAT      O30601   3.321   2.756   5.493
 7474WAT     H130602   3.387   2.699   5.494
 7474WAT     H230603   3.360   2.831   5.471
 7474WAT    EPW30604   3.337   2.759   5.490
 7475WAT      O30605   4.895   1.666   5.619
 7475WAT     H130606   4.860   1.734   5.662
 7475WAT     H230607   4.831   1.606   5.621
 7475WAT    EPW30608   4.880   1.667   5.626
 7476WAT      O30609   3.383   1.573   6.787
 7476WAT     H130610   3.305   1.534   6.780
 7476WAT     H230611   3.432   1.532   6.728
 7476WAT    EPW30612   3.378   1.561   6.777
 7477WAT      O30613   3.726   2.890   5.773
 7477WAT     H130614   3.811   2.901   5.753
 7477WAT     H230615   3.696   2.972   5.779
 7477WAT    EPW30616   3.734   2.904   5.771
 7478WAT      O30617   4.047   1.337   6.704
 7478WAT     H130618   4.065   1.257   6.676
 7478WAT     H230619   4.033   1.382   6.630
 7478WAT    EPW30620   4.048   1.332   6.689
 7479WAT      O30621   4.179   1.864   5.093
 7479WAT     H130622   4.207   1.943   5.118
 7479WAT     H230623   4.101   1.880   5.057
 7479WAT    EPW30624   4.172   1.878   5.092
 7480WAT      O30625   4.583   3.061   5.240
 7480WAT     H130626   4.650   3.047   5.186
 7480WAT     H230627   4.619   3.053   5.319
 7480WAT    EPW30628   4.598   3.058   5.244
 7481WAT      O30629   3.626   3.012   6.347
 7481WAT     H130630   3.655   3.006   6.429
 7481WAT     H230631   3.563   2.952   6.342
 7481WAT    EPW30632   3.621   3.002   6.358
 7482WAT      O30633   4.862   1.498   6.156
 7482WAT     H130634   4.938   1.505   6.113
 7482WAT     H230635   4.868   1.421   6.196
 7482WAT    EPW30636   4.874   1.488   6.156
 7483WAT      O30637   3.117   1.628   6.546
 7483WAT     H130638   3.117   1.687   6.610
 7483WAT     H230639   3.177   1.659   6.490
 7483WAT    EPW30640   3.126   1.641   6.547
 7484WAT      O30641   4.351   2.661   6.600
 7484WAT     H130642   4.348   2.700   6.678
 7484WAT     H230643   4.437   2.657   6.583
 7484WAT    EPW30644   4.363   2.666   6.609
 7485WAT      O30645   4.065   2.681   5.075
 7485WAT     H130646   4.047   2.736   5.141
 7485WAT     H230647   4.142   2.710   5.045
 7485WAT    EPW30648   4.074   2.693   5.080
 7486WAT      O30649   4.416   1.471   5.180
 7486WAT     H130650   4.470   1.402   5.188
 7486WAT     H230651   4.422   1.510   5.258
 7486WAT    EPW30652   4.425   1.466   5.193
 7487WAT      O30653   3.211   1.587   5.437
 7487WAT     H130654   3.200   1.501   5.440
 7487WAT     H230655   3.164   1.617   5.504
 7487WAT    EPW30656   3.202   1.579   5.448
 7488WAT      O30657   3.425   2.828   6.259
 7488WAT     H130658   3.355   2.778   6.271
 7488WAT     H230659   3.451   2.808   6.178
 7488WAT    EPW30660   3.419   2.818   6.249
 7489WAT      O30661   4.141   1.708   5.312
 7489WAT     H130662   4.091   1.642   5.286
 7489WAT     H230663   4.147   1.759   5.241
 7489WAT    EPW30664   4.135   1.706   5.298
 7490WAT      O30665   4.196   2.978   6.350
 7490WAT     H130666   4.273   2.970   6.309
 7490WAT     H230667   4.138   2.966   6.286
 7490WAT    EPW30668   4.199   2.975   6.334
 7491WAT      O30669   4.141   1.402   5.301
 7491WAT     H130670   4.096   1.362   5.238
 7491WAT     H230671   4.219   1.418   5.263
 7491WAT    EPW30672   4.146   1.399   5.286
 7492WAT      O30673   4.824   3.038   5.640
 7492WAT     H130674   4.779   3.110   5.660
 7492WAT     H230675   4.763   2.981   5.616
 7492WAT    EPW30676   4.808   3.040   5.639
 7493WAT      O30677   4.001   1.639   5.753
 7493WAT     H130678   4.009   1.696   5.687
 7493WAT     H230679   4.013   1.688   5.824
 7493WAT    EPW30680   4.004   1.655   5.754
 7494WAT      O30681   4.524   2.623   5.594
 7494WAT     H130682   4.594   2.574   5.613
 7494WAT     H230683   4.458   2.566   5.599
 7494WAT    EPW30684   4.524   2.607   5.598
 7495WAT      O30685   3.561   2.714   6.515
 7495WAT     H130686   3.645   2.720   6.493
 7495WAT     H230687   3.558   2.753   6.593
 7495WAT    EPW30688   3.573   2.720   6.524
 7496WAT      O30689   3.462   1.221   5.588
 7496WAT     H130690   3.516   1.290   5.587
 7496WAT     H230691   3.462   1.194   5.505
 7496WAT    EPW30692   3.470   1.227   5.575
 7497WAT      O30693   3.758   2.265   5.990
 7497WAT     H130694   3.775   2.244   6.073
 7497WAT     H230695   3.692   2.211   5.969
 7497WAT    EPW30696   3.751   2.254   5.999
 7498WAT      O30697   4.380   1.656   6.342
 7498WAT     H130698   4.371   1.688   6.422
 7498WAT     H230699   4.321   1.592   6.338
 7498WAT    EPW30700   4.370   1.651   6.353
 7499WAT      O30701   3.833   2.258   6.249
 7499WAT     H130702   3.838   2.343   6.270
 7499WAT     H230703   3.804   2.221   6.323
 7499WAT    EPW30704   3.829   2.265   6.263
 7500WAT      O30705   4.450   2.328   6.162
 7500WAT     H130706   4.399   2.287   6.219
 7500WAT     H230707   4.438   2.412   6.180
 7500WAT    EPW30708   4.441   2.334   6.173
 7501WAT      O30709   4.506   1.250   5.625
 7501WAT     H130710   4.511   1.219   5.707
 7501WAT     H230711   4.538   1.186   5.576
 7501WAT    EPW30712   4.512   1.236   5.630
 7502WAT      O30713   3.115   2.696   6.870
 7502WAT     H130714   3.190   2.730   6.896
 7502WAT     H230715   3.132   2.610   6.865
 7502WAT    EPW30716   3.129   2.688   6.873
 7503WAT      O30717   4.752   1.674   6.456
 7503WAT     H130718   4.830   1.652   6.490
 7503WAT     H230719   4.705   1.696   6.526
 7503WAT    EPW30720   4.757   1.674   6.472
 7504WAT      O30721   3.507   1.602   5.753
 7504WAT     H130722   3.534   1.559   5.682
 7504WAT     H230723   3.489   1.539   5.810
 7504WAT    EPW30724   3.508   1.587   5.751
 7505WAT      O30725   4.776   2.372   5.175
 7505WAT     H130726   4.788   2.343   5.257
 7505WAT     H230727   4.856   2.374   5.142
 7505WAT    EPW30728   4.789   2.368   5.182
 7506WAT      O30729   3.489   2.345   5.708
 7506WAT     H130730   3.574   2.337   5.691
 7506WAT     H230731   3.454   2.277   5.667
 7506WAT    EPW30732   3.497   2.334   5.699
 7507WAT      O30733   3.366   3.018   5.832
 7507WAT     H130734   3.299   2.968   5.807
 7507WAT     H230735   3.406   3.036   5.757
 7507WAT    EPW30736   3.362   3.013   5.817
 7508WAT      O30737   3.321   1.713   6.061
 7508WAT     H130738   3.405   1.735   6.057
 7508WAT     H230739   3.282   1.770   6.008
 7508WAT    EPW30740   3.328   1.724   6.053
 7509WAT      O30741   4.999   2.823   6.600
 7509WAT     H130742   4.931   2.854   6.556
 7509WAT     H230743   4.962   2.777   6.665
 7509WAT    EPW30744   4.983   2.821   6.603
 7510WAT      O30745   4.565   2.026   5.134
 7510WAT     H130746   4.543   2.099   5.091
 7510WAT     H230747   4.520   2.031   5.208
 7510WAT    EPW30748   4.555   2.037   5.138
 7511WAT      O30749   3.726   2.346   5.532
 7511WAT     H130750   3.797   2.395   5.541
 7511WAT     H230751   3.748   2.289   5.469
 7511WAT    EPW30752   3.740   2.345   5.524
 7512WAT      O30753   4.984   1.512   5.079
 7512WAT     H130754   4.918   1.455   5.081
 7512WAT     H230755   4.965   1.563   5.011
 7512WAT    EPW30756   4.971   1.511   5.069
 7513WAT      O30757   3.142   2.510   5.864
 7513WAT     H130758   3.075   2.559   5.891
 7513WAT     H230759   3.210   2.565   5.867
 7513WAT    EPW30760   3.142   2.525   5.868
 7514WAT      O30761   3.906   1.881   6.873
 7514WAT     H130762   3.858   1.939   6.917
 7514WAT     H230763   3.904   1.911   6.791
 7514WAT    EPW30764   3.899   1.894   6.868
 7515WAT      O30765   5.016   1.949   6.334
 7515WAT     H130766   5.038   1.869   6.307
 7515WAT     H230767   4.931   1.955   6.316
 7515WAT    EPW30768   5.007   1.939   6.328
 7516WAT      O30769   3.148   2.178   5.374
 7516WAT     H130770   3.130   2.095   5.389
 7516WAT     H230771   3.214   2.175   5.317
 7516WAT    EPW30772   3.155   2.166   5.368
 7517WAT      O30773   4.784   1.467   5.307
 7517WAT     H130774   4.859   1.427   5.327
 7517WAT     H230775   4.810   1.539   5.264
 7517WAT    EPW30776   4.799   1.472   5.303
 7518WAT      O30777   4.178   2.716   5.764
 7518WAT     H130778   4.126   2.779   5.735
 7518WAT     H230779   4.209   2.680   5.691
 7518WAT    EPW30780   4.175   2.720   5.749
 7519WAT      O30781   3.165   2.595   5.331
 7519WAT     H130782   3.221   2.652   5.368
 7519WAT     H230783   3.142   2.543   5.398
 7519WAT    EPW30784   3.170   2.596   5.347
 7520WAT      O30785   3.586   2.495   6.040
 7520WAT     H130786   3.633   2.524   6.108
 7520WAT     H230787   3.643   2.447   5.995
 7520WAT    EPW30788   3.601   2.492   6.044
 7521WAT      O30789   4.429   1.696   5.814
 7521WAT     H130790   4.464   1.711   5.893
 7521WAT     H230791   4.384   1.622   5.825
 7521WAT    EPW30792   4.428   1.688   5.827
 7522WAT      O30793   3.148   2.440   5.094
 7522WAT     H130794   3.224   2.397   5.100
 7522WAT     H230795   3.150   2.493   5.163
 7522WAT    EPW30796   3.160   2.441   5.105
 7523WAT      O30797   3.242   2.262   5.895
 7523WAT     H130798   3.286   2.249   5.820
 7523WAT     H230799   3.222   2.347   5.892
 7523WAT    EPW30800   3.246   2.272   5.883
 7524WAT      O30801   3.877   1.618   5.260
 7524WAT     H130802   3.877   1.607   5.173
 7524WAT     H230803   3.859   1.703   5.269
 7524WAT    EPW30804   3.874   1.629   5.248
 7525WAT      O30805   4.782   2.861   6.409
 7525WAT     H130806   4.715   2.912   6.431
 7525WAT     H230807   4.789   2.871   6.323
 7525WAT    EPW30808   4.773   2.870   6.400
 7526WAT      O30809   3.651   2.613   5.723
 7526WAT     H130810   3.663   2.698   5.742
 7526WAT     H230811   3.718   2.574   5.763
 7526WAT    EPW30812   3.663   2.620   5.732
 7527WAT      O30813   3.464   1.962   6.709
 7527WAT     H130814   3.410   1.911   6.756
 7527WAT     H230815   3.466   1.923   6.631
 7527WAT    EPW30816   3.456   1.948   6.705
 7528WAT      O30817   3.512   1.901   5.223
 7528WAT     H130818   3.500   1.857   5.297
 7528WAT     H230819   3.454   1.867   5.168
 7528WAT    EPW30820   3.502   1.890   5.226
 7529WAT      O30821   3.529   2.084   5.883
 7529WAT     H130822   3.451   2.079   5.845
 7529WAT     H230823   3.536   2.009   5.927
 7529WAT    EPW30824   3.519   2.073   5.884
 7530WAT      O30825   3.572   2.058   6.230
 7530WAT     H130826   3.575   1.991   6.175
 7530WAT     H230827   3.507   2.108   6.199
 7530WAT    EPW30828   3.563   2.055   6.217
 7531WAT      O30829   4.562   1.829   6.069
 7531WAT     H130830   4.495   1.862   6.116
 7531WAT     H230831   4.580   1.893   6.013
 7531WAT    EPW30832   4.555   1.844   6.068
 7532WAT      O30833   3.982   2.936   6.169
 7532WAT     H130834   3.954   2.872   6.117
 7532WAT     H230835   3.961   3.008   6.125
 7532WAT    EPW30836   3.975   2.937   6.155
 7533WAT      O30837   4.226   1.420   6.412
 7533WAT     H130838   4.241   1.338   6.388
 7533WAT     H230839   4.264   1.426   6.491
 7533WAT    EPW30840   4.234   1.409   6.420
 7534WAT      O30841   4.381   1.626   5.421
 7534WAT     H130842   4.430   1.698   5.413
 7534WAT     H230843   4.302   1.652   5.394
 7534WAT    EPW30844   4.376   1.641   5.416
 7535WAT      O30845   3.352   2.194   6.786
 7535WAT     H130846   3.348   2.244   6.714
 7535WAT     H230847   3.385   2.118   6.756
 7535WAT    EPW30848   3.356   2.190   6.771
 7536WAT      O30849   4.512   2.414   6.612
 7536WAT     H130850   4.561   2.486   6.621
 7536WAT     H230851   4.552   2.371   6.546
 7536WAT    EPW30852   4.525   2.418   6.603
 7537WAT      O30853   3.942   2.699   6.729
 7537WAT     H130854   3.977   2.681   6.807
 7537WAT     H230855   3.898   2.626   6.709
 7537WAT    EPW30856   3.941   2.685   6.738
 7538WAT      O30857   4.039   1.773   5.993
 7538WAT     H130858   4.087   1.843   6.014
 7538WAT     H230859   4.076   1.709   6.038
 7538WAT    EPW30860   4.052   1.774   6.003
 7539WAT      O30861   4.258   2.090   5.220
 7539WAT     H130862   4.257   2.162   5.171
 7539WAT     H230863   4.194   2.104   5.278
 7539WAT    EPW30864   4.248   2.103   5.222
 7540WAT      O30865   4.755   2.477   5.619
 7540WAT     H130866   4.791   2.442   5.690
 7540WAT     H230867   4.754   2.411   5.562
 7540WAT    EPW30868   4.760   2.462   5.621
 7541WAT      O30869   4.360   2.784   6.003
 7541WAT     H130870   4.299   2.754   5.947
 7541WAT     H230871   4.414   2.829   5.952
 7541WAT    EPW30872   4.359   2.786   5.987
 7542WAT      O30873   4.361   2.469   5.943
 7542WAT     H130874   4.281   2.491   5.970
 7542WAT     H230875   4.387   2.410   6.001
 7542WAT    EPW30876   4.353   2.463   5.956
 7543WAT      O30877   3.717   1.324   5.187
 7543WAT     H130878   3.727   1.314   5.273
 7543WAT     H230879   3.646   1.375   5.180
 7543WAT    EPW30880   3.708   1.330   5.198
 7544WAT      O30881   4.687   2.269   6.428
 7544WAT     H130882   4.692   2.281   6.341
 7544WAT     H230883   4.762   2.301   6.458
 7544WAT    EPW30884   4.699   2.275   6.419
 7545WAT      O30885   4.306   2.804   6.855
 7545WAT     H130886   4.322   2.832   6.936
 7545WAT     H230887   4.332   2.870   6.805
 7545WAT    EPW30888   4.312   2.818   6.860
 7546WAT      O30889   4.790   1.299   6.726
 7546WAT     H130890   4.726   1.259   6.682
 7546WAT     H230891   4.793   1.255   6.802
 7546WAT    EPW30892   4.781   1.286   6.731
 7547WAT      O30893   3.429   2.155   5.311
 7547WAT     H130894   3.462   2.077   5.289
 7547WAT     H230895   3.494   2.192   5.356
 7547WAT    EPW30896   3.444   2.149   5.314
 7548WAT      O30897   4.260   2.249   6.388
 7548WAT     H130898   4.245   2.310   6.448
 7548WAT     H230899   4.313   2.194   6.428
 7548WAT    EPW30900   4.266   2.250   6.402
 7549WAT      O30901   3.129   1.321   5.408
 7549WAT     H130902   3.142   1.250   5.358
 7549WAT     H230903   3.092   1.289   5.480
 7549WAT    EPW30904   3.126   1.306   5.411
 7550WAT      O30905   4.098   2.089   5.453
 7550WAT     H130906   4.104   2.154   5.511
 7550WAT     H230907   4.080   2.020   5.502
 7550WAT    EPW30908   4.097   2.089   5.469
 7551WAT      O30909   4.621   2.522   6.040
 7551WAT     H130910   4.573   2.552   5.974
 7551WAT     H230911   4.585   2.445   6.058
 7551WAT    EPW30912   4.609   2.515   6.033
 7552WAT      O30913   3.548   1.541   5.105
 7552WAT     H130914   3.497   1.546   5.034
 7552WAT     H230915   3.626   1.565   5.075
 7552WAT    EPW30916   3.552   1.545   5.090
 7553WAT      O30917   4.021   2.294   5.896
 7553WAT     H130918   3.936   2.275   5.905
 7553WAT     H230919   4.053   2.278   5.976
 7553WAT    EPW30920   4.013   2.289   5.909
 7554WAT      O30921   3.406   2.263   6.128
 7554WAT     H130922   3.478   2.312   6.124
 7554WAT     H230923   3.379   2.260   6.045
 7554WAT    EPW30924   3.412   2.270   6.115
 7555WAT      O30925   3.729   1.780   5.802
 7555WAT     H130926   3.813   1.761   5.811
 7555WAT     H230927   3.692   1.703   5.788
 7555WAT    EPW30928   3.736   1.766   5.801
 7556WAT      O30929   4.990   2.939   5.234
 7556WAT     H130930   5.060   2.892   5.209
 7556WAT     H230931   4.936   2.879   5.268
 7556WAT    EPW30932   4.993   2.923   5.236
 7557WAT      O30933   3.211   1.914   5.467
 7557WAT     H130934   3.260   1.885   5.533
 7557WAT     H230935   3.224   1.855   5.404
 7557WAT    EPW30936   3.220   1.901   5.468
 7558WAT      O30937   4.714   2.216   6.152
 7558WAT     H130938   4.713   2.139   6.192
 7558WAT     H230939   4.630   2.240   6.151
 7558WAT    EPW30940   4.702   2.208   6.158
 7559WAT      O30941   3.663   2.058   5.016
 7559WAT     H130942   3.602   2.017   5.063
 7559WAT     H230943   3.625   2.069   4.938
 7559WAT    EPW30944   3.648   2.053   5.011
 7560WAT      O30945   3.345   2.369   6.556
 7560WAT     H130946   3.303   2.317   6.500
 7560WAT     H230947   3.310   2.447   6.542
 7560WAT    EPW30948   3.334   2.373   6.545
 7561WAT      O30949   4.840   2.224   5.896
 7561WAT     H130950   4.811   2.264   5.968
 7561WAT     H230951   4.926   2.217   5.909
 7561WAT    EPW30952   4.848   2.229   5.908
 7562WAT      O30953   3.809   1.904   5.287
 7562WAT     H130954   3.836   1.986   5.293
 7562WAT     H230955   3.722   1.911   5.277
 7562WAT    EPW30956   3.800   1.917   5.286
 7563WAT      O30957   4.606   1.616   6.750
 7563WAT     H130958   4.553   1.662   6.802
 7563WAT     H230959   4.570   1.536   6.749
 7563WAT    EPW30960   4.593   1.611   6.757
 7564WAT      O30961   3.157   1.501   5.940
 7564WAT     H130962   3.161   1.535   5.860
 7564WAT     H230963   3.232   1.524   5.977
 7564WAT    EPW30964   3.168   1.509   5.934
 7565WAT      O30965   4.953   2.787   5.949
 7565WAT     H130966   4.982   2.813   5.871
 7565WAT     H230967   5.022   2.796   6.001
 7565WAT    EPW30968   4.967   2.792   5.945
 7566WAT      O30969   4.455   1.973   6.757
 7566WAT     H130970   4.462   1.983   6.844
 7566WAT     H230971   4.392   2.029   6.735
 7566WAT    EPW30972   4.447   1.983   6.767
 7567WAT      O30973   4.682   2.005   6.594
 7567WAT     H130974   4.714   2.083   6.614
 7567WAT     H230975   4.645   1.978   6.668
 7567WAT    EPW30976   4.681   2.012   6.608
 7568WAT      O30977   4.613   2.647   5.147
 7568WAT     H130978   4.647   2.567   5.150
 7568WAT     H230979   4.538   2.640   5.190
 7568WAT    EPW30980   4.607   2.634   5.154
 7569WAT      O30981   4.662   1.831   5.713
 7569WAT     H130982   4.587   1.798   5.745
 7569WAT     H230983   4.662   1.913   5.741
 7569WAT    EPW30984   4.651   1.838   5.722
 7570WAT      O30985   4.952   2.059   6.867
 7570WAT     H130986   4.947   2.025   6.787
 7570WAT     H230987   5.025   2.106   6.865
 7570WAT    EPW30988   4.962   2.061   6.855
 7571WAT      O30989   4.906   2.427   6.488
 7571WAT     H130990   4.968   2.372   6.462
 7571WAT     H230991   4.899   2.483   6.422
 7571WAT    EPW30992   4.914   2.427   6.474
 7572WAT      O30993   4.351   2.435   5.087
 7572WAT     H130994   4.419   2.383   5.070
 7572WAT     H230995   4.309   2.439   5.011
 7572WAT    EPW30996   4.355   2.428   5.073
 7573WAT      O30997   3.819   2.550   6.218
 7573WAT     H130998   3.789   2.609   6.274
 7573WAT     H230999   3.824   2.594   6.143
 7573WAT    EPW31000   3.815   2.565   6.215
 7574WAT      O31001   3.617   2.445   6.557
 7574WAT     H131002   3.536   2.416   6.574
 7574WAT     H231003   3.608   2.531   6.558
 7574WAT    EPW31004   3.604   2.453   6.560
 7575WAT      O31005   4.553   1.464   6.459
 7575WAT     H131006   4.627   1.509   6.453
 7575WAT     H231007   4.496   1.511   6.412
 7575WAT    EPW31008   4.555   1.477   6.451
 7576WAT      O31009   4.071   2.192   6.167
 7576WAT     H131010   4.118   2.229   6.230
 7576WAT     H231011   3.988   2.205   6.193
 7576WAT    EPW31012   4.065   2.199   6.180
 7577WAT      O31013   3.742   1.752   6.441
 7577WAT     H131014   3.758   1.678   6.484
 7577WAT     H231015   3.737   1.727   6.357
 7577WAT    EPW31016   3.743   1.738   6.435
 7578WAT      O31017   3.997   2.931   5.690
 7578WAT     H131018   4.052   2.999   5.695
 7578WAT     H231019   3.962   2.939   5.610
 7578WAT    EPW31020   4.000   2.943   5.679
 7579WAT      O31021   4.681   1.262   6.226
 7579WAT     H131022   4.653   1.344   6.222
 7579WAT     H231023   4.753   1.267   6.276
 7579WAT    EPW31024   4.688   1.275   6.233
 7580WAT      O31025   3.917   1.333   6.429
 7580WAT     H131026   3.987   1.365   6.389
 7580WAT     H231027   3.941   1.252   6.452
 7580WAT    EPW31028   3.931   1.326   6.426
 7581WAT      O31029   3.815   2.754   6.028
 7581WAT     H131030   3.753   2.812   6.010
 7581WAT     H231031   3.840   2.725   5.950
 7581WAT    EPW31032   3.810   2.758   6.014
 7582WAT      O31033   4.246   2.417   6.727
 7582WAT     H131034   4.322   2.446   6.695
 7582WAT     H231035   4.191   2.423   6.660
 7582WAT    EPW31036   4.249   2.422   6.712
 7583WAT      O31037   4.637   2.672   6.578
 7583WAT     H131038   4.672   2.699   6.653
 7583WAT     H231039   4.666   2.731   6.520
 7583WAT    EPW31040   4.647   2.685   6.580
 7584WAT      O31041   4.823   1.887   5.112
 7584WAT     H131042   4.861   1.955   5.072
 7584WAT     H231043   4.739   1.909   5.115
 7584WAT    EPW31044   4.816   1.900   5.106
 7585WAT      O31045   3.975   2.232   5.020
 7585WAT     H131046   3.894   2.214   4.991
 7585WAT     H231047   3.971   2.317   5.039
 7585WAT    EPW31048   3.962   2.242   5.019
 7586WAT      O31049   3.568   1.838   6.035
 7586WAT     H131050   3.612   1.828   5.960
 7586WAT     H231051   3.622   1.807   6.095
 7586WAT    EPW31052   3.582   1.832   6.033
 7587WAT      O31053   4.369   1.749   6.594
 7587WAT     H131054   4.304   1.796   6.629
 7587WAT     H231055   4.426   1.740   6.660
 7587WAT    EPW31056   4.368   1.754   6.609
 7588WAT      O31057   4.338   1.902   6.224
 7588WAT     H131058   4.368   1.944   6.294
 7588WAT     H231059   4.342   1.818   6.247
 7588WAT    EPW31060   4.343   1.896   6.238
 7589WAT      O31061   4.081   2.919   6.616
 7589WAT     H131062   4.128   2.859   6.575
 7589WAT     H231063   4.045   2.875   6.683
 7589WAT    EPW31064   4.082   2.904   6.620
 7590WAT      O31065   4.593   1.847   5.449
 7590WAT     H131066   4.614   1.827   5.532
 7590WAT     H231067   4.668   1.874   5.415
 7590WAT    EPW31068   4.607   1.848   5.456
 7591WAT      O31069   3.922   1.337   6.040
 7591WAT     H131070   3.840   1.322   6.063
 7591WAT     H231071   3.918   1.340   5.953
 7591WAT    EPW31072   3.910   1.335   6.030
 7592WAT      O31073   4.695   1.455   5.597
 7592WAT     H131074   4.624   1.408   5.614
 7592WAT     H231075   4.679   1.489   5.518
 7592WAT    EPW31076   4.682   1.453   5.587
 7593WAT      O31077   4.739   2.250   5.435
 7593WAT     H131078   4.787   2.177   5.430
 7593WAT     H231079   4.657   2.221   5.427
 7593WAT    EPW31080   4.734   2.235   5.433
 7594WAT      O31081   4.086   2.441   6.518
 7594WAT     H131082   4.007   2.434   6.554
 7594WAT     H231083   4.094   2.526   6.499
 7594WAT    EPW31084   4.076   2.452   6.521
 7595WAT      O31085   3.179   1.377   6.643
 7595WAT     H131086   3.165   1.456   6.610
 7595WAT     H231087   3.100   1.352   6.672
 7595WAT    EPW31088   3.165   1.385   6.643
 7596WAT      O31089   3.669   3.062   6.050
 7596WAT     H131090   3.671   3.067   6.137
 7596WAT     H231091   3.627   2.987   6.035
 7596WAT    EPW31092   3.663   3.051   6.061
 7597WAT      O31093   3.485   1.651   5.366
 7597WAT     H131094   3.498   1.618   5.286
 7597WAT     H231095   3.404   1.626   5.386
 7597WAT    EPW31096   3.475   1.643   5.357
 7598WAT      O31097   4.361   2.366   5.670
 7598WAT     H131098   4.369   2.400   5.750
 7598WAT     H231099   4.378   2.282   5.682
 7598WAT    EPW31100   4.365   2.359   5.684
 7599WAT      O31101   4.113   2.294   5.627
 7599WAT     H131102   4.083   2.262   5.702
 7599WAT     H231103   4.183   2.341   5.650
 7599WAT    EPW31104   4.119   2.296   5.641
 7600WAT      O31105   4.135   2.706   6.429
 7600WAT     H131106   4.204   2.694   6.482
 7600WAT     H231107   4.149   2.785   6.395
 7600WAT    EPW31108   4.147   2.716   6.432
 7601WAT      O31109   4.953   1.966   6.610
 7601WAT     H131110   4.867   1.954   6.623
 7601WAT     H231111   4.968   1.927   6.534
 7601WAT    EPW31112   4.943   1.959   6.601
 7602WAT      O31113   4.404   2.033   6.468
 7602WAT     H131114   4.379   1.961   6.510
 7602WAT     H231115   4.486   2.045   6.495
 7602WAT    EPW31116   4.413   2.024   6.478
 7603WAT      O31117   3.346   3.011   6.594
 7603WAT     H131118   3.280   2.954   6.604
 7603WAT     H231119   3.308   3.089   6.609
 7603WAT    EPW31120   3.331   3.014   6.598
 7604WAT      O31121   4.198   2.152   6.787
 7604WAT     H131122   4.230   2.221   6.743
 7604WAT     H231123   4.127   2.184   6.827
 7604WAT    EPW31124   4.192   2.167   6.786
 7605WAT      O31125   4.506   2.989   5.880
 7605WAT     H131126   4.461   3.054   5.917
 7605WAT     H231127   4.577   2.981   5.930
 7605WAT    EPW31128   4.510   2.998   5.893
 7606WAT      O31129   4.176   2.498   6.173
 7606WAT     H131130   4.107   2.539   6.207
 7606WAT     H231131   4.244   2.542   6.206
 7606WAT    EPW31132   4.176   2.511   6.183
 7607WAT      O31133   4.714   2.758   6.831
 7607WAT     H131134   4.791   2.719   6.839
 7607WAT     H231135   4.667   2.724   6.896
 7607WAT    EPW31136   4.718   2.747   6.841
 7608WAT      O31137   3.483   1.852   6.407
 7608WAT     H131138   3.520   1.914   6.359
 7608WAT     H231139   3.550   1.805   6.436
 7608WAT    EPW31140   3.498   1.854   6.404
 7609WAT      O31141   3.260   1.697   6.335
 7609WAT     H131142   3.268   1.680   6.249
 7609WAT     H231143   3.335   1.738   6.354
 7609WAT    EPW31144   3.273   1.700   6.325
 7610WAT      O31145   4.816   1.961   5.379
 7610WAT     H131146   4.827   1.955   5.292
 7610WAT     H231147   4.890   1.928   5.411
 7610WAT    EPW31148   4.829   1.955   5.371
 7611WAT      O31149   3.516   1.438   6.576
 7611WAT     H131150   3.508   1.354   6.596
 7611WAT     H231151   3.484   1.442   6.495
 7611WAT    EPW31152   3.510   1.426   6.567
 7612WAT      O31153   4.208   2.657   5.489
 7612WAT     H131154   4.188   2.741   5.474
 7612WAT     H231155   4.131   2.619   5.502
 7612WAT    EPW31156   4.194   2.664   5.489
 7613WAT      O31157   4.727   1.976   6.314
 7613WAT     H131158   4.726   1.889   6.327
 7613WAT     H231159   4.733   2.008   6.395
 7613WAT    EPW31160   4.728   1.968   6.328
 7614WAT      O31161   3.200   2.220   6.357
 7614WAT     H131162   3.232   2.241   6.279
 7614WAT     H231163   3.190   2.133   6.352
 7614WAT    EPW31164   3.203   2.210   6.345
 7615WAT      O31165   3.346   1.813   5.019
 7615WAT     H131166   3.279   1.815   5.075
 7615WAT     H231167   3.355   1.728   5.001
 7615WAT    EPW31168   3.337   1.801   5.024
 7616WAT      O31169   4.314   1.456   6.693
 7616WAT     H131170   4.324   1.527   6.742
 7616WAT     H231171   4.251   1.411   6.732
 7616WAT    EPW31172   4.306   1.459   6.706
 7617WAT      O31173   4.214   1.475   5.778
 7617WAT     H131174   4.144   1.526   5.772
 7617WAT     H231175   4.218   1.437   5.700
 7617WAT    EPW31176   4.204   1.477   5.766
 7618WAT      O31177   4.574   1.526   6.058
 7618WAT     H131178   4.659   1.536   6.072
 7618WAT     H231179   4.537   1.581   6.114
 7618WAT    EPW31180   4.581   1.536   6.068
 7619WAT      O31181   3.676   2.149   6.496
 7619WAT     H131182   3.637   2.226   6.503
 7619WAT     H231183   3.636   2.111   6.428
 7619WAT    EPW31184   3.665   2.155   6.487
 7620WAT      O31185   4.604   2.054   5.907
 7620WAT     H131186   4.671   2.108   5.923
 7620WAT     H231187   4.570   2.085   5.833
 7620WAT    EPW31188   4.609   2.067   5.899
 7621WAT      O31189   4.635   2.861   5.488
 7621WAT     H131190   4.618   2.795   5.543
 7621WAT     H231191   4.707   2.834   5.445
 7621WAT    EPW31192   4.643   2.847   5.490
 7622WAT      O31193   3.759   2.415   5.065
 7622WAT     H131194   3.678   2.388   5.079
 7622WAT     H231195   3.757   2.500   5.083
 7622WAT    EPW31196   3.747   2.424   5.070
 7623WAT      O31197   3.719   1.446   6.241
 7623WAT     H131198   3.633   1.455   6.249
 7623WAT     H231199   3.741   1.395   6.308
 7623WAT    EPW31200   3.710   1.440   6.252
 7624WAT      O31201   4.921   1.310   6.374
 7624WAT     H131202   4.916   1.306   6.461
 7624WAT     H231203   4.990   1.260   6.355
 7624WAT    EPW31204   4.931   1.302   6.384
 7625WAT      O31205   4.130   1.521   6.078
 7625WAT     H131206   4.056   1.476   6.089
 7625WAT     H231207   4.187   1.481   6.130
 7625WAT    EPW31208   4.127   1.509   6.087
 7626WAT      O31209   4.403   2.606   6.257
 7626WAT     H131210   4.423   2.636   6.336
 7626WAT     H231211   4.397   2.678   6.208
 7626WAT    EPW31212   4.405   2.621   6.261
 7627WAT      O31213   4.356   3.027   6.681
 7627WAT     H131214   4.281   3.026   6.637
 7627WAT     H231215   4.373   3.113   6.690
 7627WAT    EPW31216   4.348   3.040   6.676
 7628WAT      O31217   3.880   1.954   6.598
 7628WAT     H131218   3.848   1.897   6.541
 7628WAT     H231219   3.844   2.030   6.574
 7628WAT    EPW31220   3.870   1.957   6.586
 7629WAT      O31221   3.960   1.279   5.061
 7629WAT     H131222   3.967   1.304   4.978
 7629WAT     H231223   3.885   1.317   5.087
 7629WAT    EPW31224   3.950   1.289   5.053
 7630WAT      O31225   4.884   2.470   6.203
 7630WAT     H131226   4.881   2.384   6.189
 7630WAT     H231227   4.815   2.500   6.159
 7630WAT    EPW31228   4.873   2.462   6.194
 7631WAT      O31229   3.723   2.990   6.623
 7631WAT     H131230   3.728   3.002   6.710
 7631WAT     H231231   3.789   2.934   6.608
 7631WAT    EPW31232   3.734   2.983   6.634
 7632WAT      O31233   4.695   2.796   6.082
 7632WAT     H131234   4.747   2.788   6.013
 7632WAT     H231235   4.655   2.718   6.088
 7632WAT    EPW31236   4.697   2.783   6.073
 7633WAT      O31237   3.441   1.455   6.305
 7633WAT     H131238   3.407   1.378   6.282
 7633WAT     H231239   3.372   1.507   6.312
 7633WAT    EPW31240   3.426   1.451   6.303
 7634WAT      O31241   4.346   1.340   6.003
 7634WAT     H131242   4.413   1.395   6.016
 7634WAT     H231243   4.296   1.383   5.946
 7634WAT    EPW31244   4.348   1.355   5.997
 7635WAT      O31245   3.483   2.828   6.759
 7635WAT     H131246   3.542   2.871   6.806
 7635WAT     H231247   3.446   2.890   6.710
 7635WAT    EPW31248   3.486   2.844   6.759
 7636WAT      O31249   4.282   1.921   5.752
 7636WAT     H131250   4.337   1.860   5.782
 7636WAT     H231251   4.239   1.947   5.824
 7636WAT    EPW31252   4.284   1.916   5.767
 7637WAT      O31253   3.307   1.786   5.701
 7637WAT     H131254   3.270   1.816   5.774
 7637WAT     H231255   3.360   1.723   5.729
 7637WAT    EPW31256   3.309   1.781   5.716
 7638WAT      O31257   3.275   2.627   6.452
 7638WAT     H131258   3.218   2.669   6.503
 7638WAT     H231259   3.349   2.673   6.462
 7638WAT    EPW31260   3.278   2.640   6.461
 7639WAT      O31261   4.479   2.104   5.409
 7639WAT     H131262   4.486   2.019   5.427
 7639WAT     H231263   4.397   2.113   5.381
 7639WAT    EPW31264   4.468   2.093   5.407
 7640WAT      O31265   3.871   2.193   5.302
 7640WAT     H131266   3.881   2.207   5.217
 7640WAT     H231267   3.953   2.187   5.332
 7640WAT    EPW31268   3.884   2.194   5.294
 7641WAT      O31269   4.787   3.000   5.050
 7641WAT     H131270   4.850   2.986   5.109
 7641WAT     H231271   4.753   2.920   5.039
 7641WAT    EPW31272   4.791   2.986   5.057
 7642WAT      O31273   4.806   2.242   6.724
 7642WAT     H131274   4.870   2.225   6.781
 7642WAT     H231275   4.848   2.282   6.659
 7642WAT    EPW31276   4.822   2.245   6.723
 7643WAT      O31277   4.869   1.698   6.798
 7643WAT     H131278   4.849   1.762   6.853
 7643WAT     H231279   4.797   1.649   6.797
 7643WAT    EPW31280   4.855   1.700   6.806
 7644WAT      O31281   4.859   1.792   6.095
 7644WAT     H131282   4.775   1.817   6.087
 7644WAT     H231283   4.853   1.708   6.118
 7644WAT    EPW31284   4.846   1.783   6.097
 7645WAT      O31285   3.785   1.491   6.614
 7645WAT     H131286   3.808   1.433   6.553
 7645WAT     H231287   3.700   1.473   6.628
 7645WAT    EPW31288   3.776   1.480   6.607
 7646WAT      O31289   4.547   2.253   6.859
 7646WAT     H131290   4.634   2.249   6.856
 7646WAT     H231291   4.525   2.295   6.786
 7646WAT    EPW31292   4.557   2.258   6.848
 7647WAT      O31293   3.523   2.835   5.977
 7647WAT     H131294   3.515   2.754   5.946
 7647WAT     H231295   3.478   2.884   5.920
 7647WAT    EPW31296   3.515   2.830   5.964
 7648WAT      O31297   4.083   2.447   5.226
 7648WAT     H131298   4.155   2.412   5.190
 7648WAT     H231299   4.079   2.527   5.191
 7648WAT    EPW31300   4.093   2.454   5.215
 7649WAT      O31301   3.280   3.060   6.335
 7649WAT     H131302   3.329   3.054   6.407
 7649WAT     H231303   3.299   2.986   6.292
 7649WAT    EPW31304   3.290   3.048   6.340
 7650WAT      O31305   4.224   1.311   3.650
 7650WAT     H131306   4.199   1.360   3.582
 7650WAT     H231307   4.310   1.304   3.640
 7650WAT    EPW31308   4.233   1.317   3.638
 7651WAT      O31309   4.205   2.003   4.117
 7651WAT     H131310   4.152   2.062   4.153
 7651WAT     H231311   4.244   1.966   4.185
 7651WAT    EPW31312   4.203   2.006   4.132
 7652WAT      O31313   3.166   1.796   3.313
 7652WAT     H131314   3.088   1.812   3.277
 7652WAT     H231315   3.170   1.709   3.315
 7652WAT    EPW31316   3.155   1.785   3.308
 7653WAT      O31317   4.472   2.109   3.784
 7653WAT     H131318   4.480   2.110   3.697
 7653WAT     H231319   4.413   2.046   3.799
 7653WAT    EPW31320   4.464   2.100   3.774
 7654WAT      O31321   3.871   1.420   3.565
 7654WAT     H131322   3.864   1.488   3.510
 7654WAT     H231323   3.945   1.381   3.540
 7654WAT    EPW31324   3.881   1.424   3.553
 7655WAT      O31325   3.843   2.443   4.794
 7655WAT     H131326   3.819   2.442   4.878
 7655WAT     H231327   3.768   2.428   4.752
 7655WAT    EPW31328   3.828   2.440   4.801
 7656WAT      O31329   3.781   1.703   4.243
 7656WAT     H131330   3.849   1.705   4.188
 7656WAT     H231331   3.776   1.620   4.267
 7656WAT    EPW31332   3.790   1.691   4.238
 7657WAT      O31333   3.530   1.952   3.710
 7657WAT     H131334   3.612   1.934   3.735
 7657WAT     H231335   3.483   1.891   3.750
 7657WAT    EPW31336   3.535   1.941   3.720
 7658WAT      O31337   3.956   2.495   3.592
 7658WAT     H131338   3.989   2.431   3.641
 7658WAT     H231339   3.980   2.474   3.511
 7658WAT    EPW31340   3.965   2.483   3.588
 7659WAT      O31341   4.153   1.908   4.726
 7659WAT     H131342   4.068   1.899   4.708
 7659WAT     H231343   4.156   1.983   4.772
 7659WAT    EPW31344   4.141   1.918   4.730
 7660WAT      O31345   3.590   1.462   3.637
 7660WAT     H131346   3.560   1.512   3.572
 7660WAT     H231347   3.677   1.470   3.631
 7660WAT    EPW31348   3.598   1.470   3.626
 7661WAT      O31349   4.609   1.204   4.638
 7661WAT     H131350   4.593   1.281   4.599
 7661WAT     H231351   4.532   1.182   4.672
 7661WAT    EPW31352   4.595   1.213   4.637
 7662WAT      O31353   3.888   1.376   3.859
 7662WAT     H131354   3.895   1.462   3.872
 7662WAT     H231355   3.884   1.368   3.772
 7662WAT    EPW31356   3.888   1.388   3.848
 7663WAT      O31357   4.355   1.669   3.089
 7663WAT     H131358   4.310   1.737   3.120
 7663WAT     H231359   4.367   1.618   3.159
 7663WAT    EPW31360   4.350   1.671   3.104
 7664WAT      O31361   3.176   1.918   4.009
 7664WAT     H131362   3.150   2.002   4.002
 7664WAT     H231363   3.109   1.880   4.051
 7664WAT    EPW31364   3.162   1.925   4.014
 7665WAT      O31365   3.479   1.400   4.058
 7665WAT     H131366   3.427   1.337   4.028
 7665WAT     H231367   3.538   1.356   4.105
 7665WAT    EPW31368   3.480   1.384   4.061
 7666WAT      O31369   3.809   1.613   4.988
 7666WAT     H131370   3.821   1.568   4.915
 7666WAT     H231371   3.838   1.693   4.968
 7666WAT    EPW31372   3.815   1.619   4.974
 7667WAT      O31373   4.895   1.666   3.719
 7667WAT     H131374   4.860   1.734   3.761
 7667WAT     H231375   4.831   1.606   3.720
 7667WAT    EPW31376   4.880   1.667   3.725
 7668WAT      O31377   3.383   1.573   4.887
 7668WAT     H131378   3.305   1.534   4.879
 7668WAT     H231379   3.432   1.532   4.827
 7668WAT    EPW31380   3.378   1.561   4.877
 7669WAT      O31381   4.047   1.337   4.803
 7669WAT     H131382   4.065   1.257   4.776
 7669WAT     H231383   4.033   1.382   4.729
 7669WAT    EPW31384   4.048   1.332   4.788
 7670WAT      O31385   4.107   1.830   3.681
 7670WAT     H131386   4.136   1.807   3.602
 7670WAT     H231387   4.180   1.838   3.728
 7670WAT    EPW31388   4.122   1.828   3.676
 7671WAT      O31389   4.179   1.864   3.193
 7671WAT     H131390   4.207   1.943   3.218
 7671WAT     H231391   4.101   1.880   3.156
 7671WAT    EPW31392   4.172   1.878   3.191
 7672WAT      O31393   4.862   1.498   4.255
 7672WAT     H131394   4.938   1.505   4.213
 7672WAT     H231395   4.868   1.421   4.295
 7672WAT    EPW31396   4.874   1.488   4.255
 7673WAT      O31397   3.117   1.628   4.645
 7673WAT     H131398   3.117   1.687   4.710
 7673WAT     H231399   3.177   1.659   4.589
 7673WAT    EPW31400   3.126   1.641   4.646
 7674WAT      O31401   4.065   2.681   3.174
 7674WAT     H131402   4.047   2.736   3.240
 7674WAT     H231403   4.142   2.710   3.144
 7674WAT    EPW31404   4.074   2.693   3.180
 7675WAT      O31405   4.416   1.471   3.280
 7675WAT     H131406   4.470   1.402   3.287
 7675WAT     H231407   4.422   1.510   3.357
 7675WAT    EPW31408   4.425   1.466   3.292
 7676WAT      O31409   3.211   1.587   3.537
 7676WAT     H131410   3.200   1.501   3.540
 7676WAT     H231411   3.164   1.617   3.604
 7676WAT    EPW31412   3.202   1.579   3.547
 7677WAT      O31413   4.141   1.708   3.411
 7677WAT     H131414   4.091   1.642   3.386
 7677WAT     H231415   4.147   1.759   3.340
 7677WAT    EPW31416   4.135   1.706   3.397
 7678WAT      O31417   4.141   1.402   3.400
 7678WAT     H131418   4.096   1.362   3.338
 7678WAT     H231419   4.219   1.418   3.363
 7678WAT    EPW31420   4.146   1.399   3.385
 7679WAT      O31421   4.001   1.639   3.852
 7679WAT     H131422   4.009   1.696   3.787
 7679WAT     H231423   4.013   1.688   3.923
 7679WAT    EPW31424   4.004   1.655   3.853
 7680WAT      O31425   3.462   1.221   3.687
 7680WAT     H131426   3.516   1.290   3.686
 7680WAT     H231427   3.462   1.194   3.604
 7680WAT    EPW31428   3.470   1.227   3.675
 7681WAT      O31429   3.758   2.265   4.090
 7681WAT     H131430   3.775   2.244   4.173
 7681WAT     H231431   3.692   2.211   4.068
 7681WAT    EPW31432   3.751   2.254   4.099
 7682WAT      O31433   4.380   1.656   4.441
 7682WAT     H131434   4.371   1.688   4.522
 7682WAT     H231435   4.321   1.592   4.437
 7682WAT    EPW31436   4.370   1.651   4.453
 7683WAT      O31437   3.833   2.258   4.349
 7683WAT     H131438   3.838   2.343   4.369
 7683WAT     H231439   3.804   2.221   4.422
 7683WAT    EPW31440   3.829   2.265   4.363
 7684WAT      O31441   4.506   1.250   3.725
 7684WAT     H131442   4.511   1.219   3.806
 7684WAT     H231443   4.538   1.186   3.676
 7684WAT    EPW31444   4.512   1.236   3.730
 7685WAT      O31445   3.115   2.696   4.970
 7685WAT     H131446   3.190   2.730   4.996
 7685WAT     H231447   3.132   2.610   4.964
 7685WAT    EPW31448   3.129   2.688   4.973
 7686WAT      O31449   4.752   1.674   4.556
 7686WAT     H131450   4.830   1.652   4.589
 7686WAT     H231451   4.705   1.696   4.626
 7686WAT    EPW31452   4.757   1.674   4.571
 7687WAT      O31453   3.507   1.602   3.853
 7687WAT     H131454   3.534   1.559   3.782
 7687WAT     H231455   3.489   1.539   3.910
 7687WAT    EPW31456   3.508   1.587   3.851
 7688WAT      O31457   3.321   1.713   4.161
 7688WAT     H131458   3.405   1.735   4.157
 7688WAT     H231459   3.282   1.770   4.108
 7688WAT    EPW31460   3.328   1.724   4.152
 7689WAT      O31461   4.999   2.823   4.700
 7689WAT     H131462   4.931   2.854   4.655
 7689WAT     H231463   4.962   2.777   4.764
 7689WAT    EPW31464   4.983   2.821   4.703
 7690WAT      O31465   4.565   2.026   3.233
 7690WAT     H131466   4.543   2.099   3.191
 7690WAT     H231467   4.520   2.031   3.308
 7690WAT    EPW31468   4.555   2.037   3.238
 7691WAT      O31469   4.984   1.512   3.178
 7691WAT     H131470   4.918   1.455   3.181
 7691WAT     H231471   4.965   1.563   3.110
 7691WAT    EPW31472   4.971   1.511   3.169
 7692WAT      O31473   3.906   1.881   4.973
 7692WAT     H131474   3.858   1.939   5.017
 7692WAT     H231475   3.904   1.911   4.891
 7692WAT    EPW31476   3.899   1.894   4.967
 7693WAT      O31477   5.016   1.949   4.434
 7693WAT     H131478   5.038   1.869   4.406
 7693WAT     H231479   4.931   1.955   4.415
 7693WAT    EPW31480   5.007   1.939   4.427
 7694WAT      O31481   3.148   2.178   3.473
 7694WAT     H131482   3.130   2.095   3.489
 7694WAT     H231483   3.214   2.175   3.416
 7694WAT    EPW31484   3.155   2.166   3.467
 7695WAT      O31485   4.784   1.467   3.406
 7695WAT     H131486   4.859   1.427   3.426
 7695WAT     H231487   4.810   1.539   3.364
 7695WAT    EPW31488   4.799   1.472   3.403
 7696WAT      O31489   4.429   1.696   3.913
 7696WAT     H131490   4.464   1.711   3.992
 7696WAT     H231491   4.384   1.622   3.925
 7696WAT    EPW31492   4.428   1.688   3.927
 7697WAT      O31493   3.148   2.440   3.194
 7697WAT     H131494   3.224   2.397   3.199
 7697WAT     H231495   3.150   2.493   3.263
 7697WAT    EPW31496   3.160   2.441   3.205
 7698WAT      O31497   3.877   1.618   3.359
 7698WAT     H131498   3.877   1.607   3.273
 7698WAT     H231499   3.859   1.703   3.368
 7698WAT    EPW31500   3.874   1.629   3.348
 7699WAT      O31501   3.464   1.962   4.809
 7699WAT     H131502   3.410   1.911   4.855
 7699WAT     H231503   3.466   1.923   4.731
 7699WAT    EPW31504   3.456   1.948   4.804
 7700WAT      O31505   3.512   1.901   3.323
 7700WAT     H131506   3.500   1.857   3.396
 7700WAT     H231507   3.454   1.867   3.267
 7700WAT    EPW31508   3.502   1.890   3.325
 7701WAT      O31509   3.529   2.084   3.982
 7701WAT     H131510   3.451   2.079   3.944
 7701WAT     H231511   3.536   2.009   4.026
 7701WAT    EPW31512   3.519   2.073   3.983
 7702WAT      O31513   3.572   2.058   4.329
 7702WAT     H131514   3.575   1.991   4.274
 7702WAT     H231515   3.507   2.108   4.298
 7702WAT    EPW31516   3.563   2.055   4.317
 7703WAT      O31517   4.562   1.829   4.169
 7703WAT     H131518   4.495   1.862   4.215
 7703WAT     H231519   4.580   1.893   4.112
 7703WAT    EPW31520   4.555   1.844   4.167
 7704WAT      O31521   4.226   1.420   4.512
 7704WAT     H131522   4.241   1.338   4.487
 7704WAT     H231523   4.264   1.426   4.590
 7704WAT    EPW31524   4.234   1.409   4.520
 7705WAT      O31525   4.381   1.626   3.520
 7705WAT     H131526   4.430   1.698   3.512
 7705WAT     H231527   4.302   1.652   3.494
 7705WAT    EPW31528   4.376   1.641   3.515
 7706WAT      O31529   3.352   2.194   4.885
 7706WAT     H131530   3.348   2.244   4.814
 7706WAT     H231531   3.385   2.118   4.856
 7706WAT    EPW31532   3.356   2.190   4.870
 7707WAT      O31533   4.512   2.414   4.711
 7707WAT     H131534   4.561   2.486   4.721
 7707WAT     H231535   4.552   2.371   4.646
 7707WAT    EPW31536   4.525   2.418   4.703
 7708WAT      O31537   3.717   1.324   3.286
 7708WAT     H131538   3.727   1.314   3.372
 7708WAT     H231539   3.646   1.375   3.279
 7708WAT    EPW31540   3.708   1.330   3.298
 7709WAT      O31541   4.687   2.269   4.527
 7709WAT     H131542   4.692   2.281   4.441
 7709WAT     H231543   4.762   2.301   4.557
 7709WAT    EPW31544   4.699   2.275   4.519
 7710WAT      O31545   4.306   2.804   4.955
 7710WAT     H131546   4.322   2.832   5.036
 7710WAT     H231547   4.332   2.870   4.904
 7710WAT    EPW31548   4.312   2.818   4.959
 7711WAT      O31549   4.790   1.299   4.826
 7711WAT     H131550   4.726   1.259   4.781
 7711WAT     H231551   4.793   1.255   4.901
 7711WAT    EPW31552   4.781   1.286   4.830
 7712WAT      O31553   3.429   2.155   3.410
 7712WAT     H131554   3.462   2.077   3.388
 7712WAT     H231555   3.494   2.192   3.456
 7712WAT    EPW31556   3.444   2.149   3.414
 7713WAT      O31557   4.260   2.249   4.487
 7713WAT     H131558   4.245   2.310   4.547
 7713WAT     H231559   4.313   2.194   4.528
 7713WAT    EPW31560   4.266   2.250   4.502
 7714WAT      O31561   3.129   1.321   3.507
 7714WAT     H131562   3.142   1.250   3.458
 7714WAT     H231563   3.092   1.289   3.580
 7714WAT    EPW31564   3.126   1.306   3.511
 7715WAT      O31565   4.098   2.089   3.553
 7715WAT     H131566   4.104   2.154   3.611
 7715WAT     H231567   4.080   2.020   3.602
 7715WAT    EPW31568   4.097   2.089   3.569
 7716WAT      O31569   3.548   1.541   3.204
 7716WAT     H131570   3.497   1.546   3.133
 7716WAT     H231571   3.626   1.565   3.174
 7716WAT    EPW31572   3.552   1.545   3.189
 7717WAT      O31573   4.021   2.294   3.996
 7717WAT     H131574   3.936   2.275   4.004
 7717WAT     H231575   4.053   2.278   4.075
 7717WAT    EPW31576   4.013   2.289   4.009
 7718WAT      O31577   3.406   2.263   4.227
 7718WAT     H131578   3.478   2.312   4.224
 7718WAT     H231579   3.379   2.260   4.145
 7718WAT    EPW31580   3.412   2.270   4.215
 7719WAT      O31581   3.729   1.780   3.901
 7719WAT     H131582   3.813   1.761   3.911
 7719WAT     H231583   3.692   1.703   3.887
 7719WAT    EPW31584   3.736   1.766   3.900
 7720WAT      O31585   3.211   1.914   3.566
 7720WAT     H131586   3.260   1.885   3.633
 7720WAT     H231587   3.224   1.855   3.504
 7720WAT    EPW31588   3.220   1.901   3.567
 7721WAT      O31589   4.714   2.216   4.252
 7721WAT     H131590   4.713   2.139   4.291
 7721WAT     H231591   4.630   2.240   4.251
 7721WAT    EPW31592   4.702   2.208   4.257
 7722WAT      O31593   3.663   2.058   3.115
 7722WAT     H131594   3.602   2.017   3.162
 7722WAT     H231595   3.625   2.069   3.038
 7722WAT    EPW31596   3.648   2.053   3.111
 7723WAT      O31597   4.840   2.224   3.995
 7723WAT     H131598   4.811   2.264   4.067
 7723WAT     H231599   4.926   2.217   4.008
 7723WAT    EPW31600   4.848   2.229   4.008
 7724WAT      O31601   3.809   1.904   3.386
 7724WAT     H131602   3.836   1.986   3.393
 7724WAT     H231603   3.722   1.911   3.376
 7724WAT    EPW31604   3.800   1.917   3.386
 7725WAT      O31605   4.606   1.616   4.849
 7725WAT     H131606   4.553   1.662   4.902
 7725WAT     H231607   4.570   1.536   4.849
 7725WAT    EPW31608   4.593   1.611   4.857
 7726WAT      O31609   3.157   1.501   4.040
 7726WAT     H131610   3.161   1.535   3.960
 7726WAT     H231611   3.232   1.524   4.076
 7726WAT    EPW31612   3.168   1.509   4.033
 7727WAT      O31613   4.953   2.787   4.048
 7727WAT     H131614   4.982   2.813   3.970
 7727WAT     H231615   5.022   2.796   4.100
 7727WAT    EPW31616   4.967   2.792   4.044
 7728WAT      O31617   4.455   1.973   4.857
 7728WAT     H131618   4.462   1.983   4.943
 7728WAT     H231619   4.392   2.029   4.835
 7728WAT    EPW31620   4.447   1.983   4.866
 7729WAT      O31621   4.682   2.005   4.693
 7729WAT     H131622   4.714   2.083   4.714
 7729WAT     H231623   4.645   1.978   4.768
 7729WAT    EPW31624   4.681   2.012   4.707
 7730WAT      O31625   4.662   1.831   3.812
 7730WAT     H131626   4.587   1.798   3.844
 7730WAT     H231627   4.662   1.913   3.840
 7730WAT    EPW31628   4.651   1.838   3.821
 7731WAT      O31629   4.952   2.059   4.967
 7731WAT     H131630   4.947   2.025   4.887
 7731WAT     H231631   5.025   2.106   4.965
 7731WAT    EPW31632   4.962   2.061   4.955
 7732WAT      O31633   4.906   2.427   4.587
 7732WAT     H131634   4.968   2.372   4.562
 7732WAT     H231635   4.899   2.483   4.521
 7732WAT    EPW31636   4.914   2.427   4.574
 7733WAT      O31637   4.351   2.435   3.187
 7733WAT     H131638   4.419   2.383   3.170
 7733WAT     H231639   4.309   2.439   3.110
 7733WAT    EPW31640   4.355   2.428   3.173
 7734WAT      O31641   4.553   1.464   4.558
 7734WAT     H131642   4.627   1.509   4.552
 7734WAT     H231643   4.496   1.511   4.511
 7734WAT    EPW31644   4.555   1.477   4.551
 7735WAT      O31645   4.071   2.192   4.266
 7735WAT     H131646   4.118   2.229   4.329
 7735WAT     H231647   3.988   2.205   4.292
 7735WAT    EPW31648   4.065   2.199   4.279
 7736WAT      O31649   3.742   1.752   4.540
 7736WAT     H131650   3.758   1.678   4.583
 7736WAT     H231651   3.737   1.727   4.457
 7736WAT    EPW31652   3.743   1.738   4.534
 7737WAT      O31653   4.681   1.262   4.325
 7737WAT     H131654   4.653   1.344   4.321
 7737WAT     H231655   4.753   1.267   4.375
 7737WAT    EPW31656   4.688   1.275   4.332
 7738WAT      O31657   3.917   1.333   4.528
 7738WAT     H131658   3.987   1.365   4.488
 7738WAT     H231659   3.941   1.252   4.551
 7738WAT    EPW31660   3.931   1.326   4.526
 7739WAT      O31661   4.246   2.417   4.827
 7739WAT     H131662   4.322   2.446   4.794
 7739WAT     H231663   4.191   2.423   4.759
 7739WAT    EPW31664   4.249   2.422   4.812
 7740WAT      O31665   4.823   1.887   3.211
 7740WAT     H131666   4.861   1.955   3.171
 7740WAT     H231667   4.739   1.909   3.214
 7740WAT    EPW31668   4.816   1.900   3.206
 7741WAT      O31669   3.975   2.232   3.119
 7741WAT     H131670   3.894   2.214   3.091
 7741WAT     H231671   3.971   2.317   3.139
 7741WAT    EPW31672   3.962   2.242   3.118
 7742WAT      O31673   3.568   1.838   4.134
 7742WAT     H131674   3.612   1.828   4.060
 7742WAT     H231675   3.622   1.807   4.195
 7742WAT    EPW31676   3.582   1.832   4.132
 7743WAT      O31677   4.369   1.749   4.694
 7743WAT     H131678   4.304   1.796   4.728
 7743WAT     H231679   4.426   1.740   4.759
 7743WAT    EPW31680   4.368   1.754   4.708
 7744WAT      O31681   4.338   1.902   4.323
 7744WAT     H131682   4.368   1.944   4.394
 7744WAT     H231683   4.342   1.818   4.347
 7744WAT    EPW31684   4.343   1.896   4.337
 7745WAT      O31685   4.593   1.847   3.549
 7745WAT     H131686   4.614   1.827   3.631
 7745WAT     H231687   4.668   1.874   3.514
 7745WAT    EPW31688   4.607   1.848   3.556
 7746WAT      O31689   3.922   1.337   4.139
 7746WAT     H131690   3.840   1.322   4.163
 7746WAT     H231691   3.918   1.340   4.052
 7746WAT    EPW31692   3.910   1.335   4.130
 7747WAT      O31693   4.086   2.441   4.618
 7747WAT     H131694   4.007   2.434   4.653
 7747WAT     H231695   4.094   2.526   4.598
 7747WAT    EPW31696   4.076   2.452   4.620
 7748WAT      O31697   3.179   1.377   4.743
 7748WAT     H131698   3.165   1.456   4.709
 7748WAT     H231699   3.100   1.352   4.771
 7748WAT    EPW31700   3.165   1.385   4.742
 7749WAT      O31701   3.485   1.651   3.465
 7749WAT     H131702   3.498   1.618   3.385
 7749WAT     H231703   3.404   1.626   3.485
 7749WAT    EPW31704   3.475   1.643   3.456
 7750WAT      O31705   4.113   2.294   3.726
 7750WAT     H131706   4.083   2.262   3.802
 7750WAT     H231707   4.183   2.341   3.749
 7750WAT    EPW31708   4.119   2.296   3.741
 7751WAT      O31709   4.953   1.966   4.710
 7751WAT     H131710   4.867   1.954   4.722
 7751WAT     H231711   4.968   1.927   4.633
 7751WAT    EPW31712   4.943   1.959   4.700
 7752WAT      O31713   4.404   2.033   4.567
 7752WAT     H131714   4.379   1.961   4.610
 7752WAT     H231715   4.486   2.045   4.594
 7752WAT    EPW31716   4.413   2.024   4.578
 7753WAT      O31717   4.714   2.758   4.930
 7753WAT     H131718   4.791   2.719   4.938
 7753WAT     H231719   4.667   2.724   4.995
 7753WAT    EPW31720   4.718   2.747   4.941
 7754WAT      O31721   3.483   1.852   4.507
 7754WAT     H131722   3.520   1.914   4.458
 7754WAT     H231723   3.550   1.805   4.535
 7754WAT    EPW31724   3.498   1.854   4.504
 7755WAT      O31725   3.260   1.697   4.434
 7755WAT     H131726   3.268   1.680   4.349
 7755WAT     H231727   3.335   1.738   4.454
 7755WAT    EPW31728   3.273   1.700   4.424
 7756WAT      O31729   4.816   1.961   3.478
 7756WAT     H131730   4.827   1.955   3.392
 7756WAT     H231731   4.890   1.928   3.510
 7756WAT    EPW31732   4.829   1.955   3.470
 7757WAT      O31733   3.516   1.438   4.675
 7757WAT     H131734   3.508   1.354   4.696
 7757WAT     H231735   3.484   1.442   4.594
 7757WAT    EPW31736   3.510   1.426   4.666
 7758WAT      O31737   4.727   1.976   4.414
 7758WAT     H131738   4.726   1.889   4.426
 7758WAT     H231739   4.733   2.008   4.494
 7758WAT    EPW31740   4.728   1.968   4.427
 7759WAT      O31741   3.200   2.220   4.457
 7759WAT     H131742   3.232   2.241   4.378
 7759WAT     H231743   3.190   2.133   4.451
 7759WAT    EPW31744   3.203   2.210   4.444
 7760WAT      O31745   3.346   1.813   3.118
 7760WAT     H131746   3.279   1.815   3.174
 7760WAT     H231747   3.355   1.728   3.100
 7760WAT    EPW31748   3.337   1.801   3.124
 7761WAT      O31749   4.314   1.456   4.792
 7761WAT     H131750   4.324   1.527   4.841
 7761WAT     H231751   4.251   1.411   4.832
 7761WAT    EPW31752   4.306   1.459   4.805
 7762WAT      O31753   4.214   1.475   3.877
 7762WAT     H131754   4.144   1.526   3.872
 7762WAT     H231755   4.218   1.437   3.799
 7762WAT    EPW31756   4.204   1.477   3.865
 7763WAT      O31757   4.574   1.526   4.157
 7763WAT     H131758   4.659   1.536   4.172
 7763WAT     H231759   4.537   1.581   4.214
 7763WAT    EPW31760   4.581   1.536   4.168
 7764WAT      O31761   3.676   2.149   4.595
 7764WAT     H131762   3.637   2.226   4.603
 7764WAT     H231763   3.636   2.111   4.527
 7764WAT    EPW31764   3.665   2.155   4.586
 7765WAT      O31765   4.604   2.054   4.006
 7765WAT     H131766   4.671   2.108   4.022
 7765WAT     H231767   4.570   2.085   3.933
 7765WAT    EPW31768   4.609   2.067   3.998
 7766WAT      O31769   3.719   1.446   4.340
 7766WAT     H131770   3.633   1.455   4.348
 7766WAT     H231771   3.741   1.395   4.407
 7766WAT    EPW31772   3.710   1.440   4.351
 7767WAT      O31773   4.921   1.310   4.473
 7767WAT     H131774   4.916   1.306   4.560
 7767WAT     H231775   4.990   1.260   4.454
 7767WAT    EPW31776   4.931   1.302   4.483
 7768WAT      O31777   4.130   1.521   4.177
 7768WAT     H131778   4.056   1.476   4.189
 7768WAT     H231779   4.187   1.481   4.230
 7768WAT    EPW31780   4.127   1.509   4.187
 7769WAT      O31781   3.880   1.954   4.698
 7769WAT     H131782   3.848   1.897   4.641
 7769WAT     H231783   3.844   2.030   4.673
 7769WAT    EPW31784   3.870   1.957   4.686
 7770WAT      O31785   3.960   1.279   3.161
 7770WAT     H131786   3.967   1.304   3.077
 7770WAT     H231787   3.885   1.317   3.186
 7770WAT    EPW31788   3.950   1.289   3.152
 7771WAT      O31789   4.884   2.470   4.302
 7771WAT     H131790   4.881   2.384   4.289
 7771WAT     H231791   4.815   2.500   4.259
 7771WAT    EPW31792   4.873   2.462   4.294
 7772WAT      O31793   3.441   1.455   4.405
 7772WAT     H131794   3.407   1.378   4.381
 7772WAT     H231795   3.372   1.507   4.411
 7772WAT    EPW31796   3.426   1.451   4.402
 7773WAT      O31797   4.346   1.340   4.103
 7773WAT     H131798   4.413   1.395   4.115
 7773WAT     H231799   4.296   1.383   4.045
 7773WAT    EPW31800   4.348   1.355   4.096
 7774WAT      O31801   4.282   1.921   3.852
 7774WAT     H131802   4.337   1.860   3.882
 7774WAT     H231803   4.239   1.947   3.923
 7774WAT    EPW31804   4.284   1.916   3.867
 7775WAT      O31805   3.307   1.786   3.800
 7775WAT     H131806   3.270   1.816   3.874
 7775WAT     H231807   3.360   1.723   3.829
 7775WAT    EPW31808   3.309   1.781   3.815
 7776WAT      O31809   4.479   2.104   3.508
 7776WAT     H131810   4.486   2.019   3.526
 7776WAT     H231811   4.397   2.113   3.480
 7776WAT    EPW31812   4.468   2.093   3.507
 7777WAT      O31813   3.871   2.193   3.402
 7777WAT     H131814   3.881   2.207   3.316
 7777WAT     H231815   3.953   2.187   3.431
 7777WAT    EPW31816   3.884   2.194   3.394
 7778WAT      O31817   4.806   2.242   4.823
 7778WAT     H131818   4.870   2.225   4.881
 7778WAT     H231819   4.848   2.282   4.758
 7778WAT    EPW31820   4.822   2.245   4.822
 7779WAT      O31821   4.869   1.698   4.897
 7779WAT     H131822   4.849   1.762   4.952
 7779WAT     H231823   4.797   1.649   4.896
 7779WAT    EPW31824   4.855   1.700   4.905
 7780WAT      O31825   4.859   1.792   4.194
 7780WAT     H131826   4.775   1.817   4.187
 7780WAT     H231827   4.853   1.708   4.217
 7780WAT    EPW31828   4.846   1.783   4.196
 7781WAT      O31829   3.785   1.491   4.713
 7781WAT     H131830   3.808   1.433   4.652
 7781WAT     H231831   3.700   1.473   4.728
 7781WAT    EPW31832   3.776   1.480   4.706
 7782WAT      O31833   4.547   2.253   4.959
 7782WAT     H131834   4.634   2.249   4.955
 7782WAT     H231835   4.525   2.295   4.885
 7782WAT    EPW31836   4.557   2.258   4.947
 7783WAT      O31837   4.083   2.447   3.325
 7783WAT     H131838   4.155   2.412   3.289
 7783WAT     H231839   4.079   2.527   3.290
 7783WAT    EPW31840   4.093   2.454   3.315
 7784WAT      O31841   4.224   1.311   1.749
 7784WAT     H131842   4.199   1.360   1.681
 7784WAT     H231843   4.310   1.304   1.739
 7784WAT    EPW31844   4.233   1.317   1.737
 7785WAT      O31845   4.205   2.003   2.216
 7785WAT     H131846   4.152   2.062   2.252
 7785WAT     H231847   4.244   1.966   2.284
 7785WAT    EPW31848   4.203   2.006   2.232
 7786WAT      O31849   3.192   2.417   1.762
 7786WAT     H131850   3.147   2.429   1.836
 7786WAT     H231851   3.163   2.339   1.733
 7786WAT    EPW31852   3.181   2.407   1.768
 7787WAT      O31853   4.819   2.747   1.513
 7787WAT     H131854   4.889   2.695   1.513
 7787WAT     H231855   4.760   2.702   1.466
 7787WAT    EPW31856   4.821   2.733   1.506
 7788WAT      O31857   3.166   1.796   1.412
 7788WAT     H131858   3.088   1.812   1.376
 7788WAT     H231859   3.170   1.709   1.415
 7788WAT    EPW31860   3.155   1.785   1.407
 7789WAT      O31861   3.480   2.322   1.280
 7789WAT     H131862   3.441   2.285   1.211
 7789WAT     H231863   3.472   2.262   1.342
 7789WAT    EPW31864   3.473   2.308   1.279
 7790WAT      O31865   4.472   2.109   1.884
 7790WAT     H131866   4.480   2.110   1.797
 7790WAT     H231867   4.413   2.046   1.899
 7790WAT    EPW31868   4.464   2.100   1.873
 7791WAT      O31869   3.442   2.486   1.670
 7791WAT     H131870   3.503   2.469   1.730
 7791WAT     H231871   3.367   2.472   1.712
 7791WAT    EPW31872   3.440   2.482   1.685
 7792WAT      O31873   3.871   1.420   1.664
 7792WAT     H131874   3.864   1.488   1.610
 7792WAT     H231875   3.945   1.381   1.640
 7792WAT    EPW31876   3.881   1.424   1.653
 7793WAT      O31877   3.332   2.795   1.277
 7793WAT     H131878   3.378   2.804   1.204
 7793WAT     H231879   3.377   2.738   1.324
 7793WAT    EPW31880   3.345   2.788   1.273
 7794WAT      O31881   3.186   2.690   2.387
 7794WAT     H131882   3.198   2.662   2.469
 7794WAT     H231883   3.125   2.636   2.356
 7794WAT    EPW31884   3.178   2.678   2.395
 7795WAT      O31885   3.843   2.443   2.894
 7795WAT     H131886   3.819   2.442   2.978
 7795WAT     H231887   3.768   2.428   2.851
 7795WAT    EPW31888   3.828   2.440   2.900
 7796WAT      O31889   3.330   2.142   1.807
 7796WAT     H131890   3.284   2.103   1.745
 7796WAT     H231891   3.400   2.091   1.817
 7796WAT    EPW31892   3.334   2.129   1.799
 7797WAT      O31893   3.781   1.703   2.342
 7797WAT     H131894   3.849   1.705   2.287
 7797WAT     H231895   3.776   1.620   2.367
 7797WAT    EPW31896   3.790   1.691   2.338
 7798WAT      O31897   3.530   1.952   1.810
 7798WAT     H131898   3.612   1.934   1.834
 7798WAT     H231899   3.483   1.891   1.849
 7798WAT    EPW31900   3.535   1.941   1.819
 7799WAT      O31901   3.951   2.550   2.071
 7799WAT     H131902   3.985   2.471   2.074
 7799WAT     H231903   4.017   2.601   2.045
 7799WAT    EPW31904   3.966   2.546   2.067
 7800WAT      O31905   4.153   1.908   2.826
 7800WAT     H131906   4.068   1.899   2.808
 7800WAT     H231907   4.156   1.983   2.871
 7800WAT    EPW31908   4.141   1.918   2.830
 7801WAT      O31909   3.590   1.462   1.736
 7801WAT     H131910   3.560   1.512   1.671
 7801WAT     H231911   3.677   1.470   1.731
 7801WAT    EPW31912   3.598   1.470   1.726
 7802WAT      O31913   4.609   1.204   2.737
 7802WAT     H131914   4.593   1.281   2.699
 7802WAT     H231915   4.532   1.182   2.771
 7802WAT    EPW31916   4.595   1.213   2.737
 7803WAT      O31917   3.888   1.376   1.959
 7803WAT     H131918   3.895   1.462   1.971
 7803WAT     H231919   3.884   1.368   1.872
 7803WAT    EPW31920   3.888   1.388   1.948
 7804WAT      O31921   4.355   1.669   1.188
 7804WAT     H131922   4.310   1.737   1.219
 7804WAT     H231923   4.367   1.618   1.259
 7804WAT    EPW31924   4.350   1.671   1.203
 7805WAT      O31925   3.176   1.918   2.109
 7805WAT     H131926   3.150   2.002   2.101
 7805WAT     H231927   3.109   1.880   2.150
 7805WAT    EPW31928   3.162   1.925   2.114
 7806WAT      O31929   3.167   2.889   1.899
 7806WAT     H131930   3.108   2.945   1.867
 7806WAT     H231931   3.209   2.863   1.827
 7806WAT    EPW31932   3.164   2.894   1.884
 7807WAT      O31933   3.751   2.674   1.647
 7807WAT     H131934   3.693   2.646   1.706
 7807WAT     H231935   3.813   2.613   1.649
 7807WAT    EPW31936   3.751   2.661   1.656
 7808WAT      O31937   4.365   2.903   1.399
 7808WAT     H131938   4.438   2.950   1.409
 7808WAT     H231939   4.388   2.823   1.427
 7808WAT    EPW31940   4.379   2.898   1.405
 7809WAT      O31941   4.182   2.942   1.598
 7809WAT     H131942   4.203   2.995   1.664
 7809WAT     H231943   4.259   2.924   1.560
 7809WAT    EPW31944   4.196   2.947   1.602
 7810WAT      O31945   3.479   1.400   2.158
 7810WAT     H131946   3.427   1.337   2.127
 7810WAT     H231947   3.538   1.356   2.205
 7810WAT    EPW31948   3.480   1.384   2.160
 7811WAT      O31949   3.809   1.613   3.088
 7811WAT     H131950   3.821   1.568   3.014
 7811WAT     H231951   3.838   1.693   3.067
 7811WAT    EPW31952   3.815   1.619   3.074
 7812WAT      O31953   3.321   2.756   1.692
 7812WAT     H131954   3.387   2.699   1.693
 7812WAT     H231955   3.360   2.831   1.670
 7812WAT    EPW31956   3.337   2.759   1.689
 7813WAT      O31957   4.895   1.666   1.818
 7813WAT     H131958   4.860   1.734   1.861
 7813WAT     H231959   4.831   1.606   1.820
 7813WAT    EPW31960   4.880   1.667   1.824
 7814WAT      O31961   3.383   1.573   2.986
 7814WAT     H131962   3.305   1.534   2.979
 7814WAT     H231963   3.432   1.532   2.927
 7814WAT    EPW31964   3.378   1.561   2.976
 7815WAT      O31965   3.403   2.605   2.042
 7815WAT     H131966   3.445   2.570   1.974
 7815WAT     H231967   3.435   2.563   2.111
 7815WAT    EPW31968   3.414   2.594   2.042
 7816WAT      O31969   3.726   2.890   1.971
 7816WAT     H131970   3.811   2.901   1.952
 7816WAT     H231971   3.696   2.972   1.978
 7816WAT    EPW31972   3.734   2.904   1.969
 7817WAT      O31973   4.047   1.337   2.903
 7817WAT     H131974   4.065   1.257   2.875
 7817WAT     H231975   4.033   1.382   2.829
 7817WAT    EPW31976   4.048   1.332   2.888
 7818WAT      O31977   4.107   1.830   1.780
 7818WAT     H131978   4.136   1.807   1.701
 7818WAT     H231979   4.180   1.838   1.827
 7818WAT    EPW31980   4.122   1.828   1.775
 7819WAT      O31981   4.179   1.864   1.292
 7819WAT     H131982   4.207   1.943   1.317
 7819WAT     H231983   4.101   1.880   1.256
 7819WAT    EPW31984   4.172   1.878   1.290
 7820WAT      O31985   4.583   3.061   1.439
 7820WAT     H131986   4.650   3.047   1.384
 7820WAT     H231987   4.619   3.053   1.518
 7820WAT    EPW31988   4.598   3.058   1.442
 7821WAT      O31989   4.862   1.498   2.355
 7821WAT     H131990   4.938   1.505   2.312
 7821WAT     H231991   4.868   1.421   2.395
 7821WAT    EPW31992   4.874   1.488   2.354
 7822WAT      O31993   3.117   1.628   2.745
 7822WAT     H131994   3.117   1.687   2.809
 7822WAT     H231995   3.177   1.659   2.689
 7822WAT    EPW31996   3.126   1.641   2.746
 7823WAT      O31997   4.351   2.661   2.799
 7823WAT     H131998   4.348   2.700   2.877
 7823WAT     H231999   4.437   2.657   2.782
 7823WAT    EPW32000   4.363   2.666   2.808
 7824WAT      O32001   4.065   2.681   1.274
 7824WAT     H132002   4.047   2.736   1.339
 7824WAT     H232003   4.142   2.710   1.244
 7824WAT    EPW32004   4.074   2.693   1.279
 7825WAT      O32005   4.416   1.471   1.379
 7825WAT     H132006   4.470   1.402   1.387
 7825WAT     H232007   4.422   1.510   1.457
 7825WAT    EPW32008   4.425   1.466   1.392
 7826WAT      O32009   3.211   1.587   1.636
 7826WAT     H132010   3.200   1.501   1.639
 7826WAT     H232011   3.164   1.617   1.703
 7826WAT    EPW32012   3.202   1.579   1.646
 7827WAT      O32013   3.425   2.828   2.458
 7827WAT     H132014   3.355   2.778   2.470
 7827WAT     H232015   3.451   2.808   2.377
 7827WAT    EPW32016   3.419   2.818   2.447
 7828WAT      O32017   4.141   1.708   1.511
 7828WAT     H132018   4.091   1.642   1.485
 7828WAT     H232019   4.147   1.759   1.440
 7828WAT    EPW32020   4.135   1.706   1.496
 7829WAT      O32021   4.141   1.402   1.500
 7829WAT     H132022   4.096   1.362   1.437
 7829WAT     H232023   4.219   1.418   1.462
 7829WAT    EPW32024   4.146   1.399   1.485
 7830WAT      O32025   4.824   3.038   1.839
 7830WAT     H132026   4.779   3.110   1.859
 7830WAT     H232027   4.763   2.981   1.814
 7830WAT    EPW32028   4.808   3.040   1.838
 7831WAT      O32029   4.001   1.639   1.952
 7831WAT     H132030   4.009   1.696   1.886
 7831WAT     H232031   4.013   1.688   2.023
 7831WAT    EPW32032   4.004   1.655   1.953
 7832WAT      O32033   4.524   2.623   1.793
 7832WAT     H132034   4.594   2.574   1.812
 7832WAT     H232035   4.458   2.566   1.798
 7832WAT    EPW32036   4.524   2.607   1.796
 7833WAT      O32037   3.462   1.221   1.787
 7833WAT     H132038   3.516   1.290   1.786
 7833WAT     H232039   3.462   1.194   1.704
 7833WAT    EPW32040   3.470   1.227   1.774
 7834WAT      O32041   3.758   2.265   2.189
 7834WAT     H132042   3.775   2.244   2.272
 7834WAT     H232043   3.692   2.211   2.168
 7834WAT    EPW32044   3.751   2.254   2.198
 7835WAT      O32045   4.380   1.656   2.541
 7835WAT     H132046   4.371   1.688   2.621
 7835WAT     H232047   4.321   1.592   2.537
 7835WAT    EPW32048   4.370   1.651   2.552
 7836WAT      O32049   3.833   2.258   2.448
 7836WAT     H132050   3.838   2.343   2.468
 7836WAT     H232051   3.804   2.221   2.522
 7836WAT    EPW32052   3.829   2.265   2.462
 7837WAT      O32053   4.506   1.250   1.824
 7837WAT     H132054   4.511   1.219   1.905
 7837WAT     H232055   4.538   1.186   1.775
 7837WAT    EPW32056   4.512   1.236   1.829
 7838WAT      O32057   3.115   2.696   3.069
 7838WAT     H132058   3.190   2.730   3.095
 7838WAT     H232059   3.132   2.610   3.064
 7838WAT    EPW32060   3.129   2.688   3.072
 7839WAT      O32061   4.752   1.674   2.655
 7839WAT     H132062   4.830   1.652   2.689
 7839WAT     H232063   4.705   1.696   2.725
 7839WAT    EPW32064   4.757   1.674   2.670
 7840WAT      O32065   3.507   1.602   1.952
 7840WAT     H132066   3.534   1.559   1.881
 7840WAT     H232067   3.489   1.539   2.009
 7840WAT    EPW32068   3.508   1.587   1.950
 7841WAT      O32069   4.776   2.372   1.374
 7841WAT     H132070   4.788   2.343   1.455
 7841WAT     H232071   4.856   2.374   1.341
 7841WAT    EPW32072   4.789   2.368   1.381
 7842WAT      O32073   3.489   2.345   1.907
 7842WAT     H132074   3.574   2.337   1.890
 7842WAT     H232075   3.454   2.277   1.866
 7842WAT    EPW32076   3.497   2.334   1.898
 7843WAT      O32077   3.366   3.018   2.031
 7843WAT     H132078   3.299   2.968   2.006
 7843WAT     H232079   3.406   3.036   1.956
 7843WAT    EPW32080   3.362   3.013   2.016
 7844WAT      O32081   3.321   1.713   2.260
 7844WAT     H132082   3.405   1.735   2.256
 7844WAT     H232083   3.282   1.770   2.207
 7844WAT    EPW32084   3.328   1.724   2.252
 7845WAT      O32085   4.565   2.026   1.332
 7845WAT     H132086   4.543   2.099   1.290
 7845WAT     H232087   4.520   2.031   1.407
 7845WAT    EPW32088   4.555   2.037   1.337
 7846WAT      O32089   3.726   2.346   1.730
 7846WAT     H132090   3.797   2.395   1.739
 7846WAT     H232091   3.748   2.289   1.668
 7846WAT    EPW32092   3.740   2.345   1.723
 7847WAT      O32093   4.984   1.512   1.278
 7847WAT     H132094   4.918   1.455   1.280
 7847WAT     H232095   4.965   1.563   1.210
 7847WAT    EPW32096   4.971   1.511   1.268
 7848WAT      O32097   3.142   2.510   2.062
 7848WAT     H132098   3.075   2.559   2.090
 7848WAT     H232099   3.210   2.565   2.065
 7848WAT    EPW32100   3.142   2.525   2.067
 7849WAT      O32101   3.906   1.881   3.072
 7849WAT     H132102   3.858   1.939   3.116
 7849WAT     H232103   3.904   1.911   2.990
 7849WAT    EPW32104   3.899   1.894   3.066
 7850WAT      O32105   5.016   1.949   2.533
 7850WAT     H132106   5.038   1.869   2.506
 7850WAT     H232107   4.931   1.955   2.514
 7850WAT    EPW32108   5.007   1.939   2.526
 7851WAT      O32109   3.148   2.178   1.573
 7851WAT     H132110   3.130   2.095   1.588
 7851WAT     H232111   3.214   2.175   1.516
 7851WAT    EPW32112   3.155   2.166   1.567
 7852WAT      O32113   4.784   1.467   1.506
 7852WAT     H132114   4.859   1.427   1.525
 7852WAT     H232115   4.810   1.539   1.463
 7852WAT    EPW32116   4.799   1.472   1.502
 7853WAT      O32117   4.178   2.716   1.963
 7853WAT     H132118   4.126   2.779   1.934
 7853WAT     H232119   4.209   2.680   1.890
 7853WAT    EPW32120   4.175   2.720   1.948
 7854WAT      O32121   3.165   2.595   1.530
 7854WAT     H132122   3.221   2.652   1.567
 7854WAT     H232123   3.142   2.543   1.597
 7854WAT    EPW32124   3.170   2.596   1.545
 7855WAT      O32125   3.586   2.495   2.239
 7855WAT     H132126   3.633   2.524   2.307
 7855WAT     H232127   3.643   2.447   2.194
 7855WAT    EPW32128   3.601   2.492   2.242
 7856WAT      O32129   4.429   1.696   2.013
 7856WAT     H132130   4.464   1.711   2.092
 7856WAT     H232131   4.384   1.622   2.024
 7856WAT    EPW32132   4.428   1.688   2.026
 7857WAT      O32133   3.148   2.440   1.293
 7857WAT     H132134   3.224   2.397   1.299
 7857WAT     H232135   3.150   2.493   1.362
 7857WAT    EPW32136   3.160   2.441   1.304
 7858WAT      O32137   3.242   2.262   2.094
 7858WAT     H132138   3.286   2.249   2.019
 7858WAT     H232139   3.222   2.347   2.091
 7858WAT    EPW32140   3.246   2.272   2.082
 7859WAT      O32141   3.877   1.618   1.459
 7859WAT     H132142   3.877   1.607   1.372
 7859WAT     H232143   3.859   1.703   1.468
 7859WAT    EPW32144   3.874   1.629   1.447
 7860WAT      O32145   3.651   2.613   1.922
 7860WAT     H132146   3.663   2.698   1.940
 7860WAT     H232147   3.718   2.574   1.961
 7860WAT    EPW32148   3.663   2.620   1.930
 7861WAT      O32149   3.464   1.962   2.908
 7861WAT     H132150   3.410   1.911   2.955
 7861WAT     H232151   3.466   1.923   2.830
 7861WAT    EPW32152   3.456   1.948   2.903
 7862WAT      O32153   3.512   1.901   1.422
 7862WAT     H132154   3.500   1.857   1.496
 7862WAT     H232155   3.454   1.867   1.367
 7862WAT    EPW32156   3.502   1.890   1.425
 7863WAT      O32157   3.529   2.084   2.082
 7863WAT     H132158   3.451   2.079   2.044
 7863WAT     H232159   3.536   2.009   2.126
 7863WAT    EPW32160   3.519   2.073   2.083
 7864WAT      O32161   3.572   2.058   2.429
 7864WAT     H132162   3.575   1.991   2.374
 7864WAT     H232163   3.507   2.108   2.397
 7864WAT    EPW32164   3.563   2.055   2.416
 7865WAT      O32165   4.562   1.829   2.268
 7865WAT     H132166   4.495   1.862   2.315
 7865WAT     H232167   4.580   1.893   2.211
 7865WAT    EPW32168   4.555   1.844   2.267
 7866WAT      O32169   4.226   1.420   2.611
 7866WAT     H132170   4.241   1.338   2.587
 7866WAT     H232171   4.264   1.426   2.690
 7866WAT    EPW32172   4.234   1.409   2.619
 7867WAT      O32173   4.381   1.626   1.619
 7867WAT     H132174   4.430   1.698   1.612
 7867WAT     H232175   4.302   1.652   1.593
 7867WAT    EPW32176   4.376   1.641   1.614
 7868WAT      O32177   3.352   2.194   2.985
 7868WAT     H132178   3.348   2.244   2.913
 7868WAT     H232179   3.385   2.118   2.955
 7868WAT    EPW32180   3.356   2.190   2.970
 7869WAT      O32181   4.512   2.414   2.810
 7869WAT     H132182   4.561   2.486   2.820
 7869WAT     H232183   4.552   2.371   2.745
 7869WAT    EPW32184   4.525   2.418   2.802
 7870WAT      O32185   4.039   1.773   2.192
 7870WAT     H132186   4.087   1.843   2.213
 7870WAT     H232187   4.076   1.709   2.237
 7870WAT    EPW32188   4.052   1.774   2.202
 7871WAT      O32189   4.258   2.090   1.419
 7871WAT     H132190   4.257   2.162   1.370
 7871WAT     H232191   4.194   2.104   1.477
 7871WAT    EPW32192   4.248   2.103   1.421
 7872WAT      O32193   4.755   2.477   1.817
 7872WAT     H132194   4.791   2.442   1.889
 7872WAT     H232195   4.754   2.411   1.760
 7872WAT    EPW32196   4.760   2.462   1.819
 7873WAT      O32197   4.360   2.784   2.202
 7873WAT     H132198   4.299   2.754   2.146
 7873WAT     H232199   4.414   2.829   2.151
 7873WAT    EPW32200   4.359   2.786   2.186
 7874WAT      O32201   4.361   2.469   2.142
 7874WAT     H132202   4.281   2.491   2.169
 7874WAT     H232203   4.387   2.410   2.200
 7874WAT    EPW32204   4.353   2.463   2.154
 7875WAT      O32205   3.750   2.950   1.587
 7875WAT     H132206   3.735   2.873   1.624
 7875WAT     H232207   3.819   2.935   1.535
 7875WAT    EPW32208   3.758   2.936   1.584
 7876WAT      O32209   3.717   1.324   1.385
 7876WAT     H132210   3.727   1.314   1.471
 7876WAT     H232211   3.646   1.375   1.379
 7876WAT    EPW32212   3.708   1.330   1.397
 7877WAT      O32213   3.979   2.902   1.427
 7877WAT     H132214   4.042   2.918   1.486
 7877WAT     H232215   3.983   2.971   1.374
 7877WAT    EPW32216   3.989   2.914   1.428
 7878WAT      O32217   4.687   2.269   2.626
 7878WAT     H132218   4.692   2.281   2.540
 7878WAT     H232219   4.762   2.301   2.657
 7878WAT    EPW32220   4.699   2.275   2.618
 7879WAT      O32221   4.790   1.299   2.925
 7879WAT     H132222   4.726   1.259   2.881
 7879WAT     H232223   4.793   1.255   3.001
 7879WAT    EPW32224   4.781   1.286   2.930
 7880WAT      O32225   3.429   2.155   1.510
 7880WAT     H132226   3.462   2.077   1.487
 7880WAT     H232227   3.494   2.192   1.555
 7880WAT    EPW32228   3.444   2.149   1.513
 7881WAT      O32229   4.260   2.249   2.586
 7881WAT     H132230   4.245   2.310   2.647
 7881WAT     H232231   4.313   2.194   2.627
 7881WAT    EPW32232   4.266   2.250   2.601
 7882WAT      O32233   3.129   1.321   1.606
 7882WAT     H132234   3.142   1.250   1.557
 7882WAT     H232235   3.092   1.289   1.679
 7882WAT    EPW32236   3.126   1.306   1.610
 7883WAT      O32237   4.098   2.089   1.652
 7883WAT     H132238   4.104   2.154   1.710
 7883WAT     H232239   4.080   2.020   1.701
 7883WAT    EPW32240   4.097   2.089   1.668
 7884WAT      O32241   4.621   2.522   2.239
 7884WAT     H132242   4.573   2.552   2.172
 7884WAT     H232243   4.585   2.445   2.257
 7884WAT    EPW32244   4.609   2.515   2.232
 7885WAT      O32245   3.548   1.541   1.303
 7885WAT     H132246   3.497   1.546   1.233
 7885WAT     H232247   3.626   1.565   1.274
 7885WAT    EPW32248   3.552   1.545   1.289
 7886WAT      O32249   4.021   2.294   2.095
 7886WAT     H132250   3.936   2.275   2.103
 7886WAT     H232251   4.053   2.278   2.175
 7886WAT    EPW32252   4.013   2.289   2.108
 7887WAT      O32253   3.696   2.967   1.184
 7887WAT     H132254   3.740   2.897   1.213
 7887WAT     H232255   3.717   3.029   1.241
 7887WAT    EPW32256   3.706   2.966   1.197
 7888WAT      O32257   3.729   1.780   2.000
 7888WAT     H132258   3.813   1.761   2.010
 7888WAT     H232259   3.692   1.703   1.987
 7888WAT    EPW32260   3.736   1.766   2.000
 7889WAT      O32261   4.990   2.939   1.433
 7889WAT     H132262   5.060   2.892   1.408
 7889WAT     H232263   4.936   2.879   1.467
 7889WAT    EPW32264   4.993   2.923   1.434
 7890WAT      O32265   3.211   1.914   1.666
 7890WAT     H132266   3.260   1.885   1.732
 7890WAT     H232267   3.224   1.855   1.603
 7890WAT    EPW32268   3.220   1.901   1.666
 7891WAT      O32269   4.714   2.216   2.351
 7891WAT     H132270   4.713   2.139   2.391
 7891WAT     H232271   4.630   2.240   2.350
 7891WAT    EPW32272   4.702   2.208   2.357
 7892WAT      O32273   3.663   2.058   1.214
 7892WAT     H132274   3.602   2.017   1.262
 7892WAT     H232275   3.625   2.069   1.137
 7892WAT    EPW32276   3.648   2.053   1.210
 7893WAT      O32277   3.345   2.369   2.755
 7893WAT     H132278   3.303   2.317   2.699
 7893WAT     H232279   3.310   2.447   2.740
 7893WAT    EPW32280   3.334   2.373   2.744
 7894WAT      O32281   4.840   2.224   2.095
 7894WAT     H132282   4.811   2.264   2.167
 7894WAT     H232283   4.926   2.217   2.107
 7894WAT    EPW32284   4.848   2.229   2.107
 7895WAT      O32285   3.809   1.904   1.485
 7895WAT     H132286   3.836   1.986   1.492
 7895WAT     H232287   3.722   1.911   1.476
 7895WAT    EPW32288   3.800   1.917   1.485
 7896WAT      O32289   4.606   1.616   2.949
 7896WAT     H132290   4.553   1.662   3.001
 7896WAT     H232291   4.570   1.536   2.948
 7896WAT    EPW32292   4.593   1.611   2.956
 7897WAT      O32293   3.157   1.501   2.139
 7897WAT     H132294   3.161   1.535   2.059
 7897WAT     H232295   3.232   1.524   2.176
 7897WAT    EPW32296   3.168   1.509   2.133
 7898WAT      O32297   4.953   2.787   2.148
 7898WAT     H132298   4.982   2.813   2.069
 7898WAT     H232299   5.022   2.796   2.199
 7898WAT    EPW32300   4.967   2.792   2.144
 7899WAT      O32301   4.455   1.973   2.956
 7899WAT     H132302   4.462   1.983   3.043
 7899WAT     H232303   4.392   2.029   2.934
 7899WAT    EPW32304   4.447   1.983   2.966
 7900WAT      O32305   4.682   2.005   2.793
 7900WAT     H132306   4.714   2.083   2.813
 7900WAT     H232307   4.645   1.978   2.867
 7900WAT    EPW32308   4.681   2.012   2.807
 7901WAT      O32309   4.613   2.647   1.346
 7901WAT     H132310   4.647   2.567   1.349
 7901WAT     H232311   4.538   2.640   1.389
 7901WAT    EPW32312   4.607   2.634   1.353
 7902WAT      O32313   4.662   1.831   1.912
 7902WAT     H132314   4.587   1.798   1.943
 7902WAT     H232315   4.662   1.913   1.940
 7902WAT    EPW32316   4.651   1.838   1.920
 7903WAT      O32317   4.952   2.059   3.066
 7903WAT     H132318   4.947   2.025   2.986
 7903WAT     H232319   5.025   2.106   3.064
 7903WAT    EPW32320   4.962   2.061   3.054
 7904WAT      O32321   4.906   2.427   2.687
 7904WAT     H132322   4.968   2.372   2.661
 7904WAT     H232323   4.899   2.483   2.621
 7904WAT    EPW32324   4.914   2.427   2.673
 7905WAT      O32325   4.351   2.435   1.286
 7905WAT     H132326   4.419   2.383   1.269
 7905WAT     H232327   4.309   2.439   1.210
 7905WAT    EPW32328   4.355   2.428   1.272
 7906WAT      O32329   3.819   2.550   2.416
 7906WAT     H132330   3.789   2.609   2.473
 7906WAT     H232331   3.824   2.594   2.342
 7906WAT    EPW32332   3.815   2.565   2.414
 7907WAT      O32333   3.617   2.445   2.756
 7907WAT     H132334   3.536   2.416   2.773
 7907WAT     H232335   3.608   2.531   2.757
 7907WAT    EPW32336   3.604   2.453   2.759
 7908WAT      O32337   4.553   1.464   2.658
 7908WAT     H132338   4.627   1.509   2.651
 7908WAT     H232339   4.496   1.511   2.611
 7908WAT    EPW32340   4.555   1.477   2.650
 7909WAT      O32341   4.071   2.192   2.366
 7909WAT     H132342   4.118   2.229   2.428
 7909WAT     H232343   3.988   2.205   2.391
 7909WAT    EPW32344   4.065   2.199   2.379
 7910WAT      O32345   3.742   1.752   2.640
 7910WAT     H132346   3.758   1.678   2.682
 7910WAT     H232347   3.737   1.727   2.556
 7910WAT    EPW32348   3.743   1.738   2.634
 7911WAT      O32349   3.997   2.931   1.888
 7911WAT     H132350   4.052   2.999   1.894
 7911WAT     H232351   3.962   2.939   1.809
 7911WAT    EPW32352   4.000   2.943   1.877
 7912WAT      O32353   4.681   1.262   2.425
 7912WAT     H132354   4.653   1.344   2.420
 7912WAT     H232355   4.753   1.267   2.474
 7912WAT    EPW32356   4.688   1.275   2.431
 7913WAT      O32357   3.917   1.333   2.628
 7913WAT     H132358   3.987   1.365   2.587
 7913WAT     H232359   3.941   1.252   2.650
 7913WAT    EPW32360   3.931   1.326   2.625
 7914WAT      O32361   3.815   2.754   2.227
 7914WAT     H132362   3.753   2.812   2.209
 7914WAT     H232363   3.840   2.725   2.149
 7914WAT    EPW32364   3.810   2.758   2.213
 7915WAT      O32365   4.246   2.417   2.926
 7915WAT     H132366   4.322   2.446   2.894
 7915WAT     H232367   4.191   2.423   2.858
 7915WAT    EPW32368   4.249   2.422   2.911
 7916WAT      O32369   4.823   1.887   1.310
 7916WAT     H132370   4.861   1.955   1.270
 7916WAT     H232371   4.739   1.909   1.314
 7916WAT    EPW32372   4.816   1.900   1.305
 7917WAT      O32373   3.975   2.232   1.219
 7917WAT     H132374   3.894   2.214   1.190
 7917WAT     H232375   3.971   2.317   1.238
 7917WAT    EPW32376   3.962   2.242   1.217
 7918WAT      O32377   3.568   1.838   2.234
 7918WAT     H132378   3.612   1.828   2.159
 7918WAT     H232379   3.622   1.807   2.294
 7918WAT    EPW32380   3.582   1.832   2.232
 7919WAT      O32381   4.369   1.749   2.793
 7919WAT     H132382   4.304   1.796   2.828
 7919WAT     H232383   4.426   1.740   2.859
 7919WAT    EPW32384   4.368   1.754   2.808
 7920WAT      O32385   4.338   1.902   2.423
 7920WAT     H132386   4.368   1.944   2.493
 7920WAT     H232387   4.342   1.818   2.446
 7920WAT    EPW32388   4.343   1.896   2.437
 7921WAT      O32389   4.593   1.847   1.648
 7921WAT     H132390   4.614   1.827   1.730
 7921WAT     H232391   4.668   1.874   1.614
 7921WAT    EPW32392   4.607   1.848   1.655
 7922WAT      O32393   3.922   1.337   2.238
 7922WAT     H132394   3.840   1.322   2.262
 7922WAT     H232395   3.918   1.340   2.151
 7922WAT    EPW32396   3.910   1.335   2.229
 7923WAT      O32397   4.695   1.455   1.795
 7923WAT     H132398   4.624   1.408   1.812
 7923WAT     H232399   4.679   1.489   1.717
 7923WAT    EPW32400   4.682   1.453   1.786
 7924WAT      O32401   4.739   2.250   1.633
 7924WAT     H132402   4.787   2.177   1.629
 7924WAT     H232403   4.657   2.221   1.626
 7924WAT    EPW32404   4.734   2.235   1.631
 7925WAT      O32405   4.086   2.441   2.717
 7925WAT     H132406   4.007   2.434   2.752
 7925WAT     H232407   4.094   2.526   2.698
 7925WAT    EPW32408   4.076   2.452   2.720
 7926WAT      O32409   3.179   1.377   2.842
 7926WAT     H132410   3.165   1.456   2.809
 7926WAT     H232411   3.100   1.352   2.871
 7926WAT    EPW32412   3.165   1.385   2.841
 7927WAT      O32413   3.669   3.062   2.249
 7927WAT     H132414   3.671   3.067   2.336
 7927WAT     H232415   3.627   2.987   2.234
 7927WAT    EPW32416   3.663   3.051   2.260
 7928WAT      O32417   3.485   1.651   1.564
 7928WAT     H132418   3.498   1.618   1.485
 7928WAT     H232419   3.404   1.626   1.584
 7928WAT    EPW32420   3.475   1.643   1.556
 7929WAT      O32421   4.361   2.366   1.869
 7929WAT     H132422   4.369   2.400   1.949
 7929WAT     H232423   4.378   2.282   1.881
 7929WAT    EPW32424   4.365   2.359   1.882
 7930WAT      O32425   4.113   2.294   1.825
 7930WAT     H132426   4.083   2.262   1.901
 7930WAT     H232427   4.183   2.341   1.849
 7930WAT    EPW32428   4.119   2.296   1.840
 7931WAT      O32429   4.135   2.706   2.628
 7931WAT     H132430   4.204   2.694   2.681
 7931WAT     H232431   4.149   2.785   2.594
 7931WAT    EPW32432   4.147   2.716   2.631
 7932WAT      O32433   4.953   1.966   2.809
 7932WAT     H132434   4.867   1.954   2.822
 7932WAT     H232435   4.968   1.927   2.733
 7932WAT    EPW32436   4.943   1.959   2.800
 7933WAT      O32437   4.404   2.033   2.667
 7933WAT     H132438   4.379   1.961   2.709
 7933WAT     H232439   4.486   2.045   2.694
 7933WAT    EPW32440   4.413   2.024   2.677
 7934WAT      O32441   4.198   2.152   2.985
 7934WAT     H132442   4.230   2.221   2.942
 7934WAT     H232443   4.127   2.184   3.026
 7934WAT    EPW32444   4.192   2.167   2.985
 7935WAT      O32445   4.176   2.498   2.371
 7935WAT     H132446   4.107   2.539   2.406
 7935WAT     H232447   4.244   2.542   2.405
 7935WAT    EPW32448   4.176   2.511   2.381
 7936WAT      O32449   3.483   1.852   2.606
 7936WAT     H132450   3.520   1.914   2.557
 7936WAT     H232451   3.550   1.805   2.635
 7936WAT    EPW32452   3.498   1.854   2.603
 7937WAT      O32453   3.260   1.697   2.534
 7937WAT     H132454   3.268   1.680   2.448
 7937WAT     H232455   3.335   1.738   2.553
 7937WAT    EPW32456   3.273   1.700   2.524
 7938WAT      O32457   4.816   1.961   1.578
 7938WAT     H132458   4.827   1.955   1.491
 7938WAT     H232459   4.890   1.928   1.609
 7938WAT    EPW32460   4.829   1.955   1.569
 7939WAT      O32461   3.516   1.438   2.775
 7939WAT     H132462   3.508   1.354   2.795
 7939WAT     H232463   3.484   1.442   2.693
 7939WAT    EPW32464   3.510   1.426   2.766
 7940WAT      O32465   4.208   2.657   1.688
 7940WAT     H132466   4.188   2.741   1.672
 7940WAT     H232467   4.131   2.619   1.700
 7940WAT    EPW32468   4.194   2.664   1.688
 7941WAT      O32469   4.727   1.976   2.513
 7941WAT     H132470   4.726   1.889   2.526
 7941WAT     H232471   4.733   2.008   2.594
 7941WAT    EPW32472   4.728   1.968   2.527
 7942WAT      O32473   3.200   2.220   2.556
 7942WAT     H132474   3.232   2.241   2.478
 7942WAT     H232475   3.190   2.133   2.550
 7942WAT    EPW32476   3.203   2.210   2.544
 7943WAT      O32477   3.346   1.813   1.218
 7943WAT     H132478   3.279   1.815   1.273
 7943WAT     H232479   3.355   1.728   1.199
 7943WAT    EPW32480   3.337   1.801   1.223
 7944WAT      O32481   4.314   1.456   2.891
 7944WAT     H132482   4.324   1.527   2.941
 7944WAT     H232483   4.251   1.411   2.931
 7944WAT    EPW32484   4.306   1.459   2.905
 7945WAT      O32485   4.214   1.475   1.977
 7945WAT     H132486   4.144   1.526   1.971
 7945WAT     H232487   4.218   1.437   1.898
 7945WAT    EPW32488   4.204   1.477   1.964
 7946WAT      O32489   3.745   2.684   1.329
 7946WAT     H132490   3.789   2.692   1.404
 7946WAT     H232491   3.664   2.662   1.355
 7946WAT    EPW32492   3.739   2.682   1.344
 7947WAT      O32493   4.574   1.526   2.257
 7947WAT     H132494   4.659   1.536   2.271
 7947WAT     H232495   4.537   1.581   2.313
 7947WAT    EPW32496   4.581   1.536   2.267
 7948WAT      O32497   3.676   2.149   2.694
 7948WAT     H132498   3.637   2.226   2.702
 7948WAT     H232499   3.636   2.111   2.627
 7948WAT    EPW32500   3.665   2.155   2.686
 7949WAT      O32501   4.604   2.054   2.106
 7949WAT     H132502   4.671   2.108   2.122
 7949WAT     H232503   4.570   2.085   2.032
 7949WAT    EPW32504   4.609   2.067   2.097
 7950WAT      O32505   4.635   2.861   1.687
 7950WAT     H132506   4.618   2.795   1.742
 7950WAT     H232507   4.707   2.834   1.644
 7950WAT    EPW32508   4.643   2.847   1.688
 7951WAT      O32509   3.477   2.591   1.389
 7951WAT     H132510   3.453   2.560   1.467
 7951WAT     H232511   3.474   2.520   1.338
 7951WAT    EPW32512   3.473   2.576   1.393
 7952WAT      O32513   3.759   2.415   1.264
 7952WAT     H132514   3.678   2.388   1.278
 7952WAT     H232515   3.757   2.500   1.282
 7952WAT    EPW32516   3.747   2.424   1.268
 7953WAT      O32517   3.719   1.446   2.439
 7953WAT     H132518   3.633   1.455   2.447
 7953WAT     H232519   3.741   1.395   2.506
 7953WAT    EPW32520   3.710   1.440   2.451
 7954WAT      O32521   4.921   1.310   2.572
 7954WAT     H132522   4.916   1.306   2.659
 7954WAT     H232523   4.990   1.260   2.553
 7954WAT    EPW32524   4.931   1.302   2.582
 7955WAT      O32525   4.130   1.521   2.277
 7955WAT     H132526   4.056   1.476   2.288
 7955WAT     H232527   4.187   1.481   2.329
 7955WAT    EPW32528   4.127   1.509   2.286
 7956WAT      O32529   4.403   2.606   2.456
 7956WAT     H132530   4.423   2.636   2.535
 7956WAT     H232531   4.397   2.678   2.407
 7956WAT    EPW32532   4.405   2.621   2.460
 7957WAT      O32533   3.880   1.954   2.797
 7957WAT     H132534   3.848   1.897   2.740
 7957WAT     H232535   3.844   2.030   2.773
 7957WAT    EPW32536   3.870   1.957   2.785
 7958WAT      O32537   3.960   1.279   1.260
 7958WAT     H132538   3.967   1.304   1.177
 7958WAT     H232539   3.885   1.317   1.286
 7958WAT    EPW32540   3.950   1.289   1.251
 7959WAT      O32541   4.884   2.470   2.401
 7959WAT     H132542   4.881   2.384   2.388
 7959WAT     H232543   4.815   2.500   2.358
 7959WAT    EPW32544   4.873   2.462   2.393
 7960WAT      O32545   4.695   2.796   2.281
 7960WAT     H132546   4.747   2.788   2.212
 7960WAT     H232547   4.655   2.718   2.287
 7960WAT    EPW32548   4.697   2.783   2.272
 7961WAT      O32549   3.441   1.455   2.504
 7961WAT     H132550   3.407   1.378   2.481
 7961WAT     H232551   3.372   1.507   2.511
 7961WAT    EPW32552   3.426   1.451   2.502
 7962WAT      O32553   4.346   1.340   2.202
 7962WAT     H132554   4.413   1.395   2.215
 7962WAT     H232555   4.296   1.383   2.145
 7962WAT    EPW32556   4.348   1.355   2.195
 7963WAT      O32557   4.282   1.921   1.951
 7963WAT     H132558   4.337   1.860   1.981
 7963WAT     H232559   4.239   1.947   2.023
 7963WAT    EPW32560   4.284   1.916   1.966
 7964WAT      O32561   3.307   1.786   1.900
 7964WAT     H132562   3.270   1.816   1.973
 7964WAT     H232563   3.360   1.723   1.928
 7964WAT    EPW32564   3.309   1.781   1.915
 7965WAT      O32565   3.275   2.627   2.651
 7965WAT     H132566   3.218   2.669   2.702
 7965WAT     H232567   3.349   2.673   2.660
 7965WAT    EPW32568   3.278   2.640   2.660
 7966WAT      O32569   4.479   2.104   1.607
 7966WAT     H132570   4.486   2.019   1.626
 7966WAT     H232571   4.397   2.113   1.580
 7966WAT    EPW32572   4.468   2.093   1.606
 7967WAT      O32573   3.454   2.954   1.528
 7967WAT     H132574   3.440   2.969   1.444
 7967WAT     H232575   3.541   2.962   1.536
 7967WAT    EPW32576   3.465   2.957   1.517
 7968WAT      O32577   3.871   2.193   1.501
 7968WAT     H132578   3.881   2.207   1.416
 7968WAT     H232579   3.953   2.187   1.531
 7968WAT    EPW32580   3.884   2.194   1.493
 7969WAT      O32581   4.787   3.000   1.249
 7969WAT     H132582   4.850   2.986   1.307
 7969WAT     H232583   4.753   2.920   1.238
 7969WAT    EPW32584   4.791   2.986   1.256
 7970WAT      O32585   4.806   2.242   2.923
 7970WAT     H132586   4.870   2.225   2.980
 7970WAT     H232587   4.848   2.282   2.857
 7970WAT    EPW32588   4.822   2.245   2.921
 7971WAT      O32589   4.394   2.626   1.481
 7971WAT     H132590   4.369   2.613   1.564
 7971WAT     H232591   4.363   2.557   1.439
 7971WAT    EPW32592   4.386   2.614   1.487
 7972WAT      O32593   4.869   1.698   2.996
 7972WAT     H132594   4.849   1.762   3.052
 7972WAT     H232595   4.797   1.649   2.996
 7972WAT    EPW32596   4.855   1.700   3.004
 7973WAT      O32597   4.859   1.792   2.293
 7973WAT     H132598   4.775   1.817   2.286
 7973WAT     H232599   4.853   1.708   2.316
 7973WAT    EPW32600   4.846   1.783   2.296
 7974WAT      O32601   3.785   1.491   2.813
 7974WAT     H132602   3.808   1.433   2.752
 7974WAT     H232603   3.700   1.473   2.827
 7974WAT    EPW32604   3.776   1.480   2.806
 7975WAT      O32605   4.547   2.253   3.058
 7975WAT     H132606   4.634   2.249   3.054
 7975WAT     H232607   4.525   2.295   2.985
 7975WAT    EPW32608   4.557   2.258   3.047
 7976WAT      O32609   3.523   2.835   2.176
 7976WAT     H132610   3.515   2.754   2.145
 7976WAT     H232611   3.478   2.884   2.119
 7976WAT    EPW32612   3.515   2.830   2.163
 7977WAT      O32613   4.083   2.447   1.424
 7977WAT     H132614   4.155   2.412   1.389
 7977WAT     H232615   4.079   2.527   1.390
 7977WAT    EPW32616   4.093   2.454   1.414
 7978WAT      O32617   3.280   3.060   2.534
 7978WAT     H132618   3.329   3.054   2.606
 7978WAT     H232619   3.299   2.986   2.491
 7978WAT    EPW32620   3.290   3.048   2.538
 7979WAT      O32621   4.205   2.003   0.315
 7979WAT     H132622   4.152   2.062   0.352
 7979WAT     H232623   4.244   1.966   0.384
 7979WAT    EPW32624   4.203   2.006   0.331
 7980WAT      O32625   3.186   2.690   0.487
 7980WAT     H132626   3.198   2.662   0.568
 7980WAT     H232627   3.125   2.636   0.456
 7980WAT    EPW32628   3.178   2.678   0.494
 7981WAT      O32629   3.843   2.443   0.993
 7981WAT     H132630   3.819   2.442   1.077
 7981WAT     H232631   3.768   2.428   0.951
 7981WAT    EPW32632   3.828   2.440   0.999
 7982WAT      O32633   3.781   1.703   0.441
 7982WAT     H132634   3.849   1.705   0.387
 7982WAT     H232635   3.776   1.620   0.466
 7982WAT    EPW32636   3.790   1.691   0.437
 7983WAT      O32637   3.841   2.762   0.720
 7983WAT     H132638   3.855   2.838   0.679
 7983WAT     H232639   3.920   2.725   0.722
 7983WAT    EPW32640   3.855   2.768   0.714
 7984WAT      O32641   4.153   1.908   0.925
 7984WAT     H132642   4.068   1.899   0.907
 7984WAT     H232643   4.156   1.983   0.970
 7984WAT    EPW32644   4.141   1.918   0.929
 7985WAT      O32645   4.609   1.204   0.836
 7985WAT     H132646   4.593   1.281   0.798
 7985WAT     H232647   4.532   1.182   0.871
 7985WAT    EPW32648   4.595   1.213   0.836
 7986WAT      O32649   3.176   1.918   0.208
 7986WAT     H132650   3.150   2.002   0.201
 7986WAT     H232651   3.109   1.880   0.250
 7986WAT    EPW32652   3.162   1.925   0.213
 7987WAT      O32653   3.479   1.400   0.257
 7987WAT     H132654   3.427   1.337   0.226
 7987WAT     H232655   3.538   1.356   0.304
 7987WAT    EPW32656   3.480   1.384   0.260
 7988WAT      O32657   3.809   1.613   1.187
 7988WAT     H132658   3.821   1.568   1.113
 7988WAT     H232659   3.838   1.693   1.167
 7988WAT    EPW32660   3.815   1.619   1.173
 7989WAT      O32661   4.426   2.943   0.528
 7989WAT     H132662   4.500   2.988   0.527
 7989WAT     H232663   4.414   2.921   0.444
 7989WAT    EPW32664   4.435   2.946   0.515
 7990WAT      O32665   3.383   1.573   1.085
 7990WAT     H132666   3.305   1.534   1.078
 7990WAT     H232667   3.432   1.532   1.026
 7990WAT    EPW32668   3.378   1.561   1.076
 7991WAT      O32669   4.047   1.337   1.002
 7991WAT     H132670   4.065   1.257   0.975
 7991WAT     H232671   4.033   1.382   0.928
 7991WAT    EPW32672   4.048   1.332   0.987
 7992WAT      O32673   3.626   3.012   0.645
 7992WAT     H132674   3.655   3.006   0.727
 7992WAT     H232675   3.563   2.952   0.640
 7992WAT    EPW32676   3.621   3.002   0.656
 7993WAT      O32677   4.862   1.498   0.454
 7993WAT     H132678   4.938   1.505   0.411
 7993WAT     H232679   4.868   1.421   0.494
 7993WAT    EPW32680   4.874   1.488   0.454
 7994WAT      O32681   3.117   1.628   0.844
 7994WAT     H132682   3.117   1.687   0.909
 7994WAT     H232683   3.177   1.659   0.788
 7994WAT    EPW32684   3.126   1.641   0.845
 7995WAT      O32685   4.351   2.661   0.898
 7995WAT     H132686   4.348   2.700   0.977
 7995WAT     H232687   4.437   2.657   0.881
 7995WAT    EPW32688   4.363   2.666   0.907
 7996WAT      O32689   3.425   2.828   0.557
 7996WAT     H132690   3.355   2.778   0.570
 7996WAT     H232691   3.451   2.808   0.476
 7996WAT    EPW32692   3.419   2.818   0.547
 7997WAT      O32693   4.196   2.978   0.648
 7997WAT     H132694   4.273   2.970   0.607
 7997WAT     H232695   4.138   2.966   0.584
 7997WAT    EPW32696   4.199   2.975   0.633
 7998WAT      O32697   3.561   2.714   0.814
 7998WAT     H132698   3.645   2.720   0.791
 7998WAT     H232699   3.558   2.753   0.891
 7998WAT    EPW32700   3.573   2.720   0.822
 7999WAT      O32701   3.758   2.265   0.289
 7999WAT     H132702   3.775   2.244   0.371
 7999WAT     H232703   3.692   2.211   0.267
 7999WAT    EPW32704   3.751   2.254   0.298
 8000WAT      O32705   4.380   1.656   0.640
 8000WAT     H132706   4.371   1.688   0.721
 8000WAT     H232707   4.321   1.592   0.636
 8000WAT    EPW32708   4.370   1.651   0.651
 8001WAT      O32709   3.833   2.258   0.548
 8001WAT     H132710   3.838   2.343   0.568
 8001WAT     H232711   3.804   2.221   0.621
 8001WAT    EPW32712   3.829   2.265   0.561
 8002WAT      O32713   4.450   2.328   0.461
 8002WAT     H132714   4.399   2.287   0.518
 8002WAT     H232715   4.438   2.412   0.479
 8002WAT    EPW32716   4.441   2.334   0.472
 8003WAT      O32717   3.115   2.696   1.169
 8003WAT     H132718   3.190   2.730   1.194
 8003WAT     H232719   3.132   2.610   1.163
 8003WAT    EPW32720   3.129   2.688   1.172
 8004WAT      O32721   4.752   1.674   0.754
 8004WAT     H132722   4.830   1.652   0.788
 8004WAT     H232723   4.705   1.696   0.824
 8004WAT    EPW32724   4.757   1.674   0.770
 8005WAT      O32725   3.321   1.713   0.360
 8005WAT     H132726   3.405   1.735   0.355
 8005WAT     H232727   3.282   1.770   0.307
 8005WAT    EPW32728   3.328   1.724   0.351
 8006WAT      O32729   4.999   2.823   0.899
 8006WAT     H132730   4.931   2.854   0.854
 8006WAT     H232731   4.962   2.777   0.963
 8006WAT    EPW32732   4.983   2.821   0.902
 8007WAT      O32733   3.906   1.881   1.171
 8007WAT     H132734   3.858   1.939   1.216
 8007WAT     H232735   3.904   1.911   1.089
 8007WAT    EPW32736   3.899   1.894   1.166
 8008WAT      O32737   5.016   1.949   0.633
 8008WAT     H132738   5.038   1.869   0.605
 8008WAT     H232739   4.931   1.955   0.614
 8008WAT    EPW32740   5.007   1.939   0.626
 8009WAT      O32741   3.586   2.495   0.339
 8009WAT     H132742   3.633   2.524   0.406
 8009WAT     H232743   3.643   2.447   0.293
 8009WAT    EPW32744   3.601   2.492   0.342
 8010WAT      O32745   4.782   2.861   0.708
 8010WAT     H132746   4.715   2.912   0.729
 8010WAT     H232747   4.789   2.871   0.621
 8010WAT    EPW32748   4.773   2.870   0.698
 8011WAT      O32749   3.464   1.962   1.007
 8011WAT     H132750   3.410   1.911   1.054
 8011WAT     H232751   3.466   1.923   0.929
 8011WAT    EPW32752   3.456   1.948   1.003
 8012WAT      O32753   3.572   2.058   0.528
 8012WAT     H132754   3.575   1.991   0.473
 8012WAT     H232755   3.507   2.108   0.497
 8012WAT    EPW32756   3.563   2.055   0.515
 8013WAT      O32757   4.562   1.829   0.368
 8013WAT     H132758   4.495   1.862   0.414
 8013WAT     H232759   4.580   1.893   0.311
 8013WAT    EPW32760   4.555   1.844   0.366
 8014WAT      O32761   3.982   2.936   0.467
 8014WAT     H132762   3.954   2.872   0.415
 8014WAT     H232763   3.961   3.008   0.423
 8014WAT    EPW32764   3.975   2.937   0.453
 8015WAT      O32765   4.226   1.420   0.711
 8015WAT     H132766   4.241   1.338   0.686
 8015WAT     H232767   4.264   1.426   0.789
 8015WAT    EPW32768   4.234   1.409   0.719
 8016WAT      O32769   3.352   2.194   1.084
 8016WAT     H132770   3.348   2.244   1.013
 8016WAT     H232771   3.385   2.118   1.054
 8016WAT    EPW32772   3.356   2.190   1.069
 8017WAT      O32773   4.512   2.414   0.910
 8017WAT     H132774   4.561   2.486   0.920
 8017WAT     H232775   4.552   2.371   0.845
 8017WAT    EPW32776   4.525   2.418   0.902
 8018WAT      O32777   3.942   2.699   1.027
 8018WAT     H132778   3.977   2.681   1.105
 8018WAT     H232779   3.898   2.626   1.008
 8018WAT    EPW32780   3.941   2.685   1.036
 8019WAT      O32781   4.039   1.773   0.291
 8019WAT     H132782   4.087   1.843   0.312
 8019WAT     H232783   4.076   1.709   0.336
 8019WAT    EPW32784   4.052   1.774   0.301
 8020WAT      O32785   4.360   2.784   0.301
 8020WAT     H132786   4.299   2.754   0.245
 8020WAT     H232787   4.414   2.829   0.250
 8020WAT    EPW32788   4.359   2.786   0.285
 8021WAT      O32789   4.361   2.469   0.241
 8021WAT     H132790   4.281   2.491   0.269
 8021WAT     H232791   4.387   2.410   0.300
 8021WAT    EPW32792   4.353   2.463   0.254
 8022WAT      O32793   4.687   2.269   0.726
 8022WAT     H132794   4.692   2.281   0.640
 8022WAT     H232795   4.762   2.301   0.756
 8022WAT    EPW32796   4.699   2.275   0.717
 8023WAT      O32797   4.306   2.804   1.153
 8023WAT     H132798   4.322   2.832   1.234
 8023WAT     H232799   4.332   2.870   1.103
 8023WAT    EPW32800   4.312   2.818   1.158
 8024WAT      O32801   4.790   1.299   1.024
 8024WAT     H132802   4.726   1.259   0.980
 8024WAT     H232803   4.793   1.255   1.100
 8024WAT    EPW32804   4.781   1.286   1.029
 8025WAT      O32805   4.260   2.249   0.686
 8025WAT     H132806   4.245   2.310   0.746
 8025WAT     H232807   4.313   2.194   0.726
 8025WAT    EPW32808   4.266   2.250   0.701
 8026WAT      O32809   4.621   2.522   0.338
 8026WAT     H132810   4.573   2.552   0.272
 8026WAT     H232811   4.585   2.445   0.356
 8026WAT    EPW32812   4.609   2.515   0.331
 8027WAT      O32813   4.021   2.294   0.195
 8027WAT     H132814   3.936   2.275   0.203
 8027WAT     H232815   4.053   2.278   0.274
 8027WAT    EPW32816   4.013   2.289   0.208
 8028WAT      O32817   3.406   2.263   0.426
 8028WAT     H132818   3.478   2.312   0.423
 8028WAT     H232819   3.379   2.260   0.343
 8028WAT    EPW32820   3.412   2.270   0.413
 8029WAT      O32821   4.714   2.216   0.450
 8029WAT     H132822   4.713   2.139   0.490
 8029WAT     H232823   4.630   2.240   0.450
 8029WAT    EPW32824   4.702   2.208   0.456
 8030WAT      O32825   3.345   2.369   0.854
 8030WAT     H132826   3.303   2.317   0.798
 8030WAT     H232827   3.310   2.447   0.840
 8030WAT    EPW32828   3.334   2.373   0.844
 8031WAT      O32829   4.840   2.224   0.194
 8031WAT     H132830   4.811   2.264   0.266
 8031WAT     H232831   4.926   2.217   0.207
 8031WAT    EPW32832   4.848   2.229   0.207
 8032WAT      O32833   4.606   1.616   1.048
 8032WAT     H132834   4.553   1.662   1.100
 8032WAT     H232835   4.570   1.536   1.047
 8032WAT    EPW32836   4.593   1.611   1.056
 8033WAT      O32837   4.953   2.787   0.247
 8033WAT     H132838   4.982   2.813   0.169
 8033WAT     H232839   5.022   2.796   0.299
 8033WAT    EPW32840   4.967   2.792   0.243
 8034WAT      O32841   4.455   1.973   1.056
 8034WAT     H132842   4.462   1.983   1.142
 8034WAT     H232843   4.392   2.029   1.034
 8034WAT    EPW32844   4.447   1.983   1.065
 8035WAT      O32845   4.682   2.005   0.892
 8035WAT     H132846   4.714   2.083   0.912
 8035WAT     H232847   4.645   1.978   0.966
 8035WAT    EPW32848   4.681   2.012   0.906
 8036WAT      O32849   4.952   2.059   1.166
 8036WAT     H132850   4.947   2.025   1.086
 8036WAT     H232851   5.025   2.106   1.163
 8036WAT    EPW32852   4.962   2.061   1.153
 8037WAT      O32853   4.906   2.427   0.786
 8037WAT     H132854   4.968   2.372   0.761
 8037WAT     H232855   4.899   2.483   0.720
 8037WAT    EPW32856   4.914   2.427   0.773
 8038WAT      O32857   3.819   2.550   0.516
 8038WAT     H132858   3.789   2.609   0.573
 8038WAT     H232859   3.824   2.594   0.441
 8038WAT    EPW32860   3.815   2.565   0.513
 8039WAT      O32861   3.617   2.445   0.856
 8039WAT     H132862   3.536   2.416   0.872
 8039WAT     H232863   3.608   2.531   0.856
 8039WAT    EPW32864   3.604   2.453   0.858
 8040WAT      O32865   4.553   1.464   0.757
 8040WAT     H132866   4.627   1.509   0.751
 8040WAT     H232867   4.496   1.511   0.710
 8040WAT    EPW32868   4.555   1.477   0.749
 8041WAT      O32869   4.071   2.192   0.465
 8041WAT     H132870   4.118   2.229   0.528
 8041WAT     H232871   3.988   2.205   0.491
 8041WAT    EPW32872   4.065   2.199   0.478
 8042WAT      O32873   3.742   1.752   0.739
 8042WAT     H132874   3.758   1.678   0.782
 8042WAT     H232875   3.737   1.727   0.656
 8042WAT    EPW32876   3.743   1.738   0.733
 8043WAT      O32877   4.681   1.262   0.524
 8043WAT     H132878   4.653   1.344   0.520
 8043WAT     H232879   4.753   1.267   0.574
 8043WAT    EPW32880   4.688   1.275   0.531
 8044WAT      O32881   3.917   1.333   0.727
 8044WAT     H132882   3.987   1.365   0.687
 8044WAT     H232883   3.941   1.252   0.750
 8044WAT    EPW32884   3.931   1.326   0.724
 8045WAT      O32885   3.815   2.754   0.327
 8045WAT     H132886   3.753   2.812   0.308
 8045WAT     H232887   3.840   2.725   0.248
 8045WAT    EPW32888   3.810   2.758   0.312
 8046WAT      O32889   4.246   2.417   1.026
 8046WAT     H132890   4.322   2.446   0.993
 8046WAT     H232891   4.191   2.423   0.958
 8046WAT    EPW32892   4.249   2.422   1.011
 8047WAT      O32893   4.637   2.672   0.876
 8047WAT     H132894   4.672   2.699   0.951
 8047WAT     H232895   4.666   2.731   0.818
 8047WAT    EPW32896   4.647   2.685   0.879
 8048WAT      O32897   3.568   1.838   0.333
 8048WAT     H132898   3.612   1.828   0.259
 8048WAT     H232899   3.622   1.807   0.394
 8048WAT    EPW32900   3.582   1.832   0.331
 8049WAT      O32901   4.369   1.749   0.892
 8049WAT     H132902   4.304   1.796   0.927
 8049WAT     H232903   4.426   1.740   0.958
 8049WAT    EPW32904   4.368   1.754   0.907
 8050WAT      O32905   4.338   1.902   0.522
 8050WAT     H132906   4.368   1.944   0.592
 8050WAT     H232907   4.342   1.818   0.545
 8050WAT    EPW32908   4.343   1.896   0.536
 8051WAT      O32909   4.081   2.919   0.915
 8051WAT     H132910   4.128   2.859   0.873
 8051WAT     H232911   4.045   2.875   0.981
 8051WAT    EPW32912   4.082   2.904   0.918
 8052WAT      O32913   3.922   1.337   0.338
 8052WAT     H132914   3.840   1.322   0.362
 8052WAT     H232915   3.918   1.340   0.251
 8052WAT    EPW32916   3.910   1.335   0.328
 8053WAT      O32917   4.086   2.441   0.817
 8053WAT     H132918   4.007   2.434   0.852
 8053WAT     H232919   4.094   2.526   0.797
 8053WAT    EPW32920   4.076   2.452   0.819
 8054WAT      O32921   3.179   1.377   0.941
 8054WAT     H132922   3.165   1.456   0.908
 8054WAT     H232923   3.100   1.352   0.970
 8054WAT    EPW32924   3.165   1.385   0.941
 8055WAT      O32925   3.669   3.062   0.348
 8055WAT     H132926   3.671   3.067   0.435
 8055WAT     H232927   3.627   2.987   0.333
 8055WAT    EPW32928   3.663   3.051   0.359
 8056WAT      O32929   4.135   2.706   0.727
 8056WAT     H132930   4.204   2.694   0.780
 8056WAT     H232931   4.149   2.785   0.693
 8056WAT    EPW32932   4.147   2.716   0.730
 8057WAT      O32933   4.953   1.966   0.909
 8057WAT     H132934   4.867   1.954   0.921
 8057WAT     H232935   4.968   1.927   0.832
 8057WAT    EPW32936   4.943   1.959   0.899
 8058WAT      O32937   4.404   2.033   0.766
 8058WAT     H132938   4.379   1.961   0.808
 8058WAT     H232939   4.486   2.045   0.793
 8058WAT    EPW32940   4.413   2.024   0.776
 8059WAT      O32941   3.346   3.011   0.893
 8059WAT     H132942   3.280   2.954   0.902
 8059WAT     H232943   3.308   3.089   0.908
 8059WAT    EPW32944   3.331   3.014   0.896
 8060WAT      O32945   4.198   2.152   1.085
 8060WAT     H132946   4.230   2.221   1.042
 8060WAT     H232947   4.127   2.184   1.125
 8060WAT    EPW32948   4.192   2.167   1.084
 8061WAT      O32949   4.506   2.989   0.178
 8061WAT     H132950   4.461   3.054   0.216
 8061WAT     H232951   4.577   2.981   0.228
 8061WAT    EPW32952   4.510   2.998   0.191
 8062WAT      O32953   4.176   2.498   0.471
 8062WAT     H132954   4.107   2.539   0.505
 8062WAT     H232955   4.244   2.542   0.505
 8062WAT    EPW32956   4.176   2.511   0.481
 8063WAT      O32957   3.483   1.852   0.705
 8063WAT     H132958   3.520   1.914   0.657
 8063WAT     H232959   3.550   1.805   0.734
 8063WAT    EPW32960   3.498   1.854   0.702
 8064WAT      O32961   3.260   1.697   0.633
 8064WAT     H132962   3.268   1.680   0.548
 8064WAT     H232963   3.335   1.738   0.653
 8064WAT    EPW32964   3.273   1.700   0.623
 8065WAT      O32965   3.516   1.438   0.874
 8065WAT     H132966   3.508   1.354   0.895
 8065WAT     H232967   3.484   1.442   0.793
 8065WAT    EPW32968   3.510   1.426   0.865
 8066WAT      O32969   4.727   1.976   0.613
 8066WAT     H132970   4.726   1.889   0.625
 8066WAT     H232971   4.733   2.008   0.693
 8066WAT    EPW32972   4.728   1.968   0.626
 8067WAT      O32973   3.200   2.220   0.655
 8067WAT     H132974   3.232   2.241   0.577
 8067WAT     H232975   3.190   2.133   0.650
 8067WAT    EPW32976   3.203   2.210   0.643
 8068WAT      O32977   4.314   1.456   0.991
 8068WAT     H132978   4.324   1.527   1.040
 8068WAT     H232979   4.251   1.411   1.030
 8068WAT    EPW32980   4.306   1.459   1.004
 8069WAT      O32981   4.574   1.526   0.356
 8069WAT     H132982   4.659   1.536   0.371
 8069WAT     H232983   4.537   1.581   0.413
 8069WAT    EPW32984   4.581   1.536   0.367
 8070WAT      O32985   3.676   2.149   0.794
 8070WAT     H132986   3.637   2.226   0.801
 8070WAT     H232987   3.636   2.111   0.726
 8070WAT    EPW32988   3.665   2.155   0.785
 8071WAT      O32989   3.719   1.446   0.539
 8071WAT     H132990   3.633   1.455   0.547
 8071WAT     H232991   3.741   1.395   0.606
 8071WAT    EPW32992   3.710   1.440   0.550
 8072WAT      O32993   4.921   1.310   0.672
 8072WAT     H132994   4.916   1.306   0.759
 8072WAT     H232995   4.990   1.260   0.653
 8072WAT    EPW32996   4.931   1.302   0.682
 8073WAT      O32997   4.130   1.521   0.376
 8073WAT     H132998   4.056   1.476   0.388
 8073WAT     H232999   4.187   1.481   0.429
 8073WAT    EPW33000   4.127   1.509   0.386
 8074WAT      O33001   4.403   2.606   0.555
 8074WAT     H133002   4.423   2.636   0.634
 8074WAT     H233003   4.397   2.678   0.507
 8074WAT    EPW33004   4.405   2.621   0.560
 8075WAT      O33005   4.356   3.027   0.980
 8075WAT     H133006   4.281   3.026   0.936
 8075WAT     H233007   4.373   3.113   0.988
 8075WAT    EPW33008   4.348   3.040   0.974
 8076WAT      O33009   3.880   1.954   0.897
 8076WAT     H133010   3.848   1.897   0.840
 8076WAT     H233011   3.844   2.030   0.872
 8076WAT    EPW33012   3.870   1.957   0.885
 8077WAT      O33013   4.884   2.470   0.501
 8077WAT     H133014   4.881   2.384   0.487
 8077WAT     H233015   4.815   2.500   0.457
 8077WAT    EPW33016   4.873   2.462   0.492
 8078WAT      O33017   3.723   2.990   0.921
 8078WAT     H133018   3.728   3.002   1.008
 8078WAT     H233019   3.789   2.934   0.906
 8078WAT    EPW33020   3.734   2.983   0.932
 8079WAT      O33021   4.695   2.796   0.381
 8079WAT     H133022   4.747   2.788   0.311
 8079WAT     H233023   4.655   2.718   0.386
 8079WAT    EPW33024   4.697   2.783   0.371
 8080WAT      O33025   3.441   1.455   0.604
 8080WAT     H133026   3.407   1.378   0.580
 8080WAT     H233027   3.372   1.507   0.610
 8080WAT    EPW33028   3.426   1.451   0.601
 8081WAT      O33029   4.346   1.340   0.301
 8081WAT     H133030   4.413   1.395   0.314
 8081WAT     H233031   4.296   1.383   0.244
 8081WAT    EPW33032   4.348   1.355   0.295
 8082WAT      O33033   3.483   2.828   1.057
 8082WAT     H133034   3.542   2.871   1.105
 8082WAT     H233035   3.446   2.890   1.009
 8082WAT    EPW33036   3.486   2.844   1.057
 8083WAT      O33037   3.275   2.627   0.750
 8083WAT     H133038   3.218   2.669   0.801
 8083WAT     H233039   3.349   2.673   0.760
 8083WAT    EPW33040   3.278   2.640   0.759
 8084WAT      O33041   4.806   2.242   1.022
 8084WAT     H133042   4.870   2.225   1.079
 8084WAT     H233043   4.848   2.282   0.957
 8084WAT    EPW33044   4.822   2.245   1.021
 8085WAT      O33045   4.869   1.698   1.096
 8085WAT     H133046   4.849   1.762   1.151
 8085WAT     H233047   4.797   1.649   1.095
 8085WAT    EPW33048   4.855   1.700   1.104
 8086WAT      O33049   4.859   1.792   0.393
 8086WAT     H133050   4.775   1.817   0.386
 8086WAT     H233051   4.853   1.708   0.416
 8086WAT    EPW33052   4.846   1.783   0.395
 8087WAT      O33053   3.785   1.491   0.912
 8087WAT     H133054   3.808   1.433   0.851
 8087WAT     H233055   3.700   1.473   0.926
 8087WAT    EPW33056   3.776   1.480   0.905
 8088WAT      O33057   4.547   2.253   1.157
 8088WAT     H133058   4.634   2.249   1.154
 8088WAT     H233059   4.525   2.295   1.084
 8088WAT    EPW33060   4.557   2.258   1.146
 8089WAT      O33061   3.523   2.835   0.276
 8089WAT     H133062   3.515   2.754   0.244
 8089WAT     H233063   3.478   2.884   0.218
 8089WAT    EPW33064   3.515   2.830   0.262
 8090WAT      O33065   3.280   3.060   0.634
 8090WAT     H133066   3.329   3.054   0.705
 8090WAT     H233067   3.299   2.986   0.590
 8090WAT    EPW33068   3.290   3.048   0.638
 8091WAT      O33069   3.192   0.569   7.464
 8091WAT     H133070   3.147   0.581   7.538
 8091WAT     H233071   3.163   0.491   7.435
 8091WAT    EPW33072   3.181   0.559   7.470
 8092WAT      O33073   4.819   0.899   7.215
 8092WAT     H133074   4.889   0.847   7.215
 8092WAT     H233075   4.760   0.855   7.168
 8092WAT    EPW33076   4.821   0.885   7.208
 8093WAT      O33077   3.480   0.474   6.981
 8093WAT     H133078   3.441   0.437   6.913
 8093WAT     H233079   3.472   0.415   7.044
 8093WAT    EPW33080   3.473   0.460   6.981
 8094WAT      O33081   4.472   0.262   7.586
 8094WAT     H133082   4.480   0.262   7.499
 8094WAT     H233083   4.413   0.198   7.600
 8094WAT    EPW33084   4.464   0.252   7.575
 8095WAT      O33085   3.442   0.639   7.371
 8095WAT     H133086   3.503   0.622   7.432
 8095WAT     H233087   3.367   0.625   7.414
 8095WAT    EPW33088   3.440   0.634   7.387
 8096WAT      O33089   3.332   0.948   6.979
 8096WAT     H133090   3.378   0.956   6.906
 8096WAT     H233091   3.377   0.890   7.026
 8096WAT    EPW33092   3.345   0.940   6.975
 8097WAT      O33093   3.330   0.295   7.509
 8097WAT     H133094   3.284   0.255   7.447
 8097WAT     H233095   3.400   0.243   7.518
 8097WAT    EPW33096   3.334   0.281   7.501
 8098WAT      O33097   3.951   0.703   7.773
 8098WAT     H133098   3.985   0.623   7.776
 8098WAT     H233099   4.017   0.753   7.747
 8098WAT    EPW33100   3.966   0.698   7.769
 8099WAT      O33101   3.956   0.648   7.394
 8099WAT     H133102   3.989   0.583   7.442
 8099WAT     H233103   3.980   0.626   7.313
 8099WAT    EPW33104   3.965   0.635   7.389
 8100WAT      O33105   3.167   1.042   7.601
 8100WAT     H133106   3.108   1.097   7.569
 8100WAT     H233107   3.209   1.015   7.529
 8100WAT    EPW33108   3.164   1.046   7.585
 8101WAT      O33109   3.751   0.826   7.349
 8101WAT     H133110   3.693   0.799   7.408
 8101WAT     H233111   3.813   0.765   7.351
 8101WAT    EPW33112   3.751   0.813   7.358
 8102WAT      O33113   4.365   1.055   7.101
 8102WAT     H133114   4.438   1.102   7.111
 8102WAT     H233115   4.388   0.975   7.129
 8102WAT    EPW33116   4.379   1.050   7.106
 8103WAT      O33117   4.182   1.094   7.300
 8103WAT     H133118   4.203   1.147   7.366
 8103WAT     H233119   4.259   1.077   7.262
 8103WAT    EPW33120   4.196   1.099   7.304
 8104WAT      O33121   3.321   0.909   7.394
 8104WAT     H133122   3.387   0.851   7.395
 8104WAT     H233123   3.360   0.984   7.372
 8104WAT    EPW33124   3.337   0.911   7.391
 8105WAT      O33125   3.403   0.757   7.744
 8105WAT     H133126   3.445   0.722   7.676
 8105WAT     H233127   3.435   0.715   7.813
 8105WAT    EPW33128   3.414   0.746   7.744
 8106WAT      O33129   3.726   1.043   7.673
 8106WAT     H133130   3.811   1.053   7.654
 8106WAT     H233131   3.696   1.124   7.680
 8106WAT    EPW33132   3.734   1.056   7.671
 8107WAT      O33133   4.583   1.214   7.141
 8107WAT     H133134   4.650   1.199   7.086
 8107WAT     H233135   4.619   1.205   7.220
 8107WAT    EPW33136   4.598   1.210   7.144
 8108WAT      O33137   4.065   0.833   6.976
 8108WAT     H133138   4.047   0.888   7.041
 8108WAT     H233139   4.142   0.862   6.946
 8108WAT    EPW33140   4.074   0.846   6.981
 8109WAT      O33141   4.824   1.190   7.541
 8109WAT     H133142   4.779   1.262   7.561
 8109WAT     H233143   4.763   1.133   7.516
 8109WAT    EPW33144   4.808   1.192   7.540
 8110WAT      O33145   4.524   0.775   7.495
 8110WAT     H133146   4.594   0.727   7.514
 8110WAT     H233147   4.458   0.718   7.499
 8110WAT    EPW33148   4.524   0.759   7.498
 8111WAT      O33149   4.776   0.524   7.076
 8111WAT     H133150   4.788   0.495   7.157
 8111WAT     H233151   4.856   0.526   7.043
 8111WAT    EPW33152   4.789   0.520   7.083
 8112WAT      O33153   3.489   0.497   7.609
 8112WAT     H133154   3.574   0.489   7.592
 8112WAT     H233155   3.454   0.429   7.568
 8112WAT    EPW33156   3.497   0.486   7.600
 8113WAT      O33157   3.366   1.170   7.733
 8113WAT     H133158   3.299   1.120   7.708
 8113WAT     H233159   3.406   1.188   7.657
 8113WAT    EPW33160   3.362   1.165   7.718
 8114WAT      O33161   4.565   0.178   7.034
 8114WAT     H133162   4.543   0.251   6.992
 8114WAT     H233163   4.520   0.183   7.109
 8114WAT    EPW33164   4.555   0.189   7.039
 8115WAT      O33165   3.726   0.498   7.432
 8115WAT     H133166   3.797   0.547   7.441
 8115WAT     H233167   3.748   0.441   7.370
 8115WAT    EPW33168   3.740   0.497   7.424
 8116WAT      O33169   3.142   0.662   7.764
 8116WAT     H133170   3.075   0.711   7.792
 8116WAT     H233171   3.210   0.717   7.767
 8116WAT    EPW33172   3.142   0.677   7.769
 8117WAT      O33173   3.148   0.331   7.275
 8117WAT     H133174   3.130   0.247   7.290
 8117WAT     H233175   3.214   0.327   7.218
 8117WAT    EPW33176   3.155   0.318   7.268
 8118WAT      O33177   4.178   0.868   7.665
 8118WAT     H133178   4.126   0.932   7.636
 8118WAT     H233179   4.209   0.832   7.592
 8118WAT    EPW33180   4.175   0.872   7.650
 8119WAT      O33181   3.165   0.747   7.232
 8119WAT     H133182   3.221   0.804   7.269
 8119WAT     H233183   3.142   0.696   7.299
 8119WAT    EPW33184   3.170   0.748   7.247
 8120WAT      O33185   3.148   0.592   6.995
 8120WAT     H133186   3.224   0.549   7.001
 8120WAT     H233187   3.150   0.645   7.064
 8120WAT    EPW33188   3.160   0.593   7.006
 8121WAT      O33189   3.242   0.414   7.795
 8121WAT     H133190   3.286   0.401   7.721
 8121WAT     H233191   3.222   0.499   7.793
 8121WAT    EPW33192   3.246   0.425   7.784
 8122WAT      O33193   3.651   0.766   7.624
 8122WAT     H133194   3.663   0.850   7.642
 8122WAT     H233195   3.718   0.726   7.663
 8122WAT    EPW33196   3.663   0.772   7.632
 8123WAT      O33197   3.529   0.237   7.784
 8123WAT     H133198   3.451   0.231   7.745
 8123WAT     H233199   3.536   0.161   7.827
 8123WAT    EPW33200   3.519   0.225   7.785
 8124WAT      O33201   4.258   0.242   7.121
 8124WAT     H133202   4.257   0.315   7.072
 8124WAT     H233203   4.194   0.256   7.179
 8124WAT    EPW33204   4.248   0.255   7.122
 8125WAT      O33205   4.755   0.629   7.519
 8125WAT     H133206   4.791   0.594   7.591
 8125WAT     H233207   4.754   0.563   7.462
 8125WAT    EPW33208   4.760   0.614   7.521
 8126WAT      O33209   4.361   0.621   7.844
 8126WAT     H133210   4.281   0.644   7.871
 8126WAT     H233211   4.387   0.562   7.902
 8126WAT    EPW33212   4.353   0.616   7.856
 8127WAT      O33213   3.750   1.102   7.288
 8127WAT     H133214   3.735   1.025   7.326
 8127WAT     H233215   3.819   1.088   7.237
 8127WAT    EPW33216   3.758   1.089   7.286
 8128WAT      O33217   3.979   1.054   7.129
 8128WAT     H133218   4.042   1.070   7.188
 8128WAT     H233219   3.983   1.123   7.075
 8128WAT    EPW33220   3.989   1.067   7.130
 8129WAT      O33221   3.429   0.307   7.212
 8129WAT     H133222   3.462   0.229   7.189
 8129WAT     H233223   3.494   0.344   7.257
 8129WAT    EPW33224   3.444   0.301   7.215
 8130WAT      O33225   4.098   0.242   7.354
 8130WAT     H133226   4.104   0.307   7.412
 8130WAT     H233227   4.080   0.172   7.403
 8130WAT    EPW33228   4.097   0.241   7.370
 8131WAT      O33229   4.021   0.446   7.797
 8131WAT     H133230   3.936   0.427   7.805
 8131WAT     H233231   4.053   0.430   7.876
 8131WAT    EPW33232   4.013   0.441   7.810
 8132WAT      O33233   3.696   1.119   6.886
 8132WAT     H133234   3.740   1.050   6.915
 8132WAT     H233235   3.717   1.182   6.943
 8132WAT    EPW33236   3.706   1.118   6.898
 8133WAT      O33237   4.990   1.091   7.135
 8133WAT     H133238   5.060   1.044   7.110
 8133WAT     H233239   4.936   1.031   7.169
 8133WAT    EPW33240   4.993   1.075   7.136
 8134WAT      O33241   3.663   0.210   6.916
 8134WAT     H133242   3.602   0.169   6.964
 8134WAT     H233243   3.625   0.222   6.839
 8134WAT    EPW33244   3.648   0.206   6.912
 8135WAT      O33245   4.840   0.376   7.797
 8135WAT     H133246   4.811   0.416   7.869
 8135WAT     H233247   4.926   0.370   7.809
 8135WAT    EPW33248   4.848   0.381   7.809
 8136WAT      O33249   4.953   0.939   7.849
 8136WAT     H133250   4.982   0.965   7.771
 8136WAT     H233251   5.022   0.949   7.901
 8136WAT    EPW33252   4.967   0.944   7.846
 8137WAT      O33253   4.613   0.799   7.048
 8137WAT     H133254   4.647   0.719   7.051
 8137WAT     H233255   4.538   0.792   7.091
 8137WAT    EPW33256   4.607   0.786   7.055
 8138WAT      O33257   4.351   0.587   6.988
 8138WAT     H133258   4.419   0.535   6.971
 8138WAT     H233259   4.309   0.591   6.911
 8138WAT    EPW33260   4.355   0.580   6.974
 8139WAT      O33261   3.997   1.083   7.590
 8139WAT     H133262   4.052   1.151   7.596
 8139WAT     H233263   3.962   1.092   7.511
 8139WAT    EPW33264   4.000   1.095   7.579
 8140WAT      O33265   3.975   0.384   6.921
 8140WAT     H133266   3.894   0.366   6.892
 8140WAT     H233267   3.971   0.469   6.940
 8140WAT    EPW33268   3.962   0.394   6.919
 8141WAT      O33269   4.739   0.402   7.335
 8141WAT     H133270   4.787   0.329   7.330
 8141WAT     H233271   4.657   0.373   7.328
 8141WAT    EPW33272   4.734   0.387   7.333
 8142WAT      O33273   4.361   0.519   7.571
 8142WAT     H133274   4.369   0.553   7.651
 8142WAT     H233275   4.378   0.434   7.583
 8142WAT    EPW33276   4.365   0.511   7.584
 8143WAT      O33277   4.113   0.446   7.527
 8143WAT     H133278   4.083   0.414   7.603
 8143WAT     H233279   4.183   0.493   7.551
 8143WAT    EPW33280   4.119   0.448   7.542
 8144WAT      O33281   4.506   1.142   7.780
 8144WAT     H133282   4.461   1.206   7.818
 8144WAT     H233283   4.577   1.134   7.831
 8144WAT    EPW33284   4.510   1.150   7.793
 8145WAT      O33285   4.208   0.810   7.390
 8145WAT     H133286   4.188   0.893   7.374
 8145WAT     H233287   4.131   0.771   7.402
 8145WAT    EPW33288   4.194   0.816   7.390
 8146WAT      O33289   3.745   0.836   7.031
 8146WAT     H133290   3.789   0.844   7.106
 8146WAT     H233291   3.664   0.814   7.057
 8146WAT    EPW33292   3.739   0.834   7.046
 8147WAT      O33293   4.604   0.206   7.808
 8147WAT     H133294   4.671   0.260   7.824
 8147WAT     H233295   4.570   0.237   7.734
 8147WAT    EPW33296   4.609   0.219   7.799
 8148WAT      O33297   4.635   1.013   7.388
 8148WAT     H133298   4.618   0.948   7.443
 8148WAT     H233299   4.707   0.986   7.346
 8148WAT    EPW33300   4.643   0.999   7.390
 8149WAT      O33301   3.477   0.743   7.091
 8149WAT     H133302   3.453   0.712   7.169
 8149WAT     H233303   3.474   0.673   7.040
 8149WAT    EPW33304   3.473   0.728   7.095
 8150WAT      O33305   3.759   0.567   6.965
 8150WAT     H133306   3.678   0.541   6.979
 8150WAT     H233307   3.757   0.653   6.984
 8150WAT    EPW33308   3.747   0.576   6.970
 8151WAT      O33309   4.479   0.256   7.309
 8151WAT     H133310   4.486   0.171   7.327
 8151WAT     H233311   4.397   0.265   7.282
 8151WAT    EPW33312   4.468   0.245   7.308
 8152WAT      O33313   3.454   1.106   7.230
 8152WAT     H133314   3.440   1.121   7.146
 8152WAT     H233315   3.541   1.114   7.238
 8152WAT    EPW33316   3.465   1.109   7.219
 8153WAT      O33317   3.871   0.346   7.203
 8153WAT     H133318   3.881   0.359   7.118
 8153WAT     H233319   3.953   0.340   7.233
 8153WAT    EPW33320   3.884   0.347   7.195
 8154WAT      O33321   4.787   1.152   6.951
 8154WAT     H133322   4.850   1.139   7.009
 8154WAT     H233323   4.753   1.073   6.939
 8154WAT    EPW33324   4.791   1.138   6.958
 8155WAT      O33325   4.394   0.778   7.183
 8155WAT     H133326   4.369   0.766   7.266
 8155WAT     H233327   4.363   0.709   7.141
 8155WAT    EPW33328   4.386   0.766   7.189
 8156WAT      O33329   3.523   0.987   7.878
 8156WAT     H133330   3.515   0.906   7.846
 8156WAT     H233331   3.478   1.036   7.821
 8156WAT    EPW33332   3.515   0.983   7.865
 8157WAT      O33333   4.083   0.599   7.126
 8157WAT     H133334   4.155   0.565   7.091
 8157WAT     H233335   4.079   0.679   7.092
 8157WAT    EPW33336   4.093   0.606   7.116
 8158WAT      O33337   3.192   0.569   5.563
 8158WAT     H133338   3.147   0.581   5.637
 8158WAT     H233339   3.163   0.491   5.534
 8158WAT    EPW33340   3.181   0.559   5.570
 8159WAT      O33341   4.819   0.899   5.314
 8159WAT     H133342   4.889   0.847   5.314
 8159WAT     H233343   4.760   0.855   5.267
 8159WAT    EPW33344   4.821   0.885   5.307
 8160WAT      O33345   3.480   0.474   5.081
 8160WAT     H133346   3.441   0.437   5.012
 8160WAT     H233347   3.472   0.415   5.144
 8160WAT    EPW33348   3.473   0.460   5.080
 8161WAT      O33349   4.472   0.262   5.685
 8161WAT     H133350   4.480   0.262   5.598
 8161WAT     H233351   4.413   0.198   5.700
 8161WAT    EPW33352   4.464   0.252   5.674
 8162WAT      O33353   3.442   0.639   5.471
 8162WAT     H133354   3.503   0.622   5.531
 8162WAT     H233355   3.367   0.625   5.513
 8162WAT    EPW33356   3.440   0.634   5.486
 8163WAT      O33357   3.332   0.948   5.078
 8163WAT     H133358   3.378   0.956   5.005
 8163WAT     H233359   3.377   0.890   5.125
 8163WAT    EPW33360   3.345   0.940   5.075
 8164WAT      O33361   3.186   0.842   6.188
 8164WAT     H133362   3.198   0.814   6.270
 8164WAT     H233363   3.125   0.788   6.157
 8164WAT    EPW33364   3.178   0.830   6.196
 8165WAT      O33365   3.843   0.595   6.695
 8165WAT     H133366   3.819   0.595   6.779
 8165WAT     H233367   3.768   0.580   6.653
 8165WAT    EPW33368   3.828   0.593   6.701
 8166WAT      O33369   3.330   0.295   5.609
 8166WAT     H133370   3.284   0.255   5.546
 8166WAT     H233371   3.400   0.243   5.618
 8166WAT    EPW33372   3.334   0.281   5.601
 8167WAT      O33373   3.841   0.914   6.421
 8167WAT     H133374   3.855   0.990   6.381
 8167WAT     H233375   3.920   0.878   6.424
 8167WAT    EPW33376   3.855   0.920   6.416
 8168WAT      O33377   3.951   0.703   5.872
 8168WAT     H133378   3.985   0.623   5.875
 8168WAT     H233379   4.017   0.753   5.846
 8168WAT    EPW33380   3.966   0.698   5.869
 8169WAT      O33381   3.956   0.648   5.493
 8169WAT     H133382   3.989   0.583   5.542
 8169WAT     H233383   3.980   0.626   5.412
 8169WAT    EPW33384   3.965   0.635   5.488
 8170WAT      O33385   3.167   1.042   5.700
 8170WAT     H133386   3.108   1.097   5.669
 8170WAT     H233387   3.209   1.015   5.629
 8170WAT    EPW33388   3.164   1.046   5.685
 8171WAT      O33389   3.751   0.826   5.448
 8171WAT     H133390   3.693   0.799   5.507
 8171WAT     H233391   3.813   0.765   5.450
 8171WAT    EPW33392   3.751   0.813   5.457
 8172WAT      O33393   4.365   1.055   5.200
 8172WAT     H133394   4.438   1.102   5.210
 8172WAT     H233395   4.388   0.975   5.228
 8172WAT    EPW33396   4.379   1.050   5.206
 8173WAT      O33397   4.182   1.094   5.399
 8173WAT     H133398   4.203   1.147   5.465
 8173WAT     H233399   4.259   1.077   5.361
 8173WAT    EPW33400   4.196   1.099   5.403
 8174WAT      O33401   3.321   0.909   5.493
 8174WAT     H133402   3.387   0.851   5.494
 8174WAT     H233403   3.360   0.984   5.471
 8174WAT    EPW33404   3.337   0.911   5.490
 8175WAT      O33405   4.426   1.095   6.230
 8175WAT     H133406   4.500   1.141   6.229
 8175WAT     H233407   4.414   1.074   6.146
 8175WAT    EPW33408   4.435   1.099   6.217
 8176WAT      O33409   3.403   0.757   5.843
 8176WAT     H133410   3.445   0.722   5.776
 8176WAT     H233411   3.435   0.715   5.912
 8176WAT    EPW33412   3.414   0.746   5.843
 8177WAT      O33413   3.726   1.043   5.773
 8177WAT     H133414   3.811   1.053   5.753
 8177WAT     H233415   3.696   1.124   5.779
 8177WAT    EPW33416   3.734   1.056   5.771
 8178WAT      O33417   4.583   1.214   5.240
 8178WAT     H133418   4.650   1.199   5.186
 8178WAT     H233419   4.619   1.205   5.319
 8178WAT    EPW33420   4.598   1.210   5.244
 8179WAT      O33421   3.626   1.164   6.347
 8179WAT     H133422   3.655   1.158   6.429
 8179WAT     H233423   3.563   1.104   6.342
 8179WAT    EPW33424   3.621   1.155   6.358
 8180WAT      O33425   4.351   0.814   6.600
 8180WAT     H133426   4.348   0.852   6.678
 8180WAT     H233427   4.437   0.809   6.583
 8180WAT    EPW33428   4.363   0.819   6.609
 8181WAT      O33429   4.065   0.833   5.075
 8181WAT     H133430   4.047   0.888   5.141
 8181WAT     H233431   4.142   0.862   5.045
 8181WAT    EPW33432   4.074   0.846   5.080
 8182WAT      O33433   3.425   0.981   6.259
 8182WAT     H133434   3.355   0.930   6.271
 8182WAT     H233435   3.451   0.960   6.178
 8182WAT    EPW33436   3.419   0.970   6.249
 8183WAT      O33437   4.196   1.130   6.350
 8183WAT     H133438   4.273   1.122   6.309
 8183WAT     H233439   4.138   1.118   6.286
 8183WAT    EPW33440   4.199   1.127   6.334
 8184WAT      O33441   4.824   1.190   5.640
 8184WAT     H133442   4.779   1.262   5.660
 8184WAT     H233443   4.763   1.133   5.616
 8184WAT    EPW33444   4.808   1.192   5.639
 8185WAT      O33445   4.524   0.775   5.594
 8185WAT     H133446   4.594   0.727   5.613
 8185WAT     H233447   4.458   0.718   5.599
 8185WAT    EPW33448   4.524   0.759   5.598
 8186WAT      O33449   3.561   0.866   6.515
 8186WAT     H133450   3.645   0.872   6.493
 8186WAT     H233451   3.558   0.905   6.593
 8186WAT    EPW33452   3.573   0.873   6.524
 8187WAT      O33453   3.758   0.417   5.990
 8187WAT     H133454   3.775   0.396   6.073
 8187WAT     H233455   3.692   0.363   5.969
 8187WAT    EPW33456   3.751   0.406   5.999
 8188WAT      O33457   3.833   0.411   6.249
 8188WAT     H133458   3.838   0.495   6.270
 8188WAT     H233459   3.804   0.374   6.323
 8188WAT    EPW33460   3.829   0.418   6.263
 8189WAT      O33461   4.450   0.480   6.162
 8189WAT     H133462   4.399   0.439   6.219
 8189WAT     H233463   4.438   0.565   6.180
 8189WAT    EPW33464   4.441   0.487   6.173
 8190WAT      O33465   3.115   0.848   6.870
 8190WAT     H133466   3.190   0.883   6.896
 8190WAT     H233467   3.132   0.762   6.865
 8190WAT    EPW33468   3.129   0.840   6.873
 8191WAT      O33469   4.776   0.524   5.175
 8191WAT     H133470   4.788   0.495   5.257
 8191WAT     H233471   4.856   0.526   5.142
 8191WAT    EPW33472   4.789   0.520   5.182
 8192WAT      O33473   3.489   0.497   5.708
 8192WAT     H133474   3.574   0.489   5.691
 8192WAT     H233475   3.454   0.429   5.667
 8192WAT    EPW33476   3.497   0.486   5.699
 8193WAT      O33477   3.366   1.170   5.832
 8193WAT     H133478   3.299   1.120   5.807
 8193WAT     H233479   3.406   1.188   5.757
 8193WAT    EPW33480   3.362   1.165   5.817
 8194WAT      O33481   4.999   0.975   6.600
 8194WAT     H133482   4.931   1.006   6.556
 8194WAT     H233483   4.962   0.929   6.665
 8194WAT    EPW33484   4.983   0.973   6.603
 8195WAT      O33485   4.565   0.178   5.134
 8195WAT     H133486   4.543   0.251   5.091
 8195WAT     H233487   4.520   0.183   5.208
 8195WAT    EPW33488   4.555   0.189   5.138
 8196WAT      O33489   3.726   0.498   5.532
 8196WAT     H133490   3.797   0.547   5.541
 8196WAT     H233491   3.748   0.441   5.469
 8196WAT    EPW33492   3.740   0.497   5.524
 8197WAT      O33493   3.142   0.662   5.864
 8197WAT     H133494   3.075   0.711   5.891
 8197WAT     H233495   3.210   0.717   5.867
 8197WAT    EPW33496   3.142   0.677   5.868
 8198WAT      O33497   3.148   0.331   5.374
 8198WAT     H133498   3.130   0.247   5.389
 8198WAT     H233499   3.214   0.327   5.317
 8198WAT    EPW33500   3.155   0.318   5.368
 8199WAT      O33501   4.178   0.868   5.764
 8199WAT     H133502   4.126   0.932   5.735
 8199WAT     H233503   4.209   0.832   5.691
 8199WAT    EPW33504   4.175   0.872   5.749
 8200WAT      O33505   3.165   0.747   5.331
 8200WAT     H133506   3.221   0.804   5.368
 8200WAT     H233507   3.142   0.696   5.398
 8200WAT    EPW33508   3.170   0.748   5.347
 8201WAT      O33509   3.586   0.647   6.040
 8201WAT     H133510   3.633   0.676   6.108
 8201WAT     H233511   3.643   0.599   5.995
 8201WAT    EPW33512   3.601   0.644   6.044
 8202WAT      O33513   3.148   0.592   5.094
 8202WAT     H133514   3.224   0.549   5.100
 8202WAT     H233515   3.150   0.645   5.163
 8202WAT    EPW33516   3.160   0.593   5.105
 8203WAT      O33517   3.242   0.414   5.895
 8203WAT     H133518   3.286   0.401   5.820
 8203WAT     H233519   3.222   0.499   5.892
 8203WAT    EPW33520   3.246   0.425   5.883
 8204WAT      O33521   4.782   1.013   6.409
 8204WAT     H133522   4.715   1.065   6.431
 8204WAT     H233523   4.789   1.023   6.323
 8204WAT    EPW33524   4.773   1.022   6.400
 8205WAT      O33525   3.651   0.766   5.723
 8205WAT     H133526   3.663   0.850   5.742
 8205WAT     H233527   3.718   0.726   5.763
 8205WAT    EPW33528   3.663   0.772   5.732
 8206WAT      O33529   3.529   0.237   5.883
 8206WAT     H133530   3.451   0.231   5.845
 8206WAT     H233531   3.536   0.161   5.927
 8206WAT    EPW33532   3.519   0.225   5.884
 8207WAT      O33533   3.982   1.088   6.169
 8207WAT     H133534   3.954   1.024   6.117
 8207WAT     H233535   3.961   1.161   6.125
 8207WAT    EPW33536   3.975   1.089   6.155
 8208WAT      O33537   3.352   0.346   6.786
 8208WAT     H133538   3.348   0.396   6.714
 8208WAT     H233539   3.385   0.271   6.756
 8208WAT    EPW33540   3.356   0.342   6.771
 8209WAT      O33541   4.512   0.566   6.612
 8209WAT     H133542   4.561   0.638   6.621
 8209WAT     H233543   4.552   0.524   6.546
 8209WAT    EPW33544   4.525   0.571   6.603
 8210WAT      O33545   3.942   0.851   6.729
 8210WAT     H133546   3.977   0.833   6.807
 8210WAT     H233547   3.898   0.778   6.709
 8210WAT    EPW33548   3.941   0.837   6.738
 8211WAT      O33549   4.258   0.242   5.220
 8211WAT     H133550   4.257   0.315   5.171
 8211WAT     H233551   4.194   0.256   5.278
 8211WAT    EPW33552   4.248   0.255   5.222
 8212WAT      O33553   4.755   0.629   5.619
 8212WAT     H133554   4.791   0.594   5.690
 8212WAT     H233555   4.754   0.563   5.562
 8212WAT    EPW33556   4.760   0.614   5.621
 8213WAT      O33557   4.360   0.936   6.003
 8213WAT     H133558   4.299   0.906   5.947
 8213WAT     H233559   4.414   0.981   5.952
 8213WAT    EPW33560   4.359   0.938   5.987
 8214WAT      O33561   4.361   0.621   5.943
 8214WAT     H133562   4.281   0.644   5.970
 8214WAT     H233563   4.387   0.562   6.001
 8214WAT    EPW33564   4.353   0.616   5.956
 8215WAT      O33565   3.750   1.102   5.388
 8215WAT     H133566   3.735   1.025   5.425
 8215WAT     H233567   3.819   1.088   5.336
 8215WAT    EPW33568   3.758   1.089   5.386
 8216WAT      O33569   3.979   1.054   5.228
 8216WAT     H133570   4.042   1.070   5.287
 8216WAT     H233571   3.983   1.123   5.175
 8216WAT    EPW33572   3.989   1.067   5.229
 8217WAT      O33573   4.687   0.421   6.428
 8217WAT     H133574   4.692   0.433   6.341
 8217WAT     H233575   4.762   0.453   6.458
 8217WAT    EPW33576   4.699   0.427   6.419
 8218WAT      O33577   4.306   0.956   6.855
 8218WAT     H133578   4.322   0.984   6.936
 8218WAT     H233579   4.332   1.022   6.805
 8218WAT    EPW33580   4.312   0.970   6.860
 8219WAT      O33581   3.429   0.307   5.311
 8219WAT     H133582   3.462   0.229   5.289
 8219WAT     H233583   3.494   0.344   5.356
 8219WAT    EPW33584   3.444   0.301   5.314
 8220WAT      O33585   4.260   0.402   6.388
 8220WAT     H133586   4.245   0.463   6.448
 8220WAT     H233587   4.313   0.346   6.428
 8220WAT    EPW33588   4.266   0.402   6.402
 8221WAT      O33589   4.098   0.242   5.453
 8221WAT     H133590   4.104   0.307   5.511
 8221WAT     H233591   4.080   0.172   5.502
 8221WAT    EPW33592   4.097   0.241   5.469
 8222WAT      O33593   4.621   0.674   6.040
 8222WAT     H133594   4.573   0.704   5.974
 8222WAT     H233595   4.585   0.597   6.058
 8222WAT    EPW33596   4.609   0.667   6.033
 8223WAT      O33597   4.021   0.446   5.896
 8223WAT     H133598   3.936   0.427   5.905
 8223WAT     H233599   4.053   0.430   5.976
 8223WAT    EPW33600   4.013   0.441   5.909
 8224WAT      O33601   3.696   1.119   4.985
 8224WAT     H133602   3.740   1.050   5.014
 8224WAT     H233603   3.717   1.182   5.042
 8224WAT    EPW33604   3.706   1.118   4.998
 8225WAT      O33605   3.406   0.416   6.128
 8225WAT     H133606   3.478   0.464   6.124
 8225WAT     H233607   3.379   0.413   6.045
 8225WAT    EPW33608   3.412   0.422   6.115
 8226WAT      O33609   4.990   1.091   5.234
 8226WAT     H133610   5.060   1.044   5.209
 8226WAT     H233611   4.936   1.031   5.268
 8226WAT    EPW33612   4.993   1.075   5.236
 8227WAT      O33613   4.714   0.369   6.152
 8227WAT     H133614   4.713   0.291   6.192
 8227WAT     H233615   4.630   0.392   6.151
 8227WAT    EPW33616   4.702   0.361   6.158
 8228WAT      O33617   3.663   0.210   5.016
 8228WAT     H133618   3.602   0.169   5.063
 8228WAT     H233619   3.625   0.222   4.938
 8228WAT    EPW33620   3.648   0.206   5.011
 8229WAT      O33621   3.345   0.521   6.556
 8229WAT     H133622   3.303   0.469   6.500
 8229WAT     H233623   3.310   0.599   6.542
 8229WAT    EPW33624   3.334   0.525   6.545
 8230WAT      O33625   4.840   0.376   5.896
 8230WAT     H133626   4.811   0.416   5.968
 8230WAT     H233627   4.926   0.370   5.909
 8230WAT    EPW33628   4.848   0.381   5.908
 8231WAT      O33629   4.953   0.939   5.949
 8231WAT     H133630   4.982   0.965   5.871
 8231WAT     H233631   5.022   0.949   6.001
 8231WAT    EPW33632   4.967   0.944   5.945
 8232WAT      O33633   4.613   0.799   5.147
 8232WAT     H133634   4.647   0.719   5.150
 8232WAT     H233635   4.538   0.792   5.190
 8232WAT    EPW33636   4.607   0.786   5.154
 8233WAT      O33637   4.952   0.211   6.867
 8233WAT     H133638   4.947   0.177   6.787
 8233WAT     H233639   5.025   0.258   6.865
 8233WAT    EPW33640   4.962   0.213   6.855
 8234WAT      O33641   4.906   0.579   6.488
 8234WAT     H133642   4.968   0.524   6.462
 8234WAT     H233643   4.899   0.635   6.422
 8234WAT    EPW33644   4.914   0.579   6.474
 8235WAT      O33645   4.351   0.587   5.087
 8235WAT     H133646   4.419   0.535   5.070
 8235WAT     H233647   4.309   0.591   5.011
 8235WAT    EPW33648   4.355   0.580   5.073
 8236WAT      O33649   3.819   0.702   6.218
 8236WAT     H133650   3.789   0.761   6.274
 8236WAT     H233651   3.824   0.746   6.143
 8236WAT    EPW33652   3.815   0.717   6.215
 8237WAT      O33653   3.617   0.597   6.557
 8237WAT     H133654   3.536   0.568   6.574
 8237WAT     H233655   3.608   0.684   6.558
 8237WAT    EPW33656   3.604   0.605   6.560
 8238WAT      O33657   4.071   0.344   6.167
 8238WAT     H133658   4.118   0.382   6.230
 8238WAT     H233659   3.988   0.358   6.193
 8238WAT    EPW33660   4.065   0.352   6.180
 8239WAT      O33661   3.997   1.083   5.690
 8239WAT     H133662   4.052   1.151   5.695
 8239WAT     H233663   3.962   1.092   5.610
 8239WAT    EPW33664   4.000   1.095   5.679
 8240WAT      O33665   3.815   0.906   6.028
 8240WAT     H133666   3.753   0.964   6.010
 8240WAT     H233667   3.840   0.878   5.950
 8240WAT    EPW33668   3.810   0.911   6.014
 8241WAT      O33669   4.246   0.570   6.727
 8241WAT     H133670   4.322   0.598   6.695
 8241WAT     H233671   4.191   0.575   6.660
 8241WAT    EPW33672   4.249   0.575   6.712
 8242WAT      O33673   4.637   0.825   6.578
 8242WAT     H133674   4.672   0.852   6.653
 8242WAT     H233675   4.666   0.883   6.520
 8242WAT    EPW33676   4.647   0.837   6.580
 8243WAT      O33677   3.975   0.384   5.020
 8243WAT     H133678   3.894   0.366   4.991
 8243WAT     H233679   3.971   0.469   5.039
 8243WAT    EPW33680   3.962   0.394   5.019
 8244WAT      O33681   4.081   1.071   6.616
 8244WAT     H133682   4.128   1.011   6.575
 8244WAT     H233683   4.045   1.027   6.683
 8244WAT    EPW33684   4.082   1.056   6.620
 8245WAT      O33685   4.739   0.402   5.435
 8245WAT     H133686   4.787   0.329   5.430
 8245WAT     H233687   4.657   0.373   5.427
 8245WAT    EPW33688   4.734   0.387   5.433
 8246WAT      O33689   4.086   0.593   6.518
 8246WAT     H133690   4.007   0.587   6.554
 8246WAT     H233691   4.094   0.678   6.499
 8246WAT    EPW33692   4.076   0.605   6.521
 8247WAT      O33693   3.669   1.214   6.050
 8247WAT     H133694   3.671   1.220   6.137
 8247WAT     H233695   3.627   1.139   6.035
 8247WAT    EPW33696   3.663   1.204   6.061
 8248WAT      O33697   4.361   0.519   5.670
 8248WAT     H133698   4.369   0.553   5.750
 8248WAT     H233699   4.378   0.434   5.682
 8248WAT    EPW33700   4.365   0.511   5.684
 8249WAT      O33701   4.113   0.446   5.627
 8249WAT     H133702   4.083   0.414   5.702
 8249WAT     H233703   4.183   0.493   5.650
 8249WAT    EPW33704   4.119   0.448   5.641
 8250WAT      O33705   4.135   0.858   6.429
 8250WAT     H133706   4.204   0.846   6.482
 8250WAT     H233707   4.149   0.937   6.395
 8250WAT    EPW33708   4.147   0.868   6.432
 8251WAT      O33709   3.346   1.164   6.594
 8251WAT     H133710   3.280   1.107   6.604
 8251WAT     H233711   3.308   1.241   6.609
 8251WAT    EPW33712   3.331   1.167   6.598
 8252WAT      O33713   4.198   0.304   6.787
 8252WAT     H133714   4.230   0.373   6.743
 8252WAT     H233715   4.127   0.336   6.827
 8252WAT    EPW33716   4.192   0.319   6.786
 8253WAT      O33717   4.506   1.142   5.880
 8253WAT     H133718   4.461   1.206   5.917
 8253WAT     H233719   4.577   1.134   5.930
 8253WAT    EPW33720   4.510   1.150   5.893
 8254WAT      O33721   4.176   0.651   6.173
 8254WAT     H133722   4.107   0.691   6.207
 8254WAT     H233723   4.244   0.694   6.206
 8254WAT    EPW33724   4.176   0.663   6.183
 8255WAT      O33725   4.714   0.910   6.831
 8255WAT     H133726   4.791   0.871   6.839
 8255WAT     H233727   4.667   0.876   6.896
 8255WAT    EPW33728   4.718   0.899   6.841
 8256WAT      O33729   4.208   0.810   5.489
 8256WAT     H133730   4.188   0.893   5.474
 8256WAT     H233731   4.131   0.771   5.502
 8256WAT    EPW33732   4.194   0.816   5.489
 8257WAT      O33733   3.200   0.372   6.357
 8257WAT     H133734   3.232   0.394   6.279
 8257WAT     H233735   3.190   0.285   6.352
 8257WAT    EPW33736   3.203   0.362   6.345
 8258WAT      O33737   3.745   0.836   5.130
 8258WAT     H133738   3.789   0.844   5.205
 8258WAT     H233739   3.664   0.814   5.156
 8258WAT    EPW33740   3.739   0.834   5.145
 8259WAT      O33741   3.676   0.301   6.496
 8259WAT     H133742   3.637   0.378   6.503
 8259WAT     H233743   3.636   0.264   6.428
 8259WAT    EPW33744   3.665   0.307   6.487
 8260WAT      O33745   4.604   0.206   5.907
 8260WAT     H133746   4.671   0.260   5.923
 8260WAT     H233747   4.570   0.237   5.833
 8260WAT    EPW33748   4.609   0.219   5.899
 8261WAT      O33749   4.635   1.013   5.488
 8261WAT     H133750   4.618   0.948   5.543
 8261WAT     H233751   4.707   0.986   5.445
 8261WAT    EPW33752   4.643   0.999   5.490
 8262WAT      O33753   3.477   0.743   5.190
 8262WAT     H133754   3.453   0.712   5.268
 8262WAT     H233755   3.474   0.673   5.139
 8262WAT    EPW33756   3.473   0.728   5.194
 8263WAT      O33757   3.759   0.567   5.065
 8263WAT     H133758   3.678   0.541   5.079
 8263WAT     H233759   3.757   0.653   5.083
 8263WAT    EPW33760   3.747   0.576   5.070
 8264WAT      O33761   4.403   0.758   6.257
 8264WAT     H133762   4.423   0.788   6.336
 8264WAT     H233763   4.397   0.830   6.208
 8264WAT    EPW33764   4.405   0.773   6.261
 8265WAT      O33765   4.356   1.180   6.681
 8265WAT     H133766   4.281   1.178   6.637
 8265WAT     H233767   4.373   1.265   6.690
 8265WAT    EPW33768   4.348   1.192   6.676
 8266WAT      O33769   4.884   0.622   6.203
 8266WAT     H133770   4.881   0.536   6.189
 8266WAT     H233771   4.815   0.652   6.159
 8266WAT    EPW33772   4.873   0.614   6.194
 8267WAT      O33773   3.723   1.142   6.623
 8267WAT     H133774   3.728   1.155   6.710
 8267WAT     H233775   3.789   1.086   6.608
 8267WAT    EPW33776   3.734   1.136   6.634
 8268WAT      O33777   4.695   0.948   6.082
 8268WAT     H133778   4.747   0.940   6.013
 8268WAT     H233779   4.655   0.870   6.088
 8268WAT    EPW33780   4.697   0.935   6.073
 8269WAT      O33781   3.483   0.980   6.759
 8269WAT     H133782   3.542   1.023   6.806
 8269WAT     H233783   3.446   1.043   6.710
 8269WAT    EPW33784   3.486   0.996   6.759
 8270WAT      O33785   3.275   0.779   6.452
 8270WAT     H133786   3.218   0.821   6.503
 8270WAT     H233787   3.349   0.826   6.462
 8270WAT    EPW33788   3.278   0.792   6.461
 8271WAT      O33789   4.479   0.256   5.409
 8271WAT     H133790   4.486   0.171   5.427
 8271WAT     H233791   4.397   0.265   5.381
 8271WAT    EPW33792   4.468   0.245   5.407
 8272WAT      O33793   3.454   1.106   5.330
 8272WAT     H133794   3.440   1.121   5.245
 8272WAT     H233795   3.541   1.114   5.337
 8272WAT    EPW33796   3.465   1.109   5.318
 8273WAT      O33797   3.871   0.346   5.302
 8273WAT     H133798   3.881   0.359   5.217
 8273WAT     H233799   3.953   0.340   5.332
 8273WAT    EPW33800   3.884   0.347   5.294
 8274WAT      O33801   4.787   1.152   5.050
 8274WAT     H133802   4.850   1.139   5.109
 8274WAT     H233803   4.753   1.073   5.039
 8274WAT    EPW33804   4.791   1.138   5.057
 8275WAT      O33805   4.806   0.394   6.724
 8275WAT     H133806   4.870   0.377   6.781
 8275WAT     H233807   4.848   0.434   6.659
 8275WAT    EPW33808   4.822   0.397   6.723
 8276WAT      O33809   4.394   0.778   5.283
 8276WAT     H133810   4.369   0.766   5.365
 8276WAT     H233811   4.363   0.709   5.241
 8276WAT    EPW33812   4.386   0.766   5.289
 8277WAT      O33813   4.547   0.405   6.859
 8277WAT     H133814   4.634   0.401   6.856
 8277WAT     H233815   4.525   0.447   6.786
 8277WAT    EPW33816   4.557   0.410   6.848
 8278WAT      O33817   3.523   0.987   5.977
 8278WAT     H133818   3.515   0.906   5.946
 8278WAT     H233819   3.478   1.036   5.920
 8278WAT    EPW33820   3.515   0.983   5.964
 8279WAT      O33821   4.083   0.599   5.226
 8279WAT     H133822   4.155   0.565   5.190
 8279WAT     H233823   4.079   0.679   5.191
 8279WAT    EPW33824   4.093   0.606   5.215
 8280WAT      O33825   3.280   1.212   6.335
 8280WAT     H133826   3.329   1.206   6.407
 8280WAT     H233827   3.299   1.138   6.292
 8280WAT    EPW33828   3.290   1.200   6.340
 8281WAT      O33829   3.192   0.569   3.662
 8281WAT     H133830   3.147   0.581   3.737
 8281WAT     H233831   3.163   0.491   3.634
 8281WAT    EPW33832   3.181   0.559   3.669
 8282WAT      O33833   4.819   0.899   3.414
 8282WAT     H133834   4.889   0.847   3.413
 8282WAT     H233835   4.760   0.855   3.367
 8282WAT    EPW33836   4.821   0.885   3.407
 8283WAT      O33837   3.480   0.474   3.180
 8283WAT     H133838   3.441   0.437   3.112
 8283WAT     H233839   3.472   0.415   3.243
 8283WAT    EPW33840   3.473   0.460   3.179
 8284WAT      O33841   4.472   0.262   3.784
 8284WAT     H133842   4.480   0.262   3.697
 8284WAT     H233843   4.413   0.198   3.799
 8284WAT    EPW33844   4.464   0.252   3.774
 8285WAT      O33845   3.442   0.639   3.570
 8285WAT     H133846   3.503   0.622   3.630
 8285WAT     H233847   3.367   0.625   3.612
 8285WAT    EPW33848   3.440   0.634   3.585
 8286WAT      O33849   3.332   0.948   3.178
 8286WAT     H133850   3.378   0.956   3.105
 8286WAT     H233851   3.377   0.890   3.225
 8286WAT    EPW33852   3.345   0.940   3.174
 8287WAT      O33853   3.186   0.842   4.288
 8287WAT     H133854   3.198   0.814   4.369
 8287WAT     H233855   3.125   0.788   4.257
 8287WAT    EPW33856   3.178   0.830   4.295
 8288WAT      O33857   3.843   0.595   4.794
 8288WAT     H133858   3.819   0.595   4.878
 8288WAT     H233859   3.768   0.580   4.752
 8288WAT    EPW33860   3.828   0.593   4.801
 8289WAT      O33861   3.330   0.295   3.708
 8289WAT     H133862   3.284   0.255   3.645
 8289WAT     H233863   3.400   0.243   3.717
 8289WAT    EPW33864   3.334   0.281   3.700
 8290WAT      O33865   3.841   0.914   4.521
 8290WAT     H133866   3.855   0.990   4.480
 8290WAT     H233867   3.920   0.878   4.523
 8290WAT    EPW33868   3.855   0.920   4.515
 8291WAT      O33869   3.951   0.703   3.971
 8291WAT     H133870   3.985   0.623   3.974
 8291WAT     H233871   4.017   0.753   3.946
 8291WAT    EPW33872   3.966   0.698   3.968
 8292WAT      O33873   3.956   0.648   3.592
 8292WAT     H133874   3.989   0.583   3.641
 8292WAT     H233875   3.980   0.626   3.511
 8292WAT    EPW33876   3.965   0.635   3.588
 8293WAT      O33877   3.167   1.042   3.799
 8293WAT     H133878   3.108   1.097   3.768
 8293WAT     H233879   3.209   1.015   3.728
 8293WAT    EPW33880   3.164   1.046   3.784
 8294WAT      O33881   3.751   0.826   3.547
 8294WAT     H133882   3.693   0.799   3.606
 8294WAT     H233883   3.813   0.765   3.550
 8294WAT    EPW33884   3.751   0.813   3.556
 8295WAT      O33885   4.365   1.055   3.299
 8295WAT     H133886   4.438   1.102   3.310
 8295WAT     H233887   4.388   0.975   3.327
 8295WAT    EPW33888   4.379   1.050   3.305
 8296WAT      O33889   4.182   1.094   3.498
 8296WAT     H133890   4.203   1.147   3.565
 8296WAT     H233891   4.259   1.077   3.461
 8296WAT    EPW33892   4.196   1.099   3.503
 8297WAT      O33893   3.321   0.909   3.592
 8297WAT     H133894   3.387   0.851   3.594
 8297WAT     H233895   3.360   0.984   3.570
 8297WAT    EPW33896   3.337   0.911   3.589
 8298WAT      O33897   4.426   1.095   4.329
 8298WAT     H133898   4.500   1.141   4.328
 8298WAT     H233899   4.414   1.074   4.245
 8298WAT    EPW33900   4.435   1.099   4.316
 8299WAT      O33901   3.403   0.757   3.942
 8299WAT     H133902   3.445   0.722   3.875
 8299WAT     H233903   3.435   0.715   4.012
 8299WAT    EPW33904   3.414   0.746   3.943
 8300WAT      O33905   3.726   1.043   3.872
 8300WAT     H133906   3.811   1.053   3.852
 8300WAT     H233907   3.696   1.124   3.879
 8300WAT    EPW33908   3.734   1.056   3.870
 8301WAT      O33909   4.583   1.214   3.339
 8301WAT     H133910   4.650   1.199   3.285
 8301WAT     H233911   4.619   1.205   3.418
 8301WAT    EPW33912   4.598   1.210   3.343
 8302WAT      O33913   3.626   1.164   4.446
 8302WAT     H133914   3.655   1.158   4.528
 8302WAT     H233915   3.563   1.104   4.441
 8302WAT    EPW33916   3.621   1.155   4.457
 8303WAT      O33917   4.351   0.814   4.699
 8303WAT     H133918   4.348   0.852   4.778
 8303WAT     H233919   4.437   0.809   4.682
 8303WAT    EPW33920   4.363   0.819   4.708
 8304WAT      O33921   4.065   0.833   3.174
 8304WAT     H133922   4.047   0.888   3.240
 8304WAT     H233923   4.142   0.862   3.144
 8304WAT    EPW33924   4.074   0.846   3.180
 8305WAT      O33925   3.425   0.981   4.358
 8305WAT     H133926   3.355   0.930   4.371
 8305WAT     H233927   3.451   0.960   4.277
 8305WAT    EPW33928   3.419   0.970   4.348
 8306WAT      O33929   4.196   1.130   4.449
 8306WAT     H133930   4.273   1.122   4.409
 8306WAT     H233931   4.138   1.118   4.385
 8306WAT    EPW33932   4.199   1.127   4.434
 8307WAT      O33933   4.824   1.190   3.739
 8307WAT     H133934   4.779   1.262   3.759
 8307WAT     H233935   4.763   1.133   3.715
 8307WAT    EPW33936   4.808   1.192   3.739
 8308WAT      O33937   4.524   0.775   3.694
 8308WAT     H133938   4.594   0.727   3.713
 8308WAT     H233939   4.458   0.718   3.698
 8308WAT    EPW33940   4.524   0.759   3.697
 8309WAT      O33941   3.561   0.866   4.615
 8309WAT     H133942   3.645   0.872   4.593
 8309WAT     H233943   3.558   0.905   4.692
 8309WAT    EPW33944   3.573   0.873   4.623
 8310WAT      O33945   3.758   0.417   4.090
 8310WAT     H133946   3.775   0.396   4.173
 8310WAT     H233947   3.692   0.363   4.068
 8310WAT    EPW33948   3.751   0.406   4.099
 8311WAT      O33949   3.833   0.411   4.349
 8311WAT     H133950   3.838   0.495   4.369
 8311WAT     H233951   3.804   0.374   4.422
 8311WAT    EPW33952   3.829   0.418   4.363
 8312WAT      O33953   4.450   0.480   4.262
 8312WAT     H133954   4.399   0.439   4.319
 8312WAT     H233955   4.438   0.565   4.280
 8312WAT    EPW33956   4.441   0.487   4.273
 8313WAT      O33957   3.115   0.848   4.970
 8313WAT     H133958   3.190   0.883   4.996
 8313WAT     H233959   3.132   0.762   4.964
 8313WAT    EPW33960   3.129   0.840   4.973
 8314WAT      O33961   4.776   0.524   3.274
 8314WAT     H133962   4.788   0.495   3.356
 8314WAT     H233963   4.856   0.526   3.241
 8314WAT    EPW33964   4.789   0.520   3.282
 8315WAT      O33965   3.489   0.497   3.808
 8315WAT     H133966   3.574   0.489   3.790
 8315WAT     H233967   3.454   0.429   3.766
 8315WAT    EPW33968   3.497   0.486   3.799
 8316WAT      O33969   3.366   1.170   3.931
 8316WAT     H133970   3.299   1.120   3.907
 8316WAT     H233971   3.406   1.188   3.856
 8316WAT    EPW33972   3.362   1.165   3.917
 8317WAT      O33973   4.999   0.975   4.700
 8317WAT     H133974   4.931   1.006   4.655
 8317WAT     H233975   4.962   0.929   4.764
 8317WAT    EPW33976   4.983   0.973   4.703
 8318WAT      O33977   4.565   0.178   3.233
 8318WAT     H133978   4.543   0.251   3.191
 8318WAT     H233979   4.520   0.183   3.308
 8318WAT    EPW33980   4.555   0.189   3.238
 8319WAT      O33981   3.726   0.498   3.631
 8319WAT     H133982   3.797   0.547   3.640
 8319WAT     H233983   3.748   0.441   3.568
 8319WAT    EPW33984   3.740   0.497   3.623
 8320WAT      O33985   3.142   0.662   3.963
 8320WAT     H133986   3.075   0.711   3.991
 8320WAT     H233987   3.210   0.717   3.966
 8320WAT    EPW33988   3.142   0.677   3.968
 8321WAT      O33989   3.148   0.331   3.473
 8321WAT     H133990   3.130   0.247   3.489
 8321WAT     H233991   3.214   0.327   3.416
 8321WAT    EPW33992   3.155   0.318   3.467
 8322WAT      O33993   4.178   0.868   3.864
 8322WAT     H133994   4.126   0.932   3.834
 8322WAT     H233995   4.209   0.832   3.791
 8322WAT    EPW33996   4.175   0.872   3.849
 8323WAT      O33997   3.165   0.747   3.431
 8323WAT     H133998   3.221   0.804   3.467
 8323WAT     H233999   3.142   0.696   3.497
 8323WAT    EPW34000   3.170   0.748   3.446
 8324WAT      O34001   3.586   0.647   4.140
 8324WAT     H134002   3.633   0.676   4.208
 8324WAT     H234003   3.643   0.599   4.094
 8324WAT    EPW34004   3.601   0.644   4.143
 8325WAT      O34005   3.148   0.592   3.194
 8325WAT     H134006   3.224   0.549   3.199
 8325WAT     H234007   3.150   0.645   3.263
 8325WAT    EPW34008   3.160   0.593   3.205
 8326WAT      O34009   3.242   0.414   3.994
 8326WAT     H134010   3.286   0.401   3.919
 8326WAT     H234011   3.222   0.499   3.992
 8326WAT    EPW34012   3.246   0.425   3.983
 8327WAT      O34013   4.782   1.013   4.509
 8327WAT     H134014   4.715   1.065   4.531
 8327WAT     H234015   4.789   1.023   4.422
 8327WAT    EPW34016   4.773   1.022   4.499
 8328WAT      O34017   3.651   0.766   3.822
 8328WAT     H134018   3.663   0.850   3.841
 8328WAT     H234019   3.718   0.726   3.862
 8328WAT    EPW34020   3.663   0.772   3.831
 8329WAT      O34021   3.529   0.237   3.982
 8329WAT     H134022   3.451   0.231   3.944
 8329WAT     H234023   3.536   0.161   4.026
 8329WAT    EPW34024   3.519   0.225   3.983
 8330WAT      O34025   3.982   1.088   4.268
 8330WAT     H134026   3.954   1.024   4.216
 8330WAT     H234027   3.961   1.161   4.225
 8330WAT    EPW34028   3.975   1.089   4.254
 8331WAT      O34029   3.352   0.346   4.885
 8331WAT     H134030   3.348   0.396   4.814
 8331WAT     H234031   3.385   0.271   4.856
 8331WAT    EPW34032   3.356   0.342   4.870
 8332WAT      O34033   4.512   0.566   4.711
 8332WAT     H134034   4.561   0.638   4.721
 8332WAT     H234035   4.552   0.524   4.646
 8332WAT    EPW34036   4.525   0.571   4.703
 8333WAT      O34037   3.942   0.851   4.829
 8333WAT     H134038   3.977   0.833   4.906
 8333WAT     H234039   3.898   0.778   4.809
 8333WAT    EPW34040   3.941   0.837   4.837
 8334WAT      O34041   4.258   0.242   3.320
 8334WAT     H134042   4.257   0.315   3.271
 8334WAT     H234043   4.194   0.256   3.378
 8334WAT    EPW34044   4.248   0.255   3.321
 8335WAT      O34045   4.755   0.629   3.718
 8335WAT     H134046   4.791   0.594   3.789
 8335WAT     H234047   4.754   0.563   3.661
 8335WAT    EPW34048   4.760   0.614   3.720
 8336WAT      O34049   4.360   0.936   4.102
 8336WAT     H134050   4.299   0.906   4.047
 8336WAT     H234051   4.414   0.981   4.051
 8336WAT    EPW34052   4.359   0.938   4.087
 8337WAT      O34053   4.361   0.621   4.042
 8337WAT     H134054   4.281   0.644   4.070
 8337WAT     H234055   4.387   0.562   4.101
 8337WAT    EPW34056   4.353   0.616   4.055
 8338WAT      O34057   3.750   1.102   3.487
 8338WAT     H134058   3.735   1.025   3.524
 8338WAT     H234059   3.819   1.088   3.436
 8338WAT    EPW34060   3.758   1.089   3.485
 8339WAT      O34061   3.979   1.054   3.327
 8339WAT     H134062   4.042   1.070   3.386
 8339WAT     H234063   3.983   1.123   3.274
 8339WAT    EPW34064   3.989   1.067   3.328
 8340WAT      O34065   4.687   0.421   4.527
 8340WAT     H134066   4.692   0.433   4.441
 8340WAT     H234067   4.762   0.453   4.557
 8340WAT    EPW34068   4.699   0.427   4.519
 8341WAT      O34069   4.306   0.956   4.955
 8341WAT     H134070   4.322   0.984   5.036
 8341WAT     H234071   4.332   1.022   4.904
 8341WAT    EPW34072   4.312   0.970   4.959
 8342WAT      O34073   3.429   0.307   3.410
 8342WAT     H134074   3.462   0.229   3.388
 8342WAT     H234075   3.494   0.344   3.456
 8342WAT    EPW34076   3.444   0.301   3.414
 8343WAT      O34077   4.260   0.402   4.487
 8343WAT     H134078   4.245   0.463   4.547
 8343WAT     H234079   4.313   0.346   4.528
 8343WAT    EPW34080   4.266   0.402   4.502
 8344WAT      O34081   4.098   0.242   3.553
 8344WAT     H134082   4.104   0.307   3.611
 8344WAT     H234083   4.080   0.172   3.602
 8344WAT    EPW34084   4.097   0.241   3.569
 8345WAT      O34085   4.621   0.674   4.140
 8345WAT     H134086   4.573   0.704   4.073
 8345WAT     H234087   4.585   0.597   4.157
 8345WAT    EPW34088   4.609   0.667   4.132
 8346WAT      O34089   4.021   0.446   3.996
 8346WAT     H134090   3.936   0.427   4.004
 8346WAT     H234091   4.053   0.430   4.075
 8346WAT    EPW34092   4.013   0.441   4.009
 8347WAT      O34093   3.696   1.119   3.084
 8347WAT     H134094   3.740   1.050   3.113
 8347WAT     H234095   3.717   1.182   3.142
 8347WAT    EPW34096   3.706   1.118   3.097
 8348WAT      O34097   3.406   0.416   4.227
 8348WAT     H134098   3.478   0.464   4.224
 8348WAT     H234099   3.379   0.413   4.145
 8348WAT    EPW34100   3.412   0.422   4.215
 8349WAT      O34101   4.990   1.091   3.334
 8349WAT     H134102   5.060   1.044   3.309
 8349WAT     H234103   4.936   1.031   3.367
 8349WAT    EPW34104   4.993   1.075   3.335
 8350WAT      O34105   4.714   0.369   4.252
 8350WAT     H134106   4.713   0.291   4.291
 8350WAT     H234107   4.630   0.392   4.251
 8350WAT    EPW34108   4.702   0.361   4.257
 8351WAT      O34109   3.663   0.210   3.115
 8351WAT     H134110   3.602   0.169   3.162
 8351WAT     H234111   3.625   0.222   3.038
 8351WAT    EPW34112   3.648   0.206   3.111
 8352WAT      O34113   3.345   0.521   4.655
 8352WAT     H134114   3.303   0.469   4.599
 8352WAT     H234115   3.310   0.599   4.641
 8352WAT    EPW34116   3.334   0.525   4.645
 8353WAT      O34117   4.840   0.376   3.995
 8353WAT     H134118   4.811   0.416   4.067
 8353WAT     H234119   4.926   0.370   4.008
 8353WAT    EPW34120   4.848   0.381   4.008
 8354WAT      O34121   4.953   0.939   4.048
 8354WAT     H134122   4.982   0.965   3.970
 8354WAT     H234123   5.022   0.949   4.100
 8354WAT    EPW34124   4.967   0.944   4.044
 8355WAT      O34125   4.613   0.799   3.246
 8355WAT     H134126   4.647   0.719   3.250
 8355WAT     H234127   4.538   0.792   3.289
 8355WAT    EPW34128   4.607   0.786   3.253
 8356WAT      O34129   4.952   0.211   4.967
 8356WAT     H134130   4.947   0.177   4.887
 8356WAT     H234131   5.025   0.258   4.965
 8356WAT    EPW34132   4.962   0.213   4.955
 8357WAT      O34133   4.906   0.579   4.587
 8357WAT     H134134   4.968   0.524   4.562
 8357WAT     H234135   4.899   0.635   4.521
 8357WAT    EPW34136   4.914   0.579   4.574
 8358WAT      O34137   4.351   0.587   3.187
 8358WAT     H134138   4.419   0.535   3.170
 8358WAT     H234139   4.309   0.591   3.110
 8358WAT    EPW34140   4.355   0.580   3.173
 8359WAT      O34141   3.819   0.702   4.317
 8359WAT     H134142   3.789   0.761   4.374
 8359WAT     H234143   3.824   0.746   4.242
 8359WAT    EPW34144   3.815   0.717   4.314
 8360WAT      O34145   3.617   0.597   4.657
 8360WAT     H134146   3.536   0.568   4.674
 8360WAT     H234147   3.608   0.684   4.657
 8360WAT    EPW34148   3.604   0.605   4.659
 8361WAT      O34149   4.071   0.344   4.266
 8361WAT     H134150   4.118   0.382   4.329
 8361WAT     H234151   3.988   0.358   4.292
 8361WAT    EPW34152   4.065   0.352   4.279
 8362WAT      O34153   3.997   1.083   3.789
 8362WAT     H134154   4.052   1.151   3.794
 8362WAT     H234155   3.962   1.092   3.709
 8362WAT    EPW34156   4.000   1.095   3.778
 8363WAT      O34157   3.815   0.906   4.128
 8363WAT     H134158   3.753   0.964   4.110
 8363WAT     H234159   3.840   0.878   4.049
 8363WAT    EPW34160   3.810   0.911   4.114
 8364WAT      O34161   4.246   0.570   4.827
 8364WAT     H134162   4.322   0.598   4.794
 8364WAT     H234163   4.191   0.575   4.759
 8364WAT    EPW34164   4.249   0.575   4.812
 8365WAT      O34165   4.637   0.825   4.677
 8365WAT     H134166   4.672   0.852   4.753
 8365WAT     H234167   4.666   0.883   4.619
 8365WAT    EPW34168   4.647   0.837   4.680
 8366WAT      O34169   3.975   0.384   3.119
 8366WAT     H134170   3.894   0.366   3.091
 8366WAT     H234171   3.971   0.469   3.139
 8366WAT    EPW34172   3.962   0.394   3.118
 8367WAT      O34173   4.081   1.071   4.716
 8367WAT     H134174   4.128   1.011   4.674
 8367WAT     H234175   4.045   1.027   4.782
 8367WAT    EPW34176   4.082   1.056   4.720
 8368WAT      O34177   4.739   0.402   3.534
 8368WAT     H134178   4.787   0.329   3.529
 8368WAT     H234179   4.657   0.373   3.526
 8368WAT    EPW34180   4.734   0.387   3.532
 8369WAT      O34181   4.086   0.593   4.618
 8369WAT     H134182   4.007   0.587   4.653
 8369WAT     H234183   4.094   0.678   4.598
 8369WAT    EPW34184   4.076   0.605   4.620
 8370WAT      O34185   3.669   1.214   4.150
 8370WAT     H134186   3.671   1.220   4.237
 8370WAT     H234187   3.627   1.139   4.135
 8370WAT    EPW34188   3.663   1.204   4.160
 8371WAT      O34189   4.361   0.519   3.769
 8371WAT     H134190   4.369   0.553   3.849
 8371WAT     H234191   4.378   0.434   3.782
 8371WAT    EPW34192   4.365   0.511   3.783
 8372WAT      O34193   4.113   0.446   3.726
 8372WAT     H134194   4.083   0.414   3.802
 8372WAT     H234195   4.183   0.493   3.749
 8372WAT    EPW34196   4.119   0.448   3.741
 8373WAT      O34197   4.135   0.858   4.529
 8373WAT     H134198   4.204   0.846   4.581
 8373WAT     H234199   4.149   0.937   4.494
 8373WAT    EPW34200   4.147   0.868   4.531
 8374WAT      O34201   3.346   1.164   4.694
 8374WAT     H134202   3.280   1.107   4.704
 8374WAT     H234203   3.308   1.241   4.709
 8374WAT    EPW34204   3.331   1.167   4.697
 8375WAT      O34205   4.198   0.304   4.886
 8375WAT     H134206   4.230   0.373   4.843
 8375WAT     H234207   4.127   0.336   4.926
 8375WAT    EPW34208   4.192   0.319   4.886
 8376WAT      O34209   4.506   1.142   3.979
 8376WAT     H134210   4.461   1.206   4.017
 8376WAT     H234211   4.577   1.134   4.029
 8376WAT    EPW34212   4.510   1.150   3.992
 8377WAT      O34213   4.176   0.651   4.272
 8377WAT     H134214   4.107   0.691   4.306
 8377WAT     H234215   4.244   0.694   4.306
 8377WAT    EPW34216   4.176   0.663   4.282
 8378WAT      O34217   4.714   0.910   4.930
 8378WAT     H134218   4.791   0.871   4.938
 8378WAT     H234219   4.667   0.876   4.995
 8378WAT    EPW34220   4.718   0.899   4.941
 8379WAT      O34221   4.208   0.810   3.589
 8379WAT     H134222   4.188   0.893   3.573
 8379WAT     H234223   4.131   0.771   3.601
 8379WAT    EPW34224   4.194   0.816   3.588
 8380WAT      O34225   3.200   0.372   4.457
 8380WAT     H134226   3.232   0.394   4.378
 8380WAT     H234227   3.190   0.285   4.451
 8380WAT    EPW34228   3.203   0.362   4.444
 8381WAT      O34229   3.745   0.836   3.230
 8381WAT     H134230   3.789   0.844   3.305
 8381WAT     H234231   3.664   0.814   3.256
 8381WAT    EPW34232   3.739   0.834   3.245
 8382WAT      O34233   3.676   0.301   4.595
 8382WAT     H134234   3.637   0.378   4.603
 8382WAT     H234235   3.636   0.264   4.527
 8382WAT    EPW34236   3.665   0.307   4.586
 8383WAT      O34237   4.604   0.206   4.006
 8383WAT     H134238   4.671   0.260   4.022
 8383WAT     H234239   4.570   0.237   3.933
 8383WAT    EPW34240   4.609   0.219   3.998
 8384WAT      O34241   4.635   1.013   3.587
 8384WAT     H134242   4.618   0.948   3.642
 8384WAT     H234243   4.707   0.986   3.545
 8384WAT    EPW34244   4.643   0.999   3.589
 8385WAT      O34245   3.477   0.743   3.290
 8385WAT     H134246   3.453   0.712   3.368
 8385WAT     H234247   3.474   0.673   3.238
 8385WAT    EPW34248   3.473   0.728   3.294
 8386WAT      O34249   3.759   0.567   3.164
 8386WAT     H134250   3.678   0.541   3.178
 8386WAT     H234251   3.757   0.653   3.183
 8386WAT    EPW34252   3.747   0.576   3.169
 8387WAT      O34253   4.403   0.758   4.356
 8387WAT     H134254   4.423   0.788   4.435
 8387WAT     H234255   4.397   0.830   4.308
 8387WAT    EPW34256   4.405   0.773   4.361
 8388WAT      O34257   4.356   1.180   4.781
 8388WAT     H134258   4.281   1.178   4.737
 8388WAT     H234259   4.373   1.265   4.789
 8388WAT    EPW34260   4.348   1.192   4.776
 8389WAT      O34261   4.884   0.622   4.302
 8389WAT     H134262   4.881   0.536   4.289
 8389WAT     H234263   4.815   0.652   4.259
 8389WAT    EPW34264   4.873   0.614   4.294
 8390WAT      O34265   3.723   1.142   4.723
 8390WAT     H134266   3.728   1.155   4.809
 8390WAT     H234267   3.789   1.086   4.707
 8390WAT    EPW34268   3.734   1.136   4.733
 8391WAT      O34269   4.695   0.948   4.182
 8391WAT     H134270   4.747   0.940   4.113
 8391WAT     H234271   4.655   0.870   4.187
 8391WAT    EPW34272   4.697   0.935   4.172
 8392WAT      O34273   3.483   0.980   4.859
 8392WAT     H134274   3.542   1.023   4.906
 8392WAT     H234275   3.446   1.043   4.810
 8392WAT    EPW34276   3.486   0.996   4.858
 8393WAT      O34277   3.275   0.779   4.552
 8393WAT     H134278   3.218   0.821   4.602
 8393WAT     H234279   3.349   0.826   4.561
 8393WAT    EPW34280   3.278   0.792   4.560
 8394WAT      O34281   4.479   0.256   3.508
 8394WAT     H134282   4.486   0.171   3.526
 8394WAT     H234283   4.397   0.265   3.480
 8394WAT    EPW34284   4.468   0.245   3.507
 8395WAT      O34285   3.454   1.106   3.429
 8395WAT     H134286   3.440   1.121   3.344
 8395WAT     H234287   3.541   1.114   3.437
 8395WAT    EPW34288   3.465   1.109   3.418
 8396WAT      O34289   3.871   0.346   3.402
 8396WAT     H134290   3.881   0.359   3.316
 8396WAT     H234291   3.953   0.340   3.431
 8396WAT    EPW34292   3.884   0.347   3.394
 8397WAT      O34293   4.787   1.152   3.150
 8397WAT     H134294   4.850   1.139   3.208
 8397WAT     H234295   4.753   1.073   3.138
 8397WAT    EPW34296   4.791   1.138   3.157
 8398WAT      O34297   4.806   0.394   4.823
 8398WAT     H134298   4.870   0.377   4.881
 8398WAT     H234299   4.848   0.434   4.758
 8398WAT    EPW34300   4.822   0.397   4.822
 8399WAT      O34301   4.394   0.778   3.382
 8399WAT     H134302   4.369   0.766   3.465
 8399WAT     H234303   4.363   0.709   3.340
 8399WAT    EPW34304   4.386   0.766   3.388
 8400WAT      O34305   4.547   0.405   4.959
 8400WAT     H134306   4.634   0.401   4.955
 8400WAT     H234307   4.525   0.447   4.885
 8400WAT    EPW34308   4.557   0.410   4.947
 8401WAT      O34309   3.523   0.987   4.077
 8401WAT     H134310   3.515   0.906   4.045
 8401WAT     H234311   3.478   1.036   4.020
 8401WAT    EPW34312   3.515   0.983   4.064
 8402WAT      O34313   4.083   0.599   3.325
 8402WAT     H134314   4.155   0.565   3.289
 8402WAT     H234315   4.079   0.679   3.290
 8402WAT    EPW34316   4.093   0.606   3.315
 8403WAT      O34317   3.280   1.212   4.435
 8403WAT     H134318   3.329   1.206   4.507
 8403WAT     H234319   3.299   1.138   4.391
 8403WAT    EPW34320   3.290   1.200   4.439
 8404WAT      O34321   3.192   0.569   1.762
 8404WAT     H134322   3.147   0.581   1.836
 8404WAT     H234323   3.163   0.491   1.733
 8404WAT    EPW34324   3.181   0.559   1.768
 8405WAT      O34325   4.819   0.899   1.513
 8405WAT     H134326   4.889   0.847   1.513
 8405WAT     H234327   4.760   0.855   1.466
 8405WAT    EPW34328   4.821   0.885   1.506
 8406WAT      O34329   3.480   0.474   1.280
 8406WAT     H134330   3.441   0.437   1.211
 8406WAT     H234331   3.472   0.415   1.342
 8406WAT    EPW34332   3.473   0.460   1.279
 8407WAT      O34333   4.472   0.262   1.884
 8407WAT     H134334   4.480   0.262   1.797
 8407WAT     H234335   4.413   0.198   1.899
 8407WAT    EPW34336   4.464   0.252   1.873
 8408WAT      O34337   3.442   0.639   1.670
 8408WAT     H134338   3.503   0.622   1.730
 8408WAT     H234339   3.367   0.625   1.712
 8408WAT    EPW34340   3.440   0.634   1.685
 8409WAT      O34341   3.332   0.948   1.277
 8409WAT     H134342   3.378   0.956   1.204
 8409WAT     H234343   3.377   0.890   1.324
 8409WAT    EPW34344   3.345   0.940   1.273
 8410WAT      O34345   3.186   0.842   2.387
 8410WAT     H134346   3.198   0.814   2.469
 8410WAT     H234347   3.125   0.788   2.356
 8410WAT    EPW34348   3.178   0.830   2.395
 8411WAT      O34349   3.843   0.595   2.894
 8411WAT     H134350   3.819   0.595   2.978
 8411WAT     H234351   3.768   0.580   2.851
 8411WAT    EPW34352   3.828   0.593   2.900
 8412WAT      O34353   3.330   0.295   1.807
 8412WAT     H134354   3.284   0.255   1.745
 8412WAT     H234355   3.400   0.243   1.817
 8412WAT    EPW34356   3.334   0.281   1.799
 8413WAT      O34357   3.841   0.914   2.620
 8413WAT     H134358   3.855   0.990   2.579
 8413WAT     H234359   3.920   0.878   2.623
 8413WAT    EPW34360   3.855   0.920   2.615
 8414WAT      O34361   3.951   0.703   2.071
 8414WAT     H134362   3.985   0.623   2.074
 8414WAT     H234363   4.017   0.753   2.045
 8414WAT    EPW34364   3.966   0.698   2.067
 8415WAT      O34365   3.956   0.648   1.692
 8415WAT     H134366   3.989   0.583   1.740
 8415WAT     H234367   3.980   0.626   1.611
 8415WAT    EPW34368   3.965   0.635   1.687
 8416WAT      O34369   3.167   1.042   1.899
 8416WAT     H134370   3.108   1.097   1.867
 8416WAT     H234371   3.209   1.015   1.827
 8416WAT    EPW34372   3.164   1.046   1.884
 8417WAT      O34373   3.751   0.826   1.647
 8417WAT     H134374   3.693   0.799   1.706
 8417WAT     H234375   3.813   0.765   1.649
 8417WAT    EPW34376   3.751   0.813   1.656
 8418WAT      O34377   4.365   1.055   1.399
 8418WAT     H134378   4.438   1.102   1.409
 8418WAT     H234379   4.388   0.975   1.427
 8418WAT    EPW34380   4.379   1.050   1.405
 8419WAT      O34381   4.182   1.094   1.598
 8419WAT     H134382   4.203   1.147   1.664
 8419WAT     H234383   4.259   1.077   1.560
 8419WAT    EPW34384   4.196   1.099   1.602
 8420WAT      O34385   3.321   0.909   1.692
 8420WAT     H134386   3.387   0.851   1.693
 8420WAT     H234387   3.360   0.984   1.670
 8420WAT    EPW34388   3.337   0.911   1.689
 8421WAT      O34389   4.426   1.095   2.428
 8421WAT     H134390   4.500   1.141   2.427
 8421WAT     H234391   4.414   1.074   2.345
 8421WAT    EPW34392   4.435   1.099   2.416
 8422WAT      O34393   3.403   0.757   2.042
 8422WAT     H134394   3.445   0.722   1.974
 8422WAT     H234395   3.435   0.715   2.111
 8422WAT    EPW34396   3.414   0.746   2.042
 8423WAT      O34397   3.726   1.043   1.971
 8423WAT     H134398   3.811   1.053   1.952
 8423WAT     H234399   3.696   1.124   1.978
 8423WAT    EPW34400   3.734   1.056   1.969
 8424WAT      O34401   4.583   1.214   1.439
 8424WAT     H134402   4.650   1.199   1.384
 8424WAT     H234403   4.619   1.205   1.518
 8424WAT    EPW34404   4.598   1.210   1.442
 8425WAT      O34405   3.626   1.164   2.545
 8425WAT     H134406   3.655   1.158   2.627
 8425WAT     H234407   3.563   1.104   2.541
 8425WAT    EPW34408   3.621   1.155   2.557
 8426WAT      O34409   4.351   0.814   2.799
 8426WAT     H134410   4.348   0.852   2.877
 8426WAT     H234411   4.437   0.809   2.782
 8426WAT    EPW34412   4.363   0.819   2.808
 8427WAT      O34413   4.065   0.833   1.274
 8427WAT     H134414   4.047   0.888   1.339
 8427WAT     H234415   4.142   0.862   1.244
 8427WAT    EPW34416   4.074   0.846   1.279
 8428WAT      O34417   3.425   0.981   2.458
 8428WAT     H134418   3.355   0.930   2.470
 8428WAT     H234419   3.451   0.960   2.377
 8428WAT    EPW34420   3.419   0.970   2.447
 8429WAT      O34421   4.196   1.130   2.549
 8429WAT     H134422   4.273   1.122   2.508
 8429WAT     H234423   4.138   1.118   2.485
 8429WAT    EPW34424   4.199   1.127   2.533
 8430WAT      O34425   4.824   1.190   1.839
 8430WAT     H134426   4.779   1.262   1.859
 8430WAT     H234427   4.763   1.133   1.814
 8430WAT    EPW34428   4.808   1.192   1.838
 8431WAT      O34429   4.524   0.775   1.793
 8431WAT     H134430   4.594   0.727   1.812
 8431WAT     H234431   4.458   0.718   1.798
 8431WAT    EPW34432   4.524   0.759   1.796
 8432WAT      O34433   3.561   0.866   2.714
 8432WAT     H134434   3.645   0.872   2.692
 8432WAT     H234435   3.558   0.905   2.792
 8432WAT    EPW34436   3.573   0.873   2.722
 8433WAT      O34437   3.758   0.417   2.189
 8433WAT     H134438   3.775   0.396   2.272
 8433WAT     H234439   3.692   0.363   2.168
 8433WAT    EPW34440   3.751   0.406   2.198
 8434WAT      O34441   3.833   0.411   2.448
 8434WAT     H134442   3.838   0.495   2.468
 8434WAT     H234443   3.804   0.374   2.522
 8434WAT    EPW34444   3.829   0.418   2.462
 8435WAT      O34445   4.450   0.480   2.361
 8435WAT     H134446   4.399   0.439   2.418
 8435WAT     H234447   4.438   0.565   2.379
 8435WAT    EPW34448   4.441   0.487   2.372
 8436WAT      O34449   3.115   0.848   3.069
 8436WAT     H134450   3.190   0.883   3.095
 8436WAT     H234451   3.132   0.762   3.064
 8436WAT    EPW34452   3.129   0.840   3.072
 8437WAT      O34453   4.776   0.524   1.374
 8437WAT     H134454   4.788   0.495   1.455
 8437WAT     H234455   4.856   0.526   1.341
 8437WAT    EPW34456   4.789   0.520   1.381
 8438WAT      O34457   3.489   0.497   1.907
 8438WAT     H134458   3.574   0.489   1.890
 8438WAT     H234459   3.454   0.429   1.866
 8438WAT    EPW34460   3.497   0.486   1.898
 8439WAT      O34461   3.366   1.170   2.031
 8439WAT     H134462   3.299   1.120   2.006
 8439WAT     H234463   3.406   1.188   1.956
 8439WAT    EPW34464   3.362   1.165   2.016
 8440WAT      O34465   4.999   0.975   2.799
 8440WAT     H134466   4.931   1.006   2.755
 8440WAT     H234467   4.962   0.929   2.864
 8440WAT    EPW34468   4.983   0.973   2.802
 8441WAT      O34469   4.565   0.178   1.332
 8441WAT     H134470   4.543   0.251   1.290
 8441WAT     H234471   4.520   0.183   1.407
 8441WAT    EPW34472   4.555   0.189   1.337
 8442WAT      O34473   3.726   0.498   1.730
 8442WAT     H134474   3.797   0.547   1.739
 8442WAT     H234475   3.748   0.441   1.668
 8442WAT    EPW34476   3.740   0.497   1.723
 8443WAT      O34477   3.142   0.662   2.062
 8443WAT     H134478   3.075   0.711   2.090
 8443WAT     H234479   3.210   0.717   2.065
 8443WAT    EPW34480   3.142   0.677   2.067
 8444WAT      O34481   3.148   0.331   1.573
 8444WAT     H134482   3.130   0.247   1.588
 8444WAT     H234483   3.214   0.327   1.516
 8444WAT    EPW34484   3.155   0.318   1.567
 8445WAT      O34485   4.178   0.868   1.963
 8445WAT     H134486   4.126   0.932   1.934
 8445WAT     H234487   4.209   0.832   1.890
 8445WAT    EPW34488   4.175   0.872   1.948
 8446WAT      O34489   3.165   0.747   1.530
 8446WAT     H134490   3.221   0.804   1.567
 8446WAT     H234491   3.142   0.696   1.597
 8446WAT    EPW34492   3.170   0.748   1.545
 8447WAT      O34493   3.586   0.647   2.239
 8447WAT     H134494   3.633   0.676   2.307
 8447WAT     H234495   3.643   0.599   2.194
 8447WAT    EPW34496   3.601   0.644   2.242
 8448WAT      O34497   3.148   0.592   1.293
 8448WAT     H134498   3.224   0.549   1.299
 8448WAT     H234499   3.150   0.645   1.362
 8448WAT    EPW34500   3.160   0.593   1.304
 8449WAT      O34501   3.242   0.414   2.094
 8449WAT     H134502   3.286   0.401   2.019
 8449WAT     H234503   3.222   0.499   2.091
 8449WAT    EPW34504   3.246   0.425   2.082
 8450WAT      O34505   4.782   1.013   2.608
 8450WAT     H134506   4.715   1.065   2.630
 8450WAT     H234507   4.789   1.023   2.522
 8450WAT    EPW34508   4.773   1.022   2.599
 8451WAT      O34509   3.651   0.766   1.922
 8451WAT     H134510   3.663   0.850   1.940
 8451WAT     H234511   3.718   0.726   1.961
 8451WAT    EPW34512   3.663   0.772   1.930
 8452WAT      O34513   3.529   0.237   2.082
 8452WAT     H134514   3.451   0.231   2.044
 8452WAT     H234515   3.536   0.161   2.126
 8452WAT    EPW34516   3.519   0.225   2.083
 8453WAT      O34517   3.982   1.088   2.368
 8453WAT     H134518   3.954   1.024   2.316
 8453WAT     H234519   3.961   1.161   2.324
 8453WAT    EPW34520   3.975   1.089   2.354
 8454WAT      O34521   3.352   0.346   2.985
 8454WAT     H134522   3.348   0.396   2.913
 8454WAT     H234523   3.385   0.271   2.955
 8454WAT    EPW34524   3.356   0.342   2.970
 8455WAT      O34525   4.512   0.566   2.810
 8455WAT     H134526   4.561   0.638   2.820
 8455WAT     H234527   4.552   0.524   2.745
 8455WAT    EPW34528   4.525   0.571   2.802
 8456WAT      O34529   3.942   0.851   2.928
 8456WAT     H134530   3.977   0.833   3.006
 8456WAT     H234531   3.898   0.778   2.908
 8456WAT    EPW34532   3.941   0.837   2.937
 8457WAT      O34533   4.258   0.242   1.419
 8457WAT     H134534   4.257   0.315   1.370
 8457WAT     H234535   4.194   0.256   1.477
 8457WAT    EPW34536   4.248   0.255   1.421
 8458WAT      O34537   4.755   0.629   1.817
 8458WAT     H134538   4.791   0.594   1.889
 8458WAT     H234539   4.754   0.563   1.760
 8458WAT    EPW34540   4.760   0.614   1.819
 8459WAT      O34541   4.360   0.936   2.202
 8459WAT     H134542   4.299   0.906   2.146
 8459WAT     H234543   4.414   0.981   2.151
 8459WAT    EPW34544   4.359   0.938   2.186
 8460WAT      O34545   4.361   0.621   2.142
 8460WAT     H134546   4.281   0.644   2.169
 8460WAT     H234547   4.387   0.562   2.200
 8460WAT    EPW34548   4.353   0.616   2.154
 8461WAT      O34549   3.750   1.102   1.587
 8461WAT     H134550   3.735   1.025   1.624
 8461WAT     H234551   3.819   1.088   1.535
 8461WAT    EPW34552   3.758   1.089   1.584
 8462WAT      O34553   3.979   1.054   1.427
 8462WAT     H134554   4.042   1.070   1.486
 8462WAT     H234555   3.983   1.123   1.374
 8462WAT    EPW34556   3.989   1.067   1.428
 8463WAT      O34557   4.687   0.421   2.626
 8463WAT     H134558   4.692   0.433   2.540
 8463WAT     H234559   4.762   0.453   2.657
 8463WAT    EPW34560   4.699   0.427   2.618
 8464WAT      O34561   4.306   0.956   3.054
 8464WAT     H134562   4.322   0.984   3.135
 8464WAT     H234563   4.332   1.022   3.004
 8464WAT    EPW34564   4.312   0.970   3.059
 8465WAT      O34565   3.429   0.307   1.510
 8465WAT     H134566   3.462   0.229   1.487
 8465WAT     H234567   3.494   0.344   1.555
 8465WAT    EPW34568   3.444   0.301   1.513
 8466WAT      O34569   4.260   0.402   2.586
 8466WAT     H134570   4.245   0.463   2.647
 8466WAT     H234571   4.313   0.346   2.627
 8466WAT    EPW34572   4.266   0.402   2.601
 8467WAT      O34573   4.098   0.242   1.652
 8467WAT     H134574   4.104   0.307   1.710
 8467WAT     H234575   4.080   0.172   1.701
 8467WAT    EPW34576   4.097   0.241   1.668
 8468WAT      O34577   4.621   0.674   2.239
 8468WAT     H134578   4.573   0.704   2.172
 8468WAT     H234579   4.585   0.597   2.257
 8468WAT    EPW34580   4.609   0.667   2.232
 8469WAT      O34581   4.021   0.446   2.095
 8469WAT     H134582   3.936   0.427   2.103
 8469WAT     H234583   4.053   0.430   2.175
 8469WAT    EPW34584   4.013   0.441   2.108
 8470WAT      O34585   3.696   1.119   1.184
 8470WAT     H134586   3.740   1.050   1.213
 8470WAT     H234587   3.717   1.182   1.241
 8470WAT    EPW34588   3.706   1.118   1.197
 8471WAT      O34589   3.406   0.416   2.327
 8471WAT     H134590   3.478   0.464   2.323
 8471WAT     H234591   3.379   0.413   2.244
 8471WAT    EPW34592   3.412   0.422   2.314
 8472WAT      O34593   4.990   1.091   1.433
 8472WAT     H134594   5.060   1.044   1.408
 8472WAT     H234595   4.936   1.031   1.467
 8472WAT    EPW34596   4.993   1.075   1.434
 8473WAT      O34597   4.714   0.369   2.351
 8473WAT     H134598   4.713   0.291   2.391
 8473WAT     H234599   4.630   0.392   2.350
 8473WAT    EPW34600   4.702   0.361   2.357
 8474WAT      O34601   3.663   0.210   1.214
 8474WAT     H134602   3.602   0.169   1.262
 8474WAT     H234603   3.625   0.222   1.137
 8474WAT    EPW34604   3.648   0.206   1.210
 8475WAT      O34605   3.345   0.521   2.755
 8475WAT     H134606   3.303   0.469   2.699
 8475WAT     H234607   3.310   0.599   2.740
 8475WAT    EPW34608   3.334   0.525   2.744
 8476WAT      O34609   4.840   0.376   2.095
 8476WAT     H134610   4.811   0.416   2.167
 8476WAT     H234611   4.926   0.370   2.107
 8476WAT    EPW34612   4.848   0.381   2.107
 8477WAT      O34613   4.953   0.939   2.148
 8477WAT     H134614   4.982   0.965   2.069
 8477WAT     H234615   5.022   0.949   2.199
 8477WAT    EPW34616   4.967   0.944   2.144
 8478WAT      O34617   4.613   0.799   1.346
 8478WAT     H134618   4.647   0.719   1.349
 8478WAT     H234619   4.538   0.792   1.389
 8478WAT    EPW34620   4.607   0.786   1.353
 8479WAT      O34621   4.952   0.211   3.066
 8479WAT     H134622   4.947   0.177   2.986
 8479WAT     H234623   5.025   0.258   3.064
 8479WAT    EPW34624   4.962   0.213   3.054
 8480WAT      O34625   4.906   0.579   2.687
 8480WAT     H134626   4.968   0.524   2.661
 8480WAT     H234627   4.899   0.635   2.621
 8480WAT    EPW34628   4.914   0.579   2.673
 8481WAT      O34629   4.351   0.587   1.286
 8481WAT     H134630   4.419   0.535   1.269
 8481WAT     H234631   4.309   0.591   1.210
 8481WAT    EPW34632   4.355   0.580   1.272
 8482WAT      O34633   3.819   0.702   2.416
 8482WAT     H134634   3.789   0.761   2.473
 8482WAT     H234635   3.824   0.746   2.342
 8482WAT    EPW34636   3.815   0.717   2.414
 8483WAT      O34637   3.617   0.597   2.756
 8483WAT     H134638   3.536   0.568   2.773
 8483WAT     H234639   3.608   0.684   2.757
 8483WAT    EPW34640   3.604   0.605   2.759
 8484WAT      O34641   4.071   0.344   2.366
 8484WAT     H134642   4.118   0.382   2.428
 8484WAT     H234643   3.988   0.358   2.391
 8484WAT    EPW34644   4.065   0.352   2.379
 8485WAT      O34645   3.997   1.083   1.888
 8485WAT     H134646   4.052   1.151   1.894
 8485WAT     H234647   3.962   1.092   1.809
 8485WAT    EPW34648   4.000   1.095   1.877
 8486WAT      O34649   3.815   0.906   2.227
 8486WAT     H134650   3.753   0.964   2.209
 8486WAT     H234651   3.840   0.878   2.149
 8486WAT    EPW34652   3.810   0.911   2.213
 8487WAT      O34653   4.246   0.570   2.926
 8487WAT     H134654   4.322   0.598   2.894
 8487WAT     H234655   4.191   0.575   2.858
 8487WAT    EPW34656   4.249   0.575   2.911
 8488WAT      O34657   4.637   0.825   2.777
 8488WAT     H134658   4.672   0.852   2.852
 8488WAT     H234659   4.666   0.883   2.719
 8488WAT    EPW34660   4.647   0.837   2.779
 8489WAT      O34661   3.975   0.384   1.219
 8489WAT     H134662   3.894   0.366   1.190
 8489WAT     H234663   3.971   0.469   1.238
 8489WAT    EPW34664   3.962   0.394   1.217
 8490WAT      O34665   4.081   1.071   2.815
 8490WAT     H134666   4.128   1.011   2.774
 8490WAT     H234667   4.045   1.027   2.882
 8490WAT    EPW34668   4.082   1.056   2.819
 8491WAT      O34669   4.739   0.402   1.633
 8491WAT     H134670   4.787   0.329   1.629
 8491WAT     H234671   4.657   0.373   1.626
 8491WAT    EPW34672   4.734   0.387   1.631
 8492WAT      O34673   4.086   0.593   2.717
 8492WAT     H134674   4.007   0.587   2.752
 8492WAT     H234675   4.094   0.678   2.698
 8492WAT    EPW34676   4.076   0.605   2.720
 8493WAT      O34677   3.669   1.214   2.249
 8493WAT     H134678   3.671   1.220   2.336
 8493WAT     H234679   3.627   1.139   2.234
 8493WAT    EPW34680   3.663   1.204   2.260
 8494WAT      O34681   4.361   0.519   1.869
 8494WAT     H134682   4.369   0.553   1.949
 8494WAT     H234683   4.378   0.434   1.881
 8494WAT    EPW34684   4.365   0.511   1.882
 8495WAT      O34685   4.113   0.446   1.825
 8495WAT     H134686   4.083   0.414   1.901
 8495WAT     H234687   4.183   0.493   1.849
 8495WAT    EPW34688   4.119   0.448   1.840
 8496WAT      O34689   4.135   0.858   2.628
 8496WAT     H134690   4.204   0.846   2.681
 8496WAT     H234691   4.149   0.937   2.594
 8496WAT    EPW34692   4.147   0.868   2.631
 8497WAT      O34693   3.346   1.164   2.793
 8497WAT     H134694   3.280   1.107   2.803
 8497WAT     H234695   3.308   1.241   2.808
 8497WAT    EPW34696   3.331   1.167   2.797
 8498WAT      O34697   4.198   0.304   2.985
 8498WAT     H134698   4.230   0.373   2.942
 8498WAT     H234699   4.127   0.336   3.026
 8498WAT    EPW34700   4.192   0.319   2.985
 8499WAT      O34701   4.506   1.142   2.078
 8499WAT     H134702   4.461   1.206   2.116
 8499WAT     H234703   4.577   1.134   2.129
 8499WAT    EPW34704   4.510   1.150   2.091
 8500WAT      O34705   4.176   0.651   2.371
 8500WAT     H134706   4.107   0.691   2.406
 8500WAT     H234707   4.244   0.694   2.405
 8500WAT    EPW34708   4.176   0.663   2.381
 8501WAT      O34709   4.714   0.910   3.029
 8501WAT     H134710   4.791   0.871   3.038
 8501WAT     H234711   4.667   0.876   3.095
 8501WAT    EPW34712   4.718   0.899   3.040
 8502WAT      O34713   4.208   0.810   1.688
 8502WAT     H134714   4.188   0.893   1.672
 8502WAT     H234715   4.131   0.771   1.700
 8502WAT    EPW34716   4.194   0.816   1.688
 8503WAT      O34717   3.200   0.372   2.556
 8503WAT     H134718   3.232   0.394   2.478
 8503WAT     H234719   3.190   0.285   2.550
 8503WAT    EPW34720   3.203   0.362   2.544
 8504WAT      O34721   3.745   0.836   1.329
 8504WAT     H134722   3.789   0.844   1.404
 8504WAT     H234723   3.664   0.814   1.355
 8504WAT    EPW34724   3.739   0.834   1.344
 8505WAT      O34725   3.676   0.301   2.694
 8505WAT     H134726   3.637   0.378   2.702
 8505WAT     H234727   3.636   0.264   2.627
 8505WAT    EPW34728   3.665   0.307   2.686
 8506WAT      O34729   4.604   0.206   2.106
 8506WAT     H134730   4.671   0.260   2.122
 8506WAT     H234731   4.570   0.237   2.032
 8506WAT    EPW34732   4.609   0.219   2.097
 8507WAT      O34733   4.635   1.013   1.687
 8507WAT     H134734   4.618   0.948   1.742
 8507WAT     H234735   4.707   0.986   1.644
 8507WAT    EPW34736   4.643   0.999   1.688
 8508WAT      O34737   3.477   0.743   1.389
 8508WAT     H134738   3.453   0.712   1.467
 8508WAT     H234739   3.474   0.673   1.338
 8508WAT    EPW34740   3.473   0.728   1.393
 8509WAT      O34741   3.759   0.567   1.264
 8509WAT     H134742   3.678   0.541   1.278
 8509WAT     H234743   3.757   0.653   1.282
 8509WAT    EPW34744   3.747   0.576   1.268
 8510WAT      O34745   4.403   0.758   2.456
 8510WAT     H134746   4.423   0.788   2.535
 8510WAT     H234747   4.397   0.830   2.407
 8510WAT    EPW34748   4.405   0.773   2.460
 8511WAT      O34749   4.356   1.180   2.880
 8511WAT     H134750   4.281   1.178   2.836
 8511WAT     H234751   4.373   1.265   2.889
 8511WAT    EPW34752   4.348   1.192   2.875
 8512WAT      O34753   4.884   0.622   2.401
 8512WAT     H134754   4.881   0.536   2.388
 8512WAT     H234755   4.815   0.652   2.358
 8512WAT    EPW34756   4.873   0.614   2.393
 8513WAT      O34757   3.723   1.142   2.822
 8513WAT     H134758   3.728   1.155   2.908
 8513WAT     H234759   3.789   1.086   2.806
 8513WAT    EPW34760   3.734   1.136   2.833
 8514WAT      O34761   4.695   0.948   2.281
 8514WAT     H134762   4.747   0.940   2.212
 8514WAT     H234763   4.655   0.870   2.287
 8514WAT    EPW34764   4.697   0.935   2.272
 8515WAT      O34765   3.483   0.980   2.958
 8515WAT     H134766   3.542   1.023   3.005
 8515WAT     H234767   3.446   1.043   2.909
 8515WAT    EPW34768   3.486   0.996   2.958
 8516WAT      O34769   3.275   0.779   2.651
 8516WAT     H134770   3.218   0.821   2.702
 8516WAT     H234771   3.349   0.826   2.660
 8516WAT    EPW34772   3.278   0.792   2.660
 8517WAT      O34773   4.479   0.256   1.607
 8517WAT     H134774   4.486   0.171   1.626
 8517WAT     H234775   4.397   0.265   1.580
 8517WAT    EPW34776   4.468   0.245   1.606
 8518WAT      O34777   3.454   1.106   1.528
 8518WAT     H134778   3.440   1.121   1.444
 8518WAT     H234779   3.541   1.114   1.536
 8518WAT    EPW34780   3.465   1.109   1.517
 8519WAT      O34781   3.871   0.346   1.501
 8519WAT     H134782   3.881   0.359   1.416
 8519WAT     H234783   3.953   0.340   1.531
 8519WAT    EPW34784   3.884   0.347   1.493
 8520WAT      O34785   4.787   1.152   1.249
 8520WAT     H134786   4.850   1.139   1.307
 8520WAT     H234787   4.753   1.073   1.238
 8520WAT    EPW34788   4.791   1.138   1.256
 8521WAT      O34789   4.806   0.394   2.923
 8521WAT     H134790   4.870   0.377   2.980
 8521WAT     H234791   4.848   0.434   2.857
 8521WAT    EPW34792   4.822   0.397   2.921
 8522WAT      O34793   4.394   0.778   1.481
 8522WAT     H134794   4.369   0.766   1.564
 8522WAT     H234795   4.363   0.709   1.439
 8522WAT    EPW34796   4.386   0.766   1.487
 8523WAT      O34797   4.547   0.405   3.058
 8523WAT     H134798   4.634   0.401   3.054
 8523WAT     H234799   4.525   0.447   2.985
 8523WAT    EPW34800   4.557   0.410   3.047
 8524WAT      O34801   3.523   0.987   2.176
 8524WAT     H134802   3.515   0.906   2.145
 8524WAT     H234803   3.478   1.036   2.119
 8524WAT    EPW34804   3.515   0.983   2.163
 8525WAT      O34805   4.083   0.599   1.424
 8525WAT     H134806   4.155   0.565   1.389
 8525WAT     H234807   4.079   0.679   1.390
 8525WAT    EPW34808   4.093   0.606   1.414
 8526WAT      O34809   3.280   1.212   2.534
 8526WAT     H134810   3.329   1.206   2.606
 8526WAT     H234811   3.299   1.138   2.491
 8526WAT    EPW34812   3.290   1.200   2.538
 8527WAT      O34813   3.186   0.842   0.487
 8527WAT     H134814   3.198   0.814   0.568
 8527WAT     H234815   3.125   0.788   0.456
 8527WAT    EPW34816   3.178   0.830   0.494
 8528WAT      O34817   3.843   0.595   0.993
 8528WAT     H134818   3.819   0.595   1.077
 8528WAT     H234819   3.768   0.580   0.951
 8528WAT    EPW34820   3.828   0.593   0.999
 8529WAT      O34821   3.841   0.914   0.720
 8529WAT     H134822   3.855   0.990   0.679
 8529WAT     H234823   3.920   0.878   0.722
 8529WAT    EPW34824   3.855   0.920   0.714
 8530WAT      O34825   4.426   1.095   0.528
 8530WAT     H134826   4.500   1.141   0.527
 8530WAT     H234827   4.414   1.074   0.444
 8530WAT    EPW34828   4.435   1.099   0.515
 8531WAT      O34829   3.626   1.164   0.645
 8531WAT     H134830   3.655   1.158   0.727
 8531WAT     H234831   3.563   1.104   0.640
 8531WAT    EPW34832   3.621   1.155   0.656
 8532WAT      O34833   4.351   0.814   0.898
 8532WAT     H134834   4.348   0.852   0.977
 8532WAT     H234835   4.437   0.809   0.881
 8532WAT    EPW34836   4.363   0.819   0.907
 8533WAT      O34837   3.425   0.981   0.557
 8533WAT     H134838   3.355   0.930   0.570
 8533WAT     H234839   3.451   0.960   0.476
 8533WAT    EPW34840   3.419   0.970   0.547
 8534WAT      O34841   4.196   1.130   0.648
 8534WAT     H134842   4.273   1.122   0.607
 8534WAT     H234843   4.138   1.118   0.584
 8534WAT    EPW34844   4.199   1.127   0.633
 8535WAT      O34845   3.561   0.866   0.814
 8535WAT     H134846   3.645   0.872   0.791
 8535WAT     H234847   3.558   0.905   0.891
 8535WAT    EPW34848   3.573   0.873   0.822
 8536WAT      O34849   3.758   0.417   0.289
 8536WAT     H134850   3.775   0.396   0.371
 8536WAT     H234851   3.692   0.363   0.267
 8536WAT    EPW34852   3.751   0.406   0.298
 8537WAT      O34853   3.833   0.411   0.548
 8537WAT     H134854   3.838   0.495   0.568
 8537WAT     H234855   3.804   0.374   0.621
 8537WAT    EPW34856   3.829   0.418   0.561
 8538WAT      O34857   4.450   0.480   0.461
 8538WAT     H134858   4.399   0.439   0.518
 8538WAT     H234859   4.438   0.565   0.479
 8538WAT    EPW34860   4.441   0.487   0.472
 8539WAT      O34861   3.115   0.848   1.169
 8539WAT     H134862   3.190   0.883   1.194
 8539WAT     H234863   3.132   0.762   1.163
 8539WAT    EPW34864   3.129   0.840   1.172
 8540WAT      O34865   4.999   0.975   0.899
 8540WAT     H134866   4.931   1.006   0.854
 8540WAT     H234867   4.962   0.929   0.963
 8540WAT    EPW34868   4.983   0.973   0.902
 8541WAT      O34869   3.586   0.647   0.339
 8541WAT     H134870   3.633   0.676   0.406
 8541WAT     H234871   3.643   0.599   0.293
 8541WAT    EPW34872   3.601   0.644   0.342
 8542WAT      O34873   4.782   1.013   0.708
 8542WAT     H134874   4.715   1.065   0.729
 8542WAT     H234875   4.789   1.023   0.621
 8542WAT    EPW34876   4.773   1.022   0.698
 8543WAT      O34877   3.982   1.088   0.467
 8543WAT     H134878   3.954   1.024   0.415
 8543WAT     H234879   3.961   1.161   0.423
 8543WAT    EPW34880   3.975   1.089   0.453
 8544WAT      O34881   3.352   0.346   1.084
 8544WAT     H134882   3.348   0.396   1.013
 8544WAT     H234883   3.385   0.271   1.054
 8544WAT    EPW34884   3.356   0.342   1.069
 8545WAT      O34885   4.512   0.566   0.910
 8545WAT     H134886   4.561   0.638   0.920
 8545WAT     H234887   4.552   0.524   0.845
 8545WAT    EPW34888   4.525   0.571   0.902
 8546WAT      O34889   3.942   0.851   1.027
 8546WAT     H134890   3.977   0.833   1.105
 8546WAT     H234891   3.898   0.778   1.008
 8546WAT    EPW34892   3.941   0.837   1.036
 8547WAT      O34893   4.360   0.936   0.301
 8547WAT     H134894   4.299   0.906   0.245
 8547WAT     H234895   4.414   0.981   0.250
 8547WAT    EPW34896   4.359   0.938   0.285
 8548WAT      O34897   4.361   0.621   0.241
 8548WAT     H134898   4.281   0.644   0.269
 8548WAT     H234899   4.387   0.562   0.300
 8548WAT    EPW34900   4.353   0.616   0.254
 8549WAT      O34901   4.687   0.421   0.726
 8549WAT     H134902   4.692   0.433   0.640
 8549WAT     H234903   4.762   0.453   0.756
 8549WAT    EPW34904   4.699   0.427   0.717
 8550WAT      O34905   4.306   0.956   1.153
 8550WAT     H134906   4.322   0.984   1.234
 8550WAT     H234907   4.332   1.022   1.103
 8550WAT    EPW34908   4.312   0.970   1.158
 8551WAT      O34909   4.260   0.402   0.686
 8551WAT     H134910   4.245   0.463   0.746
 8551WAT     H234911   4.313   0.346   0.726
 8551WAT    EPW34912   4.266   0.402   0.701
 8552WAT      O34913   4.621   0.674   0.338
 8552WAT     H134914   4.573   0.704   0.272
 8552WAT     H234915   4.585   0.597   0.356
 8552WAT    EPW34916   4.609   0.667   0.331
 8553WAT      O34917   4.021   0.446   0.195
 8553WAT     H134918   3.936   0.427   0.203
 8553WAT     H234919   4.053   0.430   0.274
 8553WAT    EPW34920   4.013   0.441   0.208
 8554WAT      O34921   3.406   0.416   0.426
 8554WAT     H134922   3.478   0.464   0.423
 8554WAT     H234923   3.379   0.413   0.343
 8554WAT    EPW34924   3.412   0.422   0.413
 8555WAT      O34925   4.714   0.369   0.450
 8555WAT     H134926   4.713   0.291   0.490
 8555WAT     H234927   4.630   0.392   0.450
 8555WAT    EPW34928   4.702   0.361   0.456
 8556WAT      O34929   3.345   0.521   0.854
 8556WAT     H134930   3.303   0.469   0.798
 8556WAT     H234931   3.310   0.599   0.840
 8556WAT    EPW34932   3.334   0.525   0.844
 8557WAT      O34933   4.840   0.376   0.194
 8557WAT     H134934   4.811   0.416   0.266
 8557WAT     H234935   4.926   0.370   0.207
 8557WAT    EPW34936   4.848   0.381   0.207
 8558WAT      O34937   4.953   0.939   0.247
 8558WAT     H134938   4.982   0.965   0.169
 8558WAT     H234939   5.022   0.949   0.299
 8558WAT    EPW34940   4.967   0.944   0.243
 8559WAT      O34941   4.952   0.211   1.166
 8559WAT     H134942   4.947   0.177   1.086
 8559WAT     H234943   5.025   0.258   1.163
 8559WAT    EPW34944   4.962   0.213   1.153
 8560WAT      O34945   4.906   0.579   0.786
 8560WAT     H134946   4.968   0.524   0.761
 8560WAT     H234947   4.899   0.635   0.720
 8560WAT    EPW34948   4.914   0.579   0.773
 8561WAT      O34949   3.819   0.702   0.516
 8561WAT     H134950   3.789   0.761   0.573
 8561WAT     H234951   3.824   0.746   0.441
 8561WAT    EPW34952   3.815   0.717   0.513
 8562WAT      O34953   3.617   0.597   0.856
 8562WAT     H134954   3.536   0.568   0.872
 8562WAT     H234955   3.608   0.684   0.856
 8562WAT    EPW34956   3.604   0.605   0.858
 8563WAT      O34957   4.071   0.344   0.465
 8563WAT     H134958   4.118   0.382   0.528
 8563WAT     H234959   3.988   0.358   0.491
 8563WAT    EPW34960   4.065   0.352   0.478
 8564WAT      O34961   3.815   0.906   0.327
 8564WAT     H134962   3.753   0.964   0.308
 8564WAT     H234963   3.840   0.878   0.248
 8564WAT    EPW34964   3.810   0.911   0.312
 8565WAT      O34965   4.246   0.570   1.026
 8565WAT     H134966   4.322   0.598   0.993
 8565WAT     H234967   4.191   0.575   0.958
 8565WAT    EPW34968   4.249   0.575   1.011
 8566WAT      O34969   4.637   0.825   0.876
 8566WAT     H134970   4.672   0.852   0.951
 8566WAT     H234971   4.666   0.883   0.818
 8566WAT    EPW34972   4.647   0.837   0.879
 8567WAT      O34973   4.081   1.071   0.915
 8567WAT     H134974   4.128   1.011   0.873
 8567WAT     H234975   4.045   1.027   0.981
 8567WAT    EPW34976   4.082   1.056   0.918
 8568WAT      O34977   4.086   0.593   0.817
 8568WAT     H134978   4.007   0.587   0.852
 8568WAT     H234979   4.094   0.678   0.797
 8568WAT    EPW34980   4.076   0.605   0.819
 8569WAT      O34981   3.669   1.214   0.348
 8569WAT     H134982   3.671   1.220   0.435
 8569WAT     H234983   3.627   1.139   0.333
 8569WAT    EPW34984   3.663   1.204   0.359
 8570WAT      O34985   4.135   0.858   0.727
 8570WAT     H134986   4.204   0.846   0.780
 8570WAT     H234987   4.149   0.937   0.693
 8570WAT    EPW34988   4.147   0.868   0.730
 8571WAT      O34989   3.346   1.164   0.893
 8571WAT     H134990   3.280   1.107   0.902
 8571WAT     H234991   3.308   1.241   0.908
 8571WAT    EPW34992   3.331   1.167   0.896
 8572WAT      O34993   4.198   0.304   1.085
 8572WAT     H134994   4.230   0.373   1.042
 8572WAT     H234995   4.127   0.336   1.125
 8572WAT    EPW34996   4.192   0.319   1.084
 8573WAT      O34997   4.506   1.142   0.178
 8573WAT     H134998   4.461   1.206   0.216
 8573WAT     H234999   4.577   1.134   0.228
 8573WAT    EPW35000   4.510   1.150   0.191
 8574WAT      O35001   4.176   0.651   0.471
 8574WAT     H135002   4.107   0.691   0.505
 8574WAT     H235003   4.244   0.694   0.505
 8574WAT    EPW35004   4.176   0.663   0.481
 8575WAT      O35005   4.714   0.910   1.129
 8575WAT     H135006   4.791   0.871   1.137
 8575WAT     H235007   4.667   0.876   1.194
 8575WAT    EPW35008   4.718   0.899   1.140
 8576WAT      O35009   3.200   0.372   0.655
 8576WAT     H135010   3.232   0.394   0.577
 8576WAT     H235011   3.190   0.285   0.650
 8576WAT    EPW35012   3.203   0.362   0.643
 8577WAT      O35013   3.676   0.301   0.794
 8577WAT     H135014   3.637   0.378   0.801
 8577WAT     H235015   3.636   0.264   0.726
 8577WAT    EPW35016   3.665   0.307   0.785
 8578WAT      O35017   4.403   0.758   0.555
 8578WAT     H135018   4.423   0.788   0.634
 8578WAT     H235019   4.397   0.830   0.507
 8578WAT    EPW35020   4.405   0.773   0.560
 8579WAT      O35021   4.356   1.180   0.980
 8579WAT     H135022   4.281   1.178   0.936
 8579WAT     H235023   4.373   1.265   0.988
 8579WAT    EPW35024   4.348   1.192   0.974
 8580WAT      O35025   4.884   0.622   0.501
 8580WAT     H135026   4.881   0.536   0.487
 8580WAT     H235027   4.815   0.652   0.457
 8580WAT    EPW35028   4.873   0.614   0.492
 8581WAT      O35029   3.723   1.142   0.921
 8581WAT     H135030   3.728   1.155   1.008
 8581WAT     H235031   3.789   1.086   0.906
 8581WAT    EPW35032   3.734   1.136   0.932
 8582WAT      O35033   4.695   0.948   0.381
 8582WAT     H135034   4.747   0.940   0.311
 8582WAT     H235035   4.655   0.870   0.386
 8582WAT    EPW35036   4.697   0.935   0.371
 8583WAT      O35037   3.483   0.980   1.057
 8583WAT     H135038   3.542   1.023   1.105
 8583WAT     H235039   3.446   1.043   1.009
 8583WAT    EPW35040   3.486   0.996   1.057
 8584WAT      O35041   3.275   0.779   0.750
 8584WAT     H135042   3.218   0.821   0.801
 8584WAT     H235043   3.349   0.826   0.760
 8584WAT    EPW35044   3.278   0.792   0.759
 8585WAT      O35045   4.806   0.394   1.022
 8585WAT     H135046   4.870   0.377   1.079
 8585WAT     H235047   4.848   0.434   0.957
 8585WAT    EPW35048   4.822   0.397   1.021
 8586WAT      O35049   4.547   0.405   1.157
 8586WAT     H135050   4.634   0.401   1.154
 8586WAT     H235051   4.525   0.447   1.084
 8586WAT    EPW35052   4.557   0.410   1.146
 8587WAT      O35053   3.523   0.987   0.276
 8587WAT     H135054   3.515   0.906   0.244
 8587WAT     H235055   3.478   1.036   0.218
 8587WAT    EPW35056   3.515   0.983   0.262
 8588WAT      O35057   3.280   1.212   0.634
 8588WAT     H135058   3.329   1.206   0.705
 8588WAT     H235059   3.299   1.138   0.590
 8588WAT    EPW35060   3.290   1.200   0.638
 8589WAT      O35061   2.337   6.855   7.451
 8589WAT     H135062   2.313   6.903   7.383
 8589WAT     H235063   2.424   6.847   7.441
 8589WAT    EPW35064   2.346   6.861   7.439
 8590WAT      O35065   1.279   7.339   7.114
 8590WAT     H135066   1.202   7.356   7.078
 8590WAT     H235067   1.283   7.252   7.116
 8590WAT    EPW35068   1.269   7.329   7.109
 8591WAT      O35069   1.593   7.866   6.981
 8591WAT     H135070   1.554   7.829   6.913
 8591WAT     H235071   1.585   7.806   7.044
 8591WAT    EPW35072   1.586   7.851   6.981
 8592WAT      O35073   2.585   7.653   7.586
 8592WAT     H135074   2.593   7.653   7.499
 8592WAT     H235075   2.527   7.590   7.600
 8592WAT    EPW35076   2.578   7.644   7.575
 8593WAT      O35077   1.984   6.963   7.366
 8593WAT     H135078   1.977   7.031   7.312
 8593WAT     H235079   2.058   6.924   7.341
 8593WAT    EPW35080   1.994   6.968   7.355
 8594WAT      O35081   1.444   7.686   7.509
 8594WAT     H135082   1.398   7.647   7.447
 8594WAT     H235083   1.514   7.634   7.518
 8594WAT    EPW35084   1.447   7.672   7.501
 8595WAT      O35085   1.644   7.496   7.512
 8595WAT     H135086   1.726   7.477   7.536
 8595WAT     H235087   1.596   7.434   7.551
 8595WAT    EPW35088   1.649   7.484   7.521
 8596WAT      O35089   1.704   7.005   7.438
 8596WAT     H135090   1.674   7.055   7.373
 8596WAT     H235091   1.790   7.013   7.432
 8596WAT    EPW35092   1.712   7.014   7.428
 8597WAT      O35093   2.001   6.919   7.660
 8597WAT     H135094   2.009   7.005   7.673
 8597WAT     H235095   1.998   6.912   7.574
 8597WAT    EPW35096   2.002   6.931   7.650
 8598WAT      O35097   2.469   7.212   6.890
 8598WAT     H135098   2.424   7.280   6.921
 8598WAT     H235099   2.480   7.162   6.961
 8598WAT    EPW35100   2.464   7.215   6.905
 8599WAT      O35101   1.289   7.462   7.811
 8599WAT     H135102   1.264   7.545   7.803
 8599WAT     H235103   1.223   7.424   7.852
 8599WAT    EPW35104   1.276   7.468   7.816
 8600WAT      O35105   3.008   7.209   7.520
 8600WAT     H135106   2.974   7.277   7.562
 8600WAT     H235107   2.945   7.149   7.521
 8600WAT    EPW35108   2.994   7.210   7.526
 8601WAT      O35109   2.220   7.373   7.482
 8601WAT     H135110   2.249   7.350   7.403
 8601WAT     H235111   2.294   7.381   7.529
 8601WAT    EPW35112   2.235   7.371   7.477
 8602WAT      O35113   2.293   7.407   6.994
 8602WAT     H135114   2.321   7.486   7.019
 8602WAT     H235115   2.215   7.424   6.958
 8602WAT    EPW35116   2.285   7.421   6.992
 8603WAT      O35117   2.529   7.014   7.081
 8603WAT     H135118   2.583   6.946   7.089
 8603WAT     H235119   2.535   7.054   7.158
 8603WAT    EPW35120   2.538   7.010   7.094
 8604WAT      O35121   1.325   7.131   7.338
 8604WAT     H135122   1.313   7.044   7.341
 8604WAT     H235123   1.277   7.160   7.405
 8604WAT    EPW35124   1.316   7.122   7.348
 8605WAT      O35125   2.255   7.252   7.212
 8605WAT     H135126   2.204   7.185   7.187
 8605WAT     H235127   2.260   7.302   7.141
 8605WAT    EPW35128   2.248   7.249   7.198
 8606WAT      O35129   2.255   6.946   7.202
 8606WAT     H135130   2.210   6.906   7.139
 8606WAT     H235131   2.332   6.961   7.164
 8606WAT    EPW35132   2.260   6.942   7.187
 8607WAT      O35133   2.115   7.182   7.654
 8607WAT     H135134   2.122   7.239   7.588
 8607WAT     H235135   2.127   7.232   7.725
 8607WAT    EPW35136   2.118   7.198   7.655
 8608WAT      O35137   1.576   6.765   7.489
 8608WAT     H135138   1.629   6.834   7.488
 8608WAT     H235139   1.576   6.737   7.406
 8608WAT    EPW35140   1.584   6.771   7.476
 8609WAT      O35141   2.620   6.794   7.526
 8609WAT     H135142   2.625   6.762   7.607
 8609WAT     H235143   2.652   6.729   7.477
 8609WAT    EPW35144   2.625   6.780   7.531
 8610WAT      O35145   1.620   7.146   7.654
 8610WAT     H135146   1.648   7.103   7.583
 8610WAT     H235147   1.603   7.082   7.711
 8610WAT    EPW35148   1.622   7.130   7.652
 8611WAT      O35149   2.679   7.569   7.034
 8611WAT     H135150   2.657   7.642   6.992
 8611WAT     H235151   2.634   7.574   7.109
 8611WAT    EPW35152   2.669   7.580   7.039
 8612WAT      O35153   3.097   7.055   6.980
 8612WAT     H135154   3.031   6.998   6.982
 8612WAT     H235155   3.078   7.106   6.912
 8612WAT    EPW35156   3.085   7.054   6.970
 8613WAT      O35157   1.262   7.722   7.275
 8613WAT     H135158   1.243   7.638   7.290
 8613WAT     H235159   1.328   7.718   7.218
 8613WAT    EPW35160   1.269   7.709   7.268
 8614WAT      O35161   2.898   7.011   7.207
 8614WAT     H135162   2.972   6.970   7.227
 8614WAT     H235163   2.924   7.082   7.165
 8614WAT    EPW35164   2.913   7.015   7.204
 8615WAT      O35165   2.543   7.240   7.715
 8615WAT     H135166   2.577   7.255   7.793
 8615WAT     H235167   2.498   7.166   7.726
 8615WAT    EPW35168   2.541   7.231   7.728
 8616WAT      O35169   1.991   7.162   7.160
 8616WAT     H135170   1.990   7.150   7.074
 8616WAT     H235171   1.973   7.246   7.170
 8616WAT    EPW35172   1.988   7.172   7.149
 8617WAT      O35173   1.626   7.445   7.124
 8617WAT     H135174   1.613   7.400   7.198
 8617WAT     H235175   1.568   7.411   7.069
 8617WAT    EPW35176   1.615   7.433   7.127
 8618WAT      O35177   1.643   7.628   7.784
 8618WAT     H135178   1.565   7.622   7.745
 8618WAT     H235179   1.650   7.553   7.827
 8618WAT    EPW35180   1.632   7.616   7.785
 8619WAT      O35181   2.494   7.170   7.321
 8619WAT     H135182   2.543   7.241   7.314
 8619WAT     H235183   2.415   7.196   7.295
 8619WAT    EPW35184   2.490   7.184   7.316
 8620WAT      O35185   2.372   7.634   7.121
 8620WAT     H135186   2.371   7.706   7.072
 8620WAT     H235187   2.308   7.647   7.179
 8620WAT    EPW35188   2.362   7.646   7.122
 8621WAT      O35189   1.831   6.868   7.087
 8621WAT     H135190   1.841   6.857   7.173
 8621WAT     H235191   1.760   6.918   7.081
 8621WAT    EPW35192   1.822   6.874   7.099
 8622WAT      O35193   1.543   7.699   7.212
 8622WAT     H135194   1.575   7.621   7.189
 8622WAT     H235195   1.608   7.735   7.257
 8622WAT    EPW35196   1.557   7.692   7.215
 8623WAT      O35197   1.243   6.865   7.308
 8623WAT     H135198   1.256   6.794   7.259
 8623WAT     H235199   1.206   6.833   7.381
 8623WAT    EPW35200   1.239   6.849   7.312
 8624WAT      O35201   2.212   7.633   7.354
 8624WAT     H135202   2.218   7.698   7.412
 8624WAT     H235203   2.193   7.563   7.403
 8624WAT    EPW35204   2.210   7.632   7.370
 8625WAT      O35205   1.662   7.084   7.005
 8625WAT     H135206   1.611   7.090   6.935
 8625WAT     H235207   1.740   7.108   6.976
 8625WAT    EPW35208   1.666   7.089   6.990
 8626WAT      O35209   2.134   7.837   7.797
 8626WAT     H135210   2.050   7.818   7.805
 8626WAT     H235211   2.167   7.821   7.876
 8626WAT    EPW35212   2.127   7.832   7.810
 8627WAT      O35213   1.842   7.324   7.702
 8627WAT     H135214   1.927   7.305   7.712
 8627WAT     H235215   1.805   7.246   7.688
 8627WAT    EPW35216   1.849   7.310   7.702
 8628WAT      O35217   1.324   7.458   7.368
 8628WAT     H135218   1.373   7.428   7.434
 8628WAT     H235219   1.337   7.398   7.305
 8628WAT    EPW35220   1.333   7.445   7.368
 8629WAT      O35221   1.777   7.601   6.916
 8629WAT     H135222   1.716   7.561   6.964
 8629WAT     H235223   1.738   7.613   6.839
 8629WAT    EPW35224   1.762   7.597   6.912
 8630WAT      O35225   2.953   7.767   7.797
 8630WAT     H135226   2.925   7.807   7.869
 8630WAT     H235227   3.039   7.761   7.809
 8630WAT    EPW35228   2.962   7.772   7.809
 8631WAT      O35229   1.922   7.447   7.187
 8631WAT     H135230   1.949   7.530   7.194
 8631WAT     H235231   1.836   7.455   7.178
 8631WAT    EPW35232   1.914   7.460   7.187
 8632WAT      O35233   1.270   7.044   7.841
 8632WAT     H135234   1.275   7.079   7.761
 8632WAT     H235235   1.346   7.068   7.878
 8632WAT    EPW35236   1.282   7.053   7.835
 8633WAT      O35237   2.775   7.374   7.614
 8633WAT     H135238   2.701   7.342   7.645
 8633WAT     H235239   2.775   7.457   7.642
 8633WAT    EPW35240   2.764   7.381   7.622
 8634WAT      O35241   2.937   7.430   7.012
 8634WAT     H135242   2.975   7.498   6.972
 8634WAT     H235243   2.853   7.453   7.015
 8634WAT    EPW35244   2.930   7.444   7.007
 8635WAT      O35245   2.088   7.775   6.921
 8635WAT     H135246   2.008   7.757   6.892
 8635WAT     H235247   2.085   7.860   6.940
 8635WAT    EPW35248   2.076   7.785   6.919
 8636WAT      O35249   2.706   7.390   7.350
 8636WAT     H135250   2.727   7.370   7.432
 8636WAT     H235251   2.782   7.417   7.316
 8636WAT    EPW35252   2.721   7.391   7.357
 8637WAT      O35253   2.809   6.999   7.497
 8637WAT     H135254   2.737   6.952   7.514
 8637WAT     H235255   2.792   7.033   7.419
 8637WAT    EPW35256   2.796   6.997   7.488
 8638WAT      O35257   2.853   7.793   7.335
 8638WAT     H135258   2.901   7.720   7.330
 8638WAT     H235259   2.771   7.764   7.328
 8638WAT    EPW35260   2.848   7.778   7.333
 8639WAT      O35261   1.599   7.194   7.266
 8639WAT     H135262   1.611   7.162   7.187
 8639WAT     H235263   1.518   7.170   7.286
 8639WAT    EPW35264   1.589   7.186   7.258
 8640WAT      O35265   2.930   7.504   7.279
 8640WAT     H135266   2.940   7.499   7.193
 8640WAT     H235267   3.004   7.471   7.311
 8640WAT    EPW35268   2.942   7.499   7.271
 8641WAT      O35269   1.459   7.357   6.920
 8641WAT     H135270   1.392   7.358   6.975
 8641WAT     H235271   1.469   7.272   6.901
 8641WAT    EPW35272   1.451   7.344   6.925
 8642WAT      O35273   2.327   7.018   7.679
 8642WAT     H135274   2.257   7.070   7.673
 8642WAT     H235275   2.331   6.980   7.600
 8642WAT    EPW35276   2.318   7.020   7.666
 8643WAT      O35277   2.718   7.598   7.808
 8643WAT     H135278   2.784   7.652   7.824
 8643WAT     H235279   2.683   7.629   7.734
 8643WAT    EPW35280   2.722   7.610   7.799
 8644WAT      O35281   2.073   6.823   6.962
 8644WAT     H135282   2.081   6.847   6.879
 8644WAT     H235283   1.999   6.860   6.988
 8644WAT    EPW35284   2.063   6.832   6.953
 8645WAT      O35285   2.395   7.465   7.653
 8645WAT     H135286   2.451   7.404   7.683
 8645WAT     H235287   2.353   7.491   7.725
 8645WAT    EPW35288   2.397   7.459   7.668
 8646WAT      O35289   1.420   7.330   7.602
 8646WAT     H135290   1.383   7.360   7.675
 8646WAT     H235291   1.474   7.267   7.630
 8646WAT    EPW35292   1.423   7.325   7.617
 8647WAT      O35293   2.592   7.648   7.309
 8647WAT     H135294   2.599   7.563   7.327
 8647WAT     H235295   2.510   7.656   7.282
 8647WAT    EPW35296   2.581   7.636   7.308
 8648WAT      O35297   1.984   7.737   7.203
 8648WAT     H135298   1.994   7.751   7.118
 8648WAT     H235299   2.066   7.731   7.233
 8648WAT    EPW35300   1.998   7.738   7.195
 8649WAT      O35301   2.337   6.855   5.550
 8649WAT     H135302   2.313   6.903   5.482
 8649WAT     H235303   2.424   6.847   5.540
 8649WAT    EPW35304   2.346   6.861   5.539
 8650WAT      O35305   2.318   7.546   6.017
 8650WAT     H135306   2.266   7.606   6.054
 8650WAT     H235307   2.358   7.509   6.086
 8650WAT    EPW35308   2.316   7.550   6.033
 8651WAT      O35309   1.279   7.339   5.214
 8651WAT     H135310   1.202   7.356   5.178
 8651WAT     H235311   1.283   7.252   5.216
 8651WAT    EPW35312   1.269   7.329   5.209
 8652WAT      O35313   1.593   7.866   5.081
 8652WAT     H135314   1.554   7.829   5.012
 8652WAT     H235315   1.585   7.806   5.144
 8652WAT    EPW35316   1.586   7.851   5.080
 8653WAT      O35317   2.585   7.653   5.685
 8653WAT     H135318   2.593   7.653   5.598
 8653WAT     H235319   2.527   7.590   5.700
 8653WAT    EPW35320   2.578   7.644   5.674
 8654WAT      O35321   1.984   6.963   5.466
 8654WAT     H135322   1.977   7.031   5.411
 8654WAT     H235323   2.058   6.924   5.441
 8654WAT    EPW35324   1.994   6.968   5.454
 8655WAT      O35325   1.444   7.686   5.609
 8655WAT     H135326   1.398   7.647   5.546
 8655WAT     H235327   1.514   7.634   5.618
 8655WAT    EPW35328   1.447   7.672   5.601
 8656WAT      O35329   1.895   7.247   6.143
 8656WAT     H135330   1.962   7.249   6.088
 8656WAT     H235331   1.890   7.163   6.168
 8656WAT    EPW35332   1.904   7.235   6.139
 8657WAT      O35333   1.644   7.496   5.611
 8657WAT     H135334   1.726   7.477   5.635
 8657WAT     H235335   1.596   7.434   5.650
 8657WAT    EPW35336   1.649   7.484   5.620
 8658WAT      O35337   2.267   7.452   6.627
 8658WAT     H135338   2.182   7.442   6.609
 8658WAT     H235339   2.270   7.526   6.672
 8658WAT    EPW35340   2.255   7.461   6.631
 8659WAT      O35341   1.704   7.005   5.537
 8659WAT     H135342   1.674   7.055   5.472
 8659WAT     H235343   1.790   7.013   5.532
 8659WAT    EPW35344   1.712   7.014   5.527
 8660WAT      O35345   2.723   6.748   6.538
 8660WAT     H135346   2.707   6.825   6.500
 8660WAT     H235347   2.645   6.726   6.573
 8660WAT    EPW35348   2.709   6.756   6.538
 8661WAT      O35349   2.001   6.919   5.760
 8661WAT     H135350   2.009   7.005   5.773
 8661WAT     H235351   1.998   6.912   5.673
 8661WAT    EPW35352   2.002   6.931   5.749
 8662WAT      O35353   2.469   7.212   4.990
 8662WAT     H135354   2.424   7.280   5.020
 8662WAT     H235355   2.480   7.162   5.060
 8662WAT    EPW35356   2.464   7.215   5.005
 8663WAT      O35357   1.289   7.462   5.910
 8663WAT     H135358   1.264   7.545   5.902
 8663WAT     H235359   1.223   7.424   5.952
 8663WAT    EPW35360   1.276   7.468   5.915
 8664WAT      O35361   1.592   6.944   5.959
 8664WAT     H135362   1.540   6.881   5.928
 8664WAT     H235363   1.651   6.900   6.006
 8664WAT    EPW35364   1.593   6.928   5.961
 8665WAT      O35365   1.923   7.157   6.889
 8665WAT     H135366   1.935   7.111   6.815
 8665WAT     H235367   1.952   7.237   6.868
 8665WAT    EPW35368   1.929   7.162   6.875
 8666WAT      O35369   3.008   7.209   5.619
 8666WAT     H135370   2.974   7.277   5.662
 8666WAT     H235371   2.945   7.149   5.621
 8666WAT    EPW35372   2.994   7.210   5.626
 8667WAT      O35373   1.496   7.117   6.787
 8667WAT     H135374   1.418   7.078   6.780
 8667WAT     H235375   1.545   7.075   6.728
 8667WAT    EPW35376   1.492   7.105   6.777
 8668WAT      O35377   2.161   6.881   6.704
 8668WAT     H135378   2.179   6.800   6.676
 8668WAT     H235379   2.147   6.925   6.630
 8668WAT    EPW35380   2.162   6.875   6.689
 8669WAT      O35381   2.220   7.373   5.581
 8669WAT     H135382   2.249   7.350   5.502
 8669WAT     H235383   2.294   7.381   5.628
 8669WAT    EPW35384   2.235   7.371   5.577
 8670WAT      O35385   2.293   7.407   5.093
 8670WAT     H135386   2.321   7.486   5.118
 8670WAT     H235387   2.215   7.424   5.057
 8670WAT    EPW35388   2.285   7.421   5.092
 8671WAT      O35389   2.976   7.042   6.156
 8671WAT     H135390   3.051   7.049   6.113
 8671WAT     H235391   2.982   6.964   6.196
 8671WAT    EPW35392   2.988   7.031   6.156
 8672WAT      O35393   1.231   7.171   6.546
 8672WAT     H135394   1.231   7.230   6.610
 8672WAT     H235395   1.290   7.203   6.490
 8672WAT    EPW35396   1.240   7.185   6.547
 8673WAT      O35397   2.529   7.014   5.180
 8673WAT     H135398   2.583   6.946   5.188
 8673WAT     H235399   2.535   7.054   5.258
 8673WAT    EPW35400   2.538   7.010   5.193
 8674WAT      O35401   1.325   7.131   5.437
 8674WAT     H135402   1.313   7.044   5.440
 8674WAT     H235403   1.277   7.160   5.504
 8674WAT    EPW35404   1.316   7.122   5.448
 8675WAT      O35405   2.255   7.252   5.312
 8675WAT     H135406   2.204   7.185   5.286
 8675WAT     H235407   2.260   7.302   5.241
 8675WAT    EPW35408   2.248   7.249   5.298
 8676WAT      O35409   2.255   6.946   5.301
 8676WAT     H135410   2.210   6.906   5.238
 8676WAT     H235411   2.332   6.961   5.263
 8676WAT    EPW35412   2.260   6.942   5.286
 8677WAT      O35413   2.115   7.182   5.753
 8677WAT     H135414   2.122   7.239   5.687
 8677WAT     H235415   2.127   7.232   5.824
 8677WAT    EPW35416   2.118   7.198   5.754
 8678WAT      O35417   1.576   6.765   5.588
 8678WAT     H135418   1.629   6.834   5.587
 8678WAT     H235419   1.576   6.737   5.505
 8678WAT    EPW35420   1.584   6.771   5.575
 8679WAT      O35421   1.871   7.808   5.990
 8679WAT     H135422   1.888   7.787   6.073
 8679WAT     H235423   1.806   7.755   5.969
 8679WAT    EPW35424   1.864   7.797   5.999
 8680WAT      O35425   2.494   7.199   6.342
 8680WAT     H135426   2.485   7.231   6.422
 8680WAT     H235427   2.435   7.136   6.338
 8680WAT    EPW35428   2.484   7.195   6.353
 8681WAT      O35429   2.620   6.794   5.625
 8681WAT     H135430   2.625   6.762   5.707
 8681WAT     H235431   2.652   6.729   5.576
 8681WAT    EPW35432   2.625   6.780   5.630
 8682WAT      O35433   2.866   7.217   6.456
 8682WAT     H135434   2.943   7.195   6.490
 8682WAT     H235435   2.819   7.239   6.526
 8682WAT    EPW35436   2.870   7.217   6.472
 8683WAT      O35437   1.620   7.146   5.753
 8683WAT     H135438   1.648   7.103   5.682
 8683WAT     H235439   1.603   7.082   5.810
 8683WAT    EPW35440   1.622   7.130   5.751
 8684WAT      O35441   1.435   7.256   6.061
 8684WAT     H135442   1.519   7.278   6.057
 8684WAT     H235443   1.396   7.313   6.008
 8684WAT    EPW35444   1.441   7.268   6.053
 8685WAT      O35445   2.679   7.569   5.134
 8685WAT     H135446   2.657   7.642   5.091
 8685WAT     H235447   2.634   7.574   5.208
 8685WAT    EPW35448   2.669   7.580   5.138
 8686WAT      O35449   3.097   7.055   5.079
 8686WAT     H135450   3.031   6.998   5.081
 8686WAT     H235451   3.078   7.106   5.011
 8686WAT    EPW35452   3.085   7.054   5.069
 8687WAT      O35453   2.020   7.424   6.873
 8687WAT     H135454   1.972   7.482   6.917
 8687WAT     H235455   2.017   7.454   6.791
 8687WAT    EPW35456   2.012   7.437   6.868
 8688WAT      O35457   3.130   7.493   6.334
 8688WAT     H135458   3.151   7.413   6.307
 8688WAT     H235459   3.045   7.499   6.316
 8688WAT    EPW35460   3.120   7.482   6.328
 8689WAT      O35461   1.262   7.722   5.374
 8689WAT     H135462   1.243   7.638   5.389
 8689WAT     H235463   1.328   7.718   5.317
 8689WAT    EPW35464   1.269   7.709   5.368
 8690WAT      O35465   2.898   7.011   5.307
 8690WAT     H135466   2.972   6.970   5.327
 8690WAT     H235467   2.924   7.082   5.264
 8690WAT    EPW35468   2.913   7.015   5.303
 8691WAT      O35469   2.543   7.240   5.814
 8691WAT     H135470   2.577   7.255   5.893
 8691WAT     H235471   2.498   7.166   5.825
 8691WAT    EPW35472   2.541   7.231   5.827
 8692WAT      O35473   1.991   7.162   5.260
 8692WAT     H135474   1.990   7.150   5.173
 8692WAT     H235475   1.973   7.246   5.269
 8692WAT    EPW35476   1.988   7.172   5.248
 8693WAT      O35477   1.577   7.505   6.709
 8693WAT     H135478   1.524   7.455   6.756
 8693WAT     H235479   1.579   7.466   6.631
 8693WAT    EPW35480   1.570   7.492   6.705
 8694WAT      O35481   1.626   7.445   5.223
 8694WAT     H135482   1.613   7.400   5.297
 8694WAT     H235483   1.568   7.411   5.168
 8694WAT    EPW35484   1.615   7.433   5.226
 8695WAT      O35485   1.643   7.628   5.883
 8695WAT     H135486   1.565   7.622   5.845
 8695WAT     H235487   1.650   7.553   5.927
 8695WAT    EPW35488   1.632   7.616   5.884
 8696WAT      O35489   1.686   7.602   6.230
 8696WAT     H135490   1.688   7.534   6.175
 8696WAT     H235491   1.621   7.651   6.199
 8696WAT    EPW35492   1.677   7.599   6.217
 8697WAT      O35493   2.675   7.373   6.069
 8697WAT     H135494   2.609   7.406   6.116
 8697WAT     H235495   2.694   7.436   6.013
 8697WAT    EPW35496   2.668   7.387   6.068
 8698WAT      O35497   2.340   6.963   6.412
 8698WAT     H135498   2.355   6.881   6.388
 8698WAT     H235499   2.378   6.969   6.491
 8698WAT    EPW35500   2.347   6.952   6.420
 8699WAT      O35501   2.494   7.170   5.421
 8699WAT     H135502   2.543   7.241   5.413
 8699WAT     H235503   2.415   7.196   5.394
 8699WAT    EPW35504   2.490   7.184   5.416
 8700WAT      O35505   1.466   7.737   6.786
 8700WAT     H135506   1.462   7.787   6.714
 8700WAT     H235507   1.499   7.662   6.756
 8700WAT    EPW35508   1.470   7.733   6.771
 8701WAT      O35509   2.153   7.317   5.993
 8701WAT     H135510   2.201   7.387   6.014
 8701WAT     H235511   2.190   7.252   6.038
 8701WAT    EPW35512   2.165   7.318   6.003
 8702WAT      O35513   2.372   7.634   5.220
 8702WAT     H135514   2.371   7.706   5.171
 8702WAT     H235515   2.308   7.647   5.278
 8702WAT    EPW35516   2.362   7.646   5.222
 8703WAT      O35517   1.831   6.868   5.187
 8703WAT     H135518   1.841   6.857   5.273
 8703WAT     H235519   1.760   6.918   5.180
 8703WAT    EPW35520   1.822   6.874   5.198
 8704WAT      O35521   2.801   7.812   6.428
 8704WAT     H135522   2.806   7.825   6.341
 8704WAT     H235523   2.876   7.844   6.458
 8704WAT    EPW35524   2.812   7.819   6.419
 8705WAT      O35525   2.904   6.842   6.726
 8705WAT     H135526   2.840   6.802   6.682
 8705WAT     H235527   2.906   6.799   6.802
 8705WAT    EPW35528   2.895   6.830   6.731
 8706WAT      O35529   1.543   7.699   5.311
 8706WAT     H135530   1.575   7.621   5.289
 8706WAT     H235531   1.608   7.735   5.356
 8706WAT    EPW35532   1.557   7.692   5.314
 8707WAT      O35533   2.374   7.793   6.388
 8707WAT     H135534   2.358   7.854   6.448
 8707WAT     H235535   2.427   7.737   6.428
 8707WAT    EPW35536   2.379   7.794   6.402
 8708WAT      O35537   1.243   6.865   5.408
 8708WAT     H135538   1.256   6.794   5.358
 8708WAT     H235539   1.206   6.833   5.480
 8708WAT    EPW35540   1.239   6.849   5.411
 8709WAT      O35541   2.212   7.633   5.453
 8709WAT     H135542   2.218   7.698   5.511
 8709WAT     H235543   2.193   7.563   5.502
 8709WAT    EPW35544   2.210   7.632   5.469
 8710WAT      O35545   1.662   7.084   5.105
 8710WAT     H135546   1.611   7.090   5.034
 8710WAT     H235547   1.740   7.108   5.075
 8710WAT    EPW35548   1.666   7.089   5.090
 8711WAT      O35549   2.134   7.837   5.896
 8711WAT     H135550   2.050   7.818   5.905
 8711WAT     H235551   2.167   7.821   5.976
 8711WAT    EPW35552   2.127   7.832   5.909
 8712WAT      O35553   1.519   7.807   6.128
 8712WAT     H135554   1.591   7.856   6.124
 8712WAT     H235555   1.492   7.804   6.045
 8712WAT    EPW35556   1.526   7.814   6.115
 8713WAT      O35557   1.842   7.324   5.802
 8713WAT     H135558   1.927   7.305   5.811
 8713WAT     H235559   1.805   7.246   5.788
 8713WAT    EPW35560   1.849   7.310   5.801
 8714WAT      O35561   1.324   7.458   5.467
 8714WAT     H135562   1.373   7.428   5.533
 8714WAT     H235563   1.337   7.398   5.404
 8714WAT    EPW35564   1.333   7.445   5.468
 8715WAT      O35565   2.828   7.760   6.152
 8715WAT     H135566   2.827   7.682   6.192
 8715WAT     H235567   2.744   7.783   6.151
 8715WAT    EPW35568   2.815   7.752   6.158
 8716WAT      O35569   1.777   7.601   5.016
 8716WAT     H135570   1.716   7.561   5.063
 8716WAT     H235571   1.738   7.613   4.938
 8716WAT    EPW35572   1.762   7.597   5.011
 8717WAT      O35573   2.953   7.767   5.896
 8717WAT     H135574   2.925   7.807   5.968
 8717WAT     H235575   3.039   7.761   5.909
 8717WAT    EPW35576   2.962   7.772   5.908
 8718WAT      O35577   1.922   7.447   5.287
 8718WAT     H135578   1.949   7.530   5.293
 8718WAT     H235579   1.836   7.455   5.277
 8718WAT    EPW35580   1.914   7.460   5.286
 8719WAT      O35581   2.720   7.159   6.750
 8719WAT     H135582   2.667   7.205   6.802
 8719WAT     H235583   2.683   7.080   6.749
 8719WAT    EPW35584   2.706   7.154   6.757
 8720WAT      O35585   1.270   7.044   5.940
 8720WAT     H135586   1.275   7.079   5.860
 8720WAT     H235587   1.346   7.068   5.977
 8720WAT    EPW35588   1.282   7.053   5.934
 8721WAT      O35589   2.569   7.516   6.757
 8721WAT     H135590   2.576   7.527   6.844
 8721WAT     H235591   2.505   7.572   6.735
 8721WAT    EPW35592   2.560   7.526   6.767
 8722WAT      O35593   2.796   7.548   6.594
 8722WAT     H135594   2.827   7.627   6.614
 8722WAT     H235595   2.759   7.521   6.668
 8722WAT    EPW35596   2.795   7.556   6.608
 8723WAT      O35597   2.775   7.374   5.713
 8723WAT     H135598   2.701   7.342   5.745
 8723WAT     H235599   2.775   7.457   5.741
 8723WAT    EPW35600   2.764   7.381   5.722
 8724WAT      O35601   3.065   7.602   6.867
 8724WAT     H135602   3.060   7.568   6.787
 8724WAT     H235603   3.139   7.649   6.865
 8724WAT    EPW35604   3.075   7.604   6.855
 8725WAT      O35605   2.666   7.007   6.459
 8725WAT     H135606   2.741   7.052   6.453
 8725WAT     H235607   2.610   7.054   6.412
 8725WAT    EPW35608   2.669   7.021   6.451
 8726WAT      O35609   2.184   7.735   6.167
 8726WAT     H135610   2.232   7.773   6.230
 8726WAT     H235611   2.102   7.749   6.193
 8726WAT    EPW35612   2.179   7.743   6.180
 8727WAT      O35613   1.855   7.296   6.441
 8727WAT     H135614   1.871   7.221   6.484
 8727WAT     H235615   1.851   7.271   6.357
 8727WAT    EPW35616   1.857   7.281   6.435
 8728WAT      O35617   2.795   6.805   6.226
 8728WAT     H135618   2.767   6.887   6.222
 8728WAT     H235619   2.866   6.810   6.276
 8728WAT    EPW35620   2.801   6.818   6.233
 8729WAT      O35621   2.030   6.876   6.429
 8729WAT     H135622   2.101   6.908   6.389
 8729WAT     H235623   2.054   6.796   6.452
 8729WAT    EPW35624   2.044   6.869   6.426
 8730WAT      O35625   2.937   7.430   5.112
 8730WAT     H135626   2.975   7.498   5.072
 8730WAT     H235627   2.853   7.453   5.115
 8730WAT    EPW35628   2.930   7.444   5.106
 8731WAT      O35629   2.088   7.775   5.020
 8731WAT     H135630   2.008   7.757   4.991
 8731WAT     H235631   2.085   7.860   5.039
 8731WAT    EPW35632   2.076   7.785   5.019
 8732WAT      O35633   1.681   7.382   6.035
 8732WAT     H135634   1.725   7.371   5.960
 8732WAT     H235635   1.736   7.350   6.095
 8732WAT    EPW35636   1.696   7.376   6.033
 8733WAT      O35637   2.483   7.292   6.594
 8733WAT     H135638   2.418   7.339   6.629
 8733WAT     H235639   2.539   7.283   6.660
 8733WAT    EPW35640   2.482   7.298   6.609
 8734WAT      O35641   2.452   7.446   6.224
 8734WAT     H135642   2.482   7.488   6.294
 8734WAT     H235643   2.455   7.362   6.247
 8734WAT    EPW35644   2.457   7.439   6.238
 8735WAT      O35645   2.706   7.390   5.449
 8735WAT     H135646   2.727   7.370   5.532
 8735WAT     H235647   2.782   7.417   5.415
 8735WAT    EPW35648   2.721   7.391   5.456
 8736WAT      O35649   2.036   6.880   6.040
 8736WAT     H135650   1.953   6.865   6.063
 8736WAT     H235651   2.032   6.884   5.953
 8736WAT    EPW35652   2.023   6.879   6.030
 8737WAT      O35653   2.809   6.999   5.597
 8737WAT     H135654   2.737   6.952   5.614
 8737WAT     H235655   2.792   7.033   5.518
 8737WAT    EPW35656   2.796   6.997   5.587
 8738WAT      O35657   2.853   7.793   5.435
 8738WAT     H135658   2.901   7.720   5.430
 8738WAT     H235659   2.771   7.764   5.427
 8738WAT    EPW35660   2.848   7.778   5.433
 8739WAT      O35661   1.292   6.920   6.643
 8739WAT     H135662   1.278   7.000   6.610
 8739WAT     H235663   1.214   6.896   6.672
 8739WAT    EPW35664   1.279   6.928   6.643
 8740WAT      O35665   1.599   7.194   5.366
 8740WAT     H135666   1.611   7.162   5.286
 8740WAT     H235667   1.518   7.170   5.386
 8740WAT    EPW35668   1.589   7.186   5.357
 8741WAT      O35669   3.067   7.510   6.610
 8741WAT     H135670   2.981   7.498   6.623
 8741WAT     H235671   3.082   7.470   6.534
 8741WAT    EPW35672   3.056   7.502   6.601
 8742WAT      O35673   2.518   7.576   6.468
 8742WAT     H135674   2.492   7.504   6.510
 8742WAT     H235675   2.600   7.588   6.495
 8742WAT    EPW35676   2.526   7.567   6.478
 8743WAT      O35677   2.311   7.695   6.787
 8743WAT     H135678   2.344   7.764   6.743
 8743WAT     H235679   2.241   7.728   6.827
 8743WAT    EPW35680   2.306   7.710   6.786
 8744WAT      O35681   1.597   7.396   6.407
 8744WAT     H135682   1.634   7.457   6.359
 8744WAT     H235683   1.664   7.348   6.436
 8744WAT    EPW35684   1.612   7.398   6.404
 8745WAT      O35685   1.374   7.240   6.335
 8745WAT     H135686   1.382   7.223   6.249
 8745WAT     H235687   1.449   7.281   6.354
 8745WAT    EPW35688   1.386   7.244   6.325
 8746WAT      O35689   2.930   7.504   5.379
 8746WAT     H135690   2.940   7.499   5.292
 8746WAT     H235691   3.004   7.471   5.411
 8746WAT    EPW35692   2.942   7.499   5.371
 8747WAT      O35693   1.629   6.981   6.576
 8747WAT     H135694   1.621   6.897   6.596
 8747WAT     H235695   1.598   6.986   6.495
 8747WAT    EPW35696   1.624   6.970   6.567
 8748WAT      O35697   2.840   7.519   6.314
 8748WAT     H135698   2.840   7.433   6.327
 8748WAT     H235699   2.847   7.551   6.395
 8748WAT    EPW35700   2.841   7.511   6.328
 8749WAT      O35701   1.314   7.763   6.357
 8749WAT     H135702   1.346   7.785   6.279
 8749WAT     H235703   1.304   7.676   6.352
 8749WAT    EPW35704   1.317   7.753   6.345
 8750WAT      O35705   1.459   7.357   5.019
 8750WAT     H135706   1.392   7.358   5.075
 8750WAT     H235707   1.469   7.272   5.001
 8750WAT    EPW35708   1.451   7.344   5.024
 8751WAT      O35709   2.428   6.999   6.693
 8751WAT     H135710   2.437   7.070   6.742
 8751WAT     H235711   2.364   6.954   6.732
 8751WAT    EPW35712   2.420   7.003   6.706
 8752WAT      O35713   2.327   7.018   5.778
 8752WAT     H135714   2.257   7.070   5.772
 8752WAT     H235715   2.331   6.980   5.700
 8752WAT    EPW35716   2.318   7.020   5.766
 8753WAT      O35717   2.687   7.070   6.058
 8753WAT     H135718   2.773   7.079   6.072
 8753WAT     H235719   2.650   7.125   6.114
 8753WAT    EPW35720   2.694   7.079   6.068
 8754WAT      O35721   1.790   7.692   6.496
 8754WAT     H135722   1.750   7.770   6.503
 8754WAT     H235723   1.749   7.655   6.428
 8754WAT    EPW35724   1.778   7.698   6.487
 8755WAT      O35725   2.718   7.598   5.907
 8755WAT     H135726   2.784   7.652   5.923
 8755WAT     H235727   2.683   7.629   5.833
 8755WAT    EPW35728   2.722   7.610   5.899
 8756WAT      O35729   1.833   6.990   6.241
 8756WAT     H135730   1.747   6.998   6.249
 8756WAT     H235731   1.855   6.938   6.308
 8756WAT    EPW35732   1.823   6.984   6.252
 8757WAT      O35733   3.035   6.853   6.374
 8757WAT     H135734   3.030   6.849   6.461
 8757WAT     H235735   3.103   6.803   6.355
 8757WAT    EPW35736   3.044   6.845   6.384
 8758WAT      O35737   2.243   7.065   6.078
 8758WAT     H135738   2.170   7.019   6.089
 8758WAT     H235739   2.300   7.024   6.130
 8758WAT    EPW35740   2.241   7.052   6.087
 8759WAT      O35741   1.994   7.498   6.598
 8759WAT     H135742   1.961   7.440   6.541
 8759WAT     H235743   1.958   7.573   6.574
 8759WAT    EPW35744   1.984   7.500   6.586
 8760WAT      O35745   2.073   6.823   5.061
 8760WAT     H135746   2.081   6.847   4.978
 8760WAT     H235747   1.999   6.860   5.087
 8760WAT    EPW35748   2.063   6.832   5.053
 8761WAT      O35749   1.555   6.998   6.305
 8761WAT     H135750   1.521   6.921   6.282
 8761WAT     H235751   1.485   7.051   6.312
 8761WAT    EPW35752   1.540   6.995   6.303
 8762WAT      O35753   2.460   6.884   6.003
 8762WAT     H135754   2.527   6.938   6.016
 8762WAT     H235755   2.409   6.926   5.946
 8762WAT    EPW35756   2.462   6.898   5.997
 8763WAT      O35757   2.395   7.465   5.752
 8763WAT     H135758   2.451   7.404   5.782
 8763WAT     H235759   2.353   7.491   5.824
 8763WAT    EPW35760   2.397   7.459   5.767
 8764WAT      O35761   1.420   7.330   5.701
 8764WAT     H135762   1.383   7.360   5.774
 8764WAT     H235763   1.474   7.267   5.729
 8764WAT    EPW35764   1.423   7.325   5.716
 8765WAT      O35765   2.592   7.648   5.409
 8765WAT     H135766   2.599   7.563   5.427
 8765WAT     H235767   2.510   7.656   5.381
 8765WAT    EPW35768   2.581   7.636   5.407
 8766WAT      O35769   1.984   7.737   5.302
 8766WAT     H135770   1.994   7.751   5.217
 8766WAT     H235771   2.066   7.731   5.332
 8766WAT    EPW35772   1.998   7.738   5.294
 8767WAT      O35773   2.920   7.785   6.724
 8767WAT     H135774   2.983   7.768   6.781
 8767WAT     H235775   2.962   7.825   6.659
 8767WAT    EPW35776   2.935   7.788   6.723
 8768WAT      O35777   2.982   7.241   6.798
 8768WAT     H135778   2.963   7.306   6.853
 8768WAT     H235779   2.910   7.192   6.797
 8768WAT    EPW35780   2.969   7.244   6.806
 8769WAT      O35781   2.972   7.335   6.095
 8769WAT     H135782   2.889   7.360   6.087
 8769WAT     H235783   2.967   7.251   6.118
 8769WAT    EPW35784   2.959   7.327   6.097
 8770WAT      O35785   1.898   7.034   6.614
 8770WAT     H135786   1.922   6.977   6.553
 8770WAT     H235787   1.814   7.016   6.628
 8770WAT    EPW35788   1.889   7.023   6.607
 8771WAT      O35789   2.661   7.796   6.859
 8771WAT     H135790   2.748   7.792   6.856
 8771WAT     H235791   2.639   7.838   6.786
 8771WAT    EPW35792   2.671   7.802   6.848
 8772WAT      O35793   2.337   6.855   3.650
 8772WAT     H135794   2.313   6.903   3.582
 8772WAT     H235795   2.424   6.847   3.640
 8772WAT    EPW35796   2.346   6.861   3.638
 8773WAT      O35797   2.318   7.546   4.117
 8773WAT     H135798   2.266   7.606   4.153
 8773WAT     H235799   2.358   7.509   4.185
 8773WAT    EPW35800   2.316   7.550   4.132
 8774WAT      O35801   1.279   7.339   3.313
 8774WAT     H135802   1.202   7.356   3.277
 8774WAT     H235803   1.283   7.252   3.315
 8774WAT    EPW35804   1.269   7.329   3.308
 8775WAT      O35805   1.593   7.866   3.180
 8775WAT     H135806   1.554   7.829   3.112
 8775WAT     H235807   1.585   7.806   3.243
 8775WAT    EPW35808   1.586   7.851   3.179
 8776WAT      O35809   2.585   7.653   3.784
 8776WAT     H135810   2.593   7.653   3.697
 8776WAT     H235811   2.527   7.590   3.799
 8776WAT    EPW35812   2.578   7.644   3.774
 8777WAT      O35813   1.984   6.963   3.565
 8777WAT     H135814   1.977   7.031   3.510
 8777WAT     H235815   2.058   6.924   3.540
 8777WAT    EPW35816   1.994   6.968   3.553
 8778WAT      O35817   1.444   7.686   3.708
 8778WAT     H135818   1.398   7.647   3.645
 8778WAT     H235819   1.514   7.634   3.717
 8778WAT    EPW35820   1.447   7.672   3.700
 8779WAT      O35821   1.895   7.247   4.243
 8779WAT     H135822   1.962   7.249   4.188
 8779WAT     H235823   1.890   7.163   4.267
 8779WAT    EPW35824   1.904   7.235   4.238
 8780WAT      O35825   1.644   7.496   3.710
 8780WAT     H135826   1.726   7.477   3.735
 8780WAT     H235827   1.596   7.434   3.750
 8780WAT    EPW35828   1.649   7.484   3.720
 8781WAT      O35829   2.267   7.452   4.726
 8781WAT     H135830   2.182   7.442   4.708
 8781WAT     H235831   2.270   7.526   4.772
 8781WAT    EPW35832   2.255   7.461   4.730
 8782WAT      O35833   1.704   7.005   3.637
 8782WAT     H135834   1.674   7.055   3.572
 8782WAT     H235835   1.790   7.013   3.631
 8782WAT    EPW35836   1.712   7.014   3.626
 8783WAT      O35837   2.723   6.748   4.638
 8783WAT     H135838   2.707   6.825   4.599
 8783WAT     H235839   2.645   6.726   4.672
 8783WAT    EPW35840   2.709   6.756   4.637
 8784WAT      O35841   2.001   6.919   3.859
 8784WAT     H135842   2.009   7.005   3.872
 8784WAT     H235843   1.998   6.912   3.772
 8784WAT    EPW35844   2.002   6.931   3.848
 8785WAT      O35845   2.469   7.212   3.089
 8785WAT     H135846   2.424   7.280   3.120
 8785WAT     H235847   2.480   7.162   3.159
 8785WAT    EPW35848   2.464   7.215   3.104
 8786WAT      O35849   1.289   7.462   4.009
 8786WAT     H135850   1.264   7.545   4.002
 8786WAT     H235851   1.223   7.424   4.051
 8786WAT    EPW35852   1.276   7.468   4.014
 8787WAT      O35853   1.592   6.944   4.058
 8787WAT     H135854   1.540   6.881   4.028
 8787WAT     H235855   1.651   6.900   4.105
 8787WAT    EPW35856   1.593   6.928   4.061
 8788WAT      O35857   1.923   7.157   4.988
 8788WAT     H135858   1.935   7.111   4.915
 8788WAT     H235859   1.952   7.237   4.968
 8788WAT    EPW35860   1.929   7.162   4.974
 8789WAT      O35861   3.008   7.209   3.719
 8789WAT     H135862   2.974   7.277   3.761
 8789WAT     H235863   2.945   7.149   3.720
 8789WAT    EPW35864   2.994   7.210   3.725
 8790WAT      O35865   1.496   7.117   4.887
 8790WAT     H135866   1.418   7.078   4.879
 8790WAT     H235867   1.545   7.075   4.827
 8790WAT    EPW35868   1.492   7.105   4.877
 8791WAT      O35869   2.161   6.881   4.803
 8791WAT     H135870   2.179   6.800   4.776
 8791WAT     H235871   2.147   6.925   4.729
 8791WAT    EPW35872   2.162   6.875   4.788
 8792WAT      O35873   2.220   7.373   3.681
 8792WAT     H135874   2.249   7.350   3.602
 8792WAT     H235875   2.294   7.381   3.728
 8792WAT    EPW35876   2.235   7.371   3.676
 8793WAT      O35877   2.293   7.407   3.193
 8793WAT     H135878   2.321   7.486   3.218
 8793WAT     H235879   2.215   7.424   3.156
 8793WAT    EPW35880   2.285   7.421   3.191
 8794WAT      O35881   2.976   7.042   4.255
 8794WAT     H135882   3.051   7.049   4.213
 8794WAT     H235883   2.982   6.964   4.295
 8794WAT    EPW35884   2.988   7.031   4.255
 8795WAT      O35885   1.231   7.171   4.645
 8795WAT     H135886   1.231   7.230   4.710
 8795WAT     H235887   1.290   7.203   4.589
 8795WAT    EPW35888   1.240   7.185   4.646
 8796WAT      O35889   2.529   7.014   3.280
 8796WAT     H135890   2.583   6.946   3.287
 8796WAT     H235891   2.535   7.054   3.357
 8796WAT    EPW35892   2.538   7.010   3.292
 8797WAT      O35893   1.325   7.131   3.537
 8797WAT     H135894   1.313   7.044   3.540
 8797WAT     H235895   1.277   7.160   3.604
 8797WAT    EPW35896   1.316   7.122   3.547
 8798WAT      O35897   2.255   7.252   3.411
 8798WAT     H135898   2.204   7.185   3.386
 8798WAT     H235899   2.260   7.302   3.340
 8798WAT    EPW35900   2.248   7.249   3.397
 8799WAT      O35901   2.255   6.946   3.400
 8799WAT     H135902   2.210   6.906   3.338
 8799WAT     H235903   2.332   6.961   3.363
 8799WAT    EPW35904   2.260   6.942   3.385
 8800WAT      O35905   2.115   7.182   3.852
 8800WAT     H135906   2.122   7.239   3.787
 8800WAT     H235907   2.127   7.232   3.923
 8800WAT    EPW35908   2.118   7.198   3.853
 8801WAT      O35909   1.576   6.765   3.687
 8801WAT     H135910   1.629   6.834   3.686
 8801WAT     H235911   1.576   6.737   3.604
 8801WAT    EPW35912   1.584   6.771   3.675
 8802WAT      O35913   1.871   7.808   4.090
 8802WAT     H135914   1.888   7.787   4.173
 8802WAT     H235915   1.806   7.755   4.068
 8802WAT    EPW35916   1.864   7.797   4.099
 8803WAT      O35917   2.494   7.199   4.441
 8803WAT     H135918   2.485   7.231   4.522
 8803WAT     H235919   2.435   7.136   4.437
 8803WAT    EPW35920   2.484   7.195   4.453
 8804WAT      O35921   2.620   6.794   3.725
 8804WAT     H135922   2.625   6.762   3.806
 8804WAT     H235923   2.652   6.729   3.676
 8804WAT    EPW35924   2.625   6.780   3.730
 8805WAT      O35925   2.866   7.217   4.556
 8805WAT     H135926   2.943   7.195   4.589
 8805WAT     H235927   2.819   7.239   4.626
 8805WAT    EPW35928   2.870   7.217   4.571
 8806WAT      O35929   1.620   7.146   3.853
 8806WAT     H135930   1.648   7.103   3.782
 8806WAT     H235931   1.603   7.082   3.910
 8806WAT    EPW35932   1.622   7.130   3.851
 8807WAT      O35933   1.435   7.256   4.161
 8807WAT     H135934   1.519   7.278   4.157
 8807WAT     H235935   1.396   7.313   4.108
 8807WAT    EPW35936   1.441   7.268   4.152
 8808WAT      O35937   2.679   7.569   3.233
 8808WAT     H135938   2.657   7.642   3.191
 8808WAT     H235939   2.634   7.574   3.308
 8808WAT    EPW35940   2.669   7.580   3.238
 8809WAT      O35941   3.097   7.055   3.178
 8809WAT     H135942   3.031   6.998   3.181
 8809WAT     H235943   3.078   7.106   3.110
 8809WAT    EPW35944   3.085   7.054   3.169
 8810WAT      O35945   2.020   7.424   4.973
 8810WAT     H135946   1.972   7.482   5.017
 8810WAT     H235947   2.017   7.454   4.891
 8810WAT    EPW35948   2.012   7.437   4.967
 8811WAT      O35949   3.130   7.493   4.434
 8811WAT     H135950   3.151   7.413   4.406
 8811WAT     H235951   3.045   7.499   4.415
 8811WAT    EPW35952   3.120   7.482   4.427
 8812WAT      O35953   1.262   7.722   3.473
 8812WAT     H135954   1.243   7.638   3.489
 8812WAT     H235955   1.328   7.718   3.416
 8812WAT    EPW35956   1.269   7.709   3.467
 8813WAT      O35957   2.898   7.011   3.406
 8813WAT     H135958   2.972   6.970   3.426
 8813WAT     H235959   2.924   7.082   3.364
 8813WAT    EPW35960   2.913   7.015   3.403
 8814WAT      O35961   2.543   7.240   3.913
 8814WAT     H135962   2.577   7.255   3.992
 8814WAT     H235963   2.498   7.166   3.925
 8814WAT    EPW35964   2.541   7.231   3.927
 8815WAT      O35965   1.991   7.162   3.359
 8815WAT     H135966   1.990   7.150   3.273
 8815WAT     H235967   1.973   7.246   3.368
 8815WAT    EPW35968   1.988   7.172   3.348
 8816WAT      O35969   1.577   7.505   4.809
 8816WAT     H135970   1.524   7.455   4.855
 8816WAT     H235971   1.579   7.466   4.731
 8816WAT    EPW35972   1.570   7.492   4.804
 8817WAT      O35973   1.626   7.445   3.323
 8817WAT     H135974   1.613   7.400   3.396
 8817WAT     H235975   1.568   7.411   3.267
 8817WAT    EPW35976   1.615   7.433   3.325
 8818WAT      O35977   1.643   7.628   3.982
 8818WAT     H135978   1.565   7.622   3.944
 8818WAT     H235979   1.650   7.553   4.026
 8818WAT    EPW35980   1.632   7.616   3.983
 8819WAT      O35981   1.686   7.602   4.329
 8819WAT     H135982   1.688   7.534   4.274
 8819WAT     H235983   1.621   7.651   4.298
 8819WAT    EPW35984   1.677   7.599   4.317
 8820WAT      O35985   2.675   7.373   4.169
 8820WAT     H135986   2.609   7.406   4.215
 8820WAT     H235987   2.694   7.436   4.112
 8820WAT    EPW35988   2.668   7.387   4.167
 8821WAT      O35989   2.340   6.963   4.512
 8821WAT     H135990   2.355   6.881   4.487
 8821WAT     H235991   2.378   6.969   4.590
 8821WAT    EPW35992   2.347   6.952   4.520
 8822WAT      O35993   2.494   7.170   3.520
 8822WAT     H135994   2.543   7.241   3.512
 8822WAT     H235995   2.415   7.196   3.494
 8822WAT    EPW35996   2.490   7.184   3.515
 8823WAT      O35997   1.466   7.737   4.885
 8823WAT     H135998   1.462   7.787   4.814
 8823WAT     H235999   1.499   7.662   4.856
 8823WAT    EPW36000   1.470   7.733   4.870
 8824WAT      O36001   2.153   7.317   4.092
 8824WAT     H136002   2.201   7.387   4.113
 8824WAT     H236003   2.190   7.252   4.138
 8824WAT    EPW36004   2.165   7.318   4.102
 8825WAT      O36005   2.372   7.634   3.320
 8825WAT     H136006   2.371   7.706   3.271
 8825WAT     H236007   2.308   7.647   3.378
 8825WAT    EPW36008   2.362   7.646   3.321
 8826WAT      O36009   1.831   6.868   3.286
 8826WAT     H136010   1.841   6.857   3.372
 8826WAT     H236011   1.760   6.918   3.279
 8826WAT    EPW36012   1.822   6.874   3.298
 8827WAT      O36013   2.801   7.812   4.527
 8827WAT     H136014   2.806   7.825   4.441
 8827WAT     H236015   2.876   7.844   4.557
 8827WAT    EPW36016   2.812   7.819   4.519
 8828WAT      O36017   2.904   6.842   4.826
 8828WAT     H136018   2.840   6.802   4.781
 8828WAT     H236019   2.906   6.799   4.901
 8828WAT    EPW36020   2.895   6.830   4.830
 8829WAT      O36021   1.543   7.699   3.410
 8829WAT     H136022   1.575   7.621   3.388
 8829WAT     H236023   1.608   7.735   3.456
 8829WAT    EPW36024   1.557   7.692   3.414
 8830WAT      O36025   2.374   7.793   4.487
 8830WAT     H136026   2.358   7.854   4.547
 8830WAT     H236027   2.427   7.737   4.528
 8830WAT    EPW36028   2.379   7.794   4.502
 8831WAT      O36029   1.243   6.865   3.507
 8831WAT     H136030   1.256   6.794   3.458
 8831WAT     H236031   1.206   6.833   3.580
 8831WAT    EPW36032   1.239   6.849   3.511
 8832WAT      O36033   2.212   7.633   3.553
 8832WAT     H136034   2.218   7.698   3.611
 8832WAT     H236035   2.193   7.563   3.602
 8832WAT    EPW36036   2.210   7.632   3.569
 8833WAT      O36037   1.662   7.084   3.204
 8833WAT     H136038   1.611   7.090   3.133
 8833WAT     H236039   1.740   7.108   3.174
 8833WAT    EPW36040   1.666   7.089   3.189
 8834WAT      O36041   2.134   7.837   3.996
 8834WAT     H136042   2.050   7.818   4.004
 8834WAT     H236043   2.167   7.821   4.075
 8834WAT    EPW36044   2.127   7.832   4.009
 8835WAT      O36045   1.519   7.807   4.227
 8835WAT     H136046   1.591   7.856   4.224
 8835WAT     H236047   1.492   7.804   4.145
 8835WAT    EPW36048   1.526   7.814   4.215
 8836WAT      O36049   1.842   7.324   3.901
 8836WAT     H136050   1.927   7.305   3.911
 8836WAT     H236051   1.805   7.246   3.887
 8836WAT    EPW36052   1.849   7.310   3.900
 8837WAT      O36053   1.324   7.458   3.566
 8837WAT     H136054   1.373   7.428   3.633
 8837WAT     H236055   1.337   7.398   3.504
 8837WAT    EPW36056   1.333   7.445   3.567
 8838WAT      O36057   2.828   7.760   4.252
 8838WAT     H136058   2.827   7.682   4.291
 8838WAT     H236059   2.744   7.783   4.251
 8838WAT    EPW36060   2.815   7.752   4.257
 8839WAT      O36061   1.777   7.601   3.115
 8839WAT     H136062   1.716   7.561   3.162
 8839WAT     H236063   1.738   7.613   3.038
 8839WAT    EPW36064   1.762   7.597   3.111
 8840WAT      O36065   2.953   7.767   3.995
 8840WAT     H136066   2.925   7.807   4.067
 8840WAT     H236067   3.039   7.761   4.008
 8840WAT    EPW36068   2.962   7.772   4.008
 8841WAT      O36069   1.922   7.447   3.386
 8841WAT     H136070   1.949   7.530   3.393
 8841WAT     H236071   1.836   7.455   3.376
 8841WAT    EPW36072   1.914   7.460   3.386
 8842WAT      O36073   2.720   7.159   4.849
 8842WAT     H136074   2.667   7.205   4.902
 8842WAT     H236075   2.683   7.080   4.849
 8842WAT    EPW36076   2.706   7.154   4.857
 8843WAT      O36077   1.270   7.044   4.040
 8843WAT     H136078   1.275   7.079   3.960
 8843WAT     H236079   1.346   7.068   4.076
 8843WAT    EPW36080   1.282   7.053   4.033
 8844WAT      O36081   2.569   7.516   4.857
 8844WAT     H136082   2.576   7.527   4.943
 8844WAT     H236083   2.505   7.572   4.835
 8844WAT    EPW36084   2.560   7.526   4.866
 8845WAT      O36085   2.796   7.548   4.693
 8845WAT     H136086   2.827   7.627   4.714
 8845WAT     H236087   2.759   7.521   4.768
 8845WAT    EPW36088   2.795   7.556   4.707
 8846WAT      O36089   2.775   7.374   3.812
 8846WAT     H136090   2.701   7.342   3.844
 8846WAT     H236091   2.775   7.457   3.840
 8846WAT    EPW36092   2.764   7.381   3.821
 8847WAT      O36093   3.065   7.602   4.967
 8847WAT     H136094   3.060   7.568   4.887
 8847WAT     H236095   3.139   7.649   4.965
 8847WAT    EPW36096   3.075   7.604   4.955
 8848WAT      O36097   2.666   7.007   4.558
 8848WAT     H136098   2.741   7.052   4.552
 8848WAT     H236099   2.610   7.054   4.511
 8848WAT    EPW36100   2.669   7.021   4.551
 8849WAT      O36101   2.184   7.735   4.266
 8849WAT     H136102   2.232   7.773   4.329
 8849WAT     H236103   2.102   7.749   4.292
 8849WAT    EPW36104   2.179   7.743   4.279
 8850WAT      O36105   1.855   7.296   4.540
 8850WAT     H136106   1.871   7.221   4.583
 8850WAT     H236107   1.851   7.271   4.457
 8850WAT    EPW36108   1.857   7.281   4.534
 8851WAT      O36109   2.795   6.805   4.325
 8851WAT     H136110   2.767   6.887   4.321
 8851WAT     H236111   2.866   6.810   4.375
 8851WAT    EPW36112   2.801   6.818   4.332
 8852WAT      O36113   2.030   6.876   4.528
 8852WAT     H136114   2.101   6.908   4.488
 8852WAT     H236115   2.054   6.796   4.551
 8852WAT    EPW36116   2.044   6.869   4.526
 8853WAT      O36117   2.937   7.430   3.211
 8853WAT     H136118   2.975   7.498   3.171
 8853WAT     H236119   2.853   7.453   3.214
 8853WAT    EPW36120   2.930   7.444   3.206
 8854WAT      O36121   2.088   7.775   3.119
 8854WAT     H136122   2.008   7.757   3.091
 8854WAT     H236123   2.085   7.860   3.139
 8854WAT    EPW36124   2.076   7.785   3.118
 8855WAT      O36125   1.681   7.382   4.134
 8855WAT     H136126   1.725   7.371   4.060
 8855WAT     H236127   1.736   7.350   4.195
 8855WAT    EPW36128   1.696   7.376   4.132
 8856WAT      O36129   2.483   7.292   4.694
 8856WAT     H136130   2.418   7.339   4.728
 8856WAT     H236131   2.539   7.283   4.759
 8856WAT    EPW36132   2.482   7.298   4.708
 8857WAT      O36133   2.452   7.446   4.323
 8857WAT     H136134   2.482   7.488   4.394
 8857WAT     H236135   2.455   7.362   4.347
 8857WAT    EPW36136   2.457   7.439   4.337
 8858WAT      O36137   2.706   7.390   3.549
 8858WAT     H136138   2.727   7.370   3.631
 8858WAT     H236139   2.782   7.417   3.514
 8858WAT    EPW36140   2.721   7.391   3.556
 8859WAT      O36141   2.036   6.880   4.139
 8859WAT     H136142   1.953   6.865   4.163
 8859WAT     H236143   2.032   6.884   4.052
 8859WAT    EPW36144   2.023   6.879   4.130
 8860WAT      O36145   2.809   6.999   3.696
 8860WAT     H136146   2.737   6.952   3.713
 8860WAT     H236147   2.792   7.033   3.617
 8860WAT    EPW36148   2.796   6.997   3.687
 8861WAT      O36149   2.853   7.793   3.534
 8861WAT     H136150   2.901   7.720   3.529
 8861WAT     H236151   2.771   7.764   3.526
 8861WAT    EPW36152   2.848   7.778   3.532
 8862WAT      O36153   1.292   6.920   4.743
 8862WAT     H136154   1.278   7.000   4.709
 8862WAT     H236155   1.214   6.896   4.771
 8862WAT    EPW36156   1.279   6.928   4.742
 8863WAT      O36157   1.599   7.194   3.465
 8863WAT     H136158   1.611   7.162   3.385
 8863WAT     H236159   1.518   7.170   3.485
 8863WAT    EPW36160   1.589   7.186   3.456
 8864WAT      O36161   3.067   7.510   4.710
 8864WAT     H136162   2.981   7.498   4.722
 8864WAT     H236163   3.082   7.470   4.633
 8864WAT    EPW36164   3.056   7.502   4.700
 8865WAT      O36165   2.518   7.576   4.567
 8865WAT     H136166   2.492   7.504   4.610
 8865WAT     H236167   2.600   7.588   4.594
 8865WAT    EPW36168   2.526   7.567   4.578
 8866WAT      O36169   2.311   7.695   4.886
 8866WAT     H136170   2.344   7.764   4.843
 8866WAT     H236171   2.241   7.728   4.926
 8866WAT    EPW36172   2.306   7.710   4.886
 8867WAT      O36173   1.597   7.396   4.507
 8867WAT     H136174   1.634   7.457   4.458
 8867WAT     H236175   1.664   7.348   4.535
 8867WAT    EPW36176   1.612   7.398   4.504
 8868WAT      O36177   1.374   7.240   4.434
 8868WAT     H136178   1.382   7.223   4.349
 8868WAT     H236179   1.449   7.281   4.454
 8868WAT    EPW36180   1.386   7.244   4.424
 8869WAT      O36181   2.930   7.504   3.478
 8869WAT     H136182   2.940   7.499   3.392
 8869WAT     H236183   3.004   7.471   3.510
 8869WAT    EPW36184   2.942   7.499   3.470
 8870WAT      O36185   1.629   6.981   4.675
 8870WAT     H136186   1.621   6.897   4.696
 8870WAT     H236187   1.598   6.986   4.594
 8870WAT    EPW36188   1.624   6.970   4.666
 8871WAT      O36189   2.840   7.519   4.414
 8871WAT     H136190   2.840   7.433   4.426
 8871WAT     H236191   2.847   7.551   4.494
 8871WAT    EPW36192   2.841   7.511   4.427
 8872WAT      O36193   1.314   7.763   4.457
 8872WAT     H136194   1.346   7.785   4.378
 8872WAT     H236195   1.304   7.676   4.451
 8872WAT    EPW36196   1.317   7.753   4.444
 8873WAT      O36197   1.459   7.357   3.118
 8873WAT     H136198   1.392   7.358   3.174
 8873WAT     H236199   1.469   7.272   3.100
 8873WAT    EPW36200   1.451   7.344   3.124
 8874WAT      O36201   2.428   6.999   4.792
 8874WAT     H136202   2.437   7.070   4.841
 8874WAT     H236203   2.364   6.954   4.832
 8874WAT    EPW36204   2.420   7.003   4.805
 8875WAT      O36205   2.327   7.018   3.877
 8875WAT     H136206   2.257   7.070   3.872
 8875WAT     H236207   2.331   6.980   3.799
 8875WAT    EPW36208   2.318   7.020   3.865
 8876WAT      O36209   2.687   7.070   4.157
 8876WAT     H136210   2.773   7.079   4.172
 8876WAT     H236211   2.650   7.125   4.214
 8876WAT    EPW36212   2.694   7.079   4.168
 8877WAT      O36213   1.790   7.692   4.595
 8877WAT     H136214   1.750   7.770   4.603
 8877WAT     H236215   1.749   7.655   4.527
 8877WAT    EPW36216   1.778   7.698   4.586
 8878WAT      O36217   2.718   7.598   4.006
 8878WAT     H136218   2.784   7.652   4.022
 8878WAT     H236219   2.683   7.629   3.933
 8878WAT    EPW36220   2.722   7.610   3.998
 8879WAT      O36221   1.833   6.990   4.340
 8879WAT     H136222   1.747   6.998   4.348
 8879WAT     H236223   1.855   6.938   4.407
 8879WAT    EPW36224   1.823   6.984   4.351
 8880WAT      O36225   3.035   6.853   4.473
 8880WAT     H136226   3.030   6.849   4.560
 8880WAT     H236227   3.103   6.803   4.454
 8880WAT    EPW36228   3.044   6.845   4.483
 8881WAT      O36229   2.243   7.065   4.177
 8881WAT     H136230   2.170   7.019   4.189
 8881WAT     H236231   2.300   7.024   4.230
 8881WAT    EPW36232   2.241   7.052   4.187
 8882WAT      O36233   1.994   7.498   4.698
 8882WAT     H136234   1.961   7.440   4.641
 8882WAT     H236235   1.958   7.573   4.673
 8882WAT    EPW36236   1.984   7.500   4.686
 8883WAT      O36237   2.073   6.823   3.161
 8883WAT     H136238   2.081   6.847   3.077
 8883WAT     H236239   1.999   6.860   3.186
 8883WAT    EPW36240   2.063   6.832   3.152
 8884WAT      O36241   1.555   6.998   4.405
 8884WAT     H136242   1.521   6.921   4.381
 8884WAT     H236243   1.485   7.051   4.411
 8884WAT    EPW36244   1.540   6.995   4.402
 8885WAT      O36245   2.460   6.884   4.103
 8885WAT     H136246   2.527   6.938   4.115
 8885WAT     H236247   2.409   6.926   4.045
 8885WAT    EPW36248   2.462   6.898   4.096
 8886WAT      O36249   2.395   7.465   3.852
 8886WAT     H136250   2.451   7.404   3.882
 8886WAT     H236251   2.353   7.491   3.923
 8886WAT    EPW36252   2.397   7.459   3.867
 8887WAT      O36253   1.420   7.330   3.800
 8887WAT     H136254   1.383   7.360   3.874
 8887WAT     H236255   1.474   7.267   3.829
 8887WAT    EPW36256   1.423   7.325   3.815
 8888WAT      O36257   2.592   7.648   3.508
 8888WAT     H136258   2.599   7.563   3.526
 8888WAT     H236259   2.510   7.656   3.480
 8888WAT    EPW36260   2.581   7.636   3.507
 8889WAT      O36261   1.984   7.737   3.402
 8889WAT     H136262   1.994   7.751   3.316
 8889WAT     H236263   2.066   7.731   3.431
 8889WAT    EPW36264   1.998   7.738   3.394
 8890WAT      O36265   2.920   7.785   4.823
 8890WAT     H136266   2.983   7.768   4.881
 8890WAT     H236267   2.962   7.825   4.758
 8890WAT    EPW36268   2.935   7.788   4.822
 8891WAT      O36269   2.982   7.241   4.897
 8891WAT     H136270   2.963   7.306   4.952
 8891WAT     H236271   2.910   7.192   4.896
 8891WAT    EPW36272   2.969   7.244   4.905
 8892WAT      O36273   2.972   7.335   4.194
 8892WAT     H136274   2.889   7.360   4.187
 8892WAT     H236275   2.967   7.251   4.217
 8892WAT    EPW36276   2.959   7.327   4.196
 8893WAT      O36277   1.898   7.034   4.713
 8893WAT     H136278   1.922   6.977   4.652
 8893WAT     H236279   1.814   7.016   4.728
 8893WAT    EPW36280   1.889   7.023   4.706
 8894WAT      O36281   2.661   7.796   4.959
 8894WAT     H136282   2.748   7.792   4.955
 8894WAT     H236283   2.639   7.838   4.885
 8894WAT    EPW36284   2.671   7.802   4.947
 8895WAT      O36285   2.337   6.855   1.749
 8895WAT     H136286   2.313   6.903   1.681
 8895WAT     H236287   2.424   6.847   1.739
 8895WAT    EPW36288   2.346   6.861   1.737
 8896WAT      O36289   2.318   7.546   2.216
 8896WAT     H136290   2.266   7.606   2.252
 8896WAT     H236291   2.358   7.509   2.284
 8896WAT    EPW36292   2.316   7.550   2.232
 8897WAT      O36293   1.279   7.339   1.412
 8897WAT     H136294   1.202   7.356   1.376
 8897WAT     H236295   1.283   7.252   1.415
 8897WAT    EPW36296   1.269   7.329   1.407
 8898WAT      O36297   1.593   7.866   1.280
 8898WAT     H136298   1.554   7.829   1.211
 8898WAT     H236299   1.585   7.806   1.342
 8898WAT    EPW36300   1.586   7.851   1.279
 8899WAT      O36301   2.585   7.653   1.884
 8899WAT     H136302   2.593   7.653   1.797
 8899WAT     H236303   2.527   7.590   1.899
 8899WAT    EPW36304   2.578   7.644   1.873
 8900WAT      O36305   1.984   6.963   1.664
 8900WAT     H136306   1.977   7.031   1.610
 8900WAT     H236307   2.058   6.924   1.640
 8900WAT    EPW36308   1.994   6.968   1.653
 8901WAT      O36309   1.444   7.686   1.807
 8901WAT     H136310   1.398   7.647   1.745
 8901WAT     H236311   1.514   7.634   1.817
 8901WAT    EPW36312   1.447   7.672   1.799
 8902WAT      O36313   1.895   7.247   2.342
 8902WAT     H136314   1.962   7.249   2.287
 8902WAT     H236315   1.890   7.163   2.367
 8902WAT    EPW36316   1.904   7.235   2.338
 8903WAT      O36317   1.644   7.496   1.810
 8903WAT     H136318   1.726   7.477   1.834
 8903WAT     H236319   1.596   7.434   1.849
 8903WAT    EPW36320   1.649   7.484   1.819
 8904WAT      O36321   2.267   7.452   2.826
 8904WAT     H136322   2.182   7.442   2.808
 8904WAT     H236323   2.270   7.526   2.871
 8904WAT    EPW36324   2.255   7.461   2.830
 8905WAT      O36325   1.704   7.005   1.736
 8905WAT     H136326   1.674   7.055   1.671
 8905WAT     H236327   1.790   7.013   1.731
 8905WAT    EPW36328   1.712   7.014   1.726
 8906WAT      O36329   2.723   6.748   2.737
 8906WAT     H136330   2.707   6.825   2.699
 8906WAT     H236331   2.645   6.726   2.771
 8906WAT    EPW36332   2.709   6.756   2.737
 8907WAT      O36333   2.001   6.919   1.959
 8907WAT     H136334   2.009   7.005   1.971
 8907WAT     H236335   1.998   6.912   1.872
 8907WAT    EPW36336   2.002   6.931   1.948
 8908WAT      O36337   2.469   7.212   1.188
 8908WAT     H136338   2.424   7.280   1.219
 8908WAT     H236339   2.480   7.162   1.259
 8908WAT    EPW36340   2.464   7.215   1.203
 8909WAT      O36341   1.289   7.462   2.109
 8909WAT     H136342   1.264   7.545   2.101
 8909WAT     H236343   1.223   7.424   2.150
 8909WAT    EPW36344   1.276   7.468   2.114
 8910WAT      O36345   1.592   6.944   2.158
 8910WAT     H136346   1.540   6.881   2.127
 8910WAT     H236347   1.651   6.900   2.205
 8910WAT    EPW36348   1.593   6.928   2.160
 8911WAT      O36349   1.923   7.157   3.088
 8911WAT     H136350   1.935   7.111   3.014
 8911WAT     H236351   1.952   7.237   3.067
 8911WAT    EPW36352   1.929   7.162   3.074
 8912WAT      O36353   3.008   7.209   1.818
 8912WAT     H136354   2.974   7.277   1.861
 8912WAT     H236355   2.945   7.149   1.820
 8912WAT    EPW36356   2.994   7.210   1.824
 8913WAT      O36357   1.496   7.117   2.986
 8913WAT     H136358   1.418   7.078   2.979
 8913WAT     H236359   1.545   7.075   2.927
 8913WAT    EPW36360   1.492   7.105   2.976
 8914WAT      O36361   2.161   6.881   2.903
 8914WAT     H136362   2.179   6.800   2.875
 8914WAT     H236363   2.147   6.925   2.829
 8914WAT    EPW36364   2.162   6.875   2.888
 8915WAT      O36365   2.220   7.373   1.780
 8915WAT     H136366   2.249   7.350   1.701
 8915WAT     H236367   2.294   7.381   1.827
 8915WAT    EPW36368   2.235   7.371   1.775
 8916WAT      O36369   2.293   7.407   1.292
 8916WAT     H136370   2.321   7.486   1.317
 8916WAT     H236371   2.215   7.424   1.256
 8916WAT    EPW36372   2.285   7.421   1.290
 8917WAT      O36373   2.976   7.042   2.355
 8917WAT     H136374   3.051   7.049   2.312
 8917WAT     H236375   2.982   6.964   2.395
 8917WAT    EPW36376   2.988   7.031   2.354
 8918WAT      O36377   1.231   7.171   2.745
 8918WAT     H136378   1.231   7.230   2.809
 8918WAT     H236379   1.290   7.203   2.689
 8918WAT    EPW36380   1.240   7.185   2.746
 8919WAT      O36381   2.529   7.014   1.379
 8919WAT     H136382   2.583   6.946   1.387
 8919WAT     H236383   2.535   7.054   1.457
 8919WAT    EPW36384   2.538   7.010   1.392
 8920WAT      O36385   1.325   7.131   1.636
 8920WAT     H136386   1.313   7.044   1.639
 8920WAT     H236387   1.277   7.160   1.703
 8920WAT    EPW36388   1.316   7.122   1.646
 8921WAT      O36389   2.255   7.252   1.511
 8921WAT     H136390   2.204   7.185   1.485
 8921WAT     H236391   2.260   7.302   1.440
 8921WAT    EPW36392   2.248   7.249   1.496
 8922WAT      O36393   2.255   6.946   1.500
 8922WAT     H136394   2.210   6.906   1.437
 8922WAT     H236395   2.332   6.961   1.462
 8922WAT    EPW36396   2.260   6.942   1.485
 8923WAT      O36397   2.115   7.182   1.952
 8923WAT     H136398   2.122   7.239   1.886
 8923WAT     H236399   2.127   7.232   2.023
 8923WAT    EPW36400   2.118   7.198   1.953
 8924WAT      O36401   1.576   6.765   1.787
 8924WAT     H136402   1.629   6.834   1.786
 8924WAT     H236403   1.576   6.737   1.704
 8924WAT    EPW36404   1.584   6.771   1.774
 8925WAT      O36405   1.871   7.808   2.189
 8925WAT     H136406   1.888   7.787   2.272
 8925WAT     H236407   1.806   7.755   2.168
 8925WAT    EPW36408   1.864   7.797   2.198
 8926WAT      O36409   2.494   7.199   2.541
 8926WAT     H136410   2.485   7.231   2.621
 8926WAT     H236411   2.435   7.136   2.537
 8926WAT    EPW36412   2.484   7.195   2.552
 8927WAT      O36413   2.620   6.794   1.824
 8927WAT     H136414   2.625   6.762   1.905
 8927WAT     H236415   2.652   6.729   1.775
 8927WAT    EPW36416   2.625   6.780   1.829
 8928WAT      O36417   2.866   7.217   2.655
 8928WAT     H136418   2.943   7.195   2.689
 8928WAT     H236419   2.819   7.239   2.725
 8928WAT    EPW36420   2.870   7.217   2.670
 8929WAT      O36421   1.620   7.146   1.952
 8929WAT     H136422   1.648   7.103   1.881
 8929WAT     H236423   1.603   7.082   2.009
 8929WAT    EPW36424   1.622   7.130   1.950
 8930WAT      O36425   1.435   7.256   2.260
 8930WAT     H136426   1.519   7.278   2.256
 8930WAT     H236427   1.396   7.313   2.207
 8930WAT    EPW36428   1.441   7.268   2.252
 8931WAT      O36429   2.679   7.569   1.332
 8931WAT     H136430   2.657   7.642   1.290
 8931WAT     H236431   2.634   7.574   1.407
 8931WAT    EPW36432   2.669   7.580   1.337
 8932WAT      O36433   3.097   7.055   1.278
 8932WAT     H136434   3.031   6.998   1.280
 8932WAT     H236435   3.078   7.106   1.210
 8932WAT    EPW36436   3.085   7.054   1.268
 8933WAT      O36437   2.020   7.424   3.072
 8933WAT     H136438   1.972   7.482   3.116
 8933WAT     H236439   2.017   7.454   2.990
 8933WAT    EPW36440   2.012   7.437   3.066
 8934WAT      O36441   3.130   7.493   2.533
 8934WAT     H136442   3.151   7.413   2.506
 8934WAT     H236443   3.045   7.499   2.514
 8934WAT    EPW36444   3.120   7.482   2.526
 8935WAT      O36445   1.262   7.722   1.573
 8935WAT     H136446   1.243   7.638   1.588
 8935WAT     H236447   1.328   7.718   1.516
 8935WAT    EPW36448   1.269   7.709   1.567
 8936WAT      O36449   2.898   7.011   1.506
 8936WAT     H136450   2.972   6.970   1.525
 8936WAT     H236451   2.924   7.082   1.463
 8936WAT    EPW36452   2.913   7.015   1.502
 8937WAT      O36453   2.543   7.240   2.013
 8937WAT     H136454   2.577   7.255   2.092
 8937WAT     H236455   2.498   7.166   2.024
 8937WAT    EPW36456   2.541   7.231   2.026
 8938WAT      O36457   1.991   7.162   1.459
 8938WAT     H136458   1.990   7.150   1.372
 8938WAT     H236459   1.973   7.246   1.468
 8938WAT    EPW36460   1.988   7.172   1.447
 8939WAT      O36461   1.577   7.505   2.908
 8939WAT     H136462   1.524   7.455   2.955
 8939WAT     H236463   1.579   7.466   2.830
 8939WAT    EPW36464   1.570   7.492   2.903
 8940WAT      O36465   1.626   7.445   1.422
 8940WAT     H136466   1.613   7.400   1.496
 8940WAT     H236467   1.568   7.411   1.367
 8940WAT    EPW36468   1.615   7.433   1.425
 8941WAT      O36469   1.643   7.628   2.082
 8941WAT     H136470   1.565   7.622   2.044
 8941WAT     H236471   1.650   7.553   2.126
 8941WAT    EPW36472   1.632   7.616   2.083
 8942WAT      O36473   1.686   7.602   2.429
 8942WAT     H136474   1.688   7.534   2.374
 8942WAT     H236475   1.621   7.651   2.397
 8942WAT    EPW36476   1.677   7.599   2.416
 8943WAT      O36477   2.675   7.373   2.268
 8943WAT     H136478   2.609   7.406   2.315
 8943WAT     H236479   2.694   7.436   2.211
 8943WAT    EPW36480   2.668   7.387   2.267
 8944WAT      O36481   2.340   6.963   2.611
 8944WAT     H136482   2.355   6.881   2.587
 8944WAT     H236483   2.378   6.969   2.690
 8944WAT    EPW36484   2.347   6.952   2.619
 8945WAT      O36485   2.494   7.170   1.619
 8945WAT     H136486   2.543   7.241   1.612
 8945WAT     H236487   2.415   7.196   1.593
 8945WAT    EPW36488   2.490   7.184   1.614
 8946WAT      O36489   1.466   7.737   2.985
 8946WAT     H136490   1.462   7.787   2.913
 8946WAT     H236491   1.499   7.662   2.955
 8946WAT    EPW36492   1.470   7.733   2.970
 8947WAT      O36493   2.153   7.317   2.192
 8947WAT     H136494   2.201   7.387   2.213
 8947WAT     H236495   2.190   7.252   2.237
 8947WAT    EPW36496   2.165   7.318   2.202
 8948WAT      O36497   2.372   7.634   1.419
 8948WAT     H136498   2.371   7.706   1.370
 8948WAT     H236499   2.308   7.647   1.477
 8948WAT    EPW36500   2.362   7.646   1.421
 8949WAT      O36501   1.831   6.868   1.385
 8949WAT     H136502   1.841   6.857   1.471
 8949WAT     H236503   1.760   6.918   1.379
 8949WAT    EPW36504   1.822   6.874   1.397
 8950WAT      O36505   2.801   7.812   2.626
 8950WAT     H136506   2.806   7.825   2.540
 8950WAT     H236507   2.876   7.844   2.657
 8950WAT    EPW36508   2.812   7.819   2.618
 8951WAT      O36509   2.904   6.842   2.925
 8951WAT     H136510   2.840   6.802   2.881
 8951WAT     H236511   2.906   6.799   3.001
 8951WAT    EPW36512   2.895   6.830   2.930
 8952WAT      O36513   1.543   7.699   1.510
 8952WAT     H136514   1.575   7.621   1.487
 8952WAT     H236515   1.608   7.735   1.555
 8952WAT    EPW36516   1.557   7.692   1.513
 8953WAT      O36517   2.374   7.793   2.586
 8953WAT     H136518   2.358   7.854   2.647
 8953WAT     H236519   2.427   7.737   2.627
 8953WAT    EPW36520   2.379   7.794   2.601
 8954WAT      O36521   1.243   6.865   1.606
 8954WAT     H136522   1.256   6.794   1.557
 8954WAT     H236523   1.206   6.833   1.679
 8954WAT    EPW36524   1.239   6.849   1.610
 8955WAT      O36525   2.212   7.633   1.652
 8955WAT     H136526   2.218   7.698   1.710
 8955WAT     H236527   2.193   7.563   1.701
 8955WAT    EPW36528   2.210   7.632   1.668
 8956WAT      O36529   1.662   7.084   1.303
 8956WAT     H136530   1.611   7.090   1.233
 8956WAT     H236531   1.740   7.108   1.274
 8956WAT    EPW36532   1.666   7.089   1.289
 8957WAT      O36533   2.134   7.837   2.095
 8957WAT     H136534   2.050   7.818   2.103
 8957WAT     H236535   2.167   7.821   2.175
 8957WAT    EPW36536   2.127   7.832   2.108
 8958WAT      O36537   1.519   7.807   2.327
 8958WAT     H136538   1.591   7.856   2.323
 8958WAT     H236539   1.492   7.804   2.244
 8958WAT    EPW36540   1.526   7.814   2.314
 8959WAT      O36541   1.842   7.324   2.000
 8959WAT     H136542   1.927   7.305   2.010
 8959WAT     H236543   1.805   7.246   1.987
 8959WAT    EPW36544   1.849   7.310   2.000
 8960WAT      O36545   1.324   7.458   1.666
 8960WAT     H136546   1.373   7.428   1.732
 8960WAT     H236547   1.337   7.398   1.603
 8960WAT    EPW36548   1.333   7.445   1.666
 8961WAT      O36549   2.828   7.760   2.351
 8961WAT     H136550   2.827   7.682   2.391
 8961WAT     H236551   2.744   7.783   2.350
 8961WAT    EPW36552   2.815   7.752   2.357
 8962WAT      O36553   1.777   7.601   1.214
 8962WAT     H136554   1.716   7.561   1.262
 8962WAT     H236555   1.738   7.613   1.137
 8962WAT    EPW36556   1.762   7.597   1.210
 8963WAT      O36557   2.953   7.767   2.095
 8963WAT     H136558   2.925   7.807   2.167
 8963WAT     H236559   3.039   7.761   2.107
 8963WAT    EPW36560   2.962   7.772   2.107
 8964WAT      O36561   1.922   7.447   1.485
 8964WAT     H136562   1.949   7.530   1.492
 8964WAT     H236563   1.836   7.455   1.476
 8964WAT    EPW36564   1.914   7.460   1.485
 8965WAT      O36565   2.720   7.159   2.949
 8965WAT     H136566   2.667   7.205   3.001
 8965WAT     H236567   2.683   7.080   2.948
 8965WAT    EPW36568   2.706   7.154   2.956
 8966WAT      O36569   1.270   7.044   2.139
 8966WAT     H136570   1.275   7.079   2.059
 8966WAT     H236571   1.346   7.068   2.176
 8966WAT    EPW36572   1.282   7.053   2.133
 8967WAT      O36573   2.569   7.516   2.956
 8967WAT     H136574   2.576   7.527   3.043
 8967WAT     H236575   2.505   7.572   2.934
 8967WAT    EPW36576   2.560   7.526   2.966
 8968WAT      O36577   2.796   7.548   2.793
 8968WAT     H136578   2.827   7.627   2.813
 8968WAT     H236579   2.759   7.521   2.867
 8968WAT    EPW36580   2.795   7.556   2.807
 8969WAT      O36581   2.775   7.374   1.912
 8969WAT     H136582   2.701   7.342   1.943
 8969WAT     H236583   2.775   7.457   1.940
 8969WAT    EPW36584   2.764   7.381   1.920
 8970WAT      O36585   3.065   7.602   3.066
 8970WAT     H136586   3.060   7.568   2.986
 8970WAT     H236587   3.139   7.649   3.064
 8970WAT    EPW36588   3.075   7.604   3.054
 8971WAT      O36589   2.666   7.007   2.658
 8971WAT     H136590   2.741   7.052   2.651
 8971WAT     H236591   2.610   7.054   2.611
 8971WAT    EPW36592   2.669   7.021   2.650
 8972WAT      O36593   2.184   7.735   2.366
 8972WAT     H136594   2.232   7.773   2.428
 8972WAT     H236595   2.102   7.749   2.391
 8972WAT    EPW36596   2.179   7.743   2.379
 8973WAT      O36597   1.855   7.296   2.640
 8973WAT     H136598   1.871   7.221   2.682
 8973WAT     H236599   1.851   7.271   2.556
 8973WAT    EPW36600   1.857   7.281   2.634
 8974WAT      O36601   2.795   6.805   2.425
 8974WAT     H136602   2.767   6.887   2.420
 8974WAT     H236603   2.866   6.810   2.474
 8974WAT    EPW36604   2.801   6.818   2.431
 8975WAT      O36605   2.030   6.876   2.628
 8975WAT     H136606   2.101   6.908   2.587
 8975WAT     H236607   2.054   6.796   2.650
 8975WAT    EPW36608   2.044   6.869   2.625
 8976WAT      O36609   2.937   7.430   1.310
 8976WAT     H136610   2.975   7.498   1.270
 8976WAT     H236611   2.853   7.453   1.314
 8976WAT    EPW36612   2.930   7.444   1.305
 8977WAT      O36613   2.088   7.775   1.219
 8977WAT     H136614   2.008   7.757   1.190
 8977WAT     H236615   2.085   7.860   1.238
 8977WAT    EPW36616   2.076   7.785   1.217
 8978WAT      O36617   1.681   7.382   2.234
 8978WAT     H136618   1.725   7.371   2.159
 8978WAT     H236619   1.736   7.350   2.294
 8978WAT    EPW36620   1.696   7.376   2.232
 8979WAT      O36621   2.483   7.292   2.793
 8979WAT     H136622   2.418   7.339   2.828
 8979WAT     H236623   2.539   7.283   2.859
 8979WAT    EPW36624   2.482   7.298   2.808
 8980WAT      O36625   2.452   7.446   2.423
 8980WAT     H136626   2.482   7.488   2.493
 8980WAT     H236627   2.455   7.362   2.446
 8980WAT    EPW36628   2.457   7.439   2.437
 8981WAT      O36629   2.706   7.390   1.648
 8981WAT     H136630   2.727   7.370   1.730
 8981WAT     H236631   2.782   7.417   1.614
 8981WAT    EPW36632   2.721   7.391   1.655
 8982WAT      O36633   2.036   6.880   2.238
 8982WAT     H136634   1.953   6.865   2.262
 8982WAT     H236635   2.032   6.884   2.151
 8982WAT    EPW36636   2.023   6.879   2.229
 8983WAT      O36637   2.809   6.999   1.795
 8983WAT     H136638   2.737   6.952   1.812
 8983WAT     H236639   2.792   7.033   1.717
 8983WAT    EPW36640   2.796   6.997   1.786
 8984WAT      O36641   2.853   7.793   1.633
 8984WAT     H136642   2.901   7.720   1.629
 8984WAT     H236643   2.771   7.764   1.626
 8984WAT    EPW36644   2.848   7.778   1.631
 8985WAT      O36645   1.292   6.920   2.842
 8985WAT     H136646   1.278   7.000   2.809
 8985WAT     H236647   1.214   6.896   2.871
 8985WAT    EPW36648   1.279   6.928   2.841
 8986WAT      O36649   1.599   7.194   1.564
 8986WAT     H136650   1.611   7.162   1.485
 8986WAT     H236651   1.518   7.170   1.584
 8986WAT    EPW36652   1.589   7.186   1.556
 8987WAT      O36653   3.067   7.510   2.809
 8987WAT     H136654   2.981   7.498   2.822
 8987WAT     H236655   3.082   7.470   2.733
 8987WAT    EPW36656   3.056   7.502   2.800
 8988WAT      O36657   2.518   7.576   2.667
 8988WAT     H136658   2.492   7.504   2.709
 8988WAT     H236659   2.600   7.588   2.694
 8988WAT    EPW36660   2.526   7.567   2.677
 8989WAT      O36661   2.311   7.695   2.985
 8989WAT     H136662   2.344   7.764   2.942
 8989WAT     H236663   2.241   7.728   3.026
 8989WAT    EPW36664   2.306   7.710   2.985
 8990WAT      O36665   1.597   7.396   2.606
 8990WAT     H136666   1.634   7.457   2.557
 8990WAT     H236667   1.664   7.348   2.635
 8990WAT    EPW36668   1.612   7.398   2.603
 8991WAT      O36669   1.374   7.240   2.534
 8991WAT     H136670   1.382   7.223   2.448
 8991WAT     H236671   1.449   7.281   2.553
 8991WAT    EPW36672   1.386   7.244   2.524
 8992WAT      O36673   2.930   7.504   1.578
 8992WAT     H136674   2.940   7.499   1.491
 8992WAT     H236675   3.004   7.471   1.609
 8992WAT    EPW36676   2.942   7.499   1.569
 8993WAT      O36677   1.629   6.981   2.775
 8993WAT     H136678   1.621   6.897   2.795
 8993WAT     H236679   1.598   6.986   2.693
 8993WAT    EPW36680   1.624   6.970   2.766
 8994WAT      O36681   2.840   7.519   2.513
 8994WAT     H136682   2.840   7.433   2.526
 8994WAT     H236683   2.847   7.551   2.594
 8994WAT    EPW36684   2.841   7.511   2.527
 8995WAT      O36685   1.314   7.763   2.556
 8995WAT     H136686   1.346   7.785   2.478
 8995WAT     H236687   1.304   7.676   2.550
 8995WAT    EPW36688   1.317   7.753   2.544
 8996WAT      O36689   1.459   7.357   1.218
 8996WAT     H136690   1.392   7.358   1.273
 8996WAT     H236691   1.469   7.272   1.199
 8996WAT    EPW36692   1.451   7.344   1.223
 8997WAT      O36693   2.428   6.999   2.891
 8997WAT     H136694   2.437   7.070   2.941
 8997WAT     H236695   2.364   6.954   2.931
 8997WAT    EPW36696   2.420   7.003   2.905
 8998WAT      O36697   2.327   7.018   1.977
 8998WAT     H136698   2.257   7.070   1.971
 8998WAT     H236699   2.331   6.980   1.898
 8998WAT    EPW36700   2.318   7.020   1.964
 8999WAT      O36701   2.687   7.070   2.257
 8999WAT     H136702   2.773   7.079   2.271
 8999WAT     H236703   2.650   7.125   2.313
 8999WAT    EPW36704   2.694   7.079   2.267
 9000WAT      O36705   1.790   7.692   2.694
 9000WAT     H136706   1.750   7.770   2.702
 9000WAT     H236707   1.749   7.655   2.627
 9000WAT    EPW36708   1.778   7.698   2.686
 9001WAT      O36709   2.718   7.598   2.106
 9001WAT     H136710   2.784   7.652   2.122
 9001WAT     H236711   2.683   7.629   2.032
 9001WAT    EPW36712   2.722   7.610   2.097
 9002WAT      O36713   1.833   6.990   2.439
 9002WAT     H136714   1.747   6.998   2.447
 9002WAT     H236715   1.855   6.938   2.506
 9002WAT    EPW36716   1.823   6.984   2.451
 9003WAT      O36717   3.035   6.853   2.572
 9003WAT     H136718   3.030   6.849   2.659
 9003WAT     H236719   3.103   6.803   2.553
 9003WAT    EPW36720   3.044   6.845   2.582
 9004WAT      O36721   2.243   7.065   2.277
 9004WAT     H136722   2.170   7.019   2.288
 9004WAT     H236723   2.300   7.024   2.329
 9004WAT    EPW36724   2.241   7.052   2.286
 9005WAT      O36725   1.994   7.498   2.797
 9005WAT     H136726   1.961   7.440   2.740
 9005WAT     H236727   1.958   7.573   2.773
 9005WAT    EPW36728   1.984   7.500   2.785
 9006WAT      O36729   2.073   6.823   1.260
 9006WAT     H136730   2.081   6.847   1.177
 9006WAT     H236731   1.999   6.860   1.286
 9006WAT    EPW36732   2.063   6.832   1.251
 9007WAT      O36733   1.555   6.998   2.504
 9007WAT     H136734   1.521   6.921   2.481
 9007WAT     H236735   1.485   7.051   2.511
 9007WAT    EPW36736   1.540   6.995   2.502
 9008WAT      O36737   2.460   6.884   2.202
 9008WAT     H136738   2.527   6.938   2.215
 9008WAT     H236739   2.409   6.926   2.145
 9008WAT    EPW36740   2.462   6.898   2.195
 9009WAT      O36741   2.395   7.465   1.951
 9009WAT     H136742   2.451   7.404   1.981
 9009WAT     H236743   2.353   7.491   2.023
 9009WAT    EPW36744   2.397   7.459   1.966
 9010WAT      O36745   1.420   7.330   1.900
 9010WAT     H136746   1.383   7.360   1.973
 9010WAT     H236747   1.474   7.267   1.928
 9010WAT    EPW36748   1.423   7.325   1.915
 9011WAT      O36749   2.592   7.648   1.607
 9011WAT     H136750   2.599   7.563   1.626
 9011WAT     H236751   2.510   7.656   1.580
 9011WAT    EPW36752   2.581   7.636   1.606
 9012WAT      O36753   1.984   7.737   1.501
 9012WAT     H136754   1.994   7.751   1.416
 9012WAT     H236755   2.066   7.731   1.531
 9012WAT    EPW36756   1.998   7.738   1.493
 9013WAT      O36757   2.920   7.785   2.923
 9013WAT     H136758   2.983   7.768   2.980
 9013WAT     H236759   2.962   7.825   2.857
 9013WAT    EPW36760   2.935   7.788   2.921
 9014WAT      O36761   2.982   7.241   2.996
 9014WAT     H136762   2.963   7.306   3.052
 9014WAT     H236763   2.910   7.192   2.996
 9014WAT    EPW36764   2.969   7.244   3.004
 9015WAT      O36765   2.972   7.335   2.293
 9015WAT     H136766   2.889   7.360   2.286
 9015WAT     H236767   2.967   7.251   2.316
 9015WAT    EPW36768   2.959   7.327   2.296
 9016WAT      O36769   1.898   7.034   2.813
 9016WAT     H136770   1.922   6.977   2.752
 9016WAT     H236771   1.814   7.016   2.827
 9016WAT    EPW36772   1.889   7.023   2.806
 9017WAT      O36773   2.661   7.796   3.058
 9017WAT     H136774   2.748   7.792   3.054
 9017WAT     H236775   2.639   7.838   2.985
 9017WAT    EPW36776   2.671   7.802   3.047
 9018WAT      O36777   2.318   7.546   0.315
 9018WAT     H136778   2.266   7.606   0.352
 9018WAT     H236779   2.358   7.509   0.384
 9018WAT    EPW36780   2.316   7.550   0.331
 9019WAT      O36781   1.895   7.247   0.441
 9019WAT     H136782   1.962   7.249   0.387
 9019WAT     H236783   1.890   7.163   0.466
 9019WAT    EPW36784   1.904   7.235   0.437
 9020WAT      O36785   2.267   7.452   0.925
 9020WAT     H136786   2.182   7.442   0.907
 9020WAT     H236787   2.270   7.526   0.970
 9020WAT    EPW36788   2.255   7.461   0.929
 9021WAT      O36789   2.723   6.748   0.836
 9021WAT     H136790   2.707   6.825   0.798
 9021WAT     H236791   2.645   6.726   0.871
 9021WAT    EPW36792   2.709   6.756   0.836
 9022WAT      O36793   1.289   7.462   0.208
 9022WAT     H136794   1.264   7.545   0.201
 9022WAT     H236795   1.223   7.424   0.250
 9022WAT    EPW36796   1.276   7.468   0.213
 9023WAT      O36797   1.592   6.944   0.257
 9023WAT     H136798   1.540   6.881   0.226
 9023WAT     H236799   1.651   6.900   0.304
 9023WAT    EPW36800   1.593   6.928   0.260
 9024WAT      O36801   1.923   7.157   1.187
 9024WAT     H136802   1.935   7.111   1.113
 9024WAT     H236803   1.952   7.237   1.167
 9024WAT    EPW36804   1.929   7.162   1.173
 9025WAT      O36805   1.496   7.117   1.085
 9025WAT     H136806   1.418   7.078   1.078
 9025WAT     H236807   1.545   7.075   1.026
 9025WAT    EPW36808   1.492   7.105   1.076
 9026WAT      O36809   2.161   6.881   1.002
 9026WAT     H136810   2.179   6.800   0.975
 9026WAT     H236811   2.147   6.925   0.928
 9026WAT    EPW36812   2.162   6.875   0.987
 9027WAT      O36813   2.976   7.042   0.454
 9027WAT     H136814   3.051   7.049   0.411
 9027WAT     H236815   2.982   6.964   0.494
 9027WAT    EPW36816   2.988   7.031   0.454
 9028WAT      O36817   1.231   7.171   0.844
 9028WAT     H136818   1.231   7.230   0.909
 9028WAT     H236819   1.290   7.203   0.788
 9028WAT    EPW36820   1.240   7.185   0.845
 9029WAT      O36821   1.871   7.808   0.289
 9029WAT     H136822   1.888   7.787   0.371
 9029WAT     H236823   1.806   7.755   0.267
 9029WAT    EPW36824   1.864   7.797   0.298
 9030WAT      O36825   2.494   7.199   0.640
 9030WAT     H136826   2.485   7.231   0.721
 9030WAT     H236827   2.435   7.136   0.636
 9030WAT    EPW36828   2.484   7.195   0.651
 9031WAT      O36829   2.866   7.217   0.754
 9031WAT     H136830   2.943   7.195   0.788
 9031WAT     H236831   2.819   7.239   0.824
 9031WAT    EPW36832   2.870   7.217   0.770
 9032WAT      O36833   1.435   7.256   0.360
 9032WAT     H136834   1.519   7.278   0.355
 9032WAT     H236835   1.396   7.313   0.307
 9032WAT    EPW36836   1.441   7.268   0.351
 9033WAT      O36837   2.020   7.424   1.171
 9033WAT     H136838   1.972   7.482   1.216
 9033WAT     H236839   2.017   7.454   1.089
 9033WAT    EPW36840   2.012   7.437   1.166
 9034WAT      O36841   3.130   7.493   0.633
 9034WAT     H136842   3.151   7.413   0.605
 9034WAT     H236843   3.045   7.499   0.614
 9034WAT    EPW36844   3.120   7.482   0.626
 9035WAT      O36845   1.577   7.505   1.007
 9035WAT     H136846   1.524   7.455   1.054
 9035WAT     H236847   1.579   7.466   0.929
 9035WAT    EPW36848   1.570   7.492   1.003
 9036WAT      O36849   1.686   7.602   0.528
 9036WAT     H136850   1.688   7.534   0.473
 9036WAT     H236851   1.621   7.651   0.497
 9036WAT    EPW36852   1.677   7.599   0.515
 9037WAT      O36853   2.675   7.373   0.368
 9037WAT     H136854   2.609   7.406   0.414
 9037WAT     H236855   2.694   7.436   0.311
 9037WAT    EPW36856   2.668   7.387   0.366
 9038WAT      O36857   2.340   6.963   0.711
 9038WAT     H136858   2.355   6.881   0.686
 9038WAT     H236859   2.378   6.969   0.789
 9038WAT    EPW36860   2.347   6.952   0.719
 9039WAT      O36861   1.466   7.737   1.084
 9039WAT     H136862   1.462   7.787   1.013
 9039WAT     H236863   1.499   7.662   1.054
 9039WAT    EPW36864   1.470   7.733   1.069
 9040WAT      O36865   2.153   7.317   0.291
 9040WAT     H136866   2.201   7.387   0.312
 9040WAT     H236867   2.190   7.252   0.336
 9040WAT    EPW36868   2.165   7.318   0.301
 9041WAT      O36869   2.801   7.812   0.726
 9041WAT     H136870   2.806   7.825   0.640
 9041WAT     H236871   2.876   7.844   0.756
 9041WAT    EPW36872   2.812   7.819   0.717
 9042WAT      O36873   2.904   6.842   1.024
 9042WAT     H136874   2.840   6.802   0.980
 9042WAT     H236875   2.906   6.799   1.100
 9042WAT    EPW36876   2.895   6.830   1.029
 9043WAT      O36877   2.374   7.793   0.686
 9043WAT     H136878   2.358   7.854   0.746
 9043WAT     H236879   2.427   7.737   0.726
 9043WAT    EPW36880   2.379   7.794   0.701
 9044WAT      O36881   2.134   7.837   0.195
 9044WAT     H136882   2.050   7.818   0.203
 9044WAT     H236883   2.167   7.821   0.274
 9044WAT    EPW36884   2.127   7.832   0.208
 9045WAT      O36885   1.519   7.807   0.426
 9045WAT     H136886   1.591   7.856   0.423
 9045WAT     H236887   1.492   7.804   0.343
 9045WAT    EPW36888   1.526   7.814   0.413
 9046WAT      O36889   2.828   7.760   0.450
 9046WAT     H136890   2.827   7.682   0.490
 9046WAT     H236891   2.744   7.783   0.450
 9046WAT    EPW36892   2.815   7.752   0.456
 9047WAT      O36893   2.953   7.767   0.194
 9047WAT     H136894   2.925   7.807   0.266
 9047WAT     H236895   3.039   7.761   0.207
 9047WAT    EPW36896   2.962   7.772   0.207
 9048WAT      O36897   2.720   7.159   1.048
 9048WAT     H136898   2.667   7.205   1.100
 9048WAT     H236899   2.683   7.080   1.047
 9048WAT    EPW36900   2.706   7.154   1.056
 9049WAT      O36901   2.569   7.516   1.056
 9049WAT     H136902   2.576   7.527   1.142
 9049WAT     H236903   2.505   7.572   1.034
 9049WAT    EPW36904   2.560   7.526   1.065
 9050WAT      O36905   2.796   7.548   0.892
 9050WAT     H136906   2.827   7.627   0.912
 9050WAT     H236907   2.759   7.521   0.966
 9050WAT    EPW36908   2.795   7.556   0.906
 9051WAT      O36909   3.065   7.602   1.166
 9051WAT     H136910   3.060   7.568   1.086
 9051WAT     H236911   3.139   7.649   1.163
 9051WAT    EPW36912   3.075   7.604   1.153
 9052WAT      O36913   2.666   7.007   0.757
 9052WAT     H136914   2.741   7.052   0.751
 9052WAT     H236915   2.610   7.054   0.710
 9052WAT    EPW36916   2.669   7.021   0.749
 9053WAT      O36917   2.184   7.735   0.465
 9053WAT     H136918   2.232   7.773   0.528
 9053WAT     H236919   2.102   7.749   0.491
 9053WAT    EPW36920   2.179   7.743   0.478
 9054WAT      O36921   1.855   7.296   0.739
 9054WAT     H136922   1.871   7.221   0.782
 9054WAT     H236923   1.851   7.271   0.656
 9054WAT    EPW36924   1.857   7.281   0.733
 9055WAT      O36925   2.795   6.805   0.524
 9055WAT     H136926   2.767   6.887   0.520
 9055WAT     H236927   2.866   6.810   0.574
 9055WAT    EPW36928   2.801   6.818   0.531
 9056WAT      O36929   2.030   6.876   0.727
 9056WAT     H136930   2.101   6.908   0.687
 9056WAT     H236931   2.054   6.796   0.750
 9056WAT    EPW36932   2.044   6.869   0.724
 9057WAT      O36933   1.681   7.382   0.333
 9057WAT     H136934   1.725   7.371   0.259
 9057WAT     H236935   1.736   7.350   0.394
 9057WAT    EPW36936   1.696   7.376   0.331
 9058WAT      O36937   2.483   7.292   0.892
 9058WAT     H136938   2.418   7.339   0.927
 9058WAT     H236939   2.539   7.283   0.958
 9058WAT    EPW36940   2.482   7.298   0.907
 9059WAT      O36941   2.452   7.446   0.522
 9059WAT     H136942   2.482   7.488   0.592
 9059WAT     H236943   2.455   7.362   0.545
 9059WAT    EPW36944   2.457   7.439   0.536
 9060WAT      O36945   2.036   6.880   0.338
 9060WAT     H136946   1.953   6.865   0.362
 9060WAT     H236947   2.032   6.884   0.251
 9060WAT    EPW36948   2.023   6.879   0.328
 9061WAT      O36949   1.292   6.920   0.941
 9061WAT     H136950   1.278   7.000   0.908
 9061WAT     H236951   1.214   6.896   0.970
 9061WAT    EPW36952   1.279   6.928   0.941
 9062WAT      O36953   3.067   7.510   0.909
 9062WAT     H136954   2.981   7.498   0.921
 9062WAT     H236955   3.082   7.470   0.832
 9062WAT    EPW36956   3.056   7.502   0.899
 9063WAT      O36957   2.518   7.576   0.766
 9063WAT     H136958   2.492   7.504   0.808
 9063WAT     H236959   2.600   7.588   0.793
 9063WAT    EPW36960   2.526   7.567   0.776
 9064WAT      O36961   2.311   7.695   1.085
 9064WAT     H136962   2.344   7.764   1.042
 9064WAT     H236963   2.241   7.728   1.125
 9064WAT    EPW36964   2.306   7.710   1.084
 9065WAT      O36965   1.597   7.396   0.705
 9065WAT     H136966   1.634   7.457   0.657
 9065WAT     H236967   1.664   7.348   0.734
 9065WAT    EPW36968   1.612   7.398   0.702
 9066WAT      O36969   1.374   7.240   0.633
 9066WAT     H136970   1.382   7.223   0.548
 9066WAT     H236971   1.449   7.281   0.653
 9066WAT    EPW36972   1.386   7.244   0.623
 9067WAT      O36973   1.629   6.981   0.874
 9067WAT     H136974   1.621   6.897   0.895
 9067WAT     H236975   1.598   6.986   0.793
 9067WAT    EPW36976   1.624   6.970   0.865
 9068WAT      O36977   2.840   7.519   0.613
 9068WAT     H136978   2.840   7.433   0.625
 9068WAT     H236979   2.847   7.551   0.693
 9068WAT    EPW36980   2.841   7.511   0.626
 9069WAT      O36981   1.314   7.763   0.655
 9069WAT     H136982   1.346   7.785   0.577
 9069WAT     H236983   1.304   7.676   0.650
 9069WAT    EPW36984   1.317   7.753   0.643
 9070WAT      O36985   2.428   6.999   0.991
 9070WAT     H136986   2.437   7.070   1.040
 9070WAT     H236987   2.364   6.954   1.030
 9070WAT    EPW36988   2.420   7.003   1.004
 9071WAT      O36989   2.687   7.070   0.356
 9071WAT     H136990   2.773   7.079   0.371
 9071WAT     H236991   2.650   7.125   0.413
 9071WAT    EPW36992   2.694   7.079   0.367
 9072WAT      O36993   1.790   7.692   0.794
 9072WAT     H136994   1.750   7.770   0.801
 9072WAT     H236995   1.749   7.655   0.726
 9072WAT    EPW36996   1.778   7.698   0.785
 9073WAT      O36997   1.833   6.990   0.539
 9073WAT     H136998   1.747   6.998   0.547
 9073WAT     H236999   1.855   6.938   0.606
 9073WAT    EPW37000   1.823   6.984   0.550
 9074WAT      O37001   3.035   6.853   0.672
 9074WAT     H137002   3.030   6.849   0.759
 9074WAT     H237003   3.103   6.803   0.653
 9074WAT    EPW37004   3.044   6.845   0.682
 9075WAT      O37005   2.243   7.065   0.376
 9075WAT     H137006   2.170   7.019   0.388
 9075WAT     H237007   2.300   7.024   0.429
 9075WAT    EPW37008   2.241   7.052   0.386
 9076WAT      O37009   1.994   7.498   0.897
 9076WAT     H137010   1.961   7.440   0.840
 9076WAT     H237011   1.958   7.573   0.872
 9076WAT    EPW37012   1.984   7.500   0.885
 9077WAT      O37013   1.555   6.998   0.604
 9077WAT     H137014   1.521   6.921   0.580
 9077WAT     H237015   1.485   7.051   0.610
 9077WAT    EPW37016   1.540   6.995   0.601
 9078WAT      O37017   2.460   6.884   0.301
 9078WAT     H137018   2.527   6.938   0.314
 9078WAT     H237019   2.409   6.926   0.244
 9078WAT    EPW37020   2.462   6.898   0.295
 9079WAT      O37021   2.920   7.785   1.022
 9079WAT     H137022   2.983   7.768   1.079
 9079WAT     H237023   2.962   7.825   0.957
 9079WAT    EPW37024   2.935   7.788   1.021
 9080WAT      O37025   2.982   7.241   1.096
 9080WAT     H137026   2.963   7.306   1.151
 9080WAT     H237027   2.910   7.192   1.095
 9080WAT    EPW37028   2.969   7.244   1.104
 9081WAT      O37029   2.972   7.335   0.393
 9081WAT     H137030   2.889   7.360   0.386
 9081WAT     H237031   2.967   7.251   0.416
 9081WAT    EPW37032   2.959   7.327   0.395
 9082WAT      O37033   1.898   7.034   0.912
 9082WAT     H137034   1.922   6.977   0.851
 9082WAT     H237035   1.814   7.016   0.926
 9082WAT    EPW37036   1.889   7.023   0.905
 9083WAT      O37037   2.661   7.796   1.157
 9083WAT     H137038   2.748   7.792   1.154
 9083WAT     H237039   2.639   7.838   1.084
 9083WAT    EPW37040   2.671   7.802   1.146
 9084WAT      O37041   2.337   5.007   7.451
 9084WAT     H137042   2.313   5.056   7.383
 9084WAT     H237043   2.424   4.999   7.441
 9084WAT    EPW37044   2.346   5.013   7.439
 9085WAT      O37045   1.305   6.112   7.464
 9085WAT     H137046   1.261   6.124   7.538
 9085WAT     H237047   1.277   6.035   7.435
 9085WAT    EPW37048   1.294   6.103   7.470
 9086WAT      O37049   2.933   6.442   7.215
 9086WAT     H137050   3.003   6.391   7.215
 9086WAT     H237051   2.874   6.398   7.168
 9086WAT    EPW37052   2.934   6.428   7.208
 9087WAT      O37053   1.279   5.492   7.114
 9087WAT     H137054   1.202   5.508   7.078
 9087WAT     H237055   1.283   5.404   7.116
 9087WAT    EPW37056   1.269   5.481   7.109
 9088WAT      O37057   1.593   6.018   6.981
 9088WAT     H137058   1.554   5.981   6.913
 9088WAT     H237059   1.585   5.958   7.044
 9088WAT    EPW37060   1.586   6.004   6.981
 9089WAT      O37061   2.585   5.805   7.586
 9089WAT     H137062   2.593   5.805   7.499
 9089WAT     H237063   2.527   5.742   7.600
 9089WAT    EPW37064   2.578   5.796   7.575
 9090WAT      O37065   1.556   6.182   7.371
 9090WAT     H137066   1.617   6.165   7.432
 9090WAT     H237067   1.481   6.168   7.414
 9090WAT    EPW37068   1.554   6.177   7.387
 9091WAT      O37069   1.984   5.115   7.366
 9091WAT     H137070   1.977   5.183   7.312
 9091WAT     H237071   2.058   5.077   7.341
 9091WAT    EPW37072   1.994   5.120   7.355
 9092WAT      O37073   1.445   6.491   6.979
 9092WAT     H137074   1.492   6.499   6.906
 9092WAT     H237075   1.491   6.433   7.026
 9092WAT    EPW37076   1.459   6.484   6.975
 9093WAT      O37077   1.444   5.838   7.509
 9093WAT     H137078   1.398   5.799   7.447
 9093WAT     H237079   1.514   5.787   7.518
 9093WAT    EPW37080   1.447   5.825   7.501
 9094WAT      O37081   1.644   5.648   7.512
 9094WAT     H137082   1.726   5.629   7.536
 9094WAT     H237083   1.596   5.587   7.551
 9094WAT    EPW37084   1.649   5.636   7.521
 9095WAT      O37085   2.064   6.246   7.773
 9095WAT     H137086   2.099   6.166   7.776
 9095WAT     H237087   2.131   6.296   7.747
 9095WAT    EPW37088   2.079   6.242   7.769
 9096WAT      O37089   2.070   6.191   7.394
 9096WAT     H137090   2.103   6.127   7.442
 9096WAT     H237091   2.094   6.170   7.313
 9096WAT    EPW37092   2.078   6.178   7.389
 9097WAT      O37093   1.704   5.157   7.438
 9097WAT     H137094   1.674   5.207   7.373
 9097WAT     H237095   1.790   5.165   7.432
 9097WAT    EPW37096   1.712   5.166   7.428
 9098WAT      O37097   2.001   5.072   7.660
 9098WAT     H137098   2.009   5.158   7.673
 9098WAT     H237099   1.998   5.064   7.574
 9098WAT    EPW37100   2.002   5.083   7.650
 9099WAT      O37101   2.469   5.364   6.890
 9099WAT     H137102   2.424   5.432   6.921
 9099WAT     H237103   2.480   5.314   6.961
 9099WAT    EPW37104   2.464   5.367   6.905
 9100WAT      O37105   1.289   5.614   7.811
 9100WAT     H137106   1.264   5.697   7.803
 9100WAT     H237107   1.223   5.576   7.852
 9100WAT    EPW37108   1.276   5.621   7.816
 9101WAT      O37109   1.280   6.585   7.601
 9101WAT     H137110   1.221   6.641   7.569
 9101WAT     H237111   1.323   6.558   7.529
 9101WAT    EPW37112   1.278   6.589   7.585
 9102WAT      O37113   1.864   6.369   7.349
 9102WAT     H137114   1.806   6.342   7.408
 9102WAT     H237115   1.927   6.309   7.351
 9102WAT    EPW37116   1.865   6.356   7.358
 9103WAT      O37117   2.479   6.598   7.101
 9103WAT     H137118   2.551   6.645   7.111
 9103WAT     H237119   2.502   6.519   7.129
 9103WAT    EPW37120   2.493   6.594   7.106
 9104WAT      O37121   2.295   6.637   7.300
 9104WAT     H137122   2.317   6.690   7.366
 9104WAT     H237123   2.372   6.620   7.262
 9104WAT    EPW37124   2.310   6.643   7.304
 9105WAT      O37125   1.435   6.452   7.394
 9105WAT     H137126   1.500   6.395   7.395
 9105WAT     H237127   1.474   6.527   7.372
 9105WAT    EPW37128   1.450   6.455   7.391
 9106WAT      O37129   3.008   5.361   7.520
 9106WAT     H137130   2.974   5.429   7.562
 9106WAT     H237131   2.945   5.302   7.521
 9106WAT    EPW37132   2.994   5.363   7.526
 9107WAT      O37133   1.517   6.301   7.744
 9107WAT     H137134   1.559   6.265   7.676
 9107WAT     H237135   1.549   6.259   7.813
 9107WAT    EPW37136   1.528   6.289   7.744
 9108WAT      O37137   1.840   6.586   7.673
 9108WAT     H137138   1.924   6.596   7.654
 9108WAT     H237139   1.810   6.668   7.680
 9108WAT    EPW37140   1.848   6.600   7.671
 9109WAT      O37141   2.220   5.526   7.482
 9109WAT     H137142   2.249   5.502   7.403
 9109WAT     H237143   2.294   5.534   7.529
 9109WAT    EPW37144   2.235   5.523   7.477
 9110WAT      O37145   2.293   5.560   6.994
 9110WAT     H137146   2.321   5.638   7.019
 9110WAT     H237147   2.215   5.576   6.958
 9110WAT    EPW37148   2.285   5.574   6.992
 9111WAT      O37149   2.697   6.757   7.141
 9111WAT     H137150   2.763   6.742   7.086
 9111WAT     H237151   2.733   6.749   7.220
 9111WAT    EPW37152   2.712   6.754   7.144
 9112WAT      O37153   2.179   6.377   6.976
 9112WAT     H137154   2.160   6.431   7.041
 9112WAT     H237155   2.255   6.406   6.946
 9112WAT    EPW37156   2.187   6.389   6.981
 9113WAT      O37157   2.529   5.166   7.081
 9113WAT     H137158   2.583   5.098   7.089
 9113WAT     H237159   2.535   5.206   7.158
 9113WAT    EPW37160   2.538   5.162   7.094
 9114WAT      O37161   1.325   5.283   7.338
 9114WAT     H137162   1.313   5.197   7.341
 9114WAT     H237163   1.277   5.312   7.405
 9114WAT    EPW37164   1.316   5.275   7.348
 9115WAT      O37165   2.255   5.404   7.212
 9115WAT     H137166   2.204   5.338   7.187
 9115WAT     H237167   2.260   5.454   7.141
 9115WAT    EPW37168   2.248   5.402   7.198
 9116WAT      O37169   2.255   5.098   7.202
 9116WAT     H137170   2.210   5.058   7.139
 9116WAT     H237171   2.332   5.113   7.164
 9116WAT    EPW37172   2.260   5.094   7.187
 9117WAT      O37173   2.938   6.734   7.541
 9117WAT     H137174   2.892   6.805   7.561
 9117WAT     H237175   2.876   6.677   7.516
 9117WAT    EPW37176   2.922   6.736   7.540
 9118WAT      O37177   2.115   5.335   7.654
 9118WAT     H137178   2.122   5.391   7.588
 9118WAT     H237179   2.127   5.384   7.725
 9118WAT    EPW37180   2.118   5.350   7.655
 9119WAT      O37181   2.637   6.318   7.495
 9119WAT     H137182   2.707   6.270   7.514
 9119WAT     H237183   2.571   6.261   7.499
 9119WAT    EPW37184   2.638   6.303   7.498
 9120WAT      O37185   1.576   4.917   7.489
 9120WAT     H137186   1.629   4.986   7.488
 9120WAT     H237187   1.576   4.890   7.406
 9120WAT    EPW37188   1.584   4.923   7.476
 9121WAT      O37189   2.620   4.946   7.526
 9121WAT     H137190   2.625   4.914   7.607
 9121WAT     H237191   2.652   4.882   7.477
 9121WAT    EPW37192   2.625   4.932   7.531
 9122WAT      O37193   1.620   5.298   7.654
 9122WAT     H137194   1.648   5.255   7.583
 9122WAT     H237195   1.603   5.234   7.711
 9122WAT    EPW37196   1.622   5.282   7.652
 9123WAT      O37197   2.889   6.067   7.076
 9123WAT     H137198   2.901   6.039   7.157
 9123WAT     H237199   2.970   6.070   7.043
 9123WAT    EPW37200   2.903   6.064   7.083
 9124WAT      O37201   1.603   6.041   7.609
 9124WAT     H137202   1.688   6.033   7.592
 9124WAT     H237203   1.567   5.972   7.568
 9124WAT    EPW37204   1.610   6.029   7.600
 9125WAT      O37205   1.480   6.713   7.733
 9125WAT     H137206   1.412   6.663   7.708
 9125WAT     H237207   1.520   6.732   7.657
 9125WAT    EPW37208   1.476   6.709   7.718
 9126WAT      O37209   2.679   5.721   7.034
 9126WAT     H137210   2.657   5.794   6.992
 9126WAT     H237211   2.634   5.726   7.109
 9126WAT    EPW37212   2.669   5.733   7.039
 9127WAT      O37213   1.840   6.041   7.432
 9127WAT     H137214   1.911   6.091   7.441
 9127WAT     H237215   1.862   5.985   7.370
 9127WAT    EPW37216   1.853   6.040   7.424
 9128WAT      O37217   3.097   5.207   6.980
 9128WAT     H137218   3.031   5.150   6.982
 9128WAT     H237219   3.078   5.258   6.912
 9128WAT    EPW37220   3.085   5.206   6.970
 9129WAT      O37221   1.255   6.206   7.764
 9129WAT     H137222   1.189   6.254   7.792
 9129WAT     H237223   1.323   6.260   7.767
 9129WAT    EPW37224   1.255   6.221   7.769
 9130WAT      O37225   1.262   5.874   7.275
 9130WAT     H137226   1.243   5.790   7.290
 9130WAT     H237227   1.328   5.870   7.218
 9130WAT    EPW37228   1.269   5.861   7.268
 9131WAT      O37229   2.898   5.163   7.207
 9131WAT     H137230   2.972   5.122   7.227
 9131WAT     H237231   2.924   5.235   7.165
 9131WAT    EPW37232   2.913   5.168   7.204
 9132WAT      O37233   2.292   6.412   7.665
 9132WAT     H137234   2.240   6.475   7.636
 9132WAT     H237235   2.323   6.375   7.592
 9132WAT    EPW37236   2.289   6.416   7.650
 9133WAT      O37237   1.279   6.290   7.232
 9133WAT     H137238   1.334   6.347   7.269
 9133WAT     H237239   1.256   6.239   7.299
 9133WAT    EPW37240   1.284   6.291   7.247
 9134WAT      O37241   2.543   5.392   7.715
 9134WAT     H137242   2.577   5.407   7.793
 9134WAT     H237243   2.498   5.318   7.726
 9134WAT    EPW37244   2.541   5.383   7.728
 9135WAT      O37245   1.262   6.135   6.995
 9135WAT     H137246   1.338   6.092   7.001
 9135WAT     H237247   1.264   6.189   7.064
 9135WAT    EPW37248   1.273   6.137   7.006
 9136WAT      O37249   1.356   5.957   7.795
 9136WAT     H137250   1.399   5.945   7.721
 9136WAT     H237251   1.336   6.042   7.793
 9136WAT    EPW37252   1.359   5.968   7.784
 9137WAT      O37253   1.991   5.314   7.160
 9137WAT     H137254   1.990   5.302   7.074
 9137WAT     H237255   1.973   5.399   7.170
 9137WAT    EPW37256   1.988   5.325   7.149
 9138WAT      O37257   1.764   6.309   7.624
 9138WAT     H137258   1.777   6.393   7.642
 9138WAT     H237259   1.831   6.269   7.663
 9138WAT    EPW37260   1.776   6.316   7.632
 9139WAT      O37261   1.626   5.597   7.124
 9139WAT     H137262   1.613   5.552   7.198
 9139WAT     H237263   1.568   5.563   7.069
 9139WAT    EPW37264   1.615   5.585   7.127
 9140WAT      O37265   1.643   5.780   7.784
 9140WAT     H137266   1.565   5.774   7.745
 9140WAT     H237267   1.650   5.705   7.827
 9140WAT    EPW37268   1.632   5.768   7.785
 9141WAT      O37269   2.494   5.322   7.321
 9141WAT     H137270   2.543   5.394   7.314
 9141WAT     H237271   2.415   5.348   7.295
 9141WAT    EPW37272   2.490   5.336   7.316
 9142WAT      O37273   2.372   5.786   7.121
 9142WAT     H137274   2.371   5.858   7.072
 9142WAT     H237275   2.308   5.799   7.179
 9142WAT    EPW37276   2.362   5.799   7.122
 9143WAT      O37277   2.869   6.173   7.519
 9143WAT     H137278   2.904   6.138   7.591
 9143WAT     H237279   2.868   6.107   7.462
 9143WAT    EPW37280   2.874   6.158   7.521
 9144WAT      O37281   2.475   6.165   7.844
 9144WAT     H137282   2.395   6.187   7.871
 9144WAT     H237283   2.500   6.105   7.902
 9144WAT    EPW37284   2.467   6.159   7.856
 9145WAT      O37285   1.864   6.646   7.288
 9145WAT     H137286   1.849   6.568   7.326
 9145WAT     H237287   1.933   6.631   7.237
 9145WAT    EPW37288   1.872   6.632   7.286
 9146WAT      O37289   1.831   5.020   7.087
 9146WAT     H137290   1.841   5.009   7.173
 9146WAT     H237291   1.760   5.071   7.081
 9146WAT    EPW37292   1.822   5.026   7.099
 9147WAT      O37293   2.093   6.597   7.129
 9147WAT     H137294   2.155   6.614   7.188
 9147WAT     H237295   2.097   6.666   7.075
 9147WAT    EPW37296   2.103   6.610   7.130
 9148WAT      O37297   1.543   5.851   7.212
 9148WAT     H137298   1.575   5.773   7.189
 9148WAT     H237299   1.608   5.888   7.257
 9148WAT    EPW37300   1.557   5.845   7.215
 9149WAT      O37301   1.243   5.017   7.308
 9149WAT     H137302   1.256   4.946   7.259
 9149WAT     H237303   1.206   4.985   7.381
 9149WAT    EPW37304   1.239   5.002   7.312
 9150WAT      O37305   2.212   5.785   7.354
 9150WAT     H137306   2.218   5.850   7.412
 9150WAT     H237307   2.193   5.715   7.403
 9150WAT    EPW37308   2.210   5.784   7.370
 9151WAT      O37309   1.662   5.237   7.005
 9151WAT     H137310   1.611   5.242   6.935
 9151WAT     H237311   1.740   5.261   6.976
 9151WAT    EPW37312   1.666   5.241   6.990
 9152WAT      O37313   2.134   5.990   7.797
 9152WAT     H137314   2.050   5.970   7.805
 9152WAT     H237315   2.167   5.973   7.876
 9152WAT    EPW37316   2.127   5.984   7.810
 9153WAT      O37317   1.810   6.663   6.886
 9153WAT     H137318   1.853   6.593   6.915
 9153WAT     H237319   1.830   6.725   6.943
 9153WAT    EPW37320   1.819   6.662   6.898
 9154WAT      O37321   1.842   5.476   7.702
 9154WAT     H137322   1.927   5.457   7.712
 9154WAT     H237323   1.805   5.398   7.688
 9154WAT    EPW37324   1.849   5.462   7.702
 9155WAT      O37325   3.104   6.634   7.135
 9155WAT     H137326   3.173   6.588   7.110
 9155WAT     H237327   3.050   6.575   7.169
 9155WAT    EPW37328   3.106   6.619   7.136
 9156WAT      O37329   1.324   5.610   7.368
 9156WAT     H137330   1.373   5.581   7.434
 9156WAT     H237331   1.337   5.551   7.305
 9156WAT    EPW37332   1.333   5.597   7.368
 9157WAT      O37333   1.777   5.753   6.916
 9157WAT     H137334   1.716   5.713   6.964
 9157WAT     H237335   1.738   5.765   6.839
 9157WAT    EPW37336   1.762   5.749   6.912
 9158WAT      O37337   2.953   5.919   7.797
 9158WAT     H137338   2.925   5.959   7.869
 9158WAT     H237339   3.039   5.913   7.809
 9158WAT    EPW37340   2.962   5.924   7.809
 9159WAT      O37341   1.922   5.599   7.187
 9159WAT     H137342   1.949   5.682   7.194
 9159WAT     H237343   1.836   5.607   7.178
 9159WAT    EPW37344   1.914   5.613   7.187
 9160WAT      O37345   1.270   5.196   7.841
 9160WAT     H137346   1.275   5.231   7.761
 9160WAT     H237347   1.346   5.220   7.878
 9160WAT    EPW37348   1.282   5.205   7.835
 9161WAT      O37349   3.066   6.482   7.849
 9161WAT     H137350   3.095   6.508   7.771
 9161WAT     H237351   3.136   6.492   7.901
 9161WAT    EPW37352   3.081   6.488   7.846
 9162WAT      O37353   2.727   6.343   7.048
 9162WAT     H137354   2.760   6.262   7.051
 9162WAT     H237355   2.651   6.336   7.091
 9162WAT    EPW37356   2.721   6.330   7.055
 9163WAT      O37357   2.775   5.526   7.614
 9163WAT     H137358   2.701   5.494   7.645
 9163WAT     H237359   2.775   5.609   7.642
 9163WAT    EPW37360   2.764   5.534   7.622
 9164WAT      O37361   2.464   6.130   6.988
 9164WAT     H137362   2.533   6.079   6.971
 9164WAT     H237363   2.423   6.135   6.911
 9164WAT    EPW37364   2.468   6.123   6.974
 9165WAT      O37365   2.111   6.627   7.590
 9165WAT     H137366   2.165   6.695   7.596
 9165WAT     H237367   2.076   6.635   7.511
 9165WAT    EPW37368   2.113   6.638   7.579
 9166WAT      O37369   2.937   5.583   7.012
 9166WAT     H137370   2.975   5.650   6.972
 9166WAT     H237371   2.853   5.605   7.015
 9166WAT    EPW37372   2.930   5.596   7.007
 9167WAT      O37373   2.088   5.927   6.921
 9167WAT     H137374   2.008   5.910   6.892
 9167WAT     H237375   2.085   6.012   6.940
 9167WAT    EPW37376   2.076   5.937   6.919
 9168WAT      O37377   2.706   5.543   7.350
 9168WAT     H137378   2.727   5.522   7.432
 9168WAT     H237379   2.782   5.569   7.316
 9168WAT    EPW37380   2.721   5.544   7.357
 9169WAT      O37381   2.809   5.151   7.497
 9169WAT     H137382   2.737   5.104   7.514
 9169WAT     H237383   2.792   5.185   7.419
 9169WAT    EPW37384   2.796   5.149   7.488
 9170WAT      O37385   2.853   5.945   7.335
 9170WAT     H137386   2.901   5.872   7.330
 9170WAT     H237387   2.771   5.917   7.328
 9170WAT    EPW37388   2.848   5.930   7.333
 9171WAT      O37389   1.599   5.347   7.266
 9171WAT     H137390   1.611   5.314   7.187
 9171WAT     H237391   1.518   5.322   7.286
 9171WAT    EPW37392   1.589   5.338   7.258
 9172WAT      O37393   2.475   6.062   7.571
 9172WAT     H137394   2.482   6.096   7.651
 9172WAT     H237395   2.491   5.977   7.583
 9172WAT    EPW37396   2.478   6.054   7.584
 9173WAT      O37397   2.227   5.989   7.527
 9173WAT     H137398   2.197   5.958   7.603
 9173WAT     H237399   2.296   6.037   7.551
 9173WAT    EPW37400   2.233   5.992   7.542
 9174WAT      O37401   2.620   6.685   7.780
 9174WAT     H137402   2.575   6.749   7.818
 9174WAT     H237403   2.690   6.677   7.831
 9174WAT    EPW37404   2.623   6.693   7.793
 9175WAT      O37405   2.930   5.657   7.279
 9175WAT     H137406   2.940   5.651   7.193
 9175WAT     H237407   3.004   5.623   7.311
 9175WAT    EPW37408   2.942   5.651   7.271
 9176WAT      O37409   2.322   6.353   7.390
 9176WAT     H137410   2.301   6.436   7.374
 9176WAT     H237411   2.244   6.315   7.402
 9176WAT    EPW37412   2.307   6.360   7.390
 9177WAT      O37413   1.459   5.509   6.920
 9177WAT     H137414   1.392   5.510   6.975
 9177WAT     H237415   1.469   5.424   6.901
 9177WAT    EPW37416   1.451   5.496   6.925
 9178WAT      O37417   2.327   5.170   7.679
 9178WAT     H137418   2.257   5.222   7.673
 9178WAT     H237419   2.331   5.132   7.600
 9178WAT    EPW37420   2.318   5.172   7.666
 9179WAT      O37421   1.858   6.379   7.031
 9179WAT     H137422   1.902   6.387   7.106
 9179WAT     H237423   1.778   6.358   7.057
 9179WAT    EPW37424   1.853   6.377   7.046
 9180WAT      O37425   2.718   5.750   7.808
 9180WAT     H137426   2.784   5.804   7.824
 9180WAT     H237427   2.683   5.781   7.734
 9180WAT    EPW37428   2.722   5.762   7.799
 9181WAT      O37429   2.749   6.556   7.388
 9181WAT     H137430   2.732   6.491   7.443
 9181WAT     H237431   2.820   6.529   7.346
 9181WAT    EPW37432   2.757   6.543   7.390
 9182WAT      O37433   1.591   6.286   7.091
 9182WAT     H137434   1.567   6.256   7.169
 9182WAT     H237435   1.588   6.216   7.040
 9182WAT    EPW37436   1.587   6.271   7.095
 9183WAT      O37437   1.873   6.111   6.965
 9183WAT     H137438   1.791   6.084   6.979
 9183WAT     H237439   1.870   6.196   6.984
 9183WAT    EPW37440   1.860   6.119   6.970
 9184WAT      O37441   2.073   4.975   6.962
 9184WAT     H137442   2.081   5.000   6.879
 9184WAT     H237443   1.999   5.013   6.988
 9184WAT    EPW37444   2.063   4.984   6.953
 9185WAT      O37445   2.395   5.617   7.653
 9185WAT     H137446   2.451   5.556   7.683
 9185WAT     H237447   2.353   5.643   7.725
 9185WAT    EPW37448   2.397   5.612   7.668
 9186WAT      O37449   1.420   5.482   7.602
 9186WAT     H137450   1.383   5.512   7.675
 9186WAT     H237451   1.474   5.419   7.630
 9186WAT    EPW37452   1.423   5.477   7.617
 9187WAT      O37453   2.592   5.800   7.309
 9187WAT     H137454   2.599   5.715   7.327
 9187WAT     H237455   2.510   5.808   7.282
 9187WAT    EPW37456   2.581   5.789   7.308
 9188WAT      O37457   1.568   6.649   7.230
 9188WAT     H137458   1.553   6.665   7.146
 9188WAT     H237459   1.654   6.657   7.238
 9188WAT    EPW37460   1.578   6.653   7.219
 9189WAT      O37461   1.984   5.889   7.203
 9189WAT     H137462   1.994   5.903   7.118
 9189WAT     H237463   2.066   5.883   7.233
 9189WAT    EPW37464   1.998   5.890   7.195
 9190WAT      O37465   2.900   6.695   6.951
 9190WAT     H137466   2.964   6.682   7.009
 9190WAT     H237467   2.866   6.616   6.939
 9190WAT    EPW37468   2.905   6.682   6.958
 9191WAT      O37469   2.508   6.322   7.183
 9191WAT     H137470   2.483   6.309   7.266
 9191WAT     H237471   2.476   6.252   7.141
 9191WAT    EPW37472   2.499   6.310   7.189
 9192WAT      O37473   1.636   6.531   7.878
 9192WAT     H137474   1.628   6.450   7.846
 9192WAT     H237475   1.592   6.579   7.821
 9192WAT    EPW37476   1.629   6.526   7.865
 9193WAT      O37477   2.196   6.143   7.126
 9193WAT     H137478   2.268   6.108   7.091
 9193WAT     H237479   2.193   6.223   7.092
 9193WAT    EPW37480   2.207   6.149   7.116
 9194WAT      O37481   2.337   5.007   5.550
 9194WAT     H137482   2.313   5.056   5.482
 9194WAT     H237483   2.424   4.999   5.540
 9194WAT    EPW37484   2.346   5.013   5.539
 9195WAT      O37485   2.318   5.698   6.017
 9195WAT     H137486   2.266   5.758   6.054
 9195WAT     H237487   2.358   5.662   6.086
 9195WAT    EPW37488   2.316   5.702   6.033
 9196WAT      O37489   1.305   6.112   5.563
 9196WAT     H137490   1.261   6.124   5.637
 9196WAT     H237491   1.277   6.035   5.534
 9196WAT    EPW37492   1.294   6.103   5.570
 9197WAT      O37493   2.933   6.442   5.314
 9197WAT     H137494   3.003   6.391   5.314
 9197WAT     H237495   2.874   6.398   5.267
 9197WAT    EPW37496   2.934   6.428   5.307
 9198WAT      O37497   1.279   5.492   5.214
 9198WAT     H137498   1.202   5.508   5.178
 9198WAT     H237499   1.283   5.404   5.216
 9198WAT    EPW37500   1.269   5.481   5.209
 9199WAT      O37501   1.593   6.018   5.081
 9199WAT     H137502   1.554   5.981   5.012
 9199WAT     H237503   1.585   5.958   5.144
 9199WAT    EPW37504   1.586   6.004   5.080
 9200WAT      O37505   2.585   5.805   5.685
 9200WAT     H137506   2.593   5.805   5.598
 9200WAT     H237507   2.527   5.742   5.700
 9200WAT    EPW37508   2.578   5.796   5.674
 9201WAT      O37509   1.556   6.182   5.471
 9201WAT     H137510   1.617   6.165   5.531
 9201WAT     H237511   1.481   6.168   5.513
 9201WAT    EPW37512   1.554   6.177   5.486
 9202WAT      O37513   1.984   5.115   5.466
 9202WAT     H137514   1.977   5.183   5.411
 9202WAT     H237515   2.058   5.077   5.441
 9202WAT    EPW37516   1.994   5.120   5.454
 9203WAT      O37517   1.445   6.491   5.078
 9203WAT     H137518   1.492   6.499   5.005
 9203WAT     H237519   1.491   6.433   5.125
 9203WAT    EPW37520   1.459   6.484   5.075
 9204WAT      O37521   1.299   6.386   6.188
 9204WAT     H137522   1.312   6.358   6.270
 9204WAT     H237523   1.238   6.332   6.157
 9204WAT    EPW37524   1.292   6.374   6.196
 9205WAT      O37525   1.957   6.138   6.695
 9205WAT     H137526   1.933   6.138   6.779
 9205WAT     H237527   1.882   6.124   6.653
 9205WAT    EPW37528   1.942   6.136   6.701
 9206WAT      O37529   1.444   5.838   5.609
 9206WAT     H137530   1.398   5.799   5.546
 9206WAT     H237531   1.514   5.787   5.618
 9206WAT    EPW37532   1.447   5.825   5.601
 9207WAT      O37533   1.895   5.399   6.143
 9207WAT     H137534   1.962   5.401   6.088
 9207WAT     H237535   1.890   5.315   6.168
 9207WAT    EPW37536   1.904   5.387   6.139
 9208WAT      O37537   1.955   6.458   6.421
 9208WAT     H137538   1.969   6.534   6.381
 9208WAT     H237539   2.034   6.421   6.424
 9208WAT    EPW37540   1.968   6.463   6.416
 9209WAT      O37541   1.644   5.648   5.611
 9209WAT     H137542   1.726   5.629   5.635
 9209WAT     H237543   1.596   5.587   5.650
 9209WAT    EPW37544   1.649   5.636   5.620
 9210WAT      O37545   2.064   6.246   5.872
 9210WAT     H137546   2.099   6.166   5.875
 9210WAT     H237547   2.131   6.296   5.846
 9210WAT    EPW37548   2.079   6.242   5.869
 9211WAT      O37549   2.070   6.191   5.493
 9211WAT     H137550   2.103   6.127   5.542
 9211WAT     H237551   2.094   6.170   5.412
 9211WAT    EPW37552   2.078   6.178   5.488
 9212WAT      O37553   2.267   5.604   6.627
 9212WAT     H137554   2.182   5.594   6.609
 9212WAT     H237555   2.270   5.679   6.672
 9212WAT    EPW37556   2.255   5.614   6.631
 9213WAT      O37557   1.704   5.157   5.537
 9213WAT     H137558   1.674   5.207   5.472
 9213WAT     H237559   1.790   5.165   5.532
 9213WAT    EPW37560   1.712   5.166   5.527
 9214WAT      O37561   2.723   4.900   6.538
 9214WAT     H137562   2.707   4.977   6.500
 9214WAT     H237563   2.645   4.878   6.573
 9214WAT    EPW37564   2.709   4.908   6.538
 9215WAT      O37565   2.001   5.072   5.760
 9215WAT     H137566   2.009   5.158   5.773
 9215WAT     H237567   1.998   5.064   5.673
 9215WAT    EPW37568   2.002   5.083   5.749
 9216WAT      O37569   2.469   5.364   4.990
 9216WAT     H137570   2.424   5.432   5.020
 9216WAT     H237571   2.480   5.314   5.060
 9216WAT    EPW37572   2.464   5.367   5.005
 9217WAT      O37573   1.289   5.614   5.910
 9217WAT     H137574   1.264   5.697   5.902
 9217WAT     H237575   1.223   5.576   5.952
 9217WAT    EPW37576   1.276   5.621   5.915
 9218WAT      O37577   1.280   6.585   5.700
 9218WAT     H137578   1.221   6.641   5.669
 9218WAT     H237579   1.323   6.558   5.629
 9218WAT    EPW37580   1.278   6.589   5.685
 9219WAT      O37581   1.864   6.369   5.448
 9219WAT     H137582   1.806   6.342   5.507
 9219WAT     H237583   1.927   6.309   5.450
 9219WAT    EPW37584   1.865   6.356   5.457
 9220WAT      O37585   2.479   6.598   5.200
 9220WAT     H137586   2.551   6.645   5.210
 9220WAT     H237587   2.502   6.519   5.228
 9220WAT    EPW37588   2.493   6.594   5.206
 9221WAT      O37589   2.295   6.637   5.399
 9221WAT     H137590   2.317   6.690   5.465
 9221WAT     H237591   2.372   6.620   5.361
 9221WAT    EPW37592   2.310   6.643   5.403
 9222WAT      O37593   1.592   5.096   5.959
 9222WAT     H137594   1.540   5.033   5.928
 9222WAT     H237595   1.651   5.052   6.006
 9222WAT    EPW37596   1.593   5.080   5.961
 9223WAT      O37597   1.923   5.309   6.889
 9223WAT     H137598   1.935   5.264   6.815
 9223WAT     H237599   1.952   5.389   6.868
 9223WAT    EPW37600   1.929   5.314   6.875
 9224WAT      O37601   1.435   6.452   5.493
 9224WAT     H137602   1.500   6.395   5.494
 9224WAT     H237603   1.474   6.527   5.471
 9224WAT    EPW37604   1.450   6.455   5.490
 9225WAT      O37605   3.008   5.361   5.619
 9225WAT     H137606   2.974   5.429   5.662
 9225WAT     H237607   2.945   5.302   5.621
 9225WAT    EPW37608   2.994   5.363   5.626
 9226WAT      O37609   2.539   6.638   6.230
 9226WAT     H137610   2.614   6.684   6.229
 9226WAT     H237611   2.527   6.617   6.146
 9226WAT    EPW37612   2.549   6.642   6.217
 9227WAT      O37613   1.496   5.269   6.787
 9227WAT     H137614   1.418   5.230   6.780
 9227WAT     H237615   1.545   5.228   6.728
 9227WAT    EPW37616   1.492   5.257   6.777
 9228WAT      O37617   1.517   6.301   5.843
 9228WAT     H137618   1.559   6.265   5.776
 9228WAT     H237619   1.549   6.259   5.912
 9228WAT    EPW37620   1.528   6.289   5.843
 9229WAT      O37621   1.840   6.586   5.773
 9229WAT     H137622   1.924   6.596   5.753
 9229WAT     H237623   1.810   6.668   5.779
 9229WAT    EPW37624   1.848   6.600   5.771
 9230WAT      O37625   2.161   5.033   6.704
 9230WAT     H137626   2.179   4.952   6.676
 9230WAT     H237627   2.147   5.077   6.630
 9230WAT    EPW37628   2.162   5.028   6.689
 9231WAT      O37629   2.220   5.526   5.581
 9231WAT     H137630   2.249   5.502   5.502
 9231WAT     H237631   2.294   5.534   5.628
 9231WAT    EPW37632   2.235   5.523   5.577
 9232WAT      O37633   2.293   5.560   5.093
 9232WAT     H137634   2.321   5.638   5.118
 9232WAT     H237635   2.215   5.576   5.057
 9232WAT    EPW37636   2.285   5.574   5.092
 9233WAT      O37637   2.697   6.757   5.240
 9233WAT     H137638   2.763   6.742   5.186
 9233WAT     H237639   2.733   6.749   5.319
 9233WAT    EPW37640   2.712   6.754   5.244
 9234WAT      O37641   1.740   6.708   6.347
 9234WAT     H137642   1.769   6.701   6.429
 9234WAT     H237643   1.677   6.647   6.342
 9234WAT    EPW37644   1.735   6.698   6.358
 9235WAT      O37645   2.976   5.194   6.156
 9235WAT     H137646   3.051   5.201   6.113
 9235WAT     H237647   2.982   5.116   6.196
 9235WAT    EPW37648   2.988   5.183   6.156
 9236WAT      O37649   1.231   5.324   6.546
 9236WAT     H137650   1.231   5.382   6.610
 9236WAT     H237651   1.290   5.355   6.490
 9236WAT    EPW37652   1.240   5.337   6.547
 9237WAT      O37653   2.465   6.357   6.600
 9237WAT     H137654   2.461   6.395   6.678
 9237WAT     H237655   2.550   6.353   6.583
 9237WAT    EPW37656   2.477   6.362   6.609
 9238WAT      O37657   2.179   6.377   5.075
 9238WAT     H137658   2.160   6.431   5.141
 9238WAT     H237659   2.255   6.406   5.045
 9238WAT    EPW37660   2.187   6.389   5.080
 9239WAT      O37661   2.529   5.166   5.180
 9239WAT     H137662   2.583   5.098   5.188
 9239WAT     H237663   2.535   5.206   5.258
 9239WAT    EPW37664   2.538   5.162   5.193
 9240WAT      O37665   1.325   5.283   5.437
 9240WAT     H137666   1.313   5.197   5.440
 9240WAT     H237667   1.277   5.312   5.504
 9240WAT    EPW37668   1.316   5.275   5.448
 9241WAT      O37669   1.539   6.524   6.259
 9241WAT     H137670   1.469   6.473   6.271
 9241WAT     H237671   1.565   6.504   6.178
 9241WAT    EPW37672   1.532   6.514   6.249
 9242WAT      O37673   2.255   5.404   5.312
 9242WAT     H137674   2.204   5.338   5.286
 9242WAT     H237675   2.260   5.454   5.241
 9242WAT    EPW37676   2.248   5.402   5.298
 9243WAT      O37677   2.310   6.673   6.350
 9243WAT     H137678   2.387   6.665   6.309
 9243WAT     H237679   2.252   6.661   6.286
 9243WAT    EPW37680   2.313   6.670   6.334
 9244WAT      O37681   2.255   5.098   5.301
 9244WAT     H137682   2.210   5.058   5.238
 9244WAT     H237683   2.332   5.113   5.263
 9244WAT    EPW37684   2.260   5.094   5.286
 9245WAT      O37685   2.938   6.734   5.640
 9245WAT     H137686   2.892   6.805   5.660
 9245WAT     H237687   2.876   6.677   5.616
 9245WAT    EPW37688   2.922   6.736   5.639
 9246WAT      O37689   2.115   5.335   5.753
 9246WAT     H137690   2.122   5.391   5.687
 9246WAT     H237691   2.127   5.384   5.824
 9246WAT    EPW37692   2.118   5.350   5.754
 9247WAT      O37693   2.637   6.318   5.594
 9247WAT     H137694   2.707   6.270   5.613
 9247WAT     H237695   2.571   6.261   5.599
 9247WAT    EPW37696   2.638   6.303   5.598
 9248WAT      O37697   1.675   6.409   6.515
 9248WAT     H137698   1.759   6.415   6.493
 9248WAT     H237699   1.671   6.449   6.593
 9248WAT    EPW37700   1.687   6.416   6.524
 9249WAT      O37701   1.576   4.917   5.588
 9249WAT     H137702   1.629   4.986   5.587
 9249WAT     H237703   1.576   4.890   5.505
 9249WAT    EPW37704   1.584   4.923   5.575
 9250WAT      O37705   1.871   5.960   5.990
 9250WAT     H137706   1.888   5.939   6.073
 9250WAT     H237707   1.806   5.907   5.969
 9250WAT    EPW37708   1.864   5.949   5.999
 9251WAT      O37709   2.494   5.352   6.342
 9251WAT     H137710   2.485   5.384   6.422
 9251WAT     H237711   2.435   5.288   6.338
 9251WAT    EPW37712   2.484   5.347   6.353
 9252WAT      O37713   1.946   5.954   6.249
 9252WAT     H137714   1.952   6.039   6.270
 9252WAT     H237715   1.918   5.917   6.323
 9252WAT    EPW37716   1.943   5.961   6.263
 9253WAT      O37717   2.564   6.024   6.162
 9253WAT     H137718   2.513   5.982   6.219
 9253WAT     H237719   2.551   6.108   6.180
 9253WAT    EPW37720   2.555   6.030   6.173
 9254WAT      O37721   2.620   4.946   5.625
 9254WAT     H137722   2.625   4.914   5.707
 9254WAT     H237723   2.652   4.882   5.576
 9254WAT    EPW37724   2.625   4.932   5.630
 9255WAT      O37725   1.228   6.391   6.870
 9255WAT     H137726   1.304   6.426   6.896
 9255WAT     H237727   1.246   6.306   6.865
 9255WAT    EPW37728   1.242   6.384   6.873
 9256WAT      O37729   2.866   5.370   6.456
 9256WAT     H137730   2.943   5.347   6.490
 9256WAT     H237731   2.819   5.391   6.526
 9256WAT    EPW37732   2.870   5.370   6.472
 9257WAT      O37733   1.620   5.298   5.753
 9257WAT     H137734   1.648   5.255   5.682
 9257WAT     H237735   1.603   5.234   5.810
 9257WAT    EPW37736   1.622   5.282   5.751
 9258WAT      O37737   2.889   6.067   5.175
 9258WAT     H137738   2.901   6.039   5.257
 9258WAT     H237739   2.970   6.070   5.142
 9258WAT    EPW37740   2.903   6.064   5.182
 9259WAT      O37741   1.603   6.041   5.708
 9259WAT     H137742   1.688   6.033   5.691
 9259WAT     H237743   1.567   5.972   5.667
 9259WAT    EPW37744   1.610   6.029   5.699
 9260WAT      O37745   1.480   6.713   5.832
 9260WAT     H137746   1.412   6.663   5.807
 9260WAT     H237747   1.520   6.732   5.757
 9260WAT    EPW37748   1.476   6.709   5.817
 9261WAT      O37749   1.435   5.408   6.061
 9261WAT     H137750   1.519   5.430   6.057
 9261WAT     H237751   1.396   5.465   6.008
 9261WAT    EPW37752   1.441   5.420   6.053
 9262WAT      O37753   3.113   6.518   6.600
 9262WAT     H137754   3.044   6.549   6.556
 9262WAT     H237755   3.076   6.473   6.665
 9262WAT    EPW37756   3.097   6.516   6.603
 9263WAT      O37757   2.679   5.721   5.134
 9263WAT     H137758   2.657   5.794   5.091
 9263WAT     H237759   2.634   5.726   5.208
 9263WAT    EPW37760   2.669   5.733   5.138
 9264WAT      O37761   1.840   6.041   5.532
 9264WAT     H137762   1.911   6.091   5.541
 9264WAT     H237763   1.862   5.985   5.469
 9264WAT    EPW37764   1.853   6.040   5.524
 9265WAT      O37765   1.255   6.206   5.864
 9265WAT     H137766   1.189   6.254   5.891
 9265WAT     H237767   1.323   6.260   5.867
 9265WAT    EPW37768   1.255   6.221   5.868
 9266WAT      O37769   2.020   5.577   6.873
 9266WAT     H137770   1.972   5.634   6.917
 9266WAT     H237771   2.017   5.606   6.791
 9266WAT    EPW37772   2.012   5.590   6.868
 9267WAT      O37773   3.130   5.645   6.334
 9267WAT     H137774   3.151   5.565   6.307
 9267WAT     H237775   3.045   5.651   6.316
 9267WAT    EPW37776   3.120   5.634   6.328
 9268WAT      O37777   1.262   5.874   5.374
 9268WAT     H137778   1.243   5.790   5.389
 9268WAT     H237779   1.328   5.870   5.317
 9268WAT    EPW37780   1.269   5.861   5.368
 9269WAT      O37781   2.898   5.163   5.307
 9269WAT     H137782   2.972   5.122   5.327
 9269WAT     H237783   2.924   5.235   5.264
 9269WAT    EPW37784   2.913   5.168   5.303
 9270WAT      O37785   2.292   6.412   5.764
 9270WAT     H137786   2.240   6.475   5.735
 9270WAT     H237787   2.323   6.375   5.691
 9270WAT    EPW37788   2.289   6.416   5.749
 9271WAT      O37789   1.279   6.290   5.331
 9271WAT     H137790   1.334   6.347   5.368
 9271WAT     H237791   1.256   6.239   5.398
 9271WAT    EPW37792   1.284   6.291   5.347
 9272WAT      O37793   1.699   6.190   6.040
 9272WAT     H137794   1.746   6.219   6.108
 9272WAT     H237795   1.757   6.143   5.995
 9272WAT    EPW37796   1.715   6.188   6.044
 9273WAT      O37797   2.543   5.392   5.814
 9273WAT     H137798   2.577   5.407   5.893
 9273WAT     H237799   2.498   5.318   5.825
 9273WAT    EPW37800   2.541   5.383   5.827
 9274WAT      O37801   1.262   6.135   5.094
 9274WAT     H137802   1.338   6.092   5.100
 9274WAT     H237803   1.264   6.189   5.163
 9274WAT    EPW37804   1.273   6.137   5.105
 9275WAT      O37805   1.356   5.957   5.895
 9275WAT     H137806   1.399   5.945   5.820
 9275WAT     H237807   1.336   6.042   5.892
 9275WAT    EPW37808   1.359   5.968   5.883
 9276WAT      O37809   1.991   5.314   5.260
 9276WAT     H137810   1.990   5.302   5.173
 9276WAT     H237811   1.973   5.399   5.269
 9276WAT    EPW37812   1.988   5.325   5.248
 9277WAT      O37813   2.896   6.557   6.409
 9277WAT     H137814   2.829   6.608   6.431
 9277WAT     H237815   2.902   6.567   6.323
 9277WAT    EPW37816   2.887   6.566   6.400
 9278WAT      O37817   1.764   6.309   5.723
 9278WAT     H137818   1.777   6.393   5.742
 9278WAT     H237819   1.831   6.269   5.763
 9278WAT    EPW37820   1.776   6.316   5.732
 9279WAT      O37821   1.577   5.657   6.709
 9279WAT     H137822   1.524   5.607   6.756
 9279WAT     H237823   1.579   5.618   6.631
 9279WAT    EPW37824   1.570   5.644   6.705
 9280WAT      O37825   1.626   5.597   5.223
 9280WAT     H137826   1.613   5.552   5.297
 9280WAT     H237827   1.568   5.563   5.168
 9280WAT    EPW37828   1.615   5.585   5.226
 9281WAT      O37829   1.643   5.780   5.883
 9281WAT     H137830   1.565   5.774   5.845
 9281WAT     H237831   1.650   5.705   5.927
 9281WAT    EPW37832   1.632   5.768   5.884
 9282WAT      O37833   1.686   5.754   6.230
 9282WAT     H137834   1.688   5.686   6.175
 9282WAT     H237835   1.621   5.803   6.199
 9282WAT    EPW37836   1.677   5.751   6.217
 9283WAT      O37837   2.675   5.525   6.069
 9283WAT     H137838   2.609   5.558   6.116
 9283WAT     H237839   2.694   5.588   6.013
 9283WAT    EPW37840   2.668   5.539   6.068
 9284WAT      O37841   2.096   6.631   6.169
 9284WAT     H137842   2.068   6.567   6.117
 9284WAT     H237843   2.075   6.704   6.125
 9284WAT    EPW37844   2.089   6.633   6.155
 9285WAT      O37845   2.340   5.116   6.412
 9285WAT     H137846   2.355   5.033   6.388
 9285WAT     H237847   2.378   5.121   6.491
 9285WAT    EPW37848   2.347   5.104   6.420
 9286WAT      O37849   1.466   5.889   6.786
 9286WAT     H137850   1.462   5.939   6.714
 9286WAT     H237851   1.499   5.814   6.756
 9286WAT    EPW37852   1.470   5.885   6.771
 9287WAT      O37853   2.626   6.110   6.612
 9287WAT     H137854   2.674   6.182   6.621
 9287WAT     H237855   2.665   6.067   6.546
 9287WAT    EPW37856   2.639   6.114   6.603
 9288WAT      O37857   2.055   6.394   6.729
 9288WAT     H137858   2.091   6.376   6.807
 9288WAT     H237859   2.012   6.321   6.709
 9288WAT    EPW37860   2.054   6.381   6.738
 9289WAT      O37861   2.153   5.469   5.993
 9289WAT     H137862   2.201   5.539   6.014
 9289WAT     H237863   2.190   5.404   6.038
 9289WAT    EPW37864   2.165   5.470   6.003
 9290WAT      O37865   2.372   5.786   5.220
 9290WAT     H137866   2.371   5.858   5.171
 9290WAT     H237867   2.308   5.799   5.278
 9290WAT    EPW37868   2.362   5.799   5.222
 9291WAT      O37869   2.869   6.173   5.619
 9291WAT     H137870   2.904   6.138   5.690
 9291WAT     H237871   2.868   6.107   5.562
 9291WAT    EPW37872   2.874   6.158   5.621
 9292WAT      O37873   2.473   6.479   6.003
 9292WAT     H137874   2.413   6.450   5.947
 9292WAT     H237875   2.528   6.525   5.952
 9292WAT    EPW37876   2.472   6.482   5.987
 9293WAT      O37877   2.475   6.165   5.943
 9293WAT     H137878   2.395   6.187   5.970
 9293WAT     H237879   2.500   6.105   6.001
 9293WAT    EPW37880   2.467   6.159   5.956
 9294WAT      O37881   1.864   6.646   5.388
 9294WAT     H137882   1.849   6.568   5.425
 9294WAT     H237883   1.933   6.631   5.336
 9294WAT    EPW37884   1.872   6.632   5.386
 9295WAT      O37885   1.831   5.020   5.187
 9295WAT     H137886   1.841   5.009   5.273
 9295WAT     H237887   1.760   5.071   5.180
 9295WAT    EPW37888   1.822   5.026   5.198
 9296WAT      O37889   2.093   6.597   5.228
 9296WAT     H137890   2.155   6.614   5.287
 9296WAT     H237891   2.097   6.666   5.175
 9296WAT    EPW37892   2.103   6.610   5.229
 9297WAT      O37893   2.801   5.964   6.428
 9297WAT     H137894   2.806   5.977   6.341
 9297WAT     H237895   2.876   5.996   6.458
 9297WAT    EPW37896   2.812   5.971   6.419
 9298WAT      O37897   2.420   6.499   6.855
 9298WAT     H137898   2.436   6.528   6.936
 9298WAT     H237899   2.446   6.565   6.805
 9298WAT    EPW37900   2.426   6.513   6.860
 9299WAT      O37901   2.904   4.994   6.726
 9299WAT     H137902   2.840   4.954   6.682
 9299WAT     H237903   2.906   4.951   6.802
 9299WAT    EPW37904   2.895   4.982   6.731
 9300WAT      O37905   1.543   5.851   5.311
 9300WAT     H137906   1.575   5.773   5.289
 9300WAT     H237907   1.608   5.888   5.356
 9300WAT    EPW37908   1.557   5.845   5.314
 9301WAT      O37909   2.374   5.945   6.388
 9301WAT     H137910   2.358   6.006   6.448
 9301WAT     H237911   2.427   5.889   6.428
 9301WAT    EPW37912   2.379   5.946   6.402
 9302WAT      O37913   1.243   5.017   5.408
 9302WAT     H137914   1.256   4.946   5.358
 9302WAT     H237915   1.206   4.985   5.480
 9302WAT    EPW37916   1.239   5.002   5.411
 9303WAT      O37917   2.212   5.785   5.453
 9303WAT     H137918   2.218   5.850   5.511
 9303WAT     H237919   2.193   5.715   5.502
 9303WAT    EPW37920   2.210   5.784   5.469
 9304WAT      O37921   2.735   6.218   6.040
 9304WAT     H137922   2.687   6.248   5.974
 9304WAT     H237923   2.699   6.140   6.058
 9304WAT    EPW37924   2.722   6.211   6.033
 9305WAT      O37925   1.662   5.237   5.105
 9305WAT     H137926   1.611   5.242   5.034
 9305WAT     H237927   1.740   5.261   5.075
 9305WAT    EPW37928   1.666   5.241   5.090
 9306WAT      O37929   2.134   5.990   5.896
 9306WAT     H137930   2.050   5.970   5.905
 9306WAT     H237931   2.167   5.973   5.976
 9306WAT    EPW37932   2.127   5.984   5.909
 9307WAT      O37933   1.810   6.663   4.985
 9307WAT     H137934   1.853   6.593   5.014
 9307WAT     H237935   1.830   6.725   5.042
 9307WAT    EPW37936   1.819   6.662   4.998
 9308WAT      O37937   1.519   5.959   6.128
 9308WAT     H137938   1.591   6.008   6.124
 9308WAT     H237939   1.492   5.956   6.045
 9308WAT    EPW37940   1.526   5.966   6.115
 9309WAT      O37941   1.842   5.476   5.802
 9309WAT     H137942   1.927   5.457   5.811
 9309WAT     H237943   1.805   5.398   5.788
 9309WAT    EPW37944   1.849   5.462   5.801
 9310WAT      O37945   3.104   6.634   5.234
 9310WAT     H137946   3.173   6.588   5.209
 9310WAT     H237947   3.050   6.575   5.268
 9310WAT    EPW37948   3.106   6.619   5.236
 9311WAT      O37949   1.324   5.610   5.467
 9311WAT     H137950   1.373   5.581   5.533
 9311WAT     H237951   1.337   5.551   5.404
 9311WAT    EPW37952   1.333   5.597   5.468
 9312WAT      O37953   2.828   5.912   6.152
 9312WAT     H137954   2.827   5.834   6.192
 9312WAT     H237955   2.744   5.935   6.151
 9312WAT    EPW37956   2.815   5.904   6.158
 9313WAT      O37957   1.777   5.753   5.016
 9313WAT     H137958   1.716   5.713   5.063
 9313WAT     H237959   1.738   5.765   4.938
 9313WAT    EPW37960   1.762   5.749   5.011
 9314WAT      O37961   1.459   6.064   6.556
 9314WAT     H137962   1.417   6.012   6.500
 9314WAT     H237963   1.423   6.143   6.542
 9314WAT    EPW37964   1.447   6.068   6.545
 9315WAT      O37965   2.953   5.919   5.896
 9315WAT     H137966   2.925   5.959   5.968
 9315WAT     H237967   3.039   5.913   5.909
 9315WAT    EPW37968   2.962   5.924   5.908
 9316WAT      O37969   1.922   5.599   5.287
 9316WAT     H137970   1.949   5.682   5.293
 9316WAT     H237971   1.836   5.607   5.277
 9316WAT    EPW37972   1.914   5.613   5.286
 9317WAT      O37973   2.720   5.312   6.750
 9317WAT     H137974   2.667   5.357   6.802
 9317WAT     H237975   2.683   5.232   6.749
 9317WAT    EPW37976   2.706   5.307   6.757
 9318WAT      O37977   1.270   5.196   5.940
 9318WAT     H137978   1.275   5.231   5.860
 9318WAT     H237979   1.346   5.220   5.977
 9318WAT    EPW37980   1.282   5.205   5.934
 9319WAT      O37981   3.066   6.482   5.949
 9319WAT     H137982   3.095   6.508   5.871
 9319WAT     H237983   3.136   6.492   6.001
 9319WAT    EPW37984   3.081   6.488   5.945
 9320WAT      O37985   2.569   5.668   6.757
 9320WAT     H137986   2.576   5.679   6.844
 9320WAT     H237987   2.505   5.724   6.735
 9320WAT    EPW37988   2.560   5.678   6.767
 9321WAT      O37989   2.796   5.700   6.594
 9321WAT     H137990   2.827   5.779   6.614
 9321WAT     H237991   2.759   5.673   6.668
 9321WAT    EPW37992   2.795   5.708   6.608
 9322WAT      O37993   2.727   6.343   5.147
 9322WAT     H137994   2.760   6.262   5.150
 9322WAT     H237995   2.651   6.336   5.190
 9322WAT    EPW37996   2.721   6.330   5.154
 9323WAT      O37997   2.775   5.526   5.713
 9323WAT     H137998   2.701   5.494   5.745
 9323WAT     H237999   2.775   5.609   5.741
 9323WAT    EPW38000   2.764   5.534   5.722
 9324WAT      O38001   3.065   5.755   6.867
 9324WAT     H138002   3.060   5.720   6.787
 9324WAT     H238003   3.139   5.801   6.865
 9324WAT    EPW38004   3.075   5.756   6.855
 9325WAT      O38005   3.019   6.122   6.488
 9325WAT     H138006   3.082   6.067   6.462
 9325WAT     H238007   3.013   6.179   6.422
 9325WAT    EPW38008   3.028   6.122   6.474
 9326WAT      O38009   2.464   6.130   5.087
 9326WAT     H138010   2.533   6.079   5.070
 9326WAT     H238011   2.423   6.135   5.011
 9326WAT    EPW38012   2.468   6.123   5.073
 9327WAT      O38013   1.933   6.245   6.218
 9327WAT     H138014   1.903   6.304   6.274
 9327WAT     H238015   1.938   6.289   6.143
 9327WAT    EPW38016   1.929   6.261   6.215
 9328WAT      O38017   1.730   6.140   6.557
 9328WAT     H138018   1.650   6.111   6.574
 9328WAT     H238019   1.722   6.227   6.558
 9328WAT    EPW38020   1.717   6.149   6.560
 9329WAT      O38021   2.666   5.159   6.459
 9329WAT     H138022   2.741   5.204   6.453
 9329WAT     H238023   2.610   5.206   6.412
 9329WAT    EPW38024   2.669   5.173   6.451
 9330WAT      O38025   2.184   5.888   6.167
 9330WAT     H138026   2.232   5.925   6.230
 9330WAT     H238027   2.102   5.901   6.193
 9330WAT    EPW38028   2.179   5.895   6.180
 9331WAT      O38029   1.855   5.448   6.441
 9331WAT     H138030   1.871   5.373   6.484
 9331WAT     H238031   1.851   5.423   6.357
 9331WAT    EPW38032   1.857   5.433   6.435
 9332WAT      O38033   2.111   6.627   5.690
 9332WAT     H138034   2.165   6.695   5.695
 9332WAT     H238035   2.076   6.635   5.610
 9332WAT    EPW38036   2.113   6.638   5.679
 9333WAT      O38037   2.795   4.957   6.226
 9333WAT     H138038   2.767   5.040   6.222
 9333WAT     H238039   2.866   4.962   6.276
 9333WAT    EPW38040   2.801   4.970   6.233
 9334WAT      O38041   2.030   5.029   6.429
 9334WAT     H138042   2.101   5.061   6.389
 9334WAT     H238043   2.054   4.948   6.452
 9334WAT    EPW38044   2.044   5.021   6.426
 9335WAT      O38045   1.929   6.450   6.028
 9335WAT     H138046   1.866   6.508   6.010
 9335WAT     H238047   1.954   6.421   5.950
 9335WAT    EPW38048   1.923   6.454   6.014
 9336WAT      O38049   2.360   6.113   6.727
 9336WAT     H138050   2.435   6.142   6.695
 9336WAT     H238051   2.305   6.118   6.660
 9336WAT    EPW38052   2.363   6.118   6.712
 9337WAT      O38053   2.751   6.368   6.578
 9337WAT     H138054   2.785   6.395   6.653
 9337WAT     H238055   2.780   6.426   6.520
 9337WAT    EPW38056   2.760   6.381   6.580
 9338WAT      O38057   2.937   5.583   5.112
 9338WAT     H138058   2.975   5.650   5.072
 9338WAT     H238059   2.853   5.605   5.115
 9338WAT    EPW38060   2.930   5.596   5.106
 9339WAT      O38061   2.088   5.927   5.020
 9339WAT     H138062   2.008   5.910   4.991
 9339WAT     H238063   2.085   6.012   5.039
 9339WAT    EPW38064   2.076   5.937   5.019
 9340WAT      O38065   1.681   5.534   6.035
 9340WAT     H138066   1.725   5.524   5.960
 9340WAT     H238067   1.736   5.503   6.095
 9340WAT    EPW38068   1.696   5.528   6.033
 9341WAT      O38069   2.483   5.444   6.594
 9341WAT     H138070   2.418   5.491   6.629
 9341WAT     H238071   2.539   5.435   6.660
 9341WAT    EPW38072   2.482   5.450   6.609
 9342WAT      O38073   2.452   5.598   6.224
 9342WAT     H138074   2.482   5.640   6.294
 9342WAT     H238075   2.455   5.514   6.247
 9342WAT    EPW38076   2.457   5.592   6.238
 9343WAT      O38077   2.194   6.615   6.616
 9343WAT     H138078   2.242   6.555   6.575
 9343WAT     H238079   2.159   6.570   6.683
 9343WAT    EPW38080   2.196   6.599   6.620
 9344WAT      O38081   2.706   5.543   5.449
 9344WAT     H138082   2.727   5.522   5.532
 9344WAT     H238083   2.782   5.569   5.415
 9344WAT    EPW38084   2.721   5.544   5.456
 9345WAT      O38085   2.036   5.032   6.040
 9345WAT     H138086   1.953   5.018   6.063
 9345WAT     H238087   2.032   5.036   5.953
 9345WAT    EPW38088   2.023   5.031   6.030
 9346WAT      O38089   2.809   5.151   5.597
 9346WAT     H138090   2.737   5.104   5.614
 9346WAT     H238091   2.792   5.185   5.518
 9346WAT    EPW38092   2.796   5.149   5.587
 9347WAT      O38093   2.853   5.945   5.435
 9347WAT     H138094   2.901   5.872   5.430
 9347WAT     H238095   2.771   5.917   5.427
 9347WAT    EPW38096   2.848   5.930   5.433
 9348WAT      O38097   2.200   6.136   6.518
 9348WAT     H138098   2.121   6.130   6.554
 9348WAT     H238099   2.207   6.221   6.499
 9348WAT    EPW38100   2.189   6.148   6.521
 9349WAT      O38101   1.292   5.072   6.643
 9349WAT     H138102   1.278   5.152   6.610
 9349WAT     H238103   1.214   5.048   6.672
 9349WAT    EPW38104   1.279   5.080   6.643
 9350WAT      O38105   1.783   6.757   6.050
 9350WAT     H138106   1.784   6.763   6.137
 9350WAT     H238107   1.741   6.682   6.035
 9350WAT    EPW38108   1.777   6.747   6.061
 9351WAT      O38109   1.599   5.347   5.366
 9351WAT     H138110   1.611   5.314   5.286
 9351WAT     H238111   1.518   5.322   5.386
 9351WAT    EPW38112   1.589   5.338   5.357
 9352WAT      O38113   2.475   6.062   5.670
 9352WAT     H138114   2.482   6.096   5.750
 9352WAT     H238115   2.491   5.977   5.682
 9352WAT    EPW38116   2.478   6.054   5.684
 9353WAT      O38117   2.227   5.989   5.627
 9353WAT     H138118   2.197   5.958   5.702
 9353WAT     H238119   2.296   6.037   5.650
 9353WAT    EPW38120   2.233   5.992   5.641
 9354WAT      O38121   2.249   6.401   6.429
 9354WAT     H138122   2.318   6.390   6.482
 9354WAT     H238123   2.262   6.480   6.395
 9354WAT    EPW38124   2.261   6.411   6.432
 9355WAT      O38125   3.067   5.662   6.610
 9355WAT     H138126   2.981   5.650   6.623
 9355WAT     H238127   3.082   5.623   6.534
 9355WAT    EPW38128   3.056   5.654   6.601
 9356WAT      O38129   2.518   5.729   6.468
 9356WAT     H138130   2.492   5.657   6.510
 9356WAT     H238131   2.600   5.740   6.495
 9356WAT    EPW38132   2.526   5.720   6.478
 9357WAT      O38133   1.459   6.707   6.594
 9357WAT     H138134   1.394   6.650   6.604
 9357WAT     H238135   1.422   6.784   6.609
 9357WAT    EPW38136   1.444   6.710   6.598
 9358WAT      O38137   2.311   5.848   6.787
 9358WAT     H138138   2.344   5.916   6.743
 9358WAT     H238139   2.241   5.880   6.827
 9358WAT    EPW38140   2.306   5.862   6.786
 9359WAT      O38141   2.620   6.685   5.880
 9359WAT     H138142   2.575   6.749   5.917
 9359WAT     H238143   2.690   6.677   5.930
 9359WAT    EPW38144   2.623   6.693   5.893
 9360WAT      O38145   2.290   6.194   6.173
 9360WAT     H138146   2.220   6.234   6.207
 9360WAT     H238147   2.357   6.237   6.206
 9360WAT    EPW38148   2.289   6.206   6.183
 9361WAT      O38149   2.827   6.453   6.831
 9361WAT     H138150   2.905   6.414   6.839
 9361WAT     H238151   2.781   6.420   6.896
 9361WAT    EPW38152   2.832   6.443   6.841
 9362WAT      O38153   1.597   5.548   6.407
 9362WAT     H138154   1.634   5.610   6.359
 9362WAT     H238155   1.664   5.500   6.436
 9362WAT    EPW38156   1.612   5.550   6.404
 9363WAT      O38157   1.374   5.393   6.335
 9363WAT     H138158   1.382   5.376   6.249
 9363WAT     H238159   1.449   5.433   6.354
 9363WAT    EPW38160   1.386   5.396   6.325
 9364WAT      O38161   2.930   5.657   5.379
 9364WAT     H138162   2.940   5.651   5.292
 9364WAT     H238163   3.004   5.623   5.411
 9364WAT    EPW38164   2.942   5.651   5.371
 9365WAT      O38165   1.629   5.134   6.576
 9365WAT     H138166   1.621   5.049   6.596
 9365WAT     H238167   1.598   5.138   6.495
 9365WAT    EPW38168   1.624   5.122   6.567
 9366WAT      O38169   2.322   6.353   5.489
 9366WAT     H138170   2.301   6.436   5.474
 9366WAT     H238171   2.244   6.315   5.502
 9366WAT    EPW38172   2.307   6.360   5.489
 9367WAT      O38173   2.840   5.671   6.314
 9367WAT     H138174   2.840   5.585   6.327
 9367WAT     H238175   2.847   5.704   6.395
 9367WAT    EPW38176   2.841   5.663   6.328
 9368WAT      O38177   1.314   5.915   6.357
 9368WAT     H138178   1.346   5.937   6.279
 9368WAT     H238179   1.304   5.829   6.352
 9368WAT    EPW38180   1.317   5.906   6.345
 9369WAT      O38181   1.459   5.509   5.019
 9369WAT     H138182   1.392   5.510   5.075
 9369WAT     H238183   1.469   5.424   5.001
 9369WAT    EPW38184   1.451   5.496   5.024
 9370WAT      O38185   2.428   5.151   6.693
 9370WAT     H138186   2.437   5.222   6.742
 9370WAT     H238187   2.364   5.107   6.732
 9370WAT    EPW38188   2.420   5.155   6.706
 9371WAT      O38189   2.327   5.170   5.778
 9371WAT     H138190   2.257   5.222   5.772
 9371WAT     H238191   2.331   5.132   5.700
 9371WAT    EPW38192   2.318   5.172   5.766
 9372WAT      O38193   1.858   6.379   5.130
 9372WAT     H138194   1.902   6.387   5.205
 9372WAT     H238195   1.778   6.358   5.156
 9372WAT    EPW38196   1.853   6.377   5.145
 9373WAT      O38197   2.687   5.222   6.058
 9373WAT     H138198   2.773   5.232   6.072
 9373WAT     H238199   2.650   5.277   6.114
 9373WAT    EPW38200   2.694   5.231   6.068
 9374WAT      O38201   1.790   5.844   6.496
 9374WAT     H138202   1.750   5.922   6.503
 9374WAT     H238203   1.749   5.807   6.428
 9374WAT    EPW38204   1.778   5.850   6.487
 9375WAT      O38205   2.718   5.750   5.907
 9375WAT     H138206   2.784   5.804   5.923
 9375WAT     H238207   2.683   5.781   5.833
 9375WAT    EPW38208   2.722   5.762   5.899
 9376WAT      O38209   2.749   6.556   5.488
 9376WAT     H138210   2.732   6.491   5.543
 9376WAT     H238211   2.820   6.529   5.445
 9376WAT    EPW38212   2.757   6.543   5.490
 9377WAT      O38213   1.591   6.286   5.190
 9377WAT     H138214   1.567   6.256   5.268
 9377WAT     H238215   1.588   6.216   5.139
 9377WAT    EPW38216   1.587   6.271   5.194
 9378WAT      O38217   1.873   6.111   5.065
 9378WAT     H138218   1.791   6.084   5.079
 9378WAT     H238219   1.870   6.196   5.083
 9378WAT    EPW38220   1.860   6.119   5.070
 9379WAT      O38221   1.833   5.142   6.241
 9379WAT     H138222   1.747   5.150   6.249
 9379WAT     H238223   1.855   5.091   6.308
 9379WAT    EPW38224   1.823   5.136   6.252
 9380WAT      O38225   3.035   5.006   6.374
 9380WAT     H138226   3.030   5.001   6.461
 9380WAT     H238227   3.103   4.955   6.355
 9380WAT    EPW38228   3.044   4.998   6.384
 9381WAT      O38229   2.243   5.217   6.078
 9381WAT     H138230   2.170   5.171   6.089
 9381WAT     H238231   2.300   5.177   6.130
 9381WAT    EPW38232   2.241   5.204   6.087
 9382WAT      O38233   2.516   6.302   6.257
 9382WAT     H138234   2.537   6.332   6.336
 9382WAT     H238235   2.510   6.374   6.208
 9382WAT    EPW38236   2.519   6.317   6.261
 9383WAT      O38237   2.470   6.723   6.681
 9383WAT     H138238   2.395   6.721   6.637
 9383WAT     H238239   2.487   6.808   6.690
 9383WAT    EPW38240   2.461   6.735   6.676
 9384WAT      O38241   1.994   5.650   6.598
 9384WAT     H138242   1.961   5.592   6.541
 9384WAT     H238243   1.958   5.725   6.574
 9384WAT    EPW38244   1.984   5.652   6.586
 9385WAT      O38245   2.073   4.975   5.061
 9385WAT     H138246   2.081   5.000   4.978
 9385WAT     H238247   1.999   5.013   5.087
 9385WAT    EPW38248   2.063   4.984   5.053
 9386WAT      O38249   2.998   6.166   6.203
 9386WAT     H138250   2.994   6.079   6.189
 9386WAT     H238251   2.928   6.196   6.159
 9386WAT    EPW38252   2.987   6.157   6.194
 9387WAT      O38253   1.837   6.685   6.623
 9387WAT     H138254   1.841   6.698   6.710
 9387WAT     H238255   1.902   6.629   6.608
 9387WAT    EPW38256   1.847   6.679   6.634
 9388WAT      O38257   2.808   6.492   6.082
 9388WAT     H138258   2.861   6.483   6.013
 9388WAT     H238259   2.769   6.414   6.088
 9388WAT    EPW38260   2.810   6.479   6.073
 9389WAT      O38261   1.555   5.150   6.305
 9389WAT     H138262   1.521   5.074   6.282
 9389WAT     H238263   1.485   5.203   6.312
 9389WAT    EPW38264   1.540   5.147   6.303
 9390WAT      O38265   2.460   5.036   6.003
 9390WAT     H138266   2.527   5.090   6.016
 9390WAT     H238267   2.409   5.078   5.946
 9390WAT    EPW38268   2.462   5.050   5.997
 9391WAT      O38269   1.596   6.524   6.759
 9391WAT     H138270   1.656   6.567   6.806
 9391WAT     H238271   1.560   6.586   6.710
 9391WAT    EPW38272   1.600   6.539   6.759
 9392WAT      O38273   2.395   5.617   5.752
 9392WAT     H138274   2.451   5.556   5.782
 9392WAT     H238275   2.353   5.643   5.824
 9392WAT    EPW38276   2.397   5.612   5.767
 9393WAT      O38277   1.420   5.482   5.701
 9393WAT     H138278   1.383   5.512   5.774
 9393WAT     H238279   1.474   5.419   5.729
 9393WAT    EPW38280   1.423   5.477   5.716
 9394WAT      O38281   1.389   6.323   6.452
 9394WAT     H138282   1.332   6.364   6.503
 9394WAT     H238283   1.462   6.369   6.462
 9394WAT    EPW38284   1.391   6.336   6.461
 9395WAT      O38285   2.592   5.800   5.409
 9395WAT     H138286   2.599   5.715   5.427
 9395WAT     H238287   2.510   5.808   5.381
 9395WAT    EPW38288   2.581   5.789   5.407
 9396WAT      O38289   1.568   6.649   5.330
 9396WAT     H138290   1.553   6.665   5.245
 9396WAT     H238291   1.654   6.657   5.337
 9396WAT    EPW38292   1.578   6.653   5.318
 9397WAT      O38293   1.984   5.889   5.302
 9397WAT     H138294   1.994   5.903   5.217
 9397WAT     H238295   2.066   5.883   5.332
 9397WAT    EPW38296   1.998   5.890   5.294
 9398WAT      O38297   2.900   6.695   5.050
 9398WAT     H138298   2.964   6.682   5.109
 9398WAT     H238299   2.866   6.616   5.039
 9398WAT    EPW38300   2.905   6.682   5.057
 9399WAT      O38301   2.920   5.937   6.724
 9399WAT     H138302   2.983   5.920   6.781
 9399WAT     H238303   2.962   5.977   6.659
 9399WAT    EPW38304   2.935   5.941   6.723
 9400WAT      O38305   2.508   6.322   5.283
 9400WAT     H138306   2.483   6.309   5.365
 9400WAT     H238307   2.476   6.252   5.241
 9400WAT    EPW38308   2.499   6.310   5.289
 9401WAT      O38309   2.982   5.394   6.798
 9401WAT     H138310   2.963   5.458   6.853
 9401WAT     H238311   2.910   5.345   6.797
 9401WAT    EPW38312   2.969   5.396   6.806
 9402WAT      O38313   2.972   5.488   6.095
 9402WAT     H138314   2.889   5.513   6.087
 9402WAT     H238315   2.967   5.404   6.118
 9402WAT    EPW38316   2.959   5.479   6.097
 9403WAT      O38317   1.898   5.186   6.614
 9403WAT     H138318   1.922   5.129   6.553
 9403WAT     H238319   1.814   5.168   6.628
 9403WAT    EPW38320   1.889   5.175   6.607
 9404WAT      O38321   2.661   5.948   6.859
 9404WAT     H138322   2.748   5.945   6.856
 9404WAT     H238323   2.639   5.990   6.786
 9404WAT    EPW38324   2.671   5.954   6.848
 9405WAT      O38325   1.636   6.531   5.977
 9405WAT     H138326   1.628   6.450   5.946
 9405WAT     H238327   1.592   6.579   5.920
 9405WAT    EPW38328   1.629   6.526   5.964
 9406WAT      O38329   2.196   6.143   5.226
 9406WAT     H138330   2.268   6.108   5.190
 9406WAT     H238331   2.193   6.223   5.191
 9406WAT    EPW38332   2.207   6.149   5.215
 9407WAT      O38333   1.394   6.755   6.335
 9407WAT     H138334   1.443   6.750   6.407
 9407WAT     H238335   1.412   6.682   6.292
 9407WAT    EPW38336   1.404   6.743   6.340
 9408WAT      O38337   2.337   5.007   3.650
 9408WAT     H138338   2.313   5.056   3.582
 9408WAT     H238339   2.424   4.999   3.640
 9408WAT    EPW38340   2.346   5.013   3.638
 9409WAT      O38341   2.318   5.698   4.117
 9409WAT     H138342   2.266   5.758   4.153
 9409WAT     H238343   2.358   5.662   4.185
 9409WAT    EPW38344   2.316   5.702   4.132
 9410WAT      O38345   1.305   6.112   3.662
 9410WAT     H138346   1.261   6.124   3.737
 9410WAT     H238347   1.277   6.035   3.634
 9410WAT    EPW38348   1.294   6.103   3.669
 9411WAT      O38349   2.933   6.442   3.414
 9411WAT     H138350   3.003   6.391   3.413
 9411WAT     H238351   2.874   6.398   3.367
 9411WAT    EPW38352   2.934   6.428   3.407
 9412WAT      O38353   1.279   5.492   3.313
 9412WAT     H138354   1.202   5.508   3.277
 9412WAT     H238355   1.283   5.404   3.315
 9412WAT    EPW38356   1.269   5.481   3.308
 9413WAT      O38357   1.593   6.018   3.180
 9413WAT     H138358   1.554   5.981   3.112
 9413WAT     H238359   1.585   5.958   3.243
 9413WAT    EPW38360   1.586   6.004   3.179
 9414WAT      O38361   2.585   5.805   3.784
 9414WAT     H138362   2.593   5.805   3.697
 9414WAT     H238363   2.527   5.742   3.799
 9414WAT    EPW38364   2.578   5.796   3.774
 9415WAT      O38365   1.556   6.182   3.570
 9415WAT     H138366   1.617   6.165   3.630
 9415WAT     H238367   1.481   6.168   3.612
 9415WAT    EPW38368   1.554   6.177   3.585
 9416WAT      O38369   1.984   5.115   3.565
 9416WAT     H138370   1.977   5.183   3.510
 9416WAT     H238371   2.058   5.077   3.540
 9416WAT    EPW38372   1.994   5.120   3.553
 9417WAT      O38373   1.445   6.491   3.178
 9417WAT     H138374   1.492   6.499   3.105
 9417WAT     H238375   1.491   6.433   3.225
 9417WAT    EPW38376   1.459   6.484   3.174
 9418WAT      O38377   1.299   6.386   4.288
 9418WAT     H138378   1.312   6.358   4.369
 9418WAT     H238379   1.238   6.332   4.257
 9418WAT    EPW38380   1.292   6.374   4.295
 9419WAT      O38381   1.957   6.138   4.794
 9419WAT     H138382   1.933   6.138   4.878
 9419WAT     H238383   1.882   6.124   4.752
 9419WAT    EPW38384   1.942   6.136   4.801
 9420WAT      O38385   1.444   5.838   3.708
 9420WAT     H138386   1.398   5.799   3.645
 9420WAT     H238387   1.514   5.787   3.717
 9420WAT    EPW38388   1.447   5.825   3.700
 9421WAT      O38389   1.895   5.399   4.243
 9421WAT     H138390   1.962   5.401   4.188
 9421WAT     H238391   1.890   5.315   4.267
 9421WAT    EPW38392   1.904   5.387   4.238
 9422WAT      O38393   1.955   6.458   4.521
 9422WAT     H138394   1.969   6.534   4.480
 9422WAT     H238395   2.034   6.421   4.523
 9422WAT    EPW38396   1.968   6.463   4.515
 9423WAT      O38397   1.644   5.648   3.710
 9423WAT     H138398   1.726   5.629   3.735
 9423WAT     H238399   1.596   5.587   3.750
 9423WAT    EPW38400   1.649   5.636   3.720
 9424WAT      O38401   2.064   6.246   3.971
 9424WAT     H138402   2.099   6.166   3.974
 9424WAT     H238403   2.131   6.296   3.946
 9424WAT    EPW38404   2.079   6.242   3.968
 9425WAT      O38405   2.070   6.191   3.592
 9425WAT     H138406   2.103   6.127   3.641
 9425WAT     H238407   2.094   6.170   3.511
 9425WAT    EPW38408   2.078   6.178   3.588
 9426WAT      O38409   2.267   5.604   4.726
 9426WAT     H138410   2.182   5.594   4.708
 9426WAT     H238411   2.270   5.679   4.772
 9426WAT    EPW38412   2.255   5.614   4.730
 9427WAT      O38413   1.704   5.157   3.637
 9427WAT     H138414   1.674   5.207   3.572
 9427WAT     H238415   1.790   5.165   3.631
 9427WAT    EPW38416   1.712   5.166   3.626
 9428WAT      O38417   2.723   4.900   4.638
 9428WAT     H138418   2.707   4.977   4.599
 9428WAT     H238419   2.645   4.878   4.672
 9428WAT    EPW38420   2.709   4.908   4.637
 9429WAT      O38421   2.001   5.072   3.859
 9429WAT     H138422   2.009   5.158   3.872
 9429WAT     H238423   1.998   5.064   3.772
 9429WAT    EPW38424   2.002   5.083   3.848
 9430WAT      O38425   2.469   5.364   3.089
 9430WAT     H138426   2.424   5.432   3.120
 9430WAT     H238427   2.480   5.314   3.159
 9430WAT    EPW38428   2.464   5.367   3.104
 9431WAT      O38429   1.289   5.614   4.009
 9431WAT     H138430   1.264   5.697   4.002
 9431WAT     H238431   1.223   5.576   4.051
 9431WAT    EPW38432   1.276   5.621   4.014
 9432WAT      O38433   1.280   6.585   3.799
 9432WAT     H138434   1.221   6.641   3.768
 9432WAT     H238435   1.323   6.558   3.728
 9432WAT    EPW38436   1.278   6.589   3.784
 9433WAT      O38437   1.864   6.369   3.547
 9433WAT     H138438   1.806   6.342   3.606
 9433WAT     H238439   1.927   6.309   3.550
 9433WAT    EPW38440   1.865   6.356   3.556
 9434WAT      O38441   2.479   6.598   3.299
 9434WAT     H138442   2.551   6.645   3.310
 9434WAT     H238443   2.502   6.519   3.327
 9434WAT    EPW38444   2.493   6.594   3.305
 9435WAT      O38445   2.295   6.637   3.498
 9435WAT     H138446   2.317   6.690   3.565
 9435WAT     H238447   2.372   6.620   3.461
 9435WAT    EPW38448   2.310   6.643   3.503
 9436WAT      O38449   1.592   5.096   4.058
 9436WAT     H138450   1.540   5.033   4.028
 9436WAT     H238451   1.651   5.052   4.105
 9436WAT    EPW38452   1.593   5.080   4.061
 9437WAT      O38453   1.923   5.309   4.988
 9437WAT     H138454   1.935   5.264   4.915
 9437WAT     H238455   1.952   5.389   4.968
 9437WAT    EPW38456   1.929   5.314   4.974
 9438WAT      O38457   1.435   6.452   3.592
 9438WAT     H138458   1.500   6.395   3.594
 9438WAT     H238459   1.474   6.527   3.570
 9438WAT    EPW38460   1.450   6.455   3.589
 9439WAT      O38461   3.008   5.361   3.719
 9439WAT     H138462   2.974   5.429   3.761
 9439WAT     H238463   2.945   5.302   3.720
 9439WAT    EPW38464   2.994   5.363   3.725
 9440WAT      O38465   2.539   6.638   4.329
 9440WAT     H138466   2.614   6.684   4.328
 9440WAT     H238467   2.527   6.617   4.245
 9440WAT    EPW38468   2.549   6.642   4.316
 9441WAT      O38469   1.496   5.269   4.887
 9441WAT     H138470   1.418   5.230   4.879
 9441WAT     H238471   1.545   5.228   4.827
 9441WAT    EPW38472   1.492   5.257   4.877
 9442WAT      O38473   1.517   6.301   3.942
 9442WAT     H138474   1.559   6.265   3.875
 9442WAT     H238475   1.549   6.259   4.012
 9442WAT    EPW38476   1.528   6.289   3.943
 9443WAT      O38477   1.840   6.586   3.872
 9443WAT     H138478   1.924   6.596   3.852
 9443WAT     H238479   1.810   6.668   3.879
 9443WAT    EPW38480   1.848   6.600   3.870
 9444WAT      O38481   2.161   5.033   4.803
 9444WAT     H138482   2.179   4.952   4.776
 9444WAT     H238483   2.147   5.077   4.729
 9444WAT    EPW38484   2.162   5.028   4.788
 9445WAT      O38485   2.220   5.526   3.681
 9445WAT     H138486   2.249   5.502   3.602
 9445WAT     H238487   2.294   5.534   3.728
 9445WAT    EPW38488   2.235   5.523   3.676
 9446WAT      O38489   2.293   5.560   3.193
 9446WAT     H138490   2.321   5.638   3.218
 9446WAT     H238491   2.215   5.576   3.156
 9446WAT    EPW38492   2.285   5.574   3.191
 9447WAT      O38493   2.697   6.757   3.339
 9447WAT     H138494   2.763   6.742   3.285
 9447WAT     H238495   2.733   6.749   3.418
 9447WAT    EPW38496   2.712   6.754   3.343
 9448WAT      O38497   1.740   6.708   4.446
 9448WAT     H138498   1.769   6.701   4.528
 9448WAT     H238499   1.677   6.647   4.441
 9448WAT    EPW38500   1.735   6.698   4.457
 9449WAT      O38501   1.231   5.324   4.645
 9449WAT     H138502   1.231   5.382   4.710
 9449WAT     H238503   1.290   5.355   4.589
 9449WAT    EPW38504   1.240   5.337   4.646
 9450WAT      O38505   2.465   6.357   4.699
 9450WAT     H138506   2.461   6.395   4.778
 9450WAT     H238507   2.550   6.353   4.682
 9450WAT    EPW38508   2.477   6.362   4.708
 9451WAT      O38509   2.179   6.377   3.174
 9451WAT     H138510   2.160   6.431   3.240
 9451WAT     H238511   2.255   6.406   3.144
 9451WAT    EPW38512   2.187   6.389   3.180
 9452WAT      O38513   2.529   5.166   3.280
 9452WAT     H138514   2.583   5.098   3.287
 9452WAT     H238515   2.535   5.206   3.357
 9452WAT    EPW38516   2.538   5.162   3.292
 9453WAT      O38517   1.325   5.283   3.537
 9453WAT     H138518   1.313   5.197   3.540
 9453WAT     H238519   1.277   5.312   3.604
 9453WAT    EPW38520   1.316   5.275   3.547
 9454WAT      O38521   1.539   6.524   4.358
 9454WAT     H138522   1.469   6.473   4.371
 9454WAT     H238523   1.565   6.504   4.277
 9454WAT    EPW38524   1.532   6.514   4.348
 9455WAT      O38525   2.255   5.404   3.411
 9455WAT     H138526   2.204   5.338   3.386
 9455WAT     H238527   2.260   5.454   3.340
 9455WAT    EPW38528   2.248   5.402   3.397
 9456WAT      O38529   2.310   6.673   4.449
 9456WAT     H138530   2.387   6.665   4.409
 9456WAT     H238531   2.252   6.661   4.385
 9456WAT    EPW38532   2.313   6.670   4.434
 9457WAT      O38533   2.255   5.098   3.400
 9457WAT     H138534   2.210   5.058   3.338
 9457WAT     H238535   2.332   5.113   3.363
 9457WAT    EPW38536   2.260   5.094   3.385
 9458WAT      O38537   2.938   6.734   3.739
 9458WAT     H138538   2.892   6.805   3.759
 9458WAT     H238539   2.876   6.677   3.715
 9458WAT    EPW38540   2.922   6.736   3.739
 9459WAT      O38541   2.115   5.335   3.852
 9459WAT     H138542   2.122   5.391   3.787
 9459WAT     H238543   2.127   5.384   3.923
 9459WAT    EPW38544   2.118   5.350   3.853
 9460WAT      O38545   2.637   6.318   3.694
 9460WAT     H138546   2.707   6.270   3.713
 9460WAT     H238547   2.571   6.261   3.698
 9460WAT    EPW38548   2.638   6.303   3.697
 9461WAT      O38549   1.675   6.409   4.615
 9461WAT     H138550   1.759   6.415   4.593
 9461WAT     H238551   1.671   6.449   4.692
 9461WAT    EPW38552   1.687   6.416   4.623
 9462WAT      O38553   1.576   4.917   3.687
 9462WAT     H138554   1.629   4.986   3.686
 9462WAT     H238555   1.576   4.890   3.604
 9462WAT    EPW38556   1.584   4.923   3.675
 9463WAT      O38557   1.871   5.960   4.090
 9463WAT     H138558   1.888   5.939   4.173
 9463WAT     H238559   1.806   5.907   4.068
 9463WAT    EPW38560   1.864   5.949   4.099
 9464WAT      O38561   2.494   5.352   4.441
 9464WAT     H138562   2.485   5.384   4.522
 9464WAT     H238563   2.435   5.288   4.437
 9464WAT    EPW38564   2.484   5.347   4.453
 9465WAT      O38565   1.946   5.954   4.349
 9465WAT     H138566   1.952   6.039   4.369
 9465WAT     H238567   1.918   5.917   4.422
 9465WAT    EPW38568   1.943   5.961   4.363
 9466WAT      O38569   2.564   6.024   4.262
 9466WAT     H138570   2.513   5.982   4.319
 9466WAT     H238571   2.551   6.108   4.280
 9466WAT    EPW38572   2.555   6.030   4.273
 9467WAT      O38573   2.620   4.946   3.725
 9467WAT     H138574   2.625   4.914   3.806
 9467WAT     H238575   2.652   4.882   3.676
 9467WAT    EPW38576   2.625   4.932   3.730
 9468WAT      O38577   1.228   6.391   4.970
 9468WAT     H138578   1.304   6.426   4.996
 9468WAT     H238579   1.246   6.306   4.964
 9468WAT    EPW38580   1.242   6.384   4.973
 9469WAT      O38581   2.866   5.370   4.556
 9469WAT     H138582   2.943   5.347   4.589
 9469WAT     H238583   2.819   5.391   4.626
 9469WAT    EPW38584   2.870   5.370   4.571
 9470WAT      O38585   1.620   5.298   3.853
 9470WAT     H138586   1.648   5.255   3.782
 9470WAT     H238587   1.603   5.234   3.910
 9470WAT    EPW38588   1.622   5.282   3.851
 9471WAT      O38589   2.889   6.067   3.274
 9471WAT     H138590   2.901   6.039   3.356
 9471WAT     H238591   2.970   6.070   3.241
 9471WAT    EPW38592   2.903   6.064   3.282
 9472WAT      O38593   1.603   6.041   3.808
 9472WAT     H138594   1.688   6.033   3.790
 9472WAT     H238595   1.567   5.972   3.766
 9472WAT    EPW38596   1.610   6.029   3.799
 9473WAT      O38597   1.480   6.713   3.931
 9473WAT     H138598   1.412   6.663   3.907
 9473WAT     H238599   1.520   6.732   3.856
 9473WAT    EPW38600   1.476   6.709   3.917
 9474WAT      O38601   1.435   5.408   4.161
 9474WAT     H138602   1.519   5.430   4.157
 9474WAT     H238603   1.396   5.465   4.108
 9474WAT    EPW38604   1.441   5.420   4.152
 9475WAT      O38605   3.113   6.518   4.700
 9475WAT     H138606   3.044   6.549   4.655
 9475WAT     H238607   3.076   6.473   4.764
 9475WAT    EPW38608   3.097   6.516   4.703
 9476WAT      O38609   2.679   5.721   3.233
 9476WAT     H138610   2.657   5.794   3.191
 9476WAT     H238611   2.634   5.726   3.308
 9476WAT    EPW38612   2.669   5.733   3.238
 9477WAT      O38613   1.840   6.041   3.631
 9477WAT     H138614   1.911   6.091   3.640
 9477WAT     H238615   1.862   5.985   3.568
 9477WAT    EPW38616   1.853   6.040   3.623
 9478WAT      O38617   3.097   5.207   3.178
 9478WAT     H138618   3.031   5.150   3.181
 9478WAT     H238619   3.078   5.258   3.110
 9478WAT    EPW38620   3.085   5.206   3.169
 9479WAT      O38621   1.255   6.206   3.963
 9479WAT     H138622   1.189   6.254   3.991
 9479WAT     H238623   1.323   6.260   3.966
 9479WAT    EPW38624   1.255   6.221   3.968
 9480WAT      O38625   2.020   5.577   4.973
 9480WAT     H138626   1.972   5.634   5.017
 9480WAT     H238627   2.017   5.606   4.891
 9480WAT    EPW38628   2.012   5.590   4.967
 9481WAT      O38629   3.130   5.645   4.434
 9481WAT     H138630   3.151   5.565   4.406
 9481WAT     H238631   3.045   5.651   4.415
 9481WAT    EPW38632   3.120   5.634   4.427
 9482WAT      O38633   1.262   5.874   3.473
 9482WAT     H138634   1.243   5.790   3.489
 9482WAT     H238635   1.328   5.870   3.416
 9482WAT    EPW38636   1.269   5.861   3.467
 9483WAT      O38637   2.898   5.163   3.406
 9483WAT     H138638   2.972   5.122   3.426
 9483WAT     H238639   2.924   5.235   3.364
 9483WAT    EPW38640   2.913   5.168   3.403
 9484WAT      O38641   2.292   6.412   3.864
 9484WAT     H138642   2.240   6.475   3.834
 9484WAT     H238643   2.323   6.375   3.791
 9484WAT    EPW38644   2.289   6.416   3.849
 9485WAT      O38645   1.279   6.290   3.431
 9485WAT     H138646   1.334   6.347   3.467
 9485WAT     H238647   1.256   6.239   3.497
 9485WAT    EPW38648   1.284   6.291   3.446
 9486WAT      O38649   1.699   6.190   4.140
 9486WAT     H138650   1.746   6.219   4.208
 9486WAT     H238651   1.757   6.143   4.094
 9486WAT    EPW38652   1.715   6.188   4.143
 9487WAT      O38653   2.543   5.392   3.913
 9487WAT     H138654   2.577   5.407   3.992
 9487WAT     H238655   2.498   5.318   3.925
 9487WAT    EPW38656   2.541   5.383   3.927
 9488WAT      O38657   1.262   6.135   3.194
 9488WAT     H138658   1.338   6.092   3.199
 9488WAT     H238659   1.264   6.189   3.263
 9488WAT    EPW38660   1.273   6.137   3.205
 9489WAT      O38661   1.356   5.957   3.994
 9489WAT     H138662   1.399   5.945   3.919
 9489WAT     H238663   1.336   6.042   3.992
 9489WAT    EPW38664   1.359   5.968   3.983
 9490WAT      O38665   1.991   5.314   3.359
 9490WAT     H138666   1.990   5.302   3.273
 9490WAT     H238667   1.973   5.399   3.368
 9490WAT    EPW38668   1.988   5.325   3.348
 9491WAT      O38669   2.896   6.557   4.509
 9491WAT     H138670   2.829   6.608   4.531
 9491WAT     H238671   2.902   6.567   4.422
 9491WAT    EPW38672   2.887   6.566   4.499
 9492WAT      O38673   1.764   6.309   3.822
 9492WAT     H138674   1.777   6.393   3.841
 9492WAT     H238675   1.831   6.269   3.862
 9492WAT    EPW38676   1.776   6.316   3.831
 9493WAT      O38677   1.577   5.657   4.809
 9493WAT     H138678   1.524   5.607   4.855
 9493WAT     H238679   1.579   5.618   4.731
 9493WAT    EPW38680   1.570   5.644   4.804
 9494WAT      O38681   1.626   5.597   3.323
 9494WAT     H138682   1.613   5.552   3.396
 9494WAT     H238683   1.568   5.563   3.267
 9494WAT    EPW38684   1.615   5.585   3.325
 9495WAT      O38685   1.643   5.780   3.982
 9495WAT     H138686   1.565   5.774   3.944
 9495WAT     H238687   1.650   5.705   4.026
 9495WAT    EPW38688   1.632   5.768   3.983
 9496WAT      O38689   1.686   5.754   4.329
 9496WAT     H138690   1.688   5.686   4.274
 9496WAT     H238691   1.621   5.803   4.298
 9496WAT    EPW38692   1.677   5.751   4.317
 9497WAT      O38693   2.675   5.525   4.169
 9497WAT     H138694   2.609   5.558   4.215
 9497WAT     H238695   2.694   5.588   4.112
 9497WAT    EPW38696   2.668   5.539   4.167
 9498WAT      O38697   2.096   6.631   4.268
 9498WAT     H138698   2.068   6.567   4.216
 9498WAT     H238699   2.075   6.704   4.225
 9498WAT    EPW38700   2.089   6.633   4.254
 9499WAT      O38701   2.340   5.116   4.512
 9499WAT     H138702   2.355   5.033   4.487
 9499WAT     H238703   2.378   5.121   4.590
 9499WAT    EPW38704   2.347   5.104   4.520
 9500WAT      O38705   2.494   5.322   3.520
 9500WAT     H138706   2.543   5.394   3.512
 9500WAT     H238707   2.415   5.348   3.494
 9500WAT    EPW38708   2.490   5.336   3.515
 9501WAT      O38709   1.466   5.889   4.885
 9501WAT     H138710   1.462   5.939   4.814
 9501WAT     H238711   1.499   5.814   4.856
 9501WAT    EPW38712   1.470   5.885   4.870
 9502WAT      O38713   2.626   6.110   4.711
 9502WAT     H138714   2.674   6.182   4.721
 9502WAT     H238715   2.665   6.067   4.646
 9502WAT    EPW38716   2.639   6.114   4.703
 9503WAT      O38717   2.055   6.394   4.829
 9503WAT     H138718   2.091   6.376   4.906
 9503WAT     H238719   2.012   6.321   4.809
 9503WAT    EPW38720   2.054   6.381   4.837
 9504WAT      O38721   2.153   5.469   4.092
 9504WAT     H138722   2.201   5.539   4.113
 9504WAT     H238723   2.190   5.404   4.138
 9504WAT    EPW38724   2.165   5.470   4.102
 9505WAT      O38725   2.372   5.786   3.320
 9505WAT     H138726   2.371   5.858   3.271
 9505WAT     H238727   2.308   5.799   3.378
 9505WAT    EPW38728   2.362   5.799   3.321
 9506WAT      O38729   2.869   6.173   3.718
 9506WAT     H138730   2.904   6.138   3.789
 9506WAT     H238731   2.868   6.107   3.661
 9506WAT    EPW38732   2.874   6.158   3.720
 9507WAT      O38733   2.473   6.479   4.102
 9507WAT     H138734   2.413   6.450   4.047
 9507WAT     H238735   2.528   6.525   4.051
 9507WAT    EPW38736   2.472   6.482   4.087
 9508WAT      O38737   2.475   6.165   4.042
 9508WAT     H138738   2.395   6.187   4.070
 9508WAT     H238739   2.500   6.105   4.101
 9508WAT    EPW38740   2.467   6.159   4.055
 9509WAT      O38741   1.864   6.646   3.487
 9509WAT     H138742   1.849   6.568   3.524
 9509WAT     H238743   1.933   6.631   3.436
 9509WAT    EPW38744   1.872   6.632   3.485
 9510WAT      O38745   1.831   5.020   3.286
 9510WAT     H138746   1.841   5.009   3.372
 9510WAT     H238747   1.760   5.071   3.279
 9510WAT    EPW38748   1.822   5.026   3.298
 9511WAT      O38749   2.093   6.597   3.327
 9511WAT     H138750   2.155   6.614   3.386
 9511WAT     H238751   2.097   6.666   3.274
 9511WAT    EPW38752   2.103   6.610   3.328
 9512WAT      O38753   2.801   5.964   4.527
 9512WAT     H138754   2.806   5.977   4.441
 9512WAT     H238755   2.876   5.996   4.557
 9512WAT    EPW38756   2.812   5.971   4.519
 9513WAT      O38757   2.420   6.499   4.955
 9513WAT     H138758   2.436   6.528   5.036
 9513WAT     H238759   2.446   6.565   4.904
 9513WAT    EPW38760   2.426   6.513   4.959
 9514WAT      O38761   1.543   5.851   3.410
 9514WAT     H138762   1.575   5.773   3.388
 9514WAT     H238763   1.608   5.888   3.456
 9514WAT    EPW38764   1.557   5.845   3.414
 9515WAT      O38765   2.374   5.945   4.487
 9515WAT     H138766   2.358   6.006   4.547
 9515WAT     H238767   2.427   5.889   4.528
 9515WAT    EPW38768   2.379   5.946   4.502
 9516WAT      O38769   1.243   5.017   3.507
 9516WAT     H138770   1.256   4.946   3.458
 9516WAT     H238771   1.206   4.985   3.580
 9516WAT    EPW38772   1.239   5.002   3.511
 9517WAT      O38773   2.212   5.785   3.553
 9517WAT     H138774   2.218   5.850   3.611
 9517WAT     H238775   2.193   5.715   3.602
 9517WAT    EPW38776   2.210   5.784   3.569
 9518WAT      O38777   2.735   6.218   4.140
 9518WAT     H138778   2.687   6.248   4.073
 9518WAT     H238779   2.699   6.140   4.157
 9518WAT    EPW38780   2.722   6.211   4.132
 9519WAT      O38781   1.662   5.237   3.204
 9519WAT     H138782   1.611   5.242   3.133
 9519WAT     H238783   1.740   5.261   3.174
 9519WAT    EPW38784   1.666   5.241   3.189
 9520WAT      O38785   2.134   5.990   3.996
 9520WAT     H138786   2.050   5.970   4.004
 9520WAT     H238787   2.167   5.973   4.075
 9520WAT    EPW38788   2.127   5.984   4.009
 9521WAT      O38789   1.810   6.663   3.084
 9521WAT     H138790   1.853   6.593   3.113
 9521WAT     H238791   1.830   6.725   3.142
 9521WAT    EPW38792   1.819   6.662   3.097
 9522WAT      O38793   1.519   5.959   4.227
 9522WAT     H138794   1.591   6.008   4.224
 9522WAT     H238795   1.492   5.956   4.145
 9522WAT    EPW38796   1.526   5.966   4.215
 9523WAT      O38797   1.842   5.476   3.901
 9523WAT     H138798   1.927   5.457   3.911
 9523WAT     H238799   1.805   5.398   3.887
 9523WAT    EPW38800   1.849   5.462   3.900
 9524WAT      O38801   3.104   6.634   3.334
 9524WAT     H138802   3.173   6.588   3.309
 9524WAT     H238803   3.050   6.575   3.367
 9524WAT    EPW38804   3.106   6.619   3.335
 9525WAT      O38805   1.324   5.610   3.566
 9525WAT     H138806   1.373   5.581   3.633
 9525WAT     H238807   1.337   5.551   3.504
 9525WAT    EPW38808   1.333   5.597   3.567
 9526WAT      O38809   2.828   5.912   4.252
 9526WAT     H138810   2.827   5.834   4.291
 9526WAT     H238811   2.744   5.935   4.251
 9526WAT    EPW38812   2.815   5.904   4.257
 9527WAT      O38813   1.777   5.753   3.115
 9527WAT     H138814   1.716   5.713   3.162
 9527WAT     H238815   1.738   5.765   3.038
 9527WAT    EPW38816   1.762   5.749   3.111
 9528WAT      O38817   1.459   6.064   4.655
 9528WAT     H138818   1.417   6.012   4.599
 9528WAT     H238819   1.423   6.143   4.641
 9528WAT    EPW38820   1.447   6.068   4.645
 9529WAT      O38821   2.953   5.919   3.995
 9529WAT     H138822   2.925   5.959   4.067
 9529WAT     H238823   3.039   5.913   4.008
 9529WAT    EPW38824   2.962   5.924   4.008
 9530WAT      O38825   1.922   5.599   3.386
 9530WAT     H138826   1.949   5.682   3.393
 9530WAT     H238827   1.836   5.607   3.376
 9530WAT    EPW38828   1.914   5.613   3.386
 9531WAT      O38829   2.720   5.312   4.849
 9531WAT     H138830   2.667   5.357   4.902
 9531WAT     H238831   2.683   5.232   4.849
 9531WAT    EPW38832   2.706   5.307   4.857
 9532WAT      O38833   1.270   5.196   4.040
 9532WAT     H138834   1.275   5.231   3.960
 9532WAT     H238835   1.346   5.220   4.076
 9532WAT    EPW38836   1.282   5.205   4.033
 9533WAT      O38837   3.066   6.482   4.048
 9533WAT     H138838   3.095   6.508   3.970
 9533WAT     H238839   3.136   6.492   4.100
 9533WAT    EPW38840   3.081   6.488   4.044
 9534WAT      O38841   2.569   5.668   4.857
 9534WAT     H138842   2.576   5.679   4.943
 9534WAT     H238843   2.505   5.724   4.835
 9534WAT    EPW38844   2.560   5.678   4.866
 9535WAT      O38845   2.727   6.343   3.246
 9535WAT     H138846   2.760   6.262   3.250
 9535WAT     H238847   2.651   6.336   3.289
 9535WAT    EPW38848   2.721   6.330   3.253
 9536WAT      O38849   2.775   5.526   3.812
 9536WAT     H138850   2.701   5.494   3.844
 9536WAT     H238851   2.775   5.609   3.840
 9536WAT    EPW38852   2.764   5.534   3.821
 9537WAT      O38853   3.065   5.755   4.967
 9537WAT     H138854   3.060   5.720   4.887
 9537WAT     H238855   3.139   5.801   4.965
 9537WAT    EPW38856   3.075   5.756   4.955
 9538WAT      O38857   3.019   6.122   4.587
 9538WAT     H138858   3.082   6.067   4.562
 9538WAT     H238859   3.013   6.179   4.521
 9538WAT    EPW38860   3.028   6.122   4.574
 9539WAT      O38861   1.933   6.245   4.317
 9539WAT     H138862   1.903   6.304   4.374
 9539WAT     H238863   1.938   6.289   4.242
 9539WAT    EPW38864   1.929   6.261   4.314
 9540WAT      O38865   1.730   6.140   4.657
 9540WAT     H138866   1.650   6.111   4.674
 9540WAT     H238867   1.722   6.227   4.657
 9540WAT    EPW38868   1.717   6.149   4.659
 9541WAT      O38869   2.666   5.159   4.558
 9541WAT     H138870   2.741   5.204   4.552
 9541WAT     H238871   2.610   5.206   4.511
 9541WAT    EPW38872   2.669   5.173   4.551
 9542WAT      O38873   2.184   5.888   4.266
 9542WAT     H138874   2.232   5.925   4.329
 9542WAT     H238875   2.102   5.901   4.292
 9542WAT    EPW38876   2.179   5.895   4.279
 9543WAT      O38877   1.855   5.448   4.540
 9543WAT     H138878   1.871   5.373   4.583
 9543WAT     H238879   1.851   5.423   4.457
 9543WAT    EPW38880   1.857   5.433   4.534
 9544WAT      O38881   2.111   6.627   3.789
 9544WAT     H138882   2.165   6.695   3.794
 9544WAT     H238883   2.076   6.635   3.709
 9544WAT    EPW38884   2.113   6.638   3.778
 9545WAT      O38885   2.795   4.957   4.325
 9545WAT     H138886   2.767   5.040   4.321
 9545WAT     H238887   2.866   4.962   4.375
 9545WAT    EPW38888   2.801   4.970   4.332
 9546WAT      O38889   2.030   5.029   4.528
 9546WAT     H138890   2.101   5.061   4.488
 9546WAT     H238891   2.054   4.948   4.551
 9546WAT    EPW38892   2.044   5.021   4.526
 9547WAT      O38893   1.929   6.450   4.128
 9547WAT     H138894   1.866   6.508   4.110
 9547WAT     H238895   1.954   6.421   4.049
 9547WAT    EPW38896   1.923   6.454   4.114
 9548WAT      O38897   2.360   6.113   4.827
 9548WAT     H138898   2.435   6.142   4.794
 9548WAT     H238899   2.305   6.118   4.759
 9548WAT    EPW38900   2.363   6.118   4.812
 9549WAT      O38901   2.751   6.368   4.677
 9549WAT     H138902   2.785   6.395   4.753
 9549WAT     H238903   2.780   6.426   4.619
 9549WAT    EPW38904   2.760   6.381   4.680
 9550WAT      O38905   2.937   5.583   3.211
 9550WAT     H138906   2.975   5.650   3.171
 9550WAT     H238907   2.853   5.605   3.214
 9550WAT    EPW38908   2.930   5.596   3.206
 9551WAT      O38909   2.088   5.927   3.119
 9551WAT     H138910   2.008   5.910   3.091
 9551WAT     H238911   2.085   6.012   3.139
 9551WAT    EPW38912   2.076   5.937   3.118
 9552WAT      O38913   1.681   5.534   4.134
 9552WAT     H138914   1.725   5.524   4.060
 9552WAT     H238915   1.736   5.503   4.195
 9552WAT    EPW38916   1.696   5.528   4.132
 9553WAT      O38917   2.483   5.444   4.694
 9553WAT     H138918   2.418   5.491   4.728
 9553WAT     H238919   2.539   5.435   4.759
 9553WAT    EPW38920   2.482   5.450   4.708
 9554WAT      O38921   2.452   5.598   4.323
 9554WAT     H138922   2.482   5.640   4.394
 9554WAT     H238923   2.455   5.514   4.347
 9554WAT    EPW38924   2.457   5.592   4.337
 9555WAT      O38925   2.194   6.615   4.716
 9555WAT     H138926   2.242   6.555   4.674
 9555WAT     H238927   2.159   6.570   4.782
 9555WAT    EPW38928   2.196   6.599   4.720
 9556WAT      O38929   2.706   5.543   3.549
 9556WAT     H138930   2.727   5.522   3.631
 9556WAT     H238931   2.782   5.569   3.514
 9556WAT    EPW38932   2.721   5.544   3.556
 9557WAT      O38933   2.036   5.032   4.139
 9557WAT     H138934   1.953   5.018   4.163
 9557WAT     H238935   2.032   5.036   4.052
 9557WAT    EPW38936   2.023   5.031   4.130
 9558WAT      O38937   2.809   5.151   3.696
 9558WAT     H138938   2.737   5.104   3.713
 9558WAT     H238939   2.792   5.185   3.617
 9558WAT    EPW38940   2.796   5.149   3.687
 9559WAT      O38941   2.853   5.945   3.534
 9559WAT     H138942   2.901   5.872   3.529
 9559WAT     H238943   2.771   5.917   3.526
 9559WAT    EPW38944   2.848   5.930   3.532
 9560WAT      O38945   2.200   6.136   4.618
 9560WAT     H138946   2.121   6.130   4.653
 9560WAT     H238947   2.207   6.221   4.598
 9560WAT    EPW38948   2.189   6.148   4.620
 9561WAT      O38949   1.292   5.072   4.743
 9561WAT     H138950   1.278   5.152   4.709
 9561WAT     H238951   1.214   5.048   4.771
 9561WAT    EPW38952   1.279   5.080   4.742
 9562WAT      O38953   1.783   6.757   4.150
 9562WAT     H138954   1.784   6.763   4.237
 9562WAT     H238955   1.741   6.682   4.135
 9562WAT    EPW38956   1.777   6.747   4.160
 9563WAT      O38957   1.599   5.347   3.465
 9563WAT     H138958   1.611   5.314   3.385
 9563WAT     H238959   1.518   5.322   3.485
 9563WAT    EPW38960   1.589   5.338   3.456
 9564WAT      O38961   2.475   6.062   3.769
 9564WAT     H138962   2.482   6.096   3.849
 9564WAT     H238963   2.491   5.977   3.782
 9564WAT    EPW38964   2.478   6.054   3.783
 9565WAT      O38965   2.227   5.989   3.726
 9565WAT     H138966   2.197   5.958   3.802
 9565WAT     H238967   2.296   6.037   3.749
 9565WAT    EPW38968   2.233   5.992   3.741
 9566WAT      O38969   2.249   6.401   4.529
 9566WAT     H138970   2.318   6.390   4.581
 9566WAT     H238971   2.262   6.480   4.494
 9566WAT    EPW38972   2.261   6.411   4.531
 9567WAT      O38973   3.067   5.662   4.710
 9567WAT     H138974   2.981   5.650   4.722
 9567WAT     H238975   3.082   5.623   4.633
 9567WAT    EPW38976   3.056   5.654   4.700
 9568WAT      O38977   2.518   5.729   4.567
 9568WAT     H138978   2.492   5.657   4.610
 9568WAT     H238979   2.600   5.740   4.594
 9568WAT    EPW38980   2.526   5.720   4.578
 9569WAT      O38981   1.459   6.707   4.694
 9569WAT     H138982   1.394   6.650   4.704
 9569WAT     H238983   1.422   6.784   4.709
 9569WAT    EPW38984   1.444   6.710   4.697
 9570WAT      O38985   2.311   5.848   4.886
 9570WAT     H138986   2.344   5.916   4.843
 9570WAT     H238987   2.241   5.880   4.926
 9570WAT    EPW38988   2.306   5.862   4.886
 9571WAT      O38989   2.620   6.685   3.979
 9571WAT     H138990   2.575   6.749   4.017
 9571WAT     H238991   2.690   6.677   4.029
 9571WAT    EPW38992   2.623   6.693   3.992
 9572WAT      O38993   2.290   6.194   4.272
 9572WAT     H138994   2.220   6.234   4.306
 9572WAT     H238995   2.357   6.237   4.306
 9572WAT    EPW38996   2.289   6.206   4.282
 9573WAT      O38997   2.827   6.453   4.930
 9573WAT     H138998   2.905   6.414   4.938
 9573WAT     H238999   2.781   6.420   4.995
 9573WAT    EPW39000   2.832   6.443   4.941
 9574WAT      O39001   1.597   5.548   4.507
 9574WAT     H139002   1.634   5.610   4.458
 9574WAT     H239003   1.664   5.500   4.535
 9574WAT    EPW39004   1.612   5.550   4.504
 9575WAT      O39005   1.374   5.393   4.434
 9575WAT     H139006   1.382   5.376   4.349
 9575WAT     H239007   1.449   5.433   4.454
 9575WAT    EPW39008   1.386   5.396   4.424
 9576WAT      O39009   2.930   5.657   3.478
 9576WAT     H139010   2.940   5.651   3.392
 9576WAT     H239011   3.004   5.623   3.510
 9576WAT    EPW39012   2.942   5.651   3.470
 9577WAT      O39013   1.629   5.134   4.675
 9577WAT     H139014   1.621   5.049   4.696
 9577WAT     H239015   1.598   5.138   4.594
 9577WAT    EPW39016   1.624   5.122   4.666
 9578WAT      O39017   2.322   6.353   3.589
 9578WAT     H139018   2.301   6.436   3.573
 9578WAT     H239019   2.244   6.315   3.601
 9578WAT    EPW39020   2.307   6.360   3.588
 9579WAT      O39021   2.840   5.671   4.414
 9579WAT     H139022   2.840   5.585   4.426
 9579WAT     H239023   2.847   5.704   4.494
 9579WAT    EPW39024   2.841   5.663   4.427
 9580WAT      O39025   1.314   5.915   4.457
 9580WAT     H139026   1.346   5.937   4.378
 9580WAT     H239027   1.304   5.829   4.451
 9580WAT    EPW39028   1.317   5.906   4.444
 9581WAT      O39029   1.459   5.509   3.118
 9581WAT     H139030   1.392   5.510   3.174
 9581WAT     H239031   1.469   5.424   3.100
 9581WAT    EPW39032   1.451   5.496   3.124
 9582WAT      O39033   2.428   5.151   4.792
 9582WAT     H139034   2.437   5.222   4.841
 9582WAT     H239035   2.364   5.107   4.832
 9582WAT    EPW39036   2.420   5.155   4.805
 9583WAT      O39037   2.327   5.170   3.877
 9583WAT     H139038   2.257   5.222   3.872
 9583WAT     H239039   2.331   5.132   3.799
 9583WAT    EPW39040   2.318   5.172   3.865
 9584WAT      O39041   1.858   6.379   3.230
 9584WAT     H139042   1.902   6.387   3.305
 9584WAT     H239043   1.778   6.358   3.256
 9584WAT    EPW39044   1.853   6.377   3.245
 9585WAT      O39045   2.687   5.222   4.157
 9585WAT     H139046   2.773   5.232   4.172
 9585WAT     H239047   2.650   5.277   4.214
 9585WAT    EPW39048   2.694   5.231   4.168
 9586WAT      O39049   1.790   5.844   4.595
 9586WAT     H139050   1.750   5.922   4.603
 9586WAT     H239051   1.749   5.807   4.527
 9586WAT    EPW39052   1.778   5.850   4.586
 9587WAT      O39053   2.718   5.750   4.006
 9587WAT     H139054   2.784   5.804   4.022
 9587WAT     H239055   2.683   5.781   3.933
 9587WAT    EPW39056   2.722   5.762   3.998
 9588WAT      O39057   2.749   6.556   3.587
 9588WAT     H139058   2.732   6.491   3.642
 9588WAT     H239059   2.820   6.529   3.545
 9588WAT    EPW39060   2.757   6.543   3.589
 9589WAT      O39061   1.591   6.286   3.290
 9589WAT     H139062   1.567   6.256   3.368
 9589WAT     H239063   1.588   6.216   3.238
 9589WAT    EPW39064   1.587   6.271   3.294
 9590WAT      O39065   1.873   6.111   3.164
 9590WAT     H139066   1.791   6.084   3.178
 9590WAT     H239067   1.870   6.196   3.183
 9590WAT    EPW39068   1.860   6.119   3.169
 9591WAT      O39069   1.833   5.142   4.340
 9591WAT     H139070   1.747   5.150   4.348
 9591WAT     H239071   1.855   5.091   4.407
 9591WAT    EPW39072   1.823   5.136   4.351
 9592WAT      O39073   2.243   5.217   4.177
 9592WAT     H139074   2.170   5.171   4.189
 9592WAT     H239075   2.300   5.177   4.230
 9592WAT    EPW39076   2.241   5.204   4.187
 9593WAT      O39077   2.516   6.302   4.356
 9593WAT     H139078   2.537   6.332   4.435
 9593WAT     H239079   2.510   6.374   4.308
 9593WAT    EPW39080   2.519   6.317   4.361
 9594WAT      O39081   2.470   6.723   4.781
 9594WAT     H139082   2.395   6.721   4.737
 9594WAT     H239083   2.487   6.808   4.789
 9594WAT    EPW39084   2.461   6.735   4.776
 9595WAT      O39085   1.994   5.650   4.698
 9595WAT     H139086   1.961   5.592   4.641
 9595WAT     H239087   1.958   5.725   4.673
 9595WAT    EPW39088   1.984   5.652   4.686
 9596WAT      O39089   2.073   4.975   3.161
 9596WAT     H139090   2.081   5.000   3.077
 9596WAT     H239091   1.999   5.013   3.186
 9596WAT    EPW39092   2.063   4.984   3.152
 9597WAT      O39093   2.998   6.166   4.302
 9597WAT     H139094   2.994   6.079   4.289
 9597WAT     H239095   2.928   6.196   4.259
 9597WAT    EPW39096   2.987   6.157   4.294
 9598WAT      O39097   1.837   6.685   4.723
 9598WAT     H139098   1.841   6.698   4.809
 9598WAT     H239099   1.902   6.629   4.707
 9598WAT    EPW39100   1.847   6.679   4.733
 9599WAT      O39101   2.808   6.492   4.182
 9599WAT     H139102   2.861   6.483   4.113
 9599WAT     H239103   2.769   6.414   4.187
 9599WAT    EPW39104   2.810   6.479   4.172
 9600WAT      O39105   1.555   5.150   4.405
 9600WAT     H139106   1.521   5.074   4.381
 9600WAT     H239107   1.485   5.203   4.411
 9600WAT    EPW39108   1.540   5.147   4.402
 9601WAT      O39109   2.460   5.036   4.103
 9601WAT     H139110   2.527   5.090   4.115
 9601WAT     H239111   2.409   5.078   4.045
 9601WAT    EPW39112   2.462   5.050   4.096
 9602WAT      O39113   1.596   6.524   4.859
 9602WAT     H139114   1.656   6.567   4.906
 9602WAT     H239115   1.560   6.586   4.810
 9602WAT    EPW39116   1.600   6.539   4.858
 9603WAT      O39117   2.395   5.617   3.852
 9603WAT     H139118   2.451   5.556   3.882
 9603WAT     H239119   2.353   5.643   3.923
 9603WAT    EPW39120   2.397   5.612   3.867
 9604WAT      O39121   1.420   5.482   3.800
 9604WAT     H139122   1.383   5.512   3.874
 9604WAT     H239123   1.474   5.419   3.829
 9604WAT    EPW39124   1.423   5.477   3.815
 9605WAT      O39125   1.389   6.323   4.552
 9605WAT     H139126   1.332   6.364   4.602
 9605WAT     H239127   1.462   6.369   4.561
 9605WAT    EPW39128   1.391   6.336   4.560
 9606WAT      O39129   2.592   5.800   3.508
 9606WAT     H139130   2.599   5.715   3.526
 9606WAT     H239131   2.510   5.808   3.480
 9606WAT    EPW39132   2.581   5.789   3.507
 9607WAT      O39133   1.568   6.649   3.429
 9607WAT     H139134   1.553   6.665   3.344
 9607WAT     H239135   1.654   6.657   3.437
 9607WAT    EPW39136   1.578   6.653   3.418
 9608WAT      O39137   1.984   5.889   3.402
 9608WAT     H139138   1.994   5.903   3.316
 9608WAT     H239139   2.066   5.883   3.431
 9608WAT    EPW39140   1.998   5.890   3.394
 9609WAT      O39141   2.900   6.695   3.150
 9609WAT     H139142   2.964   6.682   3.208
 9609WAT     H239143   2.866   6.616   3.138
 9609WAT    EPW39144   2.905   6.682   3.157
 9610WAT      O39145   2.920   5.937   4.823
 9610WAT     H139146   2.983   5.920   4.881
 9610WAT     H239147   2.962   5.977   4.758
 9610WAT    EPW39148   2.935   5.941   4.822
 9611WAT      O39149   2.508   6.322   3.382
 9611WAT     H139150   2.483   6.309   3.465
 9611WAT     H239151   2.476   6.252   3.340
 9611WAT    EPW39152   2.499   6.310   3.388
 9612WAT      O39153   2.972   5.488   4.194
 9612WAT     H139154   2.889   5.513   4.187
 9612WAT     H239155   2.967   5.404   4.217
 9612WAT    EPW39156   2.959   5.479   4.196
 9613WAT      O39157   2.661   5.948   4.959
 9613WAT     H139158   2.748   5.945   4.955
 9613WAT     H239159   2.639   5.990   4.885
 9613WAT    EPW39160   2.671   5.954   4.947
 9614WAT      O39161   1.636   6.531   4.077
 9614WAT     H139162   1.628   6.450   4.045
 9614WAT     H239163   1.592   6.579   4.020
 9614WAT    EPW39164   1.629   6.526   4.064
 9615WAT      O39165   2.196   6.143   3.325
 9615WAT     H139166   2.268   6.108   3.289
 9615WAT     H239167   2.193   6.223   3.290
 9615WAT    EPW39168   2.207   6.149   3.315
 9616WAT      O39169   1.394   6.755   4.435
 9616WAT     H139170   1.443   6.750   4.507
 9616WAT     H239171   1.412   6.682   4.391
 9616WAT    EPW39172   1.404   6.743   4.439
 9617WAT      O39173   2.337   5.007   1.749
 9617WAT     H139174   2.313   5.056   1.681
 9617WAT     H239175   2.424   4.999   1.739
 9617WAT    EPW39176   2.346   5.013   1.737
 9618WAT      O39177   2.318   5.698   2.216
 9618WAT     H139178   2.266   5.758   2.252
 9618WAT     H239179   2.358   5.662   2.284
 9618WAT    EPW39180   2.316   5.702   2.232
 9619WAT      O39181   1.305   6.112   1.762
 9619WAT     H139182   1.261   6.124   1.836
 9619WAT     H239183   1.277   6.035   1.733
 9619WAT    EPW39184   1.294   6.103   1.768
 9620WAT      O39185   2.933   6.442   1.513
 9620WAT     H139186   3.003   6.391   1.513
 9620WAT     H239187   2.874   6.398   1.466
 9620WAT    EPW39188   2.934   6.428   1.506
 9621WAT      O39189   1.279   5.492   1.412
 9621WAT     H139190   1.202   5.508   1.376
 9621WAT     H239191   1.283   5.404   1.415
 9621WAT    EPW39192   1.269   5.481   1.407
 9622WAT      O39193   1.593   6.018   1.280
 9622WAT     H139194   1.554   5.981   1.211
 9622WAT     H239195   1.585   5.958   1.342
 9622WAT    EPW39196   1.586   6.004   1.279
 9623WAT      O39197   2.585   5.805   1.884
 9623WAT     H139198   2.593   5.805   1.797
 9623WAT     H239199   2.527   5.742   1.899
 9623WAT    EPW39200   2.578   5.796   1.873
 9624WAT      O39201   1.556   6.182   1.670
 9624WAT     H139202   1.617   6.165   1.730
 9624WAT     H239203   1.481   6.168   1.712
 9624WAT    EPW39204   1.554   6.177   1.685
 9625WAT      O39205   1.984   5.115   1.664
 9625WAT     H139206   1.977   5.183   1.610
 9625WAT     H239207   2.058   5.077   1.640
 9625WAT    EPW39208   1.994   5.120   1.653
 9626WAT      O39209   1.445   6.491   1.277
 9626WAT     H139210   1.492   6.499   1.204
 9626WAT     H239211   1.491   6.433   1.324
 9626WAT    EPW39212   1.459   6.484   1.273
 9627WAT      O39213   1.299   6.386   2.387
 9627WAT     H139214   1.312   6.358   2.469
 9627WAT     H239215   1.238   6.332   2.356
 9627WAT    EPW39216   1.292   6.374   2.395
 9628WAT      O39217   1.957   6.138   2.894
 9628WAT     H139218   1.933   6.138   2.978
 9628WAT     H239219   1.882   6.124   2.851
 9628WAT    EPW39220   1.942   6.136   2.900
 9629WAT      O39221   1.444   5.838   1.807
 9629WAT     H139222   1.398   5.799   1.745
 9629WAT     H239223   1.514   5.787   1.817
 9629WAT    EPW39224   1.447   5.825   1.799
 9630WAT      O39225   1.895   5.399   2.342
 9630WAT     H139226   1.962   5.401   2.287
 9630WAT     H239227   1.890   5.315   2.367
 9630WAT    EPW39228   1.904   5.387   2.338
 9631WAT      O39229   1.955   6.458   2.620
 9631WAT     H139230   1.969   6.534   2.579
 9631WAT     H239231   2.034   6.421   2.623
 9631WAT    EPW39232   1.968   6.463   2.615
 9632WAT      O39233   1.644   5.648   1.810
 9632WAT     H139234   1.726   5.629   1.834
 9632WAT     H239235   1.596   5.587   1.849
 9632WAT    EPW39236   1.649   5.636   1.819
 9633WAT      O39237   2.064   6.246   2.071
 9633WAT     H139238   2.099   6.166   2.074
 9633WAT     H239239   2.131   6.296   2.045
 9633WAT    EPW39240   2.079   6.242   2.067
 9634WAT      O39241   2.070   6.191   1.692
 9634WAT     H139242   2.103   6.127   1.740
 9634WAT     H239243   2.094   6.170   1.611
 9634WAT    EPW39244   2.078   6.178   1.687
 9635WAT      O39245   2.267   5.604   2.826
 9635WAT     H139246   2.182   5.594   2.808
 9635WAT     H239247   2.270   5.679   2.871
 9635WAT    EPW39248   2.255   5.614   2.830
 9636WAT      O39249   1.704   5.157   1.736
 9636WAT     H139250   1.674   5.207   1.671
 9636WAT     H239251   1.790   5.165   1.731
 9636WAT    EPW39252   1.712   5.166   1.726
 9637WAT      O39253   2.723   4.900   2.737
 9637WAT     H139254   2.707   4.977   2.699
 9637WAT     H239255   2.645   4.878   2.771
 9637WAT    EPW39256   2.709   4.908   2.737
 9638WAT      O39257   2.001   5.072   1.959
 9638WAT     H139258   2.009   5.158   1.971
 9638WAT     H239259   1.998   5.064   1.872
 9638WAT    EPW39260   2.002   5.083   1.948
 9639WAT      O39261   2.469   5.364   1.188
 9639WAT     H139262   2.424   5.432   1.219
 9639WAT     H239263   2.480   5.314   1.259
 9639WAT    EPW39264   2.464   5.367   1.203
 9640WAT      O39265   1.289   5.614   2.109
 9640WAT     H139266   1.264   5.697   2.101
 9640WAT     H239267   1.223   5.576   2.150
 9640WAT    EPW39268   1.276   5.621   2.114
 9641WAT      O39269   1.280   6.585   1.899
 9641WAT     H139270   1.221   6.641   1.867
 9641WAT     H239271   1.323   6.558   1.827
 9641WAT    EPW39272   1.278   6.589   1.884
 9642WAT      O39273   1.864   6.369   1.647
 9642WAT     H139274   1.806   6.342   1.706
 9642WAT     H239275   1.927   6.309   1.649
 9642WAT    EPW39276   1.865   6.356   1.656
 9643WAT      O39277   2.479   6.598   1.399
 9643WAT     H139278   2.551   6.645   1.409
 9643WAT     H239279   2.502   6.519   1.427
 9643WAT    EPW39280   2.493   6.594   1.405
 9644WAT      O39281   2.295   6.637   1.598
 9644WAT     H139282   2.317   6.690   1.664
 9644WAT     H239283   2.372   6.620   1.560
 9644WAT    EPW39284   2.310   6.643   1.602
 9645WAT      O39285   1.592   5.096   2.158
 9645WAT     H139286   1.540   5.033   2.127
 9645WAT     H239287   1.651   5.052   2.205
 9645WAT    EPW39288   1.593   5.080   2.160
 9646WAT      O39289   1.923   5.309   3.088
 9646WAT     H139290   1.935   5.264   3.014
 9646WAT     H239291   1.952   5.389   3.067
 9646WAT    EPW39292   1.929   5.314   3.074
 9647WAT      O39293   1.435   6.452   1.692
 9647WAT     H139294   1.500   6.395   1.693
 9647WAT     H239295   1.474   6.527   1.670
 9647WAT    EPW39296   1.450   6.455   1.689
 9648WAT      O39297   3.008   5.361   1.818
 9648WAT     H139298   2.974   5.429   1.861
 9648WAT     H239299   2.945   5.302   1.820
 9648WAT    EPW39300   2.994   5.363   1.824
 9649WAT      O39301   2.539   6.638   2.428
 9649WAT     H139302   2.614   6.684   2.427
 9649WAT     H239303   2.527   6.617   2.345
 9649WAT    EPW39304   2.549   6.642   2.416
 9650WAT      O39305   1.496   5.269   2.986
 9650WAT     H139306   1.418   5.230   2.979
 9650WAT     H239307   1.545   5.228   2.927
 9650WAT    EPW39308   1.492   5.257   2.976
 9651WAT      O39309   1.517   6.301   2.042
 9651WAT     H139310   1.559   6.265   1.974
 9651WAT     H239311   1.549   6.259   2.111
 9651WAT    EPW39312   1.528   6.289   2.042
 9652WAT      O39313   1.840   6.586   1.971
 9652WAT     H139314   1.924   6.596   1.952
 9652WAT     H239315   1.810   6.668   1.978
 9652WAT    EPW39316   1.848   6.600   1.969
 9653WAT      O39317   2.161   5.033   2.903
 9653WAT     H139318   2.179   4.952   2.875
 9653WAT     H239319   2.147   5.077   2.829
 9653WAT    EPW39320   2.162   5.028   2.888
 9654WAT      O39321   2.220   5.526   1.780
 9654WAT     H139322   2.249   5.502   1.701
 9654WAT     H239323   2.294   5.534   1.827
 9654WAT    EPW39324   2.235   5.523   1.775
 9655WAT      O39325   2.293   5.560   1.292
 9655WAT     H139326   2.321   5.638   1.317
 9655WAT     H239327   2.215   5.576   1.256
 9655WAT    EPW39328   2.285   5.574   1.290
 9656WAT      O39329   2.697   6.757   1.439
 9656WAT     H139330   2.763   6.742   1.384
 9656WAT     H239331   2.733   6.749   1.518
 9656WAT    EPW39332   2.712   6.754   1.442
 9657WAT      O39333   1.740   6.708   2.545
 9657WAT     H139334   1.769   6.701   2.627
 9657WAT     H239335   1.677   6.647   2.541
 9657WAT    EPW39336   1.735   6.698   2.557
 9658WAT      O39337   2.976   5.194   2.355
 9658WAT     H139338   3.051   5.201   2.312
 9658WAT     H239339   2.982   5.116   2.395
 9658WAT    EPW39340   2.988   5.183   2.354
 9659WAT      O39341   1.231   5.324   2.745
 9659WAT     H139342   1.231   5.382   2.809
 9659WAT     H239343   1.290   5.355   2.689
 9659WAT    EPW39344   1.240   5.337   2.746
 9660WAT      O39345   2.465   6.357   2.799
 9660WAT     H139346   2.461   6.395   2.877
 9660WAT     H239347   2.550   6.353   2.782
 9660WAT    EPW39348   2.477   6.362   2.808
 9661WAT      O39349   2.179   6.377   1.274
 9661WAT     H139350   2.160   6.431   1.339
 9661WAT     H239351   2.255   6.406   1.244
 9661WAT    EPW39352   2.187   6.389   1.279
 9662WAT      O39353   2.529   5.166   1.379
 9662WAT     H139354   2.583   5.098   1.387
 9662WAT     H239355   2.535   5.206   1.457
 9662WAT    EPW39356   2.538   5.162   1.392
 9663WAT      O39357   1.325   5.283   1.636
 9663WAT     H139358   1.313   5.197   1.639
 9663WAT     H239359   1.277   5.312   1.703
 9663WAT    EPW39360   1.316   5.275   1.646
 9664WAT      O39361   1.539   6.524   2.458
 9664WAT     H139362   1.469   6.473   2.470
 9664WAT     H239363   1.565   6.504   2.377
 9664WAT    EPW39364   1.532   6.514   2.447
 9665WAT      O39365   2.255   5.404   1.511
 9665WAT     H139366   2.204   5.338   1.485
 9665WAT     H239367   2.260   5.454   1.440
 9665WAT    EPW39368   2.248   5.402   1.496
 9666WAT      O39369   2.310   6.673   2.549
 9666WAT     H139370   2.387   6.665   2.508
 9666WAT     H239371   2.252   6.661   2.485
 9666WAT    EPW39372   2.313   6.670   2.533
 9667WAT      O39373   2.255   5.098   1.500
 9667WAT     H139374   2.210   5.058   1.437
 9667WAT     H239375   2.332   5.113   1.462
 9667WAT    EPW39376   2.260   5.094   1.485
 9668WAT      O39377   2.938   6.734   1.839
 9668WAT     H139378   2.892   6.805   1.859
 9668WAT     H239379   2.876   6.677   1.814
 9668WAT    EPW39380   2.922   6.736   1.838
 9669WAT      O39381   2.115   5.335   1.952
 9669WAT     H139382   2.122   5.391   1.886
 9669WAT     H239383   2.127   5.384   2.023
 9669WAT    EPW39384   2.118   5.350   1.953
 9670WAT      O39385   2.637   6.318   1.793
 9670WAT     H139386   2.707   6.270   1.812
 9670WAT     H239387   2.571   6.261   1.798
 9670WAT    EPW39388   2.638   6.303   1.796
 9671WAT      O39389   1.675   6.409   2.714
 9671WAT     H139390   1.759   6.415   2.692
 9671WAT     H239391   1.671   6.449   2.792
 9671WAT    EPW39392   1.687   6.416   2.722
 9672WAT      O39393   1.576   4.917   1.787
 9672WAT     H139394   1.629   4.986   1.786
 9672WAT     H239395   1.576   4.890   1.704
 9672WAT    EPW39396   1.584   4.923   1.774
 9673WAT      O39397   1.871   5.960   2.189
 9673WAT     H139398   1.888   5.939   2.272
 9673WAT     H239399   1.806   5.907   2.168
 9673WAT    EPW39400   1.864   5.949   2.198
 9674WAT      O39401   2.494   5.352   2.541
 9674WAT     H139402   2.485   5.384   2.621
 9674WAT     H239403   2.435   5.288   2.537
 9674WAT    EPW39404   2.484   5.347   2.552
 9675WAT      O39405   1.946   5.954   2.448
 9675WAT     H139406   1.952   6.039   2.468
 9675WAT     H239407   1.918   5.917   2.522
 9675WAT    EPW39408   1.943   5.961   2.462
 9676WAT      O39409   2.564   6.024   2.361
 9676WAT     H139410   2.513   5.982   2.418
 9676WAT     H239411   2.551   6.108   2.379
 9676WAT    EPW39412   2.555   6.030   2.372
 9677WAT      O39413   2.620   4.946   1.824
 9677WAT     H139414   2.625   4.914   1.905
 9677WAT     H239415   2.652   4.882   1.775
 9677WAT    EPW39416   2.625   4.932   1.829
 9678WAT      O39417   1.228   6.391   3.069
 9678WAT     H139418   1.304   6.426   3.095
 9678WAT     H239419   1.246   6.306   3.064
 9678WAT    EPW39420   1.242   6.384   3.072
 9679WAT      O39421   2.866   5.370   2.655
 9679WAT     H139422   2.943   5.347   2.689
 9679WAT     H239423   2.819   5.391   2.725
 9679WAT    EPW39424   2.870   5.370   2.670
 9680WAT      O39425   1.620   5.298   1.952
 9680WAT     H139426   1.648   5.255   1.881
 9680WAT     H239427   1.603   5.234   2.009
 9680WAT    EPW39428   1.622   5.282   1.950
 9681WAT      O39429   2.889   6.067   1.374
 9681WAT     H139430   2.901   6.039   1.455
 9681WAT     H239431   2.970   6.070   1.341
 9681WAT    EPW39432   2.903   6.064   1.381
 9682WAT      O39433   1.603   6.041   1.907
 9682WAT     H139434   1.688   6.033   1.890
 9682WAT     H239435   1.567   5.972   1.866
 9682WAT    EPW39436   1.610   6.029   1.898
 9683WAT      O39437   1.480   6.713   2.031
 9683WAT     H139438   1.412   6.663   2.006
 9683WAT     H239439   1.520   6.732   1.956
 9683WAT    EPW39440   1.476   6.709   2.016
 9684WAT      O39441   1.435   5.408   2.260
 9684WAT     H139442   1.519   5.430   2.256
 9684WAT     H239443   1.396   5.465   2.207
 9684WAT    EPW39444   1.441   5.420   2.252
 9685WAT      O39445   3.113   6.518   2.799
 9685WAT     H139446   3.044   6.549   2.755
 9685WAT     H239447   3.076   6.473   2.864
 9685WAT    EPW39448   3.097   6.516   2.802
 9686WAT      O39449   2.679   5.721   1.332
 9686WAT     H139450   2.657   5.794   1.290
 9686WAT     H239451   2.634   5.726   1.407
 9686WAT    EPW39452   2.669   5.733   1.337
 9687WAT      O39453   1.840   6.041   1.730
 9687WAT     H139454   1.911   6.091   1.739
 9687WAT     H239455   1.862   5.985   1.668
 9687WAT    EPW39456   1.853   6.040   1.723
 9688WAT      O39457   3.097   5.207   1.278
 9688WAT     H139458   3.031   5.150   1.280
 9688WAT     H239459   3.078   5.258   1.210
 9688WAT    EPW39460   3.085   5.206   1.268
 9689WAT      O39461   1.255   6.206   2.062
 9689WAT     H139462   1.189   6.254   2.090
 9689WAT     H239463   1.323   6.260   2.065
 9689WAT    EPW39464   1.255   6.221   2.067
 9690WAT      O39465   2.020   5.577   3.072
 9690WAT     H139466   1.972   5.634   3.116
 9690WAT     H239467   2.017   5.606   2.990
 9690WAT    EPW39468   2.012   5.590   3.066
 9691WAT      O39469   1.262   5.874   1.573
 9691WAT     H139470   1.243   5.790   1.588
 9691WAT     H239471   1.328   5.870   1.516
 9691WAT    EPW39472   1.269   5.861   1.567
 9692WAT      O39473   2.898   5.163   1.506
 9692WAT     H139474   2.972   5.122   1.525
 9692WAT     H239475   2.924   5.235   1.463
 9692WAT    EPW39476   2.913   5.168   1.502
 9693WAT      O39477   2.292   6.412   1.963
 9693WAT     H139478   2.240   6.475   1.934
 9693WAT     H239479   2.323   6.375   1.890
 9693WAT    EPW39480   2.289   6.416   1.948
 9694WAT      O39481   1.279   6.290   1.530
 9694WAT     H139482   1.334   6.347   1.567
 9694WAT     H239483   1.256   6.239   1.597
 9694WAT    EPW39484   1.284   6.291   1.545
 9695WAT      O39485   1.699   6.190   2.239
 9695WAT     H139486   1.746   6.219   2.307
 9695WAT     H239487   1.757   6.143   2.194
 9695WAT    EPW39488   1.715   6.188   2.242
 9696WAT      O39489   2.543   5.392   2.013
 9696WAT     H139490   2.577   5.407   2.092
 9696WAT     H239491   2.498   5.318   2.024
 9696WAT    EPW39492   2.541   5.383   2.026
 9697WAT      O39493   1.262   6.135   1.293
 9697WAT     H139494   1.338   6.092   1.299
 9697WAT     H239495   1.264   6.189   1.362
 9697WAT    EPW39496   1.273   6.137   1.304
 9698WAT      O39497   1.356   5.957   2.094
 9698WAT     H139498   1.399   5.945   2.019
 9698WAT     H239499   1.336   6.042   2.091
 9698WAT    EPW39500   1.359   5.968   2.082
 9699WAT      O39501   1.991   5.314   1.459
 9699WAT     H139502   1.990   5.302   1.372
 9699WAT     H239503   1.973   5.399   1.468
 9699WAT    EPW39504   1.988   5.325   1.447
 9700WAT      O39505   2.896   6.557   2.608
 9700WAT     H139506   2.829   6.608   2.630
 9700WAT     H239507   2.902   6.567   2.522
 9700WAT    EPW39508   2.887   6.566   2.599
 9701WAT      O39509   1.764   6.309   1.922
 9701WAT     H139510   1.777   6.393   1.940
 9701WAT     H239511   1.831   6.269   1.961
 9701WAT    EPW39512   1.776   6.316   1.930
 9702WAT      O39513   1.577   5.657   2.908
 9702WAT     H139514   1.524   5.607   2.955
 9702WAT     H239515   1.579   5.618   2.830
 9702WAT    EPW39516   1.570   5.644   2.903
 9703WAT      O39517   1.626   5.597   1.422
 9703WAT     H139518   1.613   5.552   1.496
 9703WAT     H239519   1.568   5.563   1.367
 9703WAT    EPW39520   1.615   5.585   1.425
 9704WAT      O39521   1.643   5.780   2.082
 9704WAT     H139522   1.565   5.774   2.044
 9704WAT     H239523   1.650   5.705   2.126
 9704WAT    EPW39524   1.632   5.768   2.083
 9705WAT      O39525   1.686   5.754   2.429
 9705WAT     H139526   1.688   5.686   2.374
 9705WAT     H239527   1.621   5.803   2.397
 9705WAT    EPW39528   1.677   5.751   2.416
 9706WAT      O39529   2.675   5.525   2.268
 9706WAT     H139530   2.609   5.558   2.315
 9706WAT     H239531   2.694   5.588   2.211
 9706WAT    EPW39532   2.668   5.539   2.267
 9707WAT      O39533   2.096   6.631   2.368
 9707WAT     H139534   2.068   6.567   2.316
 9707WAT     H239535   2.075   6.704   2.324
 9707WAT    EPW39536   2.089   6.633   2.354
 9708WAT      O39537   2.340   5.116   2.611
 9708WAT     H139538   2.355   5.033   2.587
 9708WAT     H239539   2.378   5.121   2.690
 9708WAT    EPW39540   2.347   5.104   2.619
 9709WAT      O39541   2.494   5.322   1.619
 9709WAT     H139542   2.543   5.394   1.612
 9709WAT     H239543   2.415   5.348   1.593
 9709WAT    EPW39544   2.490   5.336   1.614
 9710WAT      O39545   1.466   5.889   2.985
 9710WAT     H139546   1.462   5.939   2.913
 9710WAT     H239547   1.499   5.814   2.955
 9710WAT    EPW39548   1.470   5.885   2.970
 9711WAT      O39549   2.626   6.110   2.810
 9711WAT     H139550   2.674   6.182   2.820
 9711WAT     H239551   2.665   6.067   2.745
 9711WAT    EPW39552   2.639   6.114   2.802
 9712WAT      O39553   2.055   6.394   2.928
 9712WAT     H139554   2.091   6.376   3.006
 9712WAT     H239555   2.012   6.321   2.908
 9712WAT    EPW39556   2.054   6.381   2.937
 9713WAT      O39557   2.153   5.469   2.192
 9713WAT     H139558   2.201   5.539   2.213
 9713WAT     H239559   2.190   5.404   2.237
 9713WAT    EPW39560   2.165   5.470   2.202
 9714WAT      O39561   2.372   5.786   1.419
 9714WAT     H139562   2.371   5.858   1.370
 9714WAT     H239563   2.308   5.799   1.477
 9714WAT    EPW39564   2.362   5.799   1.421
 9715WAT      O39565   2.869   6.173   1.817
 9715WAT     H139566   2.904   6.138   1.889
 9715WAT     H239567   2.868   6.107   1.760
 9715WAT    EPW39568   2.874   6.158   1.819
 9716WAT      O39569   2.473   6.479   2.202
 9716WAT     H139570   2.413   6.450   2.146
 9716WAT     H239571   2.528   6.525   2.151
 9716WAT    EPW39572   2.472   6.482   2.186
 9717WAT      O39573   2.475   6.165   2.142
 9717WAT     H139574   2.395   6.187   2.169
 9717WAT     H239575   2.500   6.105   2.200
 9717WAT    EPW39576   2.467   6.159   2.154
 9718WAT      O39577   1.864   6.646   1.587
 9718WAT     H139578   1.849   6.568   1.624
 9718WAT     H239579   1.933   6.631   1.535
 9718WAT    EPW39580   1.872   6.632   1.584
 9719WAT      O39581   1.831   5.020   1.385
 9719WAT     H139582   1.841   5.009   1.471
 9719WAT     H239583   1.760   5.071   1.379
 9719WAT    EPW39584   1.822   5.026   1.397
 9720WAT      O39585   2.093   6.597   1.427
 9720WAT     H139586   2.155   6.614   1.486
 9720WAT     H239587   2.097   6.666   1.374
 9720WAT    EPW39588   2.103   6.610   1.428
 9721WAT      O39589   2.801   5.964   2.626
 9721WAT     H139590   2.806   5.977   2.540
 9721WAT     H239591   2.876   5.996   2.657
 9721WAT    EPW39592   2.812   5.971   2.618
 9722WAT      O39593   2.420   6.499   3.054
 9722WAT     H139594   2.436   6.528   3.135
 9722WAT     H239595   2.446   6.565   3.004
 9722WAT    EPW39596   2.426   6.513   3.059
 9723WAT      O39597   2.904   4.994   2.925
 9723WAT     H139598   2.840   4.954   2.881
 9723WAT     H239599   2.906   4.951   3.001
 9723WAT    EPW39600   2.895   4.982   2.930
 9724WAT      O39601   1.543   5.851   1.510
 9724WAT     H139602   1.575   5.773   1.487
 9724WAT     H239603   1.608   5.888   1.555
 9724WAT    EPW39604   1.557   5.845   1.513
 9725WAT      O39605   2.374   5.945   2.586
 9725WAT     H139606   2.358   6.006   2.647
 9725WAT     H239607   2.427   5.889   2.627
 9725WAT    EPW39608   2.379   5.946   2.601
 9726WAT      O39609   1.243   5.017   1.606
 9726WAT     H139610   1.256   4.946   1.557
 9726WAT     H239611   1.206   4.985   1.679
 9726WAT    EPW39612   1.239   5.002   1.610
 9727WAT      O39613   2.212   5.785   1.652
 9727WAT     H139614   2.218   5.850   1.710
 9727WAT     H239615   2.193   5.715   1.701
 9727WAT    EPW39616   2.210   5.784   1.668
 9728WAT      O39617   2.735   6.218   2.239
 9728WAT     H139618   2.687   6.248   2.172
 9728WAT     H239619   2.699   6.140   2.257
 9728WAT    EPW39620   2.722   6.211   2.232
 9729WAT      O39621   1.662   5.237   1.303
 9729WAT     H139622   1.611   5.242   1.233
 9729WAT     H239623   1.740   5.261   1.274
 9729WAT    EPW39624   1.666   5.241   1.289
 9730WAT      O39625   2.134   5.990   2.095
 9730WAT     H139626   2.050   5.970   2.103
 9730WAT     H239627   2.167   5.973   2.175
 9730WAT    EPW39628   2.127   5.984   2.108
 9731WAT      O39629   1.810   6.663   1.184
 9731WAT     H139630   1.853   6.593   1.213
 9731WAT     H239631   1.830   6.725   1.241
 9731WAT    EPW39632   1.819   6.662   1.197
 9732WAT      O39633   1.519   5.959   2.327
 9732WAT     H139634   1.591   6.008   2.323
 9732WAT     H239635   1.492   5.956   2.244
 9732WAT    EPW39636   1.526   5.966   2.314
 9733WAT      O39637   1.842   5.476   2.000
 9733WAT     H139638   1.927   5.457   2.010
 9733WAT     H239639   1.805   5.398   1.987
 9733WAT    EPW39640   1.849   5.462   2.000
 9734WAT      O39641   3.104   6.634   1.433
 9734WAT     H139642   3.173   6.588   1.408
 9734WAT     H239643   3.050   6.575   1.467
 9734WAT    EPW39644   3.106   6.619   1.434
 9735WAT      O39645   1.324   5.610   1.666
 9735WAT     H139646   1.373   5.581   1.732
 9735WAT     H239647   1.337   5.551   1.603
 9735WAT    EPW39648   1.333   5.597   1.666
 9736WAT      O39649   2.828   5.912   2.351
 9736WAT     H139650   2.827   5.834   2.391
 9736WAT     H239651   2.744   5.935   2.350
 9736WAT    EPW39652   2.815   5.904   2.357
 9737WAT      O39653   1.777   5.753   1.214
 9737WAT     H139654   1.716   5.713   1.262
 9737WAT     H239655   1.738   5.765   1.137
 9737WAT    EPW39656   1.762   5.749   1.210
 9738WAT      O39657   1.459   6.064   2.755
 9738WAT     H139658   1.417   6.012   2.699
 9738WAT     H239659   1.423   6.143   2.740
 9738WAT    EPW39660   1.447   6.068   2.744
 9739WAT      O39661   2.953   5.919   2.095
 9739WAT     H139662   2.925   5.959   2.167
 9739WAT     H239663   3.039   5.913   2.107
 9739WAT    EPW39664   2.962   5.924   2.107
 9740WAT      O39665   1.922   5.599   1.485
 9740WAT     H139666   1.949   5.682   1.492
 9740WAT     H239667   1.836   5.607   1.476
 9740WAT    EPW39668   1.914   5.613   1.485
 9741WAT      O39669   2.720   5.312   2.949
 9741WAT     H139670   2.667   5.357   3.001
 9741WAT     H239671   2.683   5.232   2.948
 9741WAT    EPW39672   2.706   5.307   2.956
 9742WAT      O39673   1.270   5.196   2.139
 9742WAT     H139674   1.275   5.231   2.059
 9742WAT     H239675   1.346   5.220   2.176
 9742WAT    EPW39676   1.282   5.205   2.133
 9743WAT      O39677   3.066   6.482   2.148
 9743WAT     H139678   3.095   6.508   2.069
 9743WAT     H239679   3.136   6.492   2.199
 9743WAT    EPW39680   3.081   6.488   2.144
 9744WAT      O39681   2.569   5.668   2.956
 9744WAT     H139682   2.576   5.679   3.043
 9744WAT     H239683   2.505   5.724   2.934
 9744WAT    EPW39684   2.560   5.678   2.966
 9745WAT      O39685   2.796   5.700   2.793
 9745WAT     H139686   2.827   5.779   2.813
 9745WAT     H239687   2.759   5.673   2.867
 9745WAT    EPW39688   2.795   5.708   2.807
 9746WAT      O39689   2.727   6.343   1.346
 9746WAT     H139690   2.760   6.262   1.349
 9746WAT     H239691   2.651   6.336   1.389
 9746WAT    EPW39692   2.721   6.330   1.353
 9747WAT      O39693   2.775   5.526   1.912
 9747WAT     H139694   2.701   5.494   1.943
 9747WAT     H239695   2.775   5.609   1.940
 9747WAT    EPW39696   2.764   5.534   1.920
 9748WAT      O39697   3.065   5.755   3.066
 9748WAT     H139698   3.060   5.720   2.986
 9748WAT     H239699   3.139   5.801   3.064
 9748WAT    EPW39700   3.075   5.756   3.054
 9749WAT      O39701   3.019   6.122   2.687
 9749WAT     H139702   3.082   6.067   2.661
 9749WAT     H239703   3.013   6.179   2.621
 9749WAT    EPW39704   3.028   6.122   2.673
 9750WAT      O39705   2.464   6.130   1.286
 9750WAT     H139706   2.533   6.079   1.269
 9750WAT     H239707   2.423   6.135   1.210
 9750WAT    EPW39708   2.468   6.123   1.272
 9751WAT      O39709   1.933   6.245   2.416
 9751WAT     H139710   1.903   6.304   2.473
 9751WAT     H239711   1.938   6.289   2.342
 9751WAT    EPW39712   1.929   6.261   2.414
 9752WAT      O39713   1.730   6.140   2.756
 9752WAT     H139714   1.650   6.111   2.773
 9752WAT     H239715   1.722   6.227   2.757
 9752WAT    EPW39716   1.717   6.149   2.759
 9753WAT      O39717   2.666   5.159   2.658
 9753WAT     H139718   2.741   5.204   2.651
 9753WAT     H239719   2.610   5.206   2.611
 9753WAT    EPW39720   2.669   5.173   2.650
 9754WAT      O39721   2.184   5.888   2.366
 9754WAT     H139722   2.232   5.925   2.428
 9754WAT     H239723   2.102   5.901   2.391
 9754WAT    EPW39724   2.179   5.895   2.379
 9755WAT      O39725   1.855   5.448   2.640
 9755WAT     H139726   1.871   5.373   2.682
 9755WAT     H239727   1.851   5.423   2.556
 9755WAT    EPW39728   1.857   5.433   2.634
 9756WAT      O39729   2.111   6.627   1.888
 9756WAT     H139730   2.165   6.695   1.894
 9756WAT     H239731   2.076   6.635   1.809
 9756WAT    EPW39732   2.113   6.638   1.877
 9757WAT      O39733   2.795   4.957   2.425
 9757WAT     H139734   2.767   5.040   2.420
 9757WAT     H239735   2.866   4.962   2.474
 9757WAT    EPW39736   2.801   4.970   2.431
 9758WAT      O39737   2.030   5.029   2.628
 9758WAT     H139738   2.101   5.061   2.587
 9758WAT     H239739   2.054   4.948   2.650
 9758WAT    EPW39740   2.044   5.021   2.625
 9759WAT      O39741   1.929   6.450   2.227
 9759WAT     H139742   1.866   6.508   2.209
 9759WAT     H239743   1.954   6.421   2.149
 9759WAT    EPW39744   1.923   6.454   2.213
 9760WAT      O39745   2.360   6.113   2.926
 9760WAT     H139746   2.435   6.142   2.894
 9760WAT     H239747   2.305   6.118   2.858
 9760WAT    EPW39748   2.363   6.118   2.911
 9761WAT      O39749   2.751   6.368   2.777
 9761WAT     H139750   2.785   6.395   2.852
 9761WAT     H239751   2.780   6.426   2.719
 9761WAT    EPW39752   2.760   6.381   2.779
 9762WAT      O39753   2.937   5.583   1.310
 9762WAT     H139754   2.975   5.650   1.270
 9762WAT     H239755   2.853   5.605   1.314
 9762WAT    EPW39756   2.930   5.596   1.305
 9763WAT      O39757   2.088   5.927   1.219
 9763WAT     H139758   2.008   5.910   1.190
 9763WAT     H239759   2.085   6.012   1.238
 9763WAT    EPW39760   2.076   5.937   1.217
 9764WAT      O39761   1.681   5.534   2.234
 9764WAT     H139762   1.725   5.524   2.159
 9764WAT     H239763   1.736   5.503   2.294
 9764WAT    EPW39764   1.696   5.528   2.232
 9765WAT      O39765   2.483   5.444   2.793
 9765WAT     H139766   2.418   5.491   2.828
 9765WAT     H239767   2.539   5.435   2.859
 9765WAT    EPW39768   2.482   5.450   2.808
 9766WAT      O39769   2.452   5.598   2.423
 9766WAT     H139770   2.482   5.640   2.493
 9766WAT     H239771   2.455   5.514   2.446
 9766WAT    EPW39772   2.457   5.592   2.437
 9767WAT      O39773   2.194   6.615   2.815
 9767WAT     H139774   2.242   6.555   2.774
 9767WAT     H239775   2.159   6.570   2.882
 9767WAT    EPW39776   2.196   6.599   2.819
 9768WAT      O39777   2.706   5.543   1.648
 9768WAT     H139778   2.727   5.522   1.730
 9768WAT     H239779   2.782   5.569   1.614
 9768WAT    EPW39780   2.721   5.544   1.655
 9769WAT      O39781   2.036   5.032   2.238
 9769WAT     H139782   1.953   5.018   2.262
 9769WAT     H239783   2.032   5.036   2.151
 9769WAT    EPW39784   2.023   5.031   2.229
 9770WAT      O39785   2.809   5.151   1.795
 9770WAT     H139786   2.737   5.104   1.812
 9770WAT     H239787   2.792   5.185   1.717
 9770WAT    EPW39788   2.796   5.149   1.786
 9771WAT      O39789   2.853   5.945   1.633
 9771WAT     H139790   2.901   5.872   1.629
 9771WAT     H239791   2.771   5.917   1.626
 9771WAT    EPW39792   2.848   5.930   1.631
 9772WAT      O39793   2.200   6.136   2.717
 9772WAT     H139794   2.121   6.130   2.752
 9772WAT     H239795   2.207   6.221   2.698
 9772WAT    EPW39796   2.189   6.148   2.720
 9773WAT      O39797   1.292   5.072   2.842
 9773WAT     H139798   1.278   5.152   2.809
 9773WAT     H239799   1.214   5.048   2.871
 9773WAT    EPW39800   1.279   5.080   2.841
 9774WAT      O39801   1.783   6.757   2.249
 9774WAT     H139802   1.784   6.763   2.336
 9774WAT     H239803   1.741   6.682   2.234
 9774WAT    EPW39804   1.777   6.747   2.260
 9775WAT      O39805   1.599   5.347   1.564
 9775WAT     H139806   1.611   5.314   1.485
 9775WAT     H239807   1.518   5.322   1.584
 9775WAT    EPW39808   1.589   5.338   1.556
 9776WAT      O39809   2.475   6.062   1.869
 9776WAT     H139810   2.482   6.096   1.949
 9776WAT     H239811   2.491   5.977   1.881
 9776WAT    EPW39812   2.478   6.054   1.882
 9777WAT      O39813   2.227   5.989   1.825
 9777WAT     H139814   2.197   5.958   1.901
 9777WAT     H239815   2.296   6.037   1.849
 9777WAT    EPW39816   2.233   5.992   1.840
 9778WAT      O39817   2.249   6.401   2.628
 9778WAT     H139818   2.318   6.390   2.681
 9778WAT     H239819   2.262   6.480   2.594
 9778WAT    EPW39820   2.261   6.411   2.631
 9779WAT      O39821   3.067   5.662   2.809
 9779WAT     H139822   2.981   5.650   2.822
 9779WAT     H239823   3.082   5.623   2.733
 9779WAT    EPW39824   3.056   5.654   2.800
 9780WAT      O39825   2.518   5.729   2.667
 9780WAT     H139826   2.492   5.657   2.709
 9780WAT     H239827   2.600   5.740   2.694
 9780WAT    EPW39828   2.526   5.720   2.677
 9781WAT      O39829   1.459   6.707   2.793
 9781WAT     H139830   1.394   6.650   2.803
 9781WAT     H239831   1.422   6.784   2.808
 9781WAT    EPW39832   1.444   6.710   2.797
 9782WAT      O39833   2.311   5.848   2.985
 9782WAT     H139834   2.344   5.916   2.942
 9782WAT     H239835   2.241   5.880   3.026
 9782WAT    EPW39836   2.306   5.862   2.985
 9783WAT      O39837   2.620   6.685   2.078
 9783WAT     H139838   2.575   6.749   2.116
 9783WAT     H239839   2.690   6.677   2.129
 9783WAT    EPW39840   2.623   6.693   2.091
 9784WAT      O39841   2.290   6.194   2.371
 9784WAT     H139842   2.220   6.234   2.406
 9784WAT     H239843   2.357   6.237   2.405
 9784WAT    EPW39844   2.289   6.206   2.381
 9785WAT      O39845   2.827   6.453   3.029
 9785WAT     H139846   2.905   6.414   3.038
 9785WAT     H239847   2.781   6.420   3.095
 9785WAT    EPW39848   2.832   6.443   3.040
 9786WAT      O39849   1.597   5.548   2.606
 9786WAT     H139850   1.634   5.610   2.557
 9786WAT     H239851   1.664   5.500   2.635
 9786WAT    EPW39852   1.612   5.550   2.603
 9787WAT      O39853   1.374   5.393   2.534
 9787WAT     H139854   1.382   5.376   2.448
 9787WAT     H239855   1.449   5.433   2.553
 9787WAT    EPW39856   1.386   5.396   2.524
 9788WAT      O39857   2.930   5.657   1.578
 9788WAT     H139858   2.940   5.651   1.491
 9788WAT     H239859   3.004   5.623   1.609
 9788WAT    EPW39860   2.942   5.651   1.569
 9789WAT      O39861   1.629   5.134   2.775
 9789WAT     H139862   1.621   5.049   2.795
 9789WAT     H239863   1.598   5.138   2.693
 9789WAT    EPW39864   1.624   5.122   2.766
 9790WAT      O39865   2.322   6.353   1.688
 9790WAT     H139866   2.301   6.436   1.672
 9790WAT     H239867   2.244   6.315   1.700
 9790WAT    EPW39868   2.307   6.360   1.688
 9791WAT      O39869   2.840   5.671   2.513
 9791WAT     H139870   2.840   5.585   2.526
 9791WAT     H239871   2.847   5.704   2.594
 9791WAT    EPW39872   2.841   5.663   2.527
 9792WAT      O39873   1.314   5.915   2.556
 9792WAT     H139874   1.346   5.937   2.478
 9792WAT     H239875   1.304   5.829   2.550
 9792WAT    EPW39876   1.317   5.906   2.544
 9793WAT      O39877   1.459   5.509   1.218
 9793WAT     H139878   1.392   5.510   1.273
 9793WAT     H239879   1.469   5.424   1.199
 9793WAT    EPW39880   1.451   5.496   1.223
 9794WAT      O39881   2.428   5.151   2.891
 9794WAT     H139882   2.437   5.222   2.941
 9794WAT     H239883   2.364   5.107   2.931
 9794WAT    EPW39884   2.420   5.155   2.905
 9795WAT      O39885   2.327   5.170   1.977
 9795WAT     H139886   2.257   5.222   1.971
 9795WAT     H239887   2.331   5.132   1.898
 9795WAT    EPW39888   2.318   5.172   1.964
 9796WAT      O39889   1.858   6.379   1.329
 9796WAT     H139890   1.902   6.387   1.404
 9796WAT     H239891   1.778   6.358   1.355
 9796WAT    EPW39892   1.853   6.377   1.344
 9797WAT      O39893   2.687   5.222   2.257
 9797WAT     H139894   2.773   5.232   2.271
 9797WAT     H239895   2.650   5.277   2.313
 9797WAT    EPW39896   2.694   5.231   2.267
 9798WAT      O39897   1.790   5.844   2.694
 9798WAT     H139898   1.750   5.922   2.702
 9798WAT     H239899   1.749   5.807   2.627
 9798WAT    EPW39900   1.778   5.850   2.686
 9799WAT      O39901   2.718   5.750   2.106
 9799WAT     H139902   2.784   5.804   2.122
 9799WAT     H239903   2.683   5.781   2.032
 9799WAT    EPW39904   2.722   5.762   2.097
 9800WAT      O39905   2.749   6.556   1.687
 9800WAT     H139906   2.732   6.491   1.742
 9800WAT     H239907   2.820   6.529   1.644
 9800WAT    EPW39908   2.757   6.543   1.688
 9801WAT      O39909   1.591   6.286   1.389
 9801WAT     H139910   1.567   6.256   1.467
 9801WAT     H239911   1.588   6.216   1.338
 9801WAT    EPW39912   1.587   6.271   1.393
 9802WAT      O39913   1.873   6.111   1.264
 9802WAT     H139914   1.791   6.084   1.278
 9802WAT     H239915   1.870   6.196   1.282
 9802WAT    EPW39916   1.860   6.119   1.268
 9803WAT      O39917   1.833   5.142   2.439
 9803WAT     H139918   1.747   5.150   2.447
 9803WAT     H239919   1.855   5.091   2.506
 9803WAT    EPW39920   1.823   5.136   2.451
 9804WAT      O39921   3.035   5.006   2.572
 9804WAT     H139922   3.030   5.001   2.659
 9804WAT     H239923   3.103   4.955   2.553
 9804WAT    EPW39924   3.044   4.998   2.582
 9805WAT      O39925   2.243   5.217   2.277
 9805WAT     H139926   2.170   5.171   2.288
 9805WAT     H239927   2.300   5.177   2.329
 9805WAT    EPW39928   2.241   5.204   2.286
 9806WAT      O39929   2.516   6.302   2.456
 9806WAT     H139930   2.537   6.332   2.535
 9806WAT     H239931   2.510   6.374   2.407
 9806WAT    EPW39932   2.519   6.317   2.460
 9807WAT      O39933   2.470   6.723   2.880
 9807WAT     H139934   2.395   6.721   2.836
 9807WAT     H239935   2.487   6.808   2.889
 9807WAT    EPW39936   2.461   6.735   2.875
 9808WAT      O39937   1.994   5.650   2.797
 9808WAT     H139938   1.961   5.592   2.740
 9808WAT     H239939   1.958   5.725   2.773
 9808WAT    EPW39940   1.984   5.652   2.785
 9809WAT      O39941   2.073   4.975   1.260
 9809WAT     H139942   2.081   5.000   1.177
 9809WAT     H239943   1.999   5.013   1.286
 9809WAT    EPW39944   2.063   4.984   1.251
 9810WAT      O39945   2.998   6.166   2.401
 9810WAT     H139946   2.994   6.079   2.388
 9810WAT     H239947   2.928   6.196   2.358
 9810WAT    EPW39948   2.987   6.157   2.393
 9811WAT      O39949   1.837   6.685   2.822
 9811WAT     H139950   1.841   6.698   2.908
 9811WAT     H239951   1.902   6.629   2.806
 9811WAT    EPW39952   1.847   6.679   2.833
 9812WAT      O39953   2.808   6.492   2.281
 9812WAT     H139954   2.861   6.483   2.212
 9812WAT     H239955   2.769   6.414   2.287
 9812WAT    EPW39956   2.810   6.479   2.272
 9813WAT      O39957   1.555   5.150   2.504
 9813WAT     H139958   1.521   5.074   2.481
 9813WAT     H239959   1.485   5.203   2.511
 9813WAT    EPW39960   1.540   5.147   2.502
 9814WAT      O39961   2.460   5.036   2.202
 9814WAT     H139962   2.527   5.090   2.215
 9814WAT     H239963   2.409   5.078   2.145
 9814WAT    EPW39964   2.462   5.050   2.195
 9815WAT      O39965   1.596   6.524   2.958
 9815WAT     H139966   1.656   6.567   3.005
 9815WAT     H239967   1.560   6.586   2.909
 9815WAT    EPW39968   1.600   6.539   2.958
 9816WAT      O39969   2.395   5.617   1.951
 9816WAT     H139970   2.451   5.556   1.981
 9816WAT     H239971   2.353   5.643   2.023
 9816WAT    EPW39972   2.397   5.612   1.966
 9817WAT      O39973   1.420   5.482   1.900
 9817WAT     H139974   1.383   5.512   1.973
 9817WAT     H239975   1.474   5.419   1.928
 9817WAT    EPW39976   1.423   5.477   1.915
 9818WAT      O39977   1.389   6.323   2.651
 9818WAT     H139978   1.332   6.364   2.702
 9818WAT     H239979   1.462   6.369   2.660
 9818WAT    EPW39980   1.391   6.336   2.660
 9819WAT      O39981   2.592   5.800   1.607
 9819WAT     H139982   2.599   5.715   1.626
 9819WAT     H239983   2.510   5.808   1.580
 9819WAT    EPW39984   2.581   5.789   1.606
 9820WAT      O39985   1.568   6.649   1.528
 9820WAT     H139986   1.553   6.665   1.444
 9820WAT     H239987   1.654   6.657   1.536
 9820WAT    EPW39988   1.578   6.653   1.517
 9821WAT      O39989   1.984   5.889   1.501
 9821WAT     H139990   1.994   5.903   1.416
 9821WAT     H239991   2.066   5.883   1.531
 9821WAT    EPW39992   1.998   5.890   1.493
 9822WAT      O39993   2.900   6.695   1.249
 9822WAT     H139994   2.964   6.682   1.307
 9822WAT     H239995   2.866   6.616   1.238
 9822WAT    EPW39996   2.905   6.682   1.256
 9823WAT      O39997   2.920   5.937   2.923
 9823WAT     H139998   2.983   5.920   2.980
 9823WAT     H239999   2.962   5.977   2.857
 9823WAT    EPW40000   2.935   5.941   2.921
 9824WAT      O40001   2.508   6.322   1.481
 9824WAT     H140002   2.483   6.309   1.564
 9824WAT     H240003   2.476   6.252   1.439
 9824WAT    EPW40004   2.499   6.310   1.487
 9825WAT      O40005   2.982   5.394   2.996
 9825WAT     H140006   2.963   5.458   3.052
 9825WAT     H240007   2.910   5.345   2.996
 9825WAT    EPW40008   2.969   5.396   3.004
 9826WAT      O40009   2.972   5.488   2.293
 9826WAT     H140010   2.889   5.513   2.286
 9826WAT     H240011   2.967   5.404   2.316
 9826WAT    EPW40012   2.959   5.479   2.296
 9827WAT      O40013   1.898   5.186   2.813
 9827WAT     H140014   1.922   5.129   2.752
 9827WAT     H240015   1.814   5.168   2.827
 9827WAT    EPW40016   1.889   5.175   2.806
 9828WAT      O40017   2.661   5.948   3.058
 9828WAT     H140018   2.748   5.945   3.054
 9828WAT     H240019   2.639   5.990   2.985
 9828WAT    EPW40020   2.671   5.954   3.047
 9829WAT      O40021   1.636   6.531   2.176
 9829WAT     H140022   1.628   6.450   2.145
 9829WAT     H240023   1.592   6.579   2.119
 9829WAT    EPW40024   1.629   6.526   2.163
 9830WAT      O40025   2.196   6.143   1.424
 9830WAT     H140026   2.268   6.108   1.389
 9830WAT     H240027   2.193   6.223   1.390
 9830WAT    EPW40028   2.207   6.149   1.414
 9831WAT      O40029   1.394   6.755   2.534
 9831WAT     H140030   1.443   6.750   2.606
 9831WAT     H240031   1.412   6.682   2.491
 9831WAT    EPW40032   1.404   6.743   2.538
 9832WAT      O40033   2.318   5.698   0.315
 9832WAT     H140034   2.266   5.758   0.352
 9832WAT     H240035   2.358   5.662   0.384
 9832WAT    EPW40036   2.316   5.702   0.331
 9833WAT      O40037   1.299   6.386   0.487
 9833WAT     H140038   1.312   6.358   0.568
 9833WAT     H240039   1.238   6.332   0.456
 9833WAT    EPW40040   1.292   6.374   0.494
 9834WAT      O40041   1.957   6.138   0.993
 9834WAT     H140042   1.933   6.138   1.077
 9834WAT     H240043   1.882   6.124   0.951
 9834WAT    EPW40044   1.942   6.136   0.999
 9835WAT      O40045   1.895   5.399   0.441
 9835WAT     H140046   1.962   5.401   0.387
 9835WAT     H240047   1.890   5.315   0.466
 9835WAT    EPW40048   1.904   5.387   0.437
 9836WAT      O40049   1.955   6.458   0.720
 9836WAT     H140050   1.969   6.534   0.679
 9836WAT     H240051   2.034   6.421   0.722
 9836WAT    EPW40052   1.968   6.463   0.714
 9837WAT      O40053   2.267   5.604   0.925
 9837WAT     H140054   2.182   5.594   0.907
 9837WAT     H240055   2.270   5.679   0.970
 9837WAT    EPW40056   2.255   5.614   0.929
 9838WAT      O40057   2.723   4.900   0.836
 9838WAT     H140058   2.707   4.977   0.798
 9838WAT     H240059   2.645   4.878   0.871
 9838WAT    EPW40060   2.709   4.908   0.836
 9839WAT      O40061   1.289   5.614   0.208
 9839WAT     H140062   1.264   5.697   0.201
 9839WAT     H240063   1.223   5.576   0.250
 9839WAT    EPW40064   1.276   5.621   0.213
 9840WAT      O40065   1.592   5.096   0.257
 9840WAT     H140066   1.540   5.033   0.226
 9840WAT     H240067   1.651   5.052   0.304
 9840WAT    EPW40068   1.593   5.080   0.260
 9841WAT      O40069   1.923   5.309   1.187
 9841WAT     H140070   1.935   5.264   1.113
 9841WAT     H240071   1.952   5.389   1.167
 9841WAT    EPW40072   1.929   5.314   1.173
 9842WAT      O40073   2.539   6.638   0.528
 9842WAT     H140074   2.614   6.684   0.527
 9842WAT     H240075   2.527   6.617   0.444
 9842WAT    EPW40076   2.549   6.642   0.515
 9843WAT      O40077   1.496   5.269   1.085
 9843WAT     H140078   1.418   5.230   1.078
 9843WAT     H240079   1.545   5.228   1.026
 9843WAT    EPW40080   1.492   5.257   1.076
 9844WAT      O40081   2.161   5.033   1.002
 9844WAT     H140082   2.179   4.952   0.975
 9844WAT     H240083   2.147   5.077   0.928
 9844WAT    EPW40084   2.162   5.028   0.987
 9845WAT      O40085   1.740   6.708   0.645
 9845WAT     H140086   1.769   6.701   0.727
 9845WAT     H240087   1.677   6.647   0.640
 9845WAT    EPW40088   1.735   6.698   0.656
 9846WAT      O40089   2.976   5.194   0.454
 9846WAT     H140090   3.051   5.201   0.411
 9846WAT     H240091   2.982   5.116   0.494
 9846WAT    EPW40092   2.988   5.183   0.454
 9847WAT      O40093   1.231   5.324   0.844
 9847WAT     H140094   1.231   5.382   0.909
 9847WAT     H240095   1.290   5.355   0.788
 9847WAT    EPW40096   1.240   5.337   0.845
 9848WAT      O40097   2.465   6.357   0.898
 9848WAT     H140098   2.461   6.395   0.977
 9848WAT     H240099   2.550   6.353   0.881
 9848WAT    EPW40100   2.477   6.362   0.907
 9849WAT      O40101   1.539   6.524   0.557
 9849WAT     H140102   1.469   6.473   0.570
 9849WAT     H240103   1.565   6.504   0.476
 9849WAT    EPW40104   1.532   6.514   0.547
 9850WAT      O40105   2.310   6.673   0.648
 9850WAT     H140106   2.387   6.665   0.607
 9850WAT     H240107   2.252   6.661   0.584
 9850WAT    EPW40108   2.313   6.670   0.633
 9851WAT      O40109   1.675   6.409   0.814
 9851WAT     H140110   1.759   6.415   0.791
 9851WAT     H240111   1.671   6.449   0.891
 9851WAT    EPW40112   1.687   6.416   0.822
 9852WAT      O40113   1.871   5.960   0.289
 9852WAT     H140114   1.888   5.939   0.371
 9852WAT     H240115   1.806   5.907   0.267
 9852WAT    EPW40116   1.864   5.949   0.298
 9853WAT      O40117   2.494   5.352   0.640
 9853WAT     H140118   2.485   5.384   0.721
 9853WAT     H240119   2.435   5.288   0.636
 9853WAT    EPW40120   2.484   5.347   0.651
 9854WAT      O40121   1.946   5.954   0.548
 9854WAT     H140122   1.952   6.039   0.568
 9854WAT     H240123   1.918   5.917   0.621
 9854WAT    EPW40124   1.943   5.961   0.561
 9855WAT      O40125   2.564   6.024   0.461
 9855WAT     H140126   2.513   5.982   0.518
 9855WAT     H240127   2.551   6.108   0.479
 9855WAT    EPW40128   2.555   6.030   0.472
 9856WAT      O40129   1.228   6.391   1.169
 9856WAT     H140130   1.304   6.426   1.194
 9856WAT     H240131   1.246   6.306   1.163
 9856WAT    EPW40132   1.242   6.384   1.172
 9857WAT      O40133   2.866   5.370   0.754
 9857WAT     H140134   2.943   5.347   0.788
 9857WAT     H240135   2.819   5.391   0.824
 9857WAT    EPW40136   2.870   5.370   0.770
 9858WAT      O40137   1.435   5.408   0.360
 9858WAT     H140138   1.519   5.430   0.355
 9858WAT     H240139   1.396   5.465   0.307
 9858WAT    EPW40140   1.441   5.420   0.351
 9859WAT      O40141   3.113   6.518   0.899
 9859WAT     H140142   3.044   6.549   0.854
 9859WAT     H240143   3.076   6.473   0.963
 9859WAT    EPW40144   3.097   6.516   0.902
 9860WAT      O40145   2.020   5.577   1.171
 9860WAT     H140146   1.972   5.634   1.216
 9860WAT     H240147   2.017   5.606   1.089
 9860WAT    EPW40148   2.012   5.590   1.166
 9861WAT      O40149   3.130   5.645   0.633
 9861WAT     H140150   3.151   5.565   0.605
 9861WAT     H240151   3.045   5.651   0.614
 9861WAT    EPW40152   3.120   5.634   0.626
 9862WAT      O40153   1.699   6.190   0.339
 9862WAT     H140154   1.746   6.219   0.406
 9862WAT     H240155   1.757   6.143   0.293
 9862WAT    EPW40156   1.715   6.188   0.342
 9863WAT      O40157   2.896   6.557   0.708
 9863WAT     H140158   2.829   6.608   0.729
 9863WAT     H240159   2.902   6.567   0.621
 9863WAT    EPW40160   2.887   6.566   0.698
 9864WAT      O40161   1.577   5.657   1.007
 9864WAT     H140162   1.524   5.607   1.054
 9864WAT     H240163   1.579   5.618   0.929
 9864WAT    EPW40164   1.570   5.644   1.003
 9865WAT      O40165   1.686   5.754   0.528
 9865WAT     H140166   1.688   5.686   0.473
 9865WAT     H240167   1.621   5.803   0.497
 9865WAT    EPW40168   1.677   5.751   0.515
 9866WAT      O40169   2.675   5.525   0.368
 9866WAT     H140170   2.609   5.558   0.414
 9866WAT     H240171   2.694   5.588   0.311
 9866WAT    EPW40172   2.668   5.539   0.366
 9867WAT      O40173   2.096   6.631   0.467
 9867WAT     H140174   2.068   6.567   0.415
 9867WAT     H240175   2.075   6.704   0.423
 9867WAT    EPW40176   2.089   6.633   0.453
 9868WAT      O40177   2.340   5.116   0.711
 9868WAT     H140178   2.355   5.033   0.686
 9868WAT     H240179   2.378   5.121   0.789
 9868WAT    EPW40180   2.347   5.104   0.719
 9869WAT      O40181   1.466   5.889   1.084
 9869WAT     H140182   1.462   5.939   1.013
 9869WAT     H240183   1.499   5.814   1.054
 9869WAT    EPW40184   1.470   5.885   1.069
 9870WAT      O40185   2.626   6.110   0.910
 9870WAT     H140186   2.674   6.182   0.920
 9870WAT     H240187   2.665   6.067   0.845
 9870WAT    EPW40188   2.639   6.114   0.902
 9871WAT      O40189   2.055   6.394   1.027
 9871WAT     H140190   2.091   6.376   1.105
 9871WAT     H240191   2.012   6.321   1.008
 9871WAT    EPW40192   2.054   6.381   1.036
 9872WAT      O40193   2.153   5.469   0.291
 9872WAT     H140194   2.201   5.539   0.312
 9872WAT     H240195   2.190   5.404   0.336
 9872WAT    EPW40196   2.165   5.470   0.301
 9873WAT      O40197   2.473   6.479   0.301
 9873WAT     H140198   2.413   6.450   0.245
 9873WAT     H240199   2.528   6.525   0.250
 9873WAT    EPW40200   2.472   6.482   0.285
 9874WAT      O40201   2.475   6.165   0.241
 9874WAT     H140202   2.395   6.187   0.269
 9874WAT     H240203   2.500   6.105   0.300
 9874WAT    EPW40204   2.467   6.159   0.254
 9875WAT      O40205   2.801   5.964   0.726
 9875WAT     H140206   2.806   5.977   0.640
 9875WAT     H240207   2.876   5.996   0.756
 9875WAT    EPW40208   2.812   5.971   0.717
 9876WAT      O40209   2.420   6.499   1.153
 9876WAT     H140210   2.436   6.528   1.234
 9876WAT     H240211   2.446   6.565   1.103
 9876WAT    EPW40212   2.426   6.513   1.158
 9877WAT      O40213   2.904   4.994   1.024
 9877WAT     H140214   2.840   4.954   0.980
 9877WAT     H240215   2.906   4.951   1.100
 9877WAT    EPW40216   2.895   4.982   1.029
 9878WAT      O40217   2.374   5.945   0.686
 9878WAT     H140218   2.358   6.006   0.746
 9878WAT     H240219   2.427   5.889   0.726
 9878WAT    EPW40220   2.379   5.946   0.701
 9879WAT      O40221   2.735   6.218   0.338
 9879WAT     H140222   2.687   6.248   0.272
 9879WAT     H240223   2.699   6.140   0.356
 9879WAT    EPW40224   2.722   6.211   0.331
 9880WAT      O40225   2.134   5.990   0.195
 9880WAT     H140226   2.050   5.970   0.203
 9880WAT     H240227   2.167   5.973   0.274
 9880WAT    EPW40228   2.127   5.984   0.208
 9881WAT      O40229   1.519   5.959   0.426
 9881WAT     H140230   1.591   6.008   0.423
 9881WAT     H240231   1.492   5.956   0.343
 9881WAT    EPW40232   1.526   5.966   0.413
 9882WAT      O40233   2.828   5.912   0.450
 9882WAT     H140234   2.827   5.834   0.490
 9882WAT     H240235   2.744   5.935   0.450
 9882WAT    EPW40236   2.815   5.904   0.456
 9883WAT      O40237   1.459   6.064   0.854
 9883WAT     H140238   1.417   6.012   0.798
 9883WAT     H240239   1.423   6.143   0.840
 9883WAT    EPW40240   1.447   6.068   0.844
 9884WAT      O40241   2.953   5.919   0.194
 9884WAT     H140242   2.925   5.959   0.266
 9884WAT     H240243   3.039   5.913   0.207
 9884WAT    EPW40244   2.962   5.924   0.207
 9885WAT      O40245   2.720   5.312   1.048
 9885WAT     H140246   2.667   5.357   1.100
 9885WAT     H240247   2.683   5.232   1.047
 9885WAT    EPW40248   2.706   5.307   1.056
 9886WAT      O40249   3.066   6.482   0.247
 9886WAT     H140250   3.095   6.508   0.169
 9886WAT     H240251   3.136   6.492   0.299
 9886WAT    EPW40252   3.081   6.488   0.243
 9887WAT      O40253   2.569   5.668   1.056
 9887WAT     H140254   2.576   5.679   1.142
 9887WAT     H240255   2.505   5.724   1.034
 9887WAT    EPW40256   2.560   5.678   1.065
 9888WAT      O40257   2.796   5.700   0.892
 9888WAT     H140258   2.827   5.779   0.912
 9888WAT     H240259   2.759   5.673   0.966
 9888WAT    EPW40260   2.795   5.708   0.906
 9889WAT      O40261   3.065   5.755   1.166
 9889WAT     H140262   3.060   5.720   1.086
 9889WAT     H240263   3.139   5.801   1.163
 9889WAT    EPW40264   3.075   5.756   1.153
 9890WAT      O40265   3.019   6.122   0.786
 9890WAT     H140266   3.082   6.067   0.761
 9890WAT     H240267   3.013   6.179   0.720
 9890WAT    EPW40268   3.028   6.122   0.773
 9891WAT      O40269   1.933   6.245   0.516
 9891WAT     H140270   1.903   6.304   0.573
 9891WAT     H240271   1.938   6.289   0.441
 9891WAT    EPW40272   1.929   6.261   0.513
 9892WAT      O40273   1.730   6.140   0.856
 9892WAT     H140274   1.650   6.111   0.872
 9892WAT     H240275   1.722   6.227   0.856
 9892WAT    EPW40276   1.717   6.149   0.858
 9893WAT      O40277   2.666   5.159   0.757
 9893WAT     H140278   2.741   5.204   0.751
 9893WAT     H240279   2.610   5.206   0.710
 9893WAT    EPW40280   2.669   5.173   0.749
 9894WAT      O40281   2.184   5.888   0.465
 9894WAT     H140282   2.232   5.925   0.528
 9894WAT     H240283   2.102   5.901   0.491
 9894WAT    EPW40284   2.179   5.895   0.478
 9895WAT      O40285   1.855   5.448   0.739
 9895WAT     H140286   1.871   5.373   0.782
 9895WAT     H240287   1.851   5.423   0.656
 9895WAT    EPW40288   1.857   5.433   0.733
 9896WAT      O40289   2.795   4.957   0.524
 9896WAT     H140290   2.767   5.040   0.520
 9896WAT     H240291   2.866   4.962   0.574
 9896WAT    EPW40292   2.801   4.970   0.531
 9897WAT      O40293   2.030   5.029   0.727
 9897WAT     H140294   2.101   5.061   0.687
 9897WAT     H240295   2.054   4.948   0.750
 9897WAT    EPW40296   2.044   5.021   0.724
 9898WAT      O40297   1.929   6.450   0.327
 9898WAT     H140298   1.866   6.508   0.308
 9898WAT     H240299   1.954   6.421   0.248
 9898WAT    EPW40300   1.923   6.454   0.312
 9899WAT      O40301   2.360   6.113   1.026
 9899WAT     H140302   2.435   6.142   0.993
 9899WAT     H240303   2.305   6.118   0.958
 9899WAT    EPW40304   2.363   6.118   1.011
 9900WAT      O40305   2.751   6.368   0.876
 9900WAT     H140306   2.785   6.395   0.951
 9900WAT     H240307   2.780   6.426   0.818
 9900WAT    EPW40308   2.760   6.381   0.879
 9901WAT      O40309   1.681   5.534   0.333
 9901WAT     H140310   1.725   5.524   0.259
 9901WAT     H240311   1.736   5.503   0.394
 9901WAT    EPW40312   1.696   5.528   0.331
 9902WAT      O40313   2.483   5.444   0.892
 9902WAT     H140314   2.418   5.491   0.927
 9902WAT     H240315   2.539   5.435   0.958
 9902WAT    EPW40316   2.482   5.450   0.907
 9903WAT      O40317   2.452   5.598   0.522
 9903WAT     H140318   2.482   5.640   0.592
 9903WAT     H240319   2.455   5.514   0.545
 9903WAT    EPW40320   2.457   5.592   0.536
 9904WAT      O40321   2.194   6.615   0.915
 9904WAT     H140322   2.242   6.555   0.873
 9904WAT     H240323   2.159   6.570   0.981
 9904WAT    EPW40324   2.196   6.599   0.918
 9905WAT      O40325   2.036   5.032   0.338
 9905WAT     H140326   1.953   5.018   0.362
 9905WAT     H240327   2.032   5.036   0.251
 9905WAT    EPW40328   2.023   5.031   0.328
 9906WAT      O40329   2.200   6.136   0.817
 9906WAT     H140330   2.121   6.130   0.852
 9906WAT     H240331   2.207   6.221   0.797
 9906WAT    EPW40332   2.189   6.148   0.819
 9907WAT      O40333   1.292   5.072   0.941
 9907WAT     H140334   1.278   5.152   0.908
 9907WAT     H240335   1.214   5.048   0.970
 9907WAT    EPW40336   1.279   5.080   0.941
 9908WAT      O40337   1.783   6.757   0.348
 9908WAT     H140338   1.784   6.763   0.435
 9908WAT     H240339   1.741   6.682   0.333
 9908WAT    EPW40340   1.777   6.747   0.359
 9909WAT      O40341   2.249   6.401   0.727
 9909WAT     H140342   2.318   6.390   0.780
 9909WAT     H240343   2.262   6.480   0.693
 9909WAT    EPW40344   2.261   6.411   0.730
 9910WAT      O40345   3.067   5.662   0.909
 9910WAT     H140346   2.981   5.650   0.921
 9910WAT     H240347   3.082   5.623   0.832
 9910WAT    EPW40348   3.056   5.654   0.899
 9911WAT      O40349   2.518   5.729   0.766
 9911WAT     H140350   2.492   5.657   0.808
 9911WAT     H240351   2.600   5.740   0.793
 9911WAT    EPW40352   2.526   5.720   0.776
 9912WAT      O40353   1.459   6.707   0.893
 9912WAT     H140354   1.394   6.650   0.902
 9912WAT     H240355   1.422   6.784   0.908
 9912WAT    EPW40356   1.444   6.710   0.896
 9913WAT      O40357   2.311   5.848   1.085
 9913WAT     H140358   2.344   5.916   1.042
 9913WAT     H240359   2.241   5.880   1.125
 9913WAT    EPW40360   2.306   5.862   1.084
 9914WAT      O40361   2.620   6.685   0.178
 9914WAT     H140362   2.575   6.749   0.216
 9914WAT     H240363   2.690   6.677   0.228
 9914WAT    EPW40364   2.623   6.693   0.191
 9915WAT      O40365   2.290   6.194   0.471
 9915WAT     H140366   2.220   6.234   0.505
 9915WAT     H240367   2.357   6.237   0.505
 9915WAT    EPW40368   2.289   6.206   0.481
 9916WAT      O40369   2.827   6.453   1.129
 9916WAT     H140370   2.905   6.414   1.137
 9916WAT     H240371   2.781   6.420   1.194
 9916WAT    EPW40372   2.832   6.443   1.140
 9917WAT      O40373   1.597   5.548   0.705
 9917WAT     H140374   1.634   5.610   0.657
 9917WAT     H240375   1.664   5.500   0.734
 9917WAT    EPW40376   1.612   5.550   0.702
 9918WAT      O40377   1.374   5.393   0.633
 9918WAT     H140378   1.382   5.376   0.548
 9918WAT     H240379   1.449   5.433   0.653
 9918WAT    EPW40380   1.386   5.396   0.623
 9919WAT      O40381   1.629   5.134   0.874
 9919WAT     H140382   1.621   5.049   0.895
 9919WAT     H240383   1.598   5.138   0.793
 9919WAT    EPW40384   1.624   5.122   0.865
 9920WAT      O40385   2.840   5.671   0.613
 9920WAT     H140386   2.840   5.585   0.625
 9920WAT     H240387   2.847   5.704   0.693
 9920WAT    EPW40388   2.841   5.663   0.626
 9921WAT      O40389   1.314   5.915   0.655
 9921WAT     H140390   1.346   5.937   0.577
 9921WAT     H240391   1.304   5.829   0.650
 9921WAT    EPW40392   1.317   5.906   0.643
 9922WAT      O40393   2.428   5.151   0.991
 9922WAT     H140394   2.437   5.222   1.040
 9922WAT     H240395   2.364   5.107   1.030
 9922WAT    EPW40396   2.420   5.155   1.004
 9923WAT      O40397   2.687   5.222   0.356
 9923WAT     H140398   2.773   5.232   0.371
 9923WAT     H240399   2.650   5.277   0.413
 9923WAT    EPW40400   2.694   5.231   0.367
 9924WAT      O40401   1.790   5.844   0.794
 9924WAT     H140402   1.750   5.922   0.801
 9924WAT     H240403   1.749   5.807   0.726
 9924WAT    EPW40404   1.778   5.850   0.785
 9925WAT      O40405   1.833   5.142   0.539
 9925WAT     H140406   1.747   5.150   0.547
 9925WAT     H240407   1.855   5.091   0.606
 9925WAT    EPW40408   1.823   5.136   0.550
 9926WAT      O40409   3.035   5.006   0.672
 9926WAT     H140410   3.030   5.001   0.759
 9926WAT     H240411   3.103   4.955   0.653
 9926WAT    EPW40412   3.044   4.998   0.682
 9927WAT      O40413   2.243   5.217   0.376
 9927WAT     H140414   2.170   5.171   0.388
 9927WAT     H240415   2.300   5.177   0.429
 9927WAT    EPW40416   2.241   5.204   0.386
 9928WAT      O40417   2.516   6.302   0.555
 9928WAT     H140418   2.537   6.332   0.634
 9928WAT     H240419   2.510   6.374   0.507
 9928WAT    EPW40420   2.519   6.317   0.560
 9929WAT      O40421   2.470   6.723   0.980
 9929WAT     H140422   2.395   6.721   0.936
 9929WAT     H240423   2.487   6.808   0.988
 9929WAT    EPW40424   2.461   6.735   0.974
 9930WAT      O40425   1.994   5.650   0.897
 9930WAT     H140426   1.961   5.592   0.840
 9930WAT     H240427   1.958   5.725   0.872
 9930WAT    EPW40428   1.984   5.652   0.885
 9931WAT      O40429   2.998   6.166   0.501
 9931WAT     H140430   2.994   6.079   0.487
 9931WAT     H240431   2.928   6.196   0.457
 9931WAT    EPW40432   2.987   6.157   0.492
 9932WAT      O40433   1.837   6.685   0.921
 9932WAT     H140434   1.841   6.698   1.008
 9932WAT     H240435   1.902   6.629   0.906
 9932WAT    EPW40436   1.847   6.679   0.932
 9933WAT      O40437   2.808   6.492   0.381
 9933WAT     H140438   2.861   6.483   0.311
 9933WAT     H240439   2.769   6.414   0.386
 9933WAT    EPW40440   2.810   6.479   0.371
 9934WAT      O40441   1.555   5.150   0.604
 9934WAT     H140442   1.521   5.074   0.580
 9934WAT     H240443   1.485   5.203   0.610
 9934WAT    EPW40444   1.540   5.147   0.601
 9935WAT      O40445   2.460   5.036   0.301
 9935WAT     H140446   2.527   5.090   0.314
 9935WAT     H240447   2.409   5.078   0.244
 9935WAT    EPW40448   2.462   5.050   0.295
 9936WAT      O40449   1.596   6.524   1.057
 9936WAT     H140450   1.656   6.567   1.105
 9936WAT     H240451   1.560   6.586   1.009
 9936WAT    EPW40452   1.600   6.539   1.057
 9937WAT      O40453   1.389   6.323   0.750
 9937WAT     H140454   1.332   6.364   0.801
 9937WAT     H240455   1.462   6.369   0.760
 9937WAT    EPW40456   1.391   6.336   0.759
 9938WAT      O40457   2.920   5.937   1.022
 9938WAT     H140458   2.983   5.920   1.079
 9938WAT     H240459   2.962   5.977   0.957
 9938WAT    EPW40460   2.935   5.941   1.021
 9939WAT      O40461   2.982   5.394   1.096
 9939WAT     H140462   2.963   5.458   1.151
 9939WAT     H240463   2.910   5.345   1.095
 9939WAT    EPW40464   2.969   5.396   1.104
 9940WAT      O40465   2.972   5.488   0.393
 9940WAT     H140466   2.889   5.513   0.386
 9940WAT     H240467   2.967   5.404   0.416
 9940WAT    EPW40468   2.959   5.479   0.395
 9941WAT      O40469   1.898   5.186   0.912
 9941WAT     H140470   1.922   5.129   0.851
 9941WAT     H240471   1.814   5.168   0.926
 9941WAT    EPW40472   1.889   5.175   0.905
 9942WAT      O40473   2.661   5.948   1.157
 9942WAT     H140474   2.748   5.945   1.154
 9942WAT     H240475   2.639   5.990   1.084
 9942WAT    EPW40476   2.671   5.954   1.146
 9943WAT      O40477   1.636   6.531   0.276
 9943WAT     H140478   1.628   6.450   0.244
 9943WAT     H240479   1.592   6.579   0.218
 9943WAT    EPW40480   1.629   6.526   0.262
 9944WAT      O40481   1.394   6.755   0.634
 9944WAT     H140482   1.443   6.750   0.705
 9944WAT     H240483   1.412   6.682   0.590
 9944WAT    EPW40484   1.404   6.743   0.638
 9945WAT      O40485   2.337   3.159   7.451
 9945WAT     H140486   2.313   3.208   7.383
 9945WAT     H240487   2.424   3.152   7.441
 9945WAT    EPW40488   2.346   3.165   7.439
 9946WAT      O40489   1.305   4.265   7.464
 9946WAT     H140490   1.261   4.276   7.538
 9946WAT     H240491   1.277   4.187   7.435
 9946WAT    EPW40492   1.294   4.255   7.470
 9947WAT      O40493   2.933   4.595   7.215
 9947WAT     H140494   3.003   4.543   7.215
 9947WAT     H240495   2.874   4.550   7.168
 9947WAT    EPW40496   2.934   4.580   7.208
 9948WAT      O40497   1.279   3.644   7.114
 9948WAT     H140498   1.202   3.660   7.078
 9948WAT     H240499   1.283   3.557   7.116
 9948WAT    EPW40500   1.269   3.633   7.109
 9949WAT      O40501   1.593   4.170   6.981
 9949WAT     H140502   1.554   4.133   6.913
 9949WAT     H240503   1.585   4.110   7.044
 9949WAT    EPW40504   1.586   4.156   6.981
 9950WAT      O40505   2.585   3.957   7.586
 9950WAT     H140506   2.593   3.958   7.499
 9950WAT     H240507   2.527   3.894   7.600
 9950WAT    EPW40508   2.578   3.948   7.575
 9951WAT      O40509   1.556   4.334   7.371
 9951WAT     H140510   1.617   4.317   7.432
 9951WAT     H240511   1.481   4.320   7.414
 9951WAT    EPW40512   1.554   4.330   7.387
 9952WAT      O40513   1.984   3.268   7.366
 9952WAT     H140514   1.977   3.335   7.312
 9952WAT     H240515   2.058   3.229   7.341
 9952WAT    EPW40516   1.994   3.272   7.355
 9953WAT      O40517   1.445   4.643   6.979
 9953WAT     H140518   1.492   4.652   6.906
 9953WAT     H240519   1.491   4.585   7.026
 9953WAT    EPW40520   1.459   4.636   6.975
 9954WAT      O40521   1.444   3.990   7.509
 9954WAT     H140522   1.398   3.951   7.447
 9954WAT     H240523   1.514   3.939   7.518
 9954WAT    EPW40524   1.447   3.977   7.501
 9955WAT      O40525   1.644   3.800   7.512
 9955WAT     H140526   1.726   3.781   7.536
 9955WAT     H240527   1.596   3.739   7.551
 9955WAT    EPW40528   1.649   3.788   7.521
 9956WAT      O40529   2.064   4.398   7.773
 9956WAT     H140530   2.099   4.318   7.776
 9956WAT     H240531   2.131   4.449   7.747
 9956WAT    EPW40532   2.079   4.394   7.769
 9957WAT      O40533   2.070   4.343   7.394
 9957WAT     H140534   2.103   4.279   7.442
 9957WAT     H240535   2.094   4.322   7.313
 9957WAT    EPW40536   2.078   4.331   7.389
 9958WAT      O40537   1.704   3.310   7.438
 9958WAT     H140538   1.674   3.360   7.373
 9958WAT     H240539   1.790   3.317   7.432
 9958WAT    EPW40540   1.712   3.318   7.428
 9959WAT      O40541   2.001   3.224   7.660
 9959WAT     H140542   2.009   3.310   7.673
 9959WAT     H240543   1.998   3.216   7.574
 9959WAT    EPW40544   2.002   3.235   7.650
 9960WAT      O40545   2.469   3.516   6.890
 9960WAT     H140546   2.424   3.584   6.921
 9960WAT     H240547   2.480   3.466   6.961
 9960WAT    EPW40548   2.464   3.519   6.905
 9961WAT      O40549   1.289   3.766   7.811
 9961WAT     H140550   1.264   3.849   7.803
 9961WAT     H240551   1.223   3.728   7.852
 9961WAT    EPW40552   1.276   3.773   7.816
 9962WAT      O40553   1.280   4.737   7.601
 9962WAT     H140554   1.221   4.793   7.569
 9962WAT     H240555   1.323   4.710   7.529
 9962WAT    EPW40556   1.278   4.741   7.585
 9963WAT      O40557   1.864   4.522   7.349
 9963WAT     H140558   1.806   4.494   7.408
 9963WAT     H240559   1.927   4.461   7.351
 9963WAT    EPW40560   1.865   4.509   7.358
 9964WAT      O40561   2.479   4.750   7.101
 9964WAT     H140562   2.551   4.798   7.111
 9964WAT     H240563   2.502   4.671   7.129
 9964WAT    EPW40564   2.493   4.746   7.106
 9965WAT      O40565   2.295   4.790   7.300
 9965WAT     H140566   2.317   4.842   7.366
 9965WAT     H240567   2.372   4.772   7.262
 9965WAT    EPW40568   2.310   4.795   7.304
 9966WAT      O40569   1.435   4.604   7.394
 9966WAT     H140570   1.500   4.547   7.395
 9966WAT     H240571   1.474   4.679   7.372
 9966WAT    EPW40572   1.450   4.607   7.391
 9967WAT      O40573   3.008   3.514   7.520
 9967WAT     H140574   2.974   3.581   7.562
 9967WAT     H240575   2.945   3.454   7.521
 9967WAT    EPW40576   2.994   3.515   7.526
 9968WAT      O40577   1.517   4.453   7.744
 9968WAT     H140578   1.559   4.417   7.676
 9968WAT     H240579   1.549   4.411   7.813
 9968WAT    EPW40580   1.528   4.441   7.744
 9969WAT      O40581   1.840   4.738   7.673
 9969WAT     H140582   1.924   4.749   7.654
 9969WAT     H240583   1.810   4.820   7.680
 9969WAT    EPW40584   1.848   4.752   7.671
 9970WAT      O40585   2.220   3.678   7.482
 9970WAT     H140586   2.249   3.655   7.403
 9970WAT     H240587   2.294   3.686   7.529
 9970WAT    EPW40588   2.235   3.676   7.477
 9971WAT      O40589   2.293   3.712   6.994
 9971WAT     H140590   2.321   3.791   7.019
 9971WAT     H240591   2.215   3.728   6.958
 9971WAT    EPW40592   2.285   3.726   6.992
 9972WAT      O40593   2.697   4.909   7.141
 9972WAT     H140594   2.763   4.894   7.086
 9972WAT     H240595   2.733   4.901   7.220
 9972WAT    EPW40596   2.712   4.906   7.144
 9973WAT      O40597   2.179   4.529   6.976
 9973WAT     H140598   2.160   4.583   7.041
 9973WAT     H240599   2.255   4.558   6.946
 9973WAT    EPW40600   2.187   4.541   6.981
 9974WAT      O40601   2.529   3.318   7.081
 9974WAT     H140602   2.583   3.250   7.089
 9974WAT     H240603   2.535   3.358   7.158
 9974WAT    EPW40604   2.538   3.314   7.094
 9975WAT      O40605   1.325   3.435   7.338
 9975WAT     H140606   1.313   3.349   7.341
 9975WAT     H240607   1.277   3.465   7.405
 9975WAT    EPW40608   1.316   3.427   7.348
 9976WAT      O40609   2.255   3.556   7.212
 9976WAT     H140610   2.204   3.490   7.187
 9976WAT     H240611   2.260   3.606   7.141
 9976WAT    EPW40612   2.248   3.554   7.198
 9977WAT      O40613   2.255   3.250   7.202
 9977WAT     H140614   2.210   3.210   7.139
 9977WAT     H240615   2.332   3.266   7.164
 9977WAT    EPW40616   2.260   3.247   7.187
 9978WAT      O40617   2.938   4.886   7.541
 9978WAT     H140618   2.892   4.958   7.561
 9978WAT     H240619   2.876   4.829   7.516
 9978WAT    EPW40620   2.922   4.888   7.540
 9979WAT      O40621   2.115   3.487   7.654
 9979WAT     H140622   2.122   3.544   7.588
 9979WAT     H240623   2.127   3.536   7.725
 9979WAT    EPW40624   2.118   3.503   7.655
 9980WAT      O40625   2.637   4.470   7.495
 9980WAT     H140626   2.707   4.422   7.514
 9980WAT     H240627   2.571   4.413   7.499
 9980WAT    EPW40628   2.638   4.455   7.498
 9981WAT      O40629   1.576   3.069   7.489
 9981WAT     H140630   1.629   3.138   7.488
 9981WAT     H240631   1.576   3.042   7.406
 9981WAT    EPW40632   1.584   3.075   7.476
 9982WAT      O40633   2.620   3.098   7.526
 9982WAT     H140634   2.625   3.066   7.607
 9982WAT     H240635   2.652   3.034   7.477
 9982WAT    EPW40636   2.625   3.084   7.531
 9983WAT      O40637   1.620   3.450   7.654
 9983WAT     H140638   1.648   3.407   7.583
 9983WAT     H240639   1.603   3.387   7.711
 9983WAT    EPW40640   1.622   3.434   7.652
 9984WAT      O40641   2.889   4.220   7.076
 9984WAT     H140642   2.901   4.191   7.157
 9984WAT     H240643   2.970   4.222   7.043
 9984WAT    EPW40644   2.903   4.216   7.083
 9985WAT      O40645   1.603   4.193   7.609
 9985WAT     H140646   1.688   4.185   7.592
 9985WAT     H240647   1.567   4.125   7.568
 9985WAT    EPW40648   1.610   4.182   7.600
 9986WAT      O40649   1.480   4.865   7.733
 9986WAT     H140650   1.412   4.816   7.708
 9986WAT     H240651   1.520   4.884   7.657
 9986WAT    EPW40652   1.476   4.861   7.718
 9987WAT      O40653   2.679   3.873   7.034
 9987WAT     H140654   2.657   3.946   6.992
 9987WAT     H240655   2.634   3.878   7.109
 9987WAT    EPW40656   2.669   3.885   7.039
 9988WAT      O40657   1.840   4.194   7.432
 9988WAT     H140658   1.911   4.243   7.441
 9988WAT     H240659   1.862   4.137   7.370
 9988WAT    EPW40660   1.853   4.192   7.424
 9989WAT      O40661   3.097   3.359   6.980
 9989WAT     H140662   3.031   3.303   6.982
 9989WAT     H240663   3.078   3.411   6.912
 9989WAT    EPW40664   3.085   3.359   6.970
 9990WAT      O40665   1.255   4.358   7.764
 9990WAT     H140666   1.189   4.407   7.792
 9990WAT     H240667   1.323   4.412   7.767
 9990WAT    EPW40668   1.255   4.373   7.769
 9991WAT      O40669   1.262   4.026   7.275
 9991WAT     H140670   1.243   3.942   7.290
 9991WAT     H240671   1.328   4.023   7.218
 9991WAT    EPW40672   1.269   4.013   7.268
 9992WAT      O40673   2.898   3.315   7.207
 9992WAT     H140674   2.972   3.275   7.227
 9992WAT     H240675   2.924   3.387   7.165
 9992WAT    EPW40676   2.913   3.320   7.204
 9993WAT      O40677   2.292   4.564   7.665
 9993WAT     H140678   2.240   4.627   7.636
 9993WAT     H240679   2.323   4.527   7.592
 9993WAT    EPW40680   2.289   4.568   7.650
 9994WAT      O40681   1.279   4.443   7.232
 9994WAT     H140682   1.334   4.500   7.269
 9994WAT     H240683   1.256   4.391   7.299
 9994WAT    EPW40684   1.284   4.443   7.247
 9995WAT      O40685   2.543   3.544   7.715
 9995WAT     H140686   2.577   3.559   7.793
 9995WAT     H240687   2.498   3.470   7.726
 9995WAT    EPW40688   2.541   3.535   7.728
 9996WAT      O40689   1.262   4.288   6.995
 9996WAT     H140690   1.338   4.244   7.001
 9996WAT     H240691   1.264   4.341   7.064
 9996WAT    EPW40692   1.273   4.289   7.006
 9997WAT      O40693   1.356   4.110   7.795
 9997WAT     H140694   1.399   4.097   7.721
 9997WAT     H240695   1.336   4.194   7.793
 9997WAT    EPW40696   1.359   4.120   7.784
 9998WAT      O40697   1.991   3.466   7.160
 9998WAT     H140698   1.990   3.454   7.074
 9998WAT     H240699   1.973   3.551   7.170
 9998WAT    EPW40700   1.988   3.477   7.149
 9999WAT      O40701   1.764   4.461   7.624
 9999WAT     H140702   1.777   4.546   7.642
 9999WAT     H240703   1.831   4.421   7.663
 9999WAT    EPW40704   1.776   4.468   7.632
10000WAT      O40705   1.626   3.749   7.124
10000WAT     H140706   1.613   3.704   7.198
10000WAT     H240707   1.568   3.715   7.069
10000WAT    EPW40708   1.615   3.738   7.127
10001WAT      O40709   1.643   3.932   7.784
10001WAT     H140710   1.565   3.926   7.745
10001WAT     H240711   1.650   3.857   7.827
10001WAT    EPW40712   1.632   3.920   7.785
10002WAT      O40713   2.494   3.474   7.321
10002WAT     H140714   2.543   3.546   7.314
10002WAT     H240715   2.415   3.500   7.295
10002WAT    EPW40716   2.490   3.489   7.316
10003WAT      O40717   2.372   3.938   7.121
10003WAT     H140718   2.371   4.010   7.072
10003WAT     H240719   2.308   3.952   7.179
10003WAT    EPW40720   2.362   3.951   7.122
10004WAT      O40721   2.869   4.325   7.519
10004WAT     H140722   2.904   4.290   7.591
10004WAT     H240723   2.868   4.259   7.462
10004WAT    EPW40724   2.874   4.310   7.521
10005WAT      O40725   2.475   4.317   7.844
10005WAT     H140726   2.395   4.339   7.871
10005WAT     H240727   2.500   4.257   7.902
10005WAT    EPW40728   2.467   4.311   7.856
10006WAT      O40729   1.864   4.798   7.288
10006WAT     H140730   1.849   4.720   7.326
10006WAT     H240731   1.933   4.783   7.237
10006WAT    EPW40732   1.872   4.784   7.286
10007WAT      O40733   1.831   3.172   7.087
10007WAT     H140734   1.841   3.162   7.173
10007WAT     H240735   1.760   3.223   7.081
10007WAT    EPW40736   1.822   3.178   7.099
10008WAT      O40737   2.093   4.750   7.129
10008WAT     H140738   2.155   4.766   7.188
10008WAT     H240739   2.097   4.819   7.075
10008WAT    EPW40740   2.103   4.762   7.130
10009WAT      O40741   1.543   4.003   7.212
10009WAT     H140742   1.575   3.925   7.189
10009WAT     H240743   1.608   4.040   7.257
10009WAT    EPW40744   1.557   3.997   7.215
10010WAT      O40745   1.243   3.169   7.308
10010WAT     H140746   1.256   3.098   7.259
10010WAT     H240747   1.206   3.137   7.381
10010WAT    EPW40748   1.239   3.154   7.312
10011WAT      O40749   2.212   3.937   7.354
10011WAT     H140750   2.218   4.002   7.412
10011WAT     H240751   2.193   3.868   7.403
10011WAT    EPW40752   2.210   3.936   7.370
10012WAT      O40753   1.662   3.389   7.005
10012WAT     H140754   1.611   3.394   6.935
10012WAT     H240755   1.740   3.413   6.976
10012WAT    EPW40756   1.666   3.393   6.990
10013WAT      O40757   2.134   4.142   7.797
10013WAT     H140758   2.050   4.122   7.805
10013WAT     H240759   2.167   4.125   7.876
10013WAT    EPW40760   2.127   4.137   7.810
10014WAT      O40761   1.810   4.815   6.886
10014WAT     H140762   1.853   4.745   6.915
10014WAT     H240763   1.830   4.877   6.943
10014WAT    EPW40764   1.819   4.814   6.898
10015WAT      O40765   1.842   3.628   7.702
10015WAT     H140766   1.927   3.609   7.712
10015WAT     H240767   1.805   3.551   7.688
10015WAT    EPW40768   1.849   3.614   7.702
10016WAT      O40769   3.104   4.787   7.135
10016WAT     H140770   3.173   4.740   7.110
10016WAT     H240771   3.050   4.727   7.169
10016WAT    EPW40772   3.106   4.771   7.136
10017WAT      O40773   1.324   3.762   7.368
10017WAT     H140774   1.373   3.733   7.434
10017WAT     H240775   1.337   3.703   7.305
10017WAT    EPW40776   1.333   3.749   7.368
10018WAT      O40777   1.777   3.905   6.916
10018WAT     H140778   1.716   3.865   6.964
10018WAT     H240779   1.738   3.917   6.839
10018WAT    EPW40780   1.762   3.901   6.912
10019WAT      O40781   2.953   4.071   7.797
10019WAT     H140782   2.925   4.111   7.869
10019WAT     H240783   3.039   4.065   7.809
10019WAT    EPW40784   2.962   4.076   7.809
10020WAT      O40785   1.922   3.752   7.187
10020WAT     H140786   1.949   3.834   7.194
10020WAT     H240787   1.836   3.759   7.178
10020WAT    EPW40788   1.914   3.765   7.187
10021WAT      O40789   1.270   3.349   7.841
10021WAT     H140790   1.275   3.383   7.761
10021WAT     H240791   1.346   3.372   7.878
10021WAT    EPW40792   1.282   3.357   7.835
10022WAT      O40793   3.066   4.635   7.849
10022WAT     H140794   3.095   4.660   7.771
10022WAT     H240795   3.136   4.644   7.901
10022WAT    EPW40796   3.081   4.640   7.846
10023WAT      O40797   2.727   4.495   7.048
10023WAT     H140798   2.760   4.414   7.051
10023WAT     H240799   2.651   4.488   7.091
10023WAT    EPW40800   2.721   4.482   7.055
10024WAT      O40801   2.775   3.678   7.614
10024WAT     H140802   2.701   3.646   7.645
10024WAT     H240803   2.775   3.761   7.642
10024WAT    EPW40804   2.764   3.686   7.622
10025WAT      O40805   2.464   4.282   6.988
10025WAT     H140806   2.533   4.231   6.971
10025WAT     H240807   2.423   4.287   6.911
10025WAT    EPW40808   2.468   4.276   6.974
10026WAT      O40809   2.111   4.779   7.590
10026WAT     H140810   2.165   4.847   7.596
10026WAT     H240811   2.076   4.787   7.511
10026WAT    EPW40812   2.113   4.790   7.579
10027WAT      O40813   2.937   3.735   7.012
10027WAT     H140814   2.975   3.803   6.972
10027WAT     H240815   2.853   3.757   7.015
10027WAT    EPW40816   2.930   3.748   7.007
10028WAT      O40817   2.088   4.079   6.921
10028WAT     H140818   2.008   4.062   6.892
10028WAT     H240819   2.085   4.165   6.940
10028WAT    EPW40820   2.076   4.089   6.919
10029WAT      O40821   2.706   3.695   7.350
10029WAT     H140822   2.727   3.675   7.432
10029WAT     H240823   2.782   3.722   7.316
10029WAT    EPW40824   2.721   3.696   7.357
10030WAT      O40825   2.809   3.303   7.497
10030WAT     H140826   2.737   3.256   7.514
10030WAT     H240827   2.792   3.337   7.419
10030WAT    EPW40828   2.796   3.301   7.488
10031WAT      O40829   2.853   4.097   7.335
10031WAT     H140830   2.901   4.025   7.330
10031WAT     H240831   2.771   4.069   7.328
10031WAT    EPW40832   2.848   4.082   7.333
10032WAT      O40833   1.599   3.499   7.266
10032WAT     H140834   1.611   3.466   7.187
10032WAT     H240835   1.518   3.474   7.286
10032WAT    EPW40836   1.589   3.490   7.258
10033WAT      O40837   2.475   4.214   7.571
10033WAT     H140838   2.482   4.248   7.651
10033WAT     H240839   2.491   4.129   7.583
10033WAT    EPW40840   2.478   4.207   7.584
10034WAT      O40841   2.227   4.142   7.527
10034WAT     H140842   2.197   4.110   7.603
10034WAT     H240843   2.296   4.189   7.551
10034WAT    EPW40844   2.233   4.144   7.542
10035WAT      O40845   2.620   4.837   7.780
10035WAT     H140846   2.575   4.901   7.818
10035WAT     H240847   2.690   4.829   7.831
10035WAT    EPW40848   2.623   4.845   7.793
10036WAT      O40849   2.930   3.809   7.279
10036WAT     H140850   2.940   3.803   7.193
10036WAT     H240851   3.004   3.776   7.311
10036WAT    EPW40852   2.942   3.803   7.271
10037WAT      O40853   2.322   4.505   7.390
10037WAT     H140854   2.301   4.589   7.374
10037WAT     H240855   2.244   4.467   7.402
10037WAT    EPW40856   2.307   4.512   7.390
10038WAT      O40857   1.459   3.661   6.920
10038WAT     H140858   1.392   3.662   6.975
10038WAT     H240859   1.469   3.576   6.901
10038WAT    EPW40860   1.451   3.649   6.925
10039WAT      O40861   2.327   3.322   7.679
10039WAT     H140862   2.257   3.374   7.673
10039WAT     H240863   2.331   3.284   7.600
10039WAT    EPW40864   2.318   3.324   7.666
10040WAT      O40865   1.858   4.531   7.031
10040WAT     H140866   1.902   4.539   7.106
10040WAT     H240867   1.778   4.510   7.057
10040WAT    EPW40868   1.853   4.529   7.046
10041WAT      O40869   2.718   3.902   7.808
10041WAT     H140870   2.784   3.956   7.824
10041WAT     H240871   2.683   3.933   7.734
10041WAT    EPW40872   2.722   3.915   7.799
10042WAT      O40873   2.749   4.709   7.388
10042WAT     H140874   2.732   4.643   7.443
10042WAT     H240875   2.820   4.681   7.346
10042WAT    EPW40876   2.757   4.695   7.390
10043WAT      O40877   1.591   4.438   7.091
10043WAT     H140878   1.567   4.408   7.169
10043WAT     H240879   1.588   4.368   7.040
10043WAT    EPW40880   1.587   4.424   7.095
10044WAT      O40881   1.873   4.263   6.965
10044WAT     H140882   1.791   4.236   6.979
10044WAT     H240883   1.870   4.348   6.984
10044WAT    EPW40884   1.860   4.272   6.970
10045WAT      O40885   2.073   3.127   6.962
10045WAT     H140886   2.081   3.152   6.879
10045WAT     H240887   1.999   3.165   6.988
10045WAT    EPW40888   2.063   3.136   6.953
10046WAT      O40889   2.395   3.769   7.653
10046WAT     H140890   2.451   3.708   7.683
10046WAT     H240891   2.353   3.795   7.725
10046WAT    EPW40892   2.397   3.764   7.668
10047WAT      O40893   1.420   3.634   7.602
10047WAT     H140894   1.383   3.664   7.675
10047WAT     H240895   1.474   3.571   7.630
10047WAT    EPW40896   1.423   3.629   7.617
10048WAT      O40897   2.592   3.952   7.309
10048WAT     H140898   2.599   3.867   7.327
10048WAT     H240899   2.510   3.961   7.282
10048WAT    EPW40900   2.581   3.941   7.308
10049WAT      O40901   1.568   4.801   7.230
10049WAT     H140902   1.553   4.817   7.146
10049WAT     H240903   1.654   4.809   7.238
10049WAT    EPW40904   1.578   4.805   7.219
10050WAT      O40905   1.984   4.041   7.203
10050WAT     H140906   1.994   4.055   7.118
10050WAT     H240907   2.066   4.035   7.233
10050WAT    EPW40908   1.998   4.042   7.195
10051WAT      O40909   2.900   4.848   6.951
10051WAT     H140910   2.964   4.834   7.009
10051WAT     H240911   2.866   4.768   6.939
10051WAT    EPW40912   2.905   4.834   6.958
10052WAT      O40913   2.508   4.474   7.183
10052WAT     H140914   2.483   4.461   7.266
10052WAT     H240915   2.476   4.405   7.141
10052WAT    EPW40916   2.499   4.462   7.189
10053WAT      O40917   1.636   4.683   7.878
10053WAT     H140918   1.628   4.602   7.846
10053WAT     H240919   1.592   4.732   7.821
10053WAT    EPW40920   1.629   4.678   7.865
10054WAT      O40921   2.196   4.295   7.126
10054WAT     H140922   2.268   4.260   7.091
10054WAT     H240923   2.193   4.375   7.092
10054WAT    EPW40924   2.207   4.302   7.116
10055WAT      O40925   2.337   3.159   5.550
10055WAT     H140926   2.313   3.208   5.482
10055WAT     H240927   2.424   3.152   5.540
10055WAT    EPW40928   2.346   3.165   5.539
10056WAT      O40929   2.318   3.851   6.017
10056WAT     H140930   2.266   3.910   6.054
10056WAT     H240931   2.358   3.814   6.086
10056WAT    EPW40932   2.316   3.854   6.033
10057WAT      O40933   1.305   4.265   5.563
10057WAT     H140934   1.261   4.276   5.637
10057WAT     H240935   1.277   4.187   5.534
10057WAT    EPW40936   1.294   4.255   5.570
10058WAT      O40937   1.279   3.644   5.214
10058WAT     H140938   1.202   3.660   5.178
10058WAT     H240939   1.283   3.557   5.216
10058WAT    EPW40940   1.269   3.633   5.209
10059WAT      O40941   1.593   4.170   5.081
10059WAT     H140942   1.554   4.133   5.012
10059WAT     H240943   1.585   4.110   5.144
10059WAT    EPW40944   1.586   4.156   5.080
10060WAT      O40945   2.585   3.957   5.685
10060WAT     H140946   2.593   3.958   5.598
10060WAT     H240947   2.527   3.894   5.700
10060WAT    EPW40948   2.578   3.948   5.674
10061WAT      O40949   1.556   4.334   5.471
10061WAT     H140950   1.617   4.317   5.531
10061WAT     H240951   1.481   4.320   5.513
10061WAT    EPW40952   1.554   4.330   5.486
10062WAT      O40953   1.984   3.268   5.466
10062WAT     H140954   1.977   3.335   5.411
10062WAT     H240955   2.058   3.229   5.441
10062WAT    EPW40956   1.994   3.272   5.454
10063WAT      O40957   1.445   4.643   5.078
10063WAT     H140958   1.492   4.652   5.005
10063WAT     H240959   1.491   4.585   5.125
10063WAT    EPW40960   1.459   4.636   5.075
10064WAT      O40961   1.299   4.538   6.188
10064WAT     H140962   1.312   4.510   6.270
10064WAT     H240963   1.238   4.484   6.157
10064WAT    EPW40964   1.292   4.526   6.196
10065WAT      O40965   1.957   4.291   6.695
10065WAT     H140966   1.933   4.290   6.779
10065WAT     H240967   1.882   4.276   6.653
10065WAT    EPW40968   1.942   4.288   6.701
10066WAT      O40969   1.444   3.990   5.609
10066WAT     H140970   1.398   3.951   5.546
10066WAT     H240971   1.514   3.939   5.618
10066WAT    EPW40972   1.447   3.977   5.601
10067WAT      O40973   1.895   3.551   6.143
10067WAT     H140974   1.962   3.553   6.088
10067WAT     H240975   1.890   3.468   6.168
10067WAT    EPW40976   1.904   3.539   6.139
10068WAT      O40977   1.955   4.610   6.421
10068WAT     H140978   1.969   4.686   6.381
10068WAT     H240979   2.034   4.573   6.424
10068WAT    EPW40980   1.968   4.616   6.416
10069WAT      O40981   1.644   3.800   5.611
10069WAT     H140982   1.726   3.781   5.635
10069WAT     H240983   1.596   3.739   5.650
10069WAT    EPW40984   1.649   3.788   5.620
10070WAT      O40985   2.064   4.398   5.872
10070WAT     H140986   2.099   4.318   5.875
10070WAT     H240987   2.131   4.449   5.846
10070WAT    EPW40988   2.079   4.394   5.869
10071WAT      O40989   2.070   4.343   5.493
10071WAT     H140990   2.103   4.279   5.542
10071WAT     H240991   2.094   4.322   5.412
10071WAT    EPW40992   2.078   4.331   5.488
10072WAT      O40993   2.267   3.756   6.627
10072WAT     H140994   2.182   3.746   6.609
10072WAT     H240995   2.270   3.831   6.672
10072WAT    EPW40996   2.255   3.766   6.631
10073WAT      O40997   1.704   3.310   5.537
10073WAT     H140998   1.674   3.360   5.472
10073WAT     H240999   1.790   3.317   5.532
10073WAT    EPW41000   1.712   3.318   5.527
10074WAT      O41001   2.723   3.052   6.538
10074WAT     H141002   2.707   3.129   6.500
10074WAT     H241003   2.645   3.030   6.573
10074WAT    EPW41004   2.709   3.060   6.538
10075WAT      O41005   2.001   3.224   5.760
10075WAT     H141006   2.009   3.310   5.773
10075WAT     H241007   1.998   3.216   5.673
10075WAT    EPW41008   2.002   3.235   5.749
10076WAT      O41009   2.469   3.516   4.990
10076WAT     H141010   2.424   3.584   5.020
10076WAT     H241011   2.480   3.466   5.060
10076WAT    EPW41012   2.464   3.519   5.005
10077WAT      O41013   1.289   3.766   5.910
10077WAT     H141014   1.264   3.849   5.902
10077WAT     H241015   1.223   3.728   5.952
10077WAT    EPW41016   1.276   3.773   5.915
10078WAT      O41017   1.280   4.737   5.700
10078WAT     H141018   1.221   4.793   5.669
10078WAT     H241019   1.323   4.710   5.629
10078WAT    EPW41020   1.278   4.741   5.685
10079WAT      O41021   1.864   4.522   5.448
10079WAT     H141022   1.806   4.494   5.507
10079WAT     H241023   1.927   4.461   5.450
10079WAT    EPW41024   1.865   4.509   5.457
10080WAT      O41025   2.479   4.750   5.200
10080WAT     H141026   2.551   4.798   5.210
10080WAT     H241027   2.502   4.671   5.228
10080WAT    EPW41028   2.493   4.746   5.206
10081WAT      O41029   2.295   4.790   5.399
10081WAT     H141030   2.317   4.842   5.465
10081WAT     H241031   2.372   4.772   5.361
10081WAT    EPW41032   2.310   4.795   5.403
10082WAT      O41033   1.592   3.248   5.959
10082WAT     H141034   1.540   3.185   5.928
10082WAT     H241035   1.651   3.204   6.006
10082WAT    EPW41036   1.593   3.232   5.961
10083WAT      O41037   1.923   3.461   6.889
10083WAT     H141038   1.935   3.416   6.815
10083WAT     H241039   1.952   3.541   6.868
10083WAT    EPW41040   1.929   3.466   6.875
10084WAT      O41041   1.435   4.604   5.493
10084WAT     H141042   1.500   4.547   5.494
10084WAT     H241043   1.474   4.679   5.471
10084WAT    EPW41044   1.450   4.607   5.490
10085WAT      O41045   3.008   3.514   5.619
10085WAT     H141046   2.974   3.581   5.662
10085WAT     H241047   2.945   3.454   5.621
10085WAT    EPW41048   2.994   3.515   5.626
10086WAT      O41049   2.539   4.791   6.230
10086WAT     H141050   2.614   4.836   6.229
10086WAT     H241051   2.527   4.769   6.146
10086WAT    EPW41052   2.549   4.794   6.217
10087WAT      O41053   1.496   3.421   6.787
10087WAT     H141054   1.418   3.382   6.780
10087WAT     H241055   1.545   3.380   6.728
10087WAT    EPW41056   1.492   3.409   6.777
10088WAT      O41057   1.517   4.453   5.843
10088WAT     H141058   1.559   4.417   5.776
10088WAT     H241059   1.549   4.411   5.912
10088WAT    EPW41060   1.528   4.441   5.843
10089WAT      O41061   1.840   4.738   5.773
10089WAT     H141062   1.924   4.749   5.753
10089WAT     H241063   1.810   4.820   5.779
10089WAT    EPW41064   1.848   4.752   5.771
10090WAT      O41065   2.161   3.185   6.704
10090WAT     H141066   2.179   3.104   6.676
10090WAT     H241067   2.147   3.229   6.630
10090WAT    EPW41068   2.162   3.180   6.689
10091WAT      O41069   2.220   3.678   5.581
10091WAT     H141070   2.249   3.655   5.502
10091WAT     H241071   2.294   3.686   5.628
10091WAT    EPW41072   2.235   3.676   5.577
10092WAT      O41073   2.293   3.712   5.093
10092WAT     H141074   2.321   3.791   5.118
10092WAT     H241075   2.215   3.728   5.057
10092WAT    EPW41076   2.285   3.726   5.092
10093WAT      O41077   2.697   4.909   5.240
10093WAT     H141078   2.763   4.894   5.186
10093WAT     H241079   2.733   4.901   5.319
10093WAT    EPW41080   2.712   4.906   5.244
10094WAT      O41081   1.740   4.860   6.347
10094WAT     H141082   1.769   4.853   6.429
10094WAT     H241083   1.677   4.800   6.342
10094WAT    EPW41084   1.735   4.850   6.358
10095WAT      O41085   2.976   3.346   6.156
10095WAT     H141086   3.051   3.353   6.113
10095WAT     H241087   2.982   3.269   6.196
10095WAT    EPW41088   2.988   3.336   6.156
10096WAT      O41089   1.231   3.476   6.546
10096WAT     H141090   1.231   3.534   6.610
10096WAT     H241091   1.290   3.507   6.490
10096WAT    EPW41092   1.240   3.489   6.547
10097WAT      O41093   2.465   4.509   6.600
10097WAT     H141094   2.461   4.547   6.678
10097WAT     H241095   2.550   4.505   6.583
10097WAT    EPW41096   2.477   4.514   6.609
10098WAT      O41097   2.179   4.529   5.075
10098WAT     H141098   2.160   4.583   5.141
10098WAT     H241099   2.255   4.558   5.045
10098WAT    EPW41100   2.187   4.541   5.080
10099WAT      O41101   1.325   3.435   5.437
10099WAT     H141102   1.313   3.349   5.440
10099WAT     H241103   1.277   3.465   5.504
10099WAT    EPW41104   1.316   3.427   5.448
10100WAT      O41105   1.539   4.676   6.259
10100WAT     H141106   1.469   4.625   6.271
10100WAT     H241107   1.565   4.656   6.178
10100WAT    EPW41108   1.532   4.666   6.249
10101WAT      O41109   2.255   3.556   5.312
10101WAT     H141110   2.204   3.490   5.286
10101WAT     H241111   2.260   3.606   5.241
10101WAT    EPW41112   2.248   3.554   5.298
10102WAT      O41113   2.310   4.826   6.350
10102WAT     H141114   2.387   4.818   6.309
10102WAT     H241115   2.252   4.813   6.286
10102WAT    EPW41116   2.313   4.823   6.334
10103WAT      O41117   2.255   3.250   5.301
10103WAT     H141118   2.210   3.210   5.238
10103WAT     H241119   2.332   3.266   5.263
10103WAT    EPW41120   2.260   3.247   5.286
10104WAT      O41121   2.115   3.487   5.753
10104WAT     H141122   2.122   3.544   5.687
10104WAT     H241123   2.127   3.536   5.824
10104WAT    EPW41124   2.118   3.503   5.754
10105WAT      O41125   2.637   4.470   5.594
10105WAT     H141126   2.707   4.422   5.613
10105WAT     H241127   2.571   4.413   5.599
10105WAT    EPW41128   2.638   4.455   5.598
10106WAT      O41129   1.675   4.561   6.515
10106WAT     H141130   1.759   4.568   6.493
10106WAT     H241131   1.671   4.601   6.593
10106WAT    EPW41132   1.687   4.568   6.524
10107WAT      O41133   1.576   3.069   5.588
10107WAT     H141134   1.629   3.138   5.587
10107WAT     H241135   1.576   3.042   5.505
10107WAT    EPW41136   1.584   3.075   5.575
10108WAT      O41137   1.871   4.112   5.990
10108WAT     H141138   1.888   4.091   6.073
10108WAT     H241139   1.806   4.059   5.969
10108WAT    EPW41140   1.864   4.101   5.999
10109WAT      O41141   2.494   3.504   6.342
10109WAT     H141142   2.485   3.536   6.422
10109WAT     H241143   2.435   3.440   6.338
10109WAT    EPW41144   2.484   3.499   6.353
10110WAT      O41145   1.946   4.106   6.249
10110WAT     H141146   1.952   4.191   6.270
10110WAT     H241147   1.918   4.069   6.323
10110WAT    EPW41148   1.943   4.113   6.263
10111WAT      O41149   2.564   4.176   6.162
10111WAT     H141150   2.513   4.135   6.219
10111WAT     H241151   2.551   4.260   6.180
10111WAT    EPW41152   2.555   4.182   6.173
10112WAT      O41153   2.620   3.098   5.625
10112WAT     H141154   2.625   3.066   5.707
10112WAT     H241155   2.652   3.034   5.576
10112WAT    EPW41156   2.625   3.084   5.630
10113WAT      O41157   1.228   4.543   6.870
10113WAT     H141158   1.304   4.578   6.896
10113WAT     H241159   1.246   4.458   6.865
10113WAT    EPW41160   1.242   4.536   6.873
10114WAT      O41161   2.866   3.522   6.456
10114WAT     H141162   2.943   3.499   6.490
10114WAT     H241163   2.819   3.544   6.526
10114WAT    EPW41164   2.870   3.522   6.472
10115WAT      O41165   1.620   3.450   5.753
10115WAT     H141166   1.648   3.407   5.682
10115WAT     H241167   1.603   3.387   5.810
10115WAT    EPW41168   1.622   3.434   5.751
10116WAT      O41169   1.603   4.193   5.708
10116WAT     H141170   1.688   4.185   5.691
10116WAT     H241171   1.567   4.125   5.667
10116WAT    EPW41172   1.610   4.182   5.699
10117WAT      O41173   1.480   4.865   5.832
10117WAT     H141174   1.412   4.816   5.807
10117WAT     H241175   1.520   4.884   5.757
10117WAT    EPW41176   1.476   4.861   5.817
10118WAT      O41177   1.435   3.560   6.061
10118WAT     H141178   1.519   3.582   6.057
10118WAT     H241179   1.396   3.618   6.008
10118WAT    EPW41180   1.441   3.572   6.053
10119WAT      O41181   3.113   4.671   6.600
10119WAT     H141182   3.044   4.702   6.556
10119WAT     H241183   3.076   4.625   6.665
10119WAT    EPW41184   3.097   4.668   6.603
10120WAT      O41185   2.679   3.873   5.134
10120WAT     H141186   2.657   3.946   5.091
10120WAT     H241187   2.634   3.878   5.208
10120WAT    EPW41188   2.669   3.885   5.138
10121WAT      O41189   1.840   4.194   5.532
10121WAT     H141190   1.911   4.243   5.541
10121WAT     H241191   1.862   4.137   5.469
10121WAT    EPW41192   1.853   4.192   5.524
10122WAT      O41193   3.097   3.359   5.079
10122WAT     H141194   3.031   3.303   5.081
10122WAT     H241195   3.078   3.411   5.011
10122WAT    EPW41196   3.085   3.359   5.069
10123WAT      O41197   1.255   4.358   5.864
10123WAT     H141198   1.189   4.407   5.891
10123WAT     H241199   1.323   4.412   5.867
10123WAT    EPW41200   1.255   4.373   5.868
10124WAT      O41201   2.020   3.729   6.873
10124WAT     H141202   1.972   3.787   6.917
10124WAT     H241203   2.017   3.758   6.791
10124WAT    EPW41204   2.012   3.742   6.868
10125WAT      O41205   3.130   3.797   6.334
10125WAT     H141206   3.151   3.717   6.307
10125WAT     H241207   3.045   3.803   6.316
10125WAT    EPW41208   3.120   3.786   6.328
10126WAT      O41209   1.262   4.026   5.374
10126WAT     H141210   1.243   3.942   5.389
10126WAT     H241211   1.328   4.023   5.317
10126WAT    EPW41212   1.269   4.013   5.368
10127WAT      O41213   2.898   3.315   5.307
10127WAT     H141214   2.972   3.275   5.327
10127WAT     H241215   2.924   3.387   5.264
10127WAT    EPW41216   2.913   3.320   5.303
10128WAT      O41217   2.292   4.564   5.764
10128WAT     H141218   2.240   4.627   5.735
10128WAT     H241219   2.323   4.527   5.691
10128WAT    EPW41220   2.289   4.568   5.749
10129WAT      O41221   1.279   4.443   5.331
10129WAT     H141222   1.334   4.500   5.368
10129WAT     H241223   1.256   4.391   5.398
10129WAT    EPW41224   1.284   4.443   5.347
10130WAT      O41225   1.699   4.343   6.040
10130WAT     H141226   1.746   4.372   6.108
10130WAT     H241227   1.757   4.295   5.995
10130WAT    EPW41228   1.715   4.340   6.044
10131WAT      O41229   2.543   3.544   5.814
10131WAT     H141230   2.577   3.559   5.893
10131WAT     H241231   2.498   3.470   5.825
10131WAT    EPW41232   2.541   3.535   5.827
10132WAT      O41233   1.262   4.288   5.094
10132WAT     H141234   1.338   4.244   5.100
10132WAT     H241235   1.264   4.341   5.163
10132WAT    EPW41236   1.273   4.289   5.105
10133WAT      O41237   1.356   4.110   5.895
10133WAT     H141238   1.399   4.097   5.820
10133WAT     H241239   1.336   4.194   5.892
10133WAT    EPW41240   1.359   4.120   5.883
10134WAT      O41241   1.991   3.466   5.260
10134WAT     H141242   1.990   3.454   5.173
10134WAT     H241243   1.973   3.551   5.269
10134WAT    EPW41244   1.988   3.477   5.248
10135WAT      O41245   2.896   4.709   6.409
10135WAT     H141246   2.829   4.760   6.431
10135WAT     H241247   2.902   4.719   6.323
10135WAT    EPW41248   2.887   4.718   6.400
10136WAT      O41249   1.764   4.461   5.723
10136WAT     H141250   1.777   4.546   5.742
10136WAT     H241251   1.831   4.421   5.763
10136WAT    EPW41252   1.776   4.468   5.732
10137WAT      O41253   1.577   3.810   6.709
10137WAT     H141254   1.524   3.759   6.756
10137WAT     H241255   1.579   3.771   6.631
10137WAT    EPW41256   1.570   3.796   6.705
10138WAT      O41257   1.626   3.749   5.223
10138WAT     H141258   1.613   3.704   5.297
10138WAT     H241259   1.568   3.715   5.168
10138WAT    EPW41260   1.615   3.738   5.226
10139WAT      O41261   1.643   3.932   5.883
10139WAT     H141262   1.565   3.926   5.845
10139WAT     H241263   1.650   3.857   5.927
10139WAT    EPW41264   1.632   3.920   5.884
10140WAT      O41265   1.686   3.906   6.230
10140WAT     H141266   1.688   3.838   6.175
10140WAT     H241267   1.621   3.956   6.199
10140WAT    EPW41268   1.677   3.903   6.217
10141WAT      O41269   2.675   3.677   6.069
10141WAT     H141270   2.609   3.710   6.116
10141WAT     H241271   2.694   3.741   6.013
10141WAT    EPW41272   2.668   3.691   6.068
10142WAT      O41273   2.096   4.784   6.169
10142WAT     H141274   2.068   4.720   6.117
10142WAT     H241275   2.075   4.856   6.125
10142WAT    EPW41276   2.089   4.785   6.155
10143WAT      O41277   2.340   3.268   6.412
10143WAT     H141278   2.355   3.185   6.388
10143WAT     H241279   2.378   3.273   6.491
10143WAT    EPW41280   2.347   3.256   6.420
10144WAT      O41281   2.494   3.474   5.421
10144WAT     H141282   2.543   3.546   5.413
10144WAT     H241283   2.415   3.500   5.394
10144WAT    EPW41284   2.490   3.489   5.416
10145WAT      O41285   1.466   4.041   6.786
10145WAT     H141286   1.462   4.092   6.714
10145WAT     H241287   1.499   3.966   6.756
10145WAT    EPW41288   1.470   4.038   6.771
10146WAT      O41289   2.626   4.262   6.612
10146WAT     H141290   2.674   4.334   6.621
10146WAT     H241291   2.665   4.219   6.546
10146WAT    EPW41292   2.639   4.266   6.603
10147WAT      O41293   2.055   4.546   6.729
10147WAT     H141294   2.091   4.529   6.807
10147WAT     H241295   2.012   4.474   6.709
10147WAT    EPW41296   2.054   4.533   6.738
10148WAT      O41297   2.153   3.621   5.993
10148WAT     H141298   2.201   3.691   6.014
10148WAT     H241299   2.190   3.556   6.038
10148WAT    EPW41300   2.165   3.622   6.003
10149WAT      O41301   2.372   3.938   5.220
10149WAT     H141302   2.371   4.010   5.171
10149WAT     H241303   2.308   3.952   5.278
10149WAT    EPW41304   2.362   3.951   5.222
10150WAT      O41305   2.869   4.325   5.619
10150WAT     H141306   2.904   4.290   5.690
10150WAT     H241307   2.868   4.259   5.562
10150WAT    EPW41308   2.874   4.310   5.621
10151WAT      O41309   2.473   4.632   6.003
10151WAT     H141310   2.413   4.602   5.947
10151WAT     H241311   2.528   4.677   5.952
10151WAT    EPW41312   2.472   4.634   5.987
10152WAT      O41313   2.475   4.317   5.943
10152WAT     H141314   2.395   4.339   5.970
10152WAT     H241315   2.500   4.257   6.001
10152WAT    EPW41316   2.467   4.311   5.956
10153WAT      O41317   1.864   4.798   5.388
10153WAT     H141318   1.849   4.720   5.425
10153WAT     H241319   1.933   4.783   5.336
10153WAT    EPW41320   1.872   4.784   5.386
10154WAT      O41321   1.831   3.172   5.187
10154WAT     H141322   1.841   3.162   5.273
10154WAT     H241323   1.760   3.223   5.180
10154WAT    EPW41324   1.822   3.178   5.198
10155WAT      O41325   2.093   4.750   5.228
10155WAT     H141326   2.155   4.766   5.287
10155WAT     H241327   2.097   4.819   5.175
10155WAT    EPW41328   2.103   4.762   5.229
10156WAT      O41329   2.801   4.117   6.428
10156WAT     H141330   2.806   4.129   6.341
10156WAT     H241331   2.876   4.149   6.458
10156WAT    EPW41332   2.812   4.123   6.419
10157WAT      O41333   2.420   4.651   6.855
10157WAT     H141334   2.436   4.680   6.936
10157WAT     H241335   2.446   4.718   6.805
10157WAT    EPW41336   2.426   4.665   6.860
10158WAT      O41337   1.543   4.003   5.311
10158WAT     H141338   1.575   3.925   5.289
10158WAT     H241339   1.608   4.040   5.356
10158WAT    EPW41340   1.557   3.997   5.314
10159WAT      O41341   2.374   4.097   6.388
10159WAT     H141342   2.358   4.158   6.448
10159WAT     H241343   2.427   4.041   6.428
10159WAT    EPW41344   2.379   4.098   6.402
10160WAT      O41345   1.243   3.169   5.408
10160WAT     H141346   1.256   3.098   5.358
10160WAT     H241347   1.206   3.137   5.480
10160WAT    EPW41348   1.239   3.154   5.411
10161WAT      O41349   2.212   3.937   5.453
10161WAT     H141350   2.218   4.002   5.511
10161WAT     H241351   2.193   3.868   5.502
10161WAT    EPW41352   2.210   3.936   5.469
10162WAT      O41353   2.735   4.370   6.040
10162WAT     H141354   2.687   4.400   5.974
10162WAT     H241355   2.699   4.292   6.058
10162WAT    EPW41356   2.722   4.363   6.033
10163WAT      O41357   1.662   3.389   5.105
10163WAT     H141358   1.611   3.394   5.034
10163WAT     H241359   1.740   3.413   5.075
10163WAT    EPW41360   1.666   3.393   5.090
10164WAT      O41361   2.134   4.142   5.896
10164WAT     H141362   2.050   4.122   5.905
10164WAT     H241363   2.167   4.125   5.976
10164WAT    EPW41364   2.127   4.137   5.909
10165WAT      O41365   1.810   4.815   4.985
10165WAT     H141366   1.853   4.745   5.014
10165WAT     H241367   1.830   4.877   5.042
10165WAT    EPW41368   1.819   4.814   4.998
10166WAT      O41369   1.519   4.111   6.128
10166WAT     H141370   1.591   4.160   6.124
10166WAT     H241371   1.492   4.108   6.045
10166WAT    EPW41372   1.526   4.118   6.115
10167WAT      O41373   1.842   3.628   5.802
10167WAT     H141374   1.927   3.609   5.811
10167WAT     H241375   1.805   3.551   5.788
10167WAT    EPW41376   1.849   3.614   5.801
10168WAT      O41377   1.324   3.762   5.467
10168WAT     H141378   1.373   3.733   5.533
10168WAT     H241379   1.337   3.703   5.404
10168WAT    EPW41380   1.333   3.749   5.468
10169WAT      O41381   2.828   4.064   6.152
10169WAT     H141382   2.827   3.987   6.192
10169WAT     H241383   2.744   4.088   6.151
10169WAT    EPW41384   2.815   4.056   6.158
10170WAT      O41385   1.777   3.905   5.016
10170WAT     H141386   1.716   3.865   5.063
10170WAT     H241387   1.738   3.917   4.938
10170WAT    EPW41388   1.762   3.901   5.011
10171WAT      O41389   1.459   4.216   6.556
10171WAT     H141390   1.417   4.165   6.500
10171WAT     H241391   1.423   4.295   6.542
10171WAT    EPW41392   1.447   4.220   6.545
10172WAT      O41393   2.953   4.071   5.896
10172WAT     H141394   2.925   4.111   5.968
10172WAT     H241395   3.039   4.065   5.909
10172WAT    EPW41396   2.962   4.076   5.908
10173WAT      O41397   1.922   3.752   5.287
10173WAT     H141398   1.949   3.834   5.293
10173WAT     H241399   1.836   3.759   5.277
10173WAT    EPW41400   1.914   3.765   5.286
10174WAT      O41401   2.720   3.464   6.750
10174WAT     H141402   2.667   3.510   6.802
10174WAT     H241403   2.683   3.384   6.749
10174WAT    EPW41404   2.706   3.459   6.757
10175WAT      O41405   1.270   3.349   5.940
10175WAT     H141406   1.275   3.383   5.860
10175WAT     H241407   1.346   3.372   5.977
10175WAT    EPW41408   1.282   3.357   5.934
10176WAT      O41409   3.066   4.635   5.949
10176WAT     H141410   3.095   4.660   5.871
10176WAT     H241411   3.136   4.644   6.001
10176WAT    EPW41412   3.081   4.640   5.945
10177WAT      O41413   2.569   3.821   6.757
10177WAT     H141414   2.576   3.831   6.844
10177WAT     H241415   2.505   3.876   6.735
10177WAT    EPW41416   2.560   3.830   6.767
10178WAT      O41417   2.796   3.853   6.594
10178WAT     H141418   2.827   3.931   6.614
10178WAT     H241419   2.759   3.826   6.668
10178WAT    EPW41420   2.795   3.860   6.608
10179WAT      O41421   2.727   4.495   5.147
10179WAT     H141422   2.760   4.414   5.150
10179WAT     H241423   2.651   4.488   5.190
10179WAT    EPW41424   2.721   4.482   5.154
10180WAT      O41425   2.775   3.678   5.713
10180WAT     H141426   2.701   3.646   5.745
10180WAT     H241427   2.775   3.761   5.741
10180WAT    EPW41428   2.764   3.686   5.722
10181WAT      O41429   3.065   3.907   6.867
10181WAT     H141430   3.060   3.873   6.787
10181WAT     H241431   3.139   3.953   6.865
10181WAT    EPW41432   3.075   3.909   6.855
10182WAT      O41433   3.019   4.274   6.488
10182WAT     H141434   3.082   4.219   6.462
10182WAT     H241435   3.013   4.331   6.422
10182WAT    EPW41436   3.028   4.275   6.474
10183WAT      O41437   2.464   4.282   5.087
10183WAT     H141438   2.533   4.231   5.070
10183WAT     H241439   2.423   4.287   5.011
10183WAT    EPW41440   2.468   4.276   5.073
10184WAT      O41441   1.933   4.397   6.218
10184WAT     H141442   1.903   4.457   6.274
10184WAT     H241443   1.938   4.442   6.143
10184WAT    EPW41444   1.929   4.413   6.215
10185WAT      O41445   1.730   4.292   6.557
10185WAT     H141446   1.650   4.263   6.574
10185WAT     H241447   1.722   4.379   6.558
10185WAT    EPW41448   1.717   4.301   6.560
10186WAT      O41449   2.666   3.311   6.459
10186WAT     H141450   2.741   3.357   6.453
10186WAT     H241451   2.610   3.358   6.412
10186WAT    EPW41452   2.669   3.325   6.451
10187WAT      O41453   2.184   4.040   6.167
10187WAT     H141454   2.232   4.077   6.230
10187WAT     H241455   2.102   4.053   6.193
10187WAT    EPW41456   2.179   4.047   6.180
10188WAT      O41457   1.855   3.600   6.441
10188WAT     H141458   1.871   3.526   6.484
10188WAT     H241459   1.851   3.575   6.357
10188WAT    EPW41460   1.857   3.585   6.435
10189WAT      O41461   2.111   4.779   5.690
10189WAT     H141462   2.165   4.847   5.695
10189WAT     H241463   2.076   4.787   5.610
10189WAT    EPW41464   2.113   4.790   5.679
10190WAT      O41465   2.795   3.109   6.226
10190WAT     H141466   2.767   3.192   6.222
10190WAT     H241467   2.866   3.115   6.276
10190WAT    EPW41468   2.801   3.122   6.233
10191WAT      O41469   2.030   3.181   6.429
10191WAT     H141470   2.101   3.213   6.389
10191WAT     H241471   2.054   3.100   6.452
10191WAT    EPW41472   2.044   3.174   6.426
10192WAT      O41473   1.929   4.602   6.028
10192WAT     H141474   1.866   4.660   6.010
10192WAT     H241475   1.954   4.573   5.950
10192WAT    EPW41476   1.923   4.606   6.014
10193WAT      O41477   2.360   4.265   6.727
10193WAT     H141478   2.435   4.294   6.695
10193WAT     H241479   2.305   4.270   6.660
10193WAT    EPW41480   2.363   4.270   6.712
10194WAT      O41481   2.751   4.520   6.578
10194WAT     H141482   2.785   4.547   6.653
10194WAT     H241483   2.780   4.578   6.520
10194WAT    EPW41484   2.760   4.533   6.580
10195WAT      O41485   2.088   4.079   5.020
10195WAT     H141486   2.008   4.062   4.991
10195WAT     H241487   2.085   4.165   5.039
10195WAT    EPW41488   2.076   4.089   5.019
10196WAT      O41489   1.681   3.686   6.035
10196WAT     H141490   1.725   3.676   5.960
10196WAT     H241491   1.736   3.655   6.095
10196WAT    EPW41492   1.696   3.680   6.033
10197WAT      O41493   2.483   3.596   6.594
10197WAT     H141494   2.418   3.643   6.629
10197WAT     H241495   2.539   3.587   6.660
10197WAT    EPW41496   2.482   3.602   6.609
10198WAT      O41497   2.452   3.750   6.224
10198WAT     H141498   2.482   3.792   6.294
10198WAT     H241499   2.455   3.666   6.247
10198WAT    EPW41500   2.457   3.744   6.238
10199WAT      O41501   2.194   4.767   6.616
10199WAT     H141502   2.242   4.707   6.575
10199WAT     H241503   2.159   4.722   6.683
10199WAT    EPW41504   2.196   4.751   6.620
10200WAT      O41505   2.706   3.695   5.449
10200WAT     H141506   2.727   3.675   5.532
10200WAT     H241507   2.782   3.722   5.415
10200WAT    EPW41508   2.721   3.696   5.456
10201WAT      O41509   2.036   3.185   6.040
10201WAT     H141510   1.953   3.170   6.063
10201WAT     H241511   2.032   3.188   5.953
10201WAT    EPW41512   2.023   3.183   6.030
10202WAT      O41513   2.809   3.303   5.597
10202WAT     H141514   2.737   3.256   5.614
10202WAT     H241515   2.792   3.337   5.518
10202WAT    EPW41516   2.796   3.301   5.587
10203WAT      O41517   2.853   4.097   5.435
10203WAT     H141518   2.901   4.025   5.430
10203WAT     H241519   2.771   4.069   5.427
10203WAT    EPW41520   2.848   4.082   5.433
10204WAT      O41521   2.200   4.289   6.518
10204WAT     H141522   2.121   4.282   6.554
10204WAT     H241523   2.207   4.373   6.499
10204WAT    EPW41524   2.189   4.300   6.521
10205WAT      O41525   1.292   3.224   6.643
10205WAT     H141526   1.278   3.304   6.610
10205WAT     H241527   1.214   3.200   6.672
10205WAT    EPW41528   1.279   3.233   6.643
10206WAT      O41529   1.783   4.909   6.050
10206WAT     H141530   1.784   4.915   6.137
10206WAT     H241531   1.741   4.835   6.035
10206WAT    EPW41532   1.777   4.899   6.061
10207WAT      O41533   1.599   3.499   5.366
10207WAT     H141534   1.611   3.466   5.286
10207WAT     H241535   1.518   3.474   5.386
10207WAT    EPW41536   1.589   3.490   5.357
10208WAT      O41537   2.227   4.142   5.627
10208WAT     H141538   2.197   4.110   5.702
10208WAT     H241539   2.296   4.189   5.650
10208WAT    EPW41540   2.233   4.144   5.641
10209WAT      O41541   2.249   4.553   6.429
10209WAT     H141542   2.318   4.542   6.482
10209WAT     H241543   2.262   4.632   6.395
10209WAT    EPW41544   2.261   4.563   6.432
10210WAT      O41545   3.067   3.814   6.610
10210WAT     H141546   2.981   3.802   6.623
10210WAT     H241547   3.082   3.775   6.534
10210WAT    EPW41548   3.056   3.807   6.601
10211WAT      O41549   1.459   4.859   6.594
10211WAT     H141550   1.394   4.802   6.604
10211WAT     H241551   1.422   4.936   6.609
10211WAT    EPW41552   1.444   4.862   6.598
10212WAT      O41553   2.311   4.000   6.787
10212WAT     H141554   2.344   4.068   6.743
10212WAT     H241555   2.241   4.032   6.827
10212WAT    EPW41556   2.306   4.015   6.786
10213WAT      O41557   2.620   4.837   5.880
10213WAT     H141558   2.575   4.901   5.917
10213WAT     H241559   2.690   4.829   5.930
10213WAT    EPW41560   2.623   4.845   5.893
10214WAT      O41561   2.290   4.346   6.173
10214WAT     H141562   2.220   4.386   6.207
10214WAT     H241563   2.357   4.389   6.206
10214WAT    EPW41564   2.289   4.358   6.183
10215WAT      O41565   2.827   4.605   6.831
10215WAT     H141566   2.905   4.566   6.839
10215WAT     H241567   2.781   4.572   6.896
10215WAT    EPW41568   2.832   4.595   6.841
10216WAT      O41569   1.597   3.700   6.407
10216WAT     H141570   1.634   3.762   6.359
10216WAT     H241571   1.664   3.653   6.436
10216WAT    EPW41572   1.612   3.702   6.404
10217WAT      O41573   1.374   3.545   6.335
10217WAT     H141574   1.382   3.528   6.249
10217WAT     H241575   1.449   3.585   6.354
10217WAT    EPW41576   1.386   3.548   6.325
10218WAT      O41577   1.629   3.286   6.576
10218WAT     H141578   1.621   3.201   6.596
10218WAT     H241579   1.598   3.290   6.495
10218WAT    EPW41580   1.624   3.274   6.567
10219WAT      O41581   2.322   4.505   5.489
10219WAT     H141582   2.301   4.589   5.474
10219WAT     H241583   2.244   4.467   5.502
10219WAT    EPW41584   2.307   4.512   5.489
10220WAT      O41585   2.840   3.823   6.314
10220WAT     H141586   2.840   3.737   6.327
10220WAT     H241587   2.847   3.856   6.395
10220WAT    EPW41588   2.841   3.815   6.328
10221WAT      O41589   1.314   4.067   6.357
10221WAT     H141590   1.346   4.089   6.279
10221WAT     H241591   1.304   3.981   6.352
10221WAT    EPW41592   1.317   4.058   6.345
10222WAT      O41593   1.459   3.661   5.019
10222WAT     H141594   1.392   3.662   5.075
10222WAT     H241595   1.469   3.576   5.001
10222WAT    EPW41596   1.451   3.649   5.024
10223WAT      O41597   2.428   3.303   6.693
10223WAT     H141598   2.437   3.375   6.742
10223WAT     H241599   2.364   3.259   6.732
10223WAT    EPW41600   2.420   3.307   6.706
10224WAT      O41601   2.327   3.322   5.778
10224WAT     H141602   2.257   3.374   5.772
10224WAT     H241603   2.331   3.284   5.700
10224WAT    EPW41604   2.318   3.324   5.766
10225WAT      O41605   1.858   4.531   5.130
10225WAT     H141606   1.902   4.539   5.205
10225WAT     H241607   1.778   4.510   5.156
10225WAT    EPW41608   1.853   4.529   5.145
10226WAT      O41609   2.687   3.374   6.058
10226WAT     H141610   2.773   3.384   6.072
10226WAT     H241611   2.650   3.429   6.114
10226WAT    EPW41612   2.694   3.384   6.068
10227WAT      O41613   1.790   3.997   6.496
10227WAT     H141614   1.750   4.074   6.503
10227WAT     H241615   1.749   3.959   6.428
10227WAT    EPW41616   1.778   4.002   6.487
10228WAT      O41617   2.718   3.902   5.907
10228WAT     H141618   2.784   3.956   5.923
10228WAT     H241619   2.683   3.933   5.833
10228WAT    EPW41620   2.722   3.915   5.899
10229WAT      O41621   1.591   4.438   5.190
10229WAT     H141622   1.567   4.408   5.268
10229WAT     H241623   1.588   4.368   5.139
10229WAT    EPW41624   1.587   4.424   5.194
10230WAT      O41625   1.873   4.263   5.065
10230WAT     H141626   1.791   4.236   5.079
10230WAT     H241627   1.870   4.348   5.083
10230WAT    EPW41628   1.860   4.272   5.070
10231WAT      O41629   1.833   3.294   6.241
10231WAT     H141630   1.747   3.303   6.249
10231WAT     H241631   1.855   3.243   6.308
10231WAT    EPW41632   1.823   3.288   6.252
10232WAT      O41633   3.035   3.158   6.374
10232WAT     H141634   3.030   3.153   6.461
10232WAT     H241635   3.103   3.107   6.355
10232WAT    EPW41636   3.044   3.150   6.384
10233WAT      O41637   2.243   3.369   6.078
10233WAT     H141638   2.170   3.324   6.089
10233WAT     H241639   2.300   3.329   6.130
10233WAT    EPW41640   2.241   3.356   6.087
10234WAT      O41641   2.516   4.454   6.257
10234WAT     H141642   2.537   4.484   6.336
10234WAT     H241643   2.510   4.526   6.208
10234WAT    EPW41644   2.519   4.469   6.261
10235WAT      O41645   2.470   4.875   6.681
10235WAT     H141646   2.395   4.873   6.637
10235WAT     H241647   2.487   4.960   6.690
10235WAT    EPW41648   2.461   4.888   6.676
10236WAT      O41649   1.994   3.802   6.598
10236WAT     H141650   1.961   3.744   6.541
10236WAT     H241651   1.958   3.877   6.574
10236WAT    EPW41652   1.984   3.805   6.586
10237WAT      O41653   2.073   3.127   5.061
10237WAT     H141654   2.081   3.152   4.978
10237WAT     H241655   1.999   3.165   5.087
10237WAT    EPW41656   2.063   3.136   5.053
10238WAT      O41657   2.998   4.318   6.203
10238WAT     H141658   2.994   4.232   6.189
10238WAT     H241659   2.928   4.348   6.159
10238WAT    EPW41660   2.987   4.309   6.194
10239WAT      O41661   1.837   4.838   6.623
10239WAT     H141662   1.841   4.850   6.710
10239WAT     H241663   1.902   4.782   6.608
10239WAT    EPW41664   1.847   4.831   6.634
10240WAT      O41665   2.808   4.644   6.082
10240WAT     H141666   2.861   4.635   6.013
10240WAT     H241667   2.769   4.566   6.088
10240WAT    EPW41668   2.810   4.631   6.073
10241WAT      O41669   1.555   3.303   6.305
10241WAT     H141670   1.521   3.226   6.282
10241WAT     H241671   1.485   3.355   6.312
10241WAT    EPW41672   1.540   3.299   6.303
10242WAT      O41673   2.460   3.188   6.003
10242WAT     H141674   2.527   3.243   6.016
10242WAT     H241675   2.409   3.231   5.946
10242WAT    EPW41676   2.462   3.202   5.997
10243WAT      O41677   1.596   4.676   6.759
10243WAT     H141678   1.656   4.719   6.806
10243WAT     H241679   1.560   4.738   6.710
10243WAT    EPW41680   1.600   4.691   6.759
10244WAT      O41681   2.395   3.769   5.752
10244WAT     H141682   2.451   3.708   5.782
10244WAT     H241683   2.353   3.795   5.824
10244WAT    EPW41684   2.397   3.764   5.767
10245WAT      O41685   1.420   3.634   5.701
10245WAT     H141686   1.383   3.664   5.774
10245WAT     H241687   1.474   3.571   5.729
10245WAT    EPW41688   1.423   3.629   5.716
10246WAT      O41689   1.389   4.475   6.452
10246WAT     H141690   1.332   4.516   6.503
10246WAT     H241691   1.462   4.521   6.462
10246WAT    EPW41692   1.391   4.488   6.461
10247WAT      O41693   2.592   3.952   5.409
10247WAT     H141694   2.599   3.867   5.427
10247WAT     H241695   2.510   3.961   5.381
10247WAT    EPW41696   2.581   3.941   5.407
10248WAT      O41697   1.568   4.801   5.330
10248WAT     H141698   1.553   4.817   5.245
10248WAT     H241699   1.654   4.809   5.337
10248WAT    EPW41700   1.578   4.805   5.318
10249WAT      O41701   1.984   4.041   5.302
10249WAT     H141702   1.994   4.055   5.217
10249WAT     H241703   2.066   4.035   5.332
10249WAT    EPW41704   1.998   4.042   5.294
10250WAT      O41705   2.920   4.089   6.724
10250WAT     H141706   2.983   4.072   6.781
10250WAT     H241707   2.962   4.130   6.659
10250WAT    EPW41708   2.935   4.093   6.723
10251WAT      O41709   2.508   4.474   5.283
10251WAT     H141710   2.483   4.461   5.365
10251WAT     H241711   2.476   4.405   5.241
10251WAT    EPW41712   2.499   4.462   5.289
10252WAT      O41713   2.982   3.546   6.798
10252WAT     H141714   2.963   3.610   6.853
10252WAT     H241715   2.910   3.497   6.797
10252WAT    EPW41716   2.969   3.548   6.806
10253WAT      O41717   2.972   3.640   6.095
10253WAT     H141718   2.889   3.665   6.087
10253WAT     H241719   2.967   3.556   6.118
10253WAT    EPW41720   2.959   3.631   6.097
10254WAT      O41721   1.898   3.339   6.614
10254WAT     H141722   1.922   3.281   6.553
10254WAT     H241723   1.814   3.321   6.628
10254WAT    EPW41724   1.889   3.327   6.607
10255WAT      O41725   2.661   4.100   6.859
10255WAT     H141726   2.748   4.097   6.856
10255WAT     H241727   2.639   4.142   6.786
10255WAT    EPW41728   2.671   4.106   6.848
10256WAT      O41729   1.636   4.683   5.977
10256WAT     H141730   1.628   4.602   5.946
10256WAT     H241731   1.592   4.732   5.920
10256WAT    EPW41732   1.629   4.678   5.964
10257WAT      O41733   2.196   4.295   5.226
10257WAT     H141734   2.268   4.260   5.190
10257WAT     H241735   2.193   4.375   5.191
10257WAT    EPW41736   2.207   4.302   5.215
10258WAT      O41737   1.394   4.907   6.335
10258WAT     H141738   1.443   4.902   6.407
10258WAT     H241739   1.412   4.834   6.292
10258WAT    EPW41740   1.404   4.896   6.340
10259WAT      O41741   2.337   3.159   3.650
10259WAT     H141742   2.313   3.208   3.582
10259WAT     H241743   2.424   3.152   3.640
10259WAT    EPW41744   2.346   3.165   3.638
10260WAT      O41745   2.318   3.851   4.117
10260WAT     H141746   2.266   3.910   4.153
10260WAT     H241747   2.358   3.814   4.185
10260WAT    EPW41748   2.316   3.854   4.132
10261WAT      O41749   1.305   4.265   3.662
10261WAT     H141750   1.261   4.276   3.737
10261WAT     H241751   1.277   4.187   3.634
10261WAT    EPW41752   1.294   4.255   3.669
10262WAT      O41753   2.933   4.595   3.414
10262WAT     H141754   3.003   4.543   3.413
10262WAT     H241755   2.874   4.550   3.367
10262WAT    EPW41756   2.934   4.580   3.407
10263WAT      O41757   1.279   3.644   3.313
10263WAT     H141758   1.202   3.660   3.277
10263WAT     H241759   1.283   3.557   3.315
10263WAT    EPW41760   1.269   3.633   3.308
10264WAT      O41761   1.593   4.170   3.180
10264WAT     H141762   1.554   4.133   3.112
10264WAT     H241763   1.585   4.110   3.243
10264WAT    EPW41764   1.586   4.156   3.179
10265WAT      O41765   1.556   4.334   3.570
10265WAT     H141766   1.617   4.317   3.630
10265WAT     H241767   1.481   4.320   3.612
10265WAT    EPW41768   1.554   4.330   3.585
10266WAT      O41769   1.984   3.268   3.565
10266WAT     H141770   1.977   3.335   3.510
10266WAT     H241771   2.058   3.229   3.540
10266WAT    EPW41772   1.994   3.272   3.553
10267WAT      O41773   1.445   4.643   3.178
10267WAT     H141774   1.492   4.652   3.105
10267WAT     H241775   1.491   4.585   3.225
10267WAT    EPW41776   1.459   4.636   3.174
10268WAT      O41777   1.299   4.538   4.288
10268WAT     H141778   1.312   4.510   4.369
10268WAT     H241779   1.238   4.484   4.257
10268WAT    EPW41780   1.292   4.526   4.295
10269WAT      O41781   1.957   4.291   4.794
10269WAT     H141782   1.933   4.290   4.878
10269WAT     H241783   1.882   4.276   4.752
10269WAT    EPW41784   1.942   4.288   4.801
10270WAT      O41785   1.444   3.990   3.708
10270WAT     H141786   1.398   3.951   3.645
10270WAT     H241787   1.514   3.939   3.717
10270WAT    EPW41788   1.447   3.977   3.700
10271WAT      O41789   1.895   3.551   4.243
10271WAT     H141790   1.962   3.553   4.188
10271WAT     H241791   1.890   3.468   4.267
10271WAT    EPW41792   1.904   3.539   4.238
10272WAT      O41793   1.955   4.610   4.521
10272WAT     H141794   1.969   4.686   4.480
10272WAT     H241795   2.034   4.573   4.523
10272WAT    EPW41796   1.968   4.616   4.515
10273WAT      O41797   1.644   3.800   3.710
10273WAT     H141798   1.726   3.781   3.735
10273WAT     H241799   1.596   3.739   3.750
10273WAT    EPW41800   1.649   3.788   3.720
10274WAT      O41801   2.064   4.398   3.971
10274WAT     H141802   2.099   4.318   3.974
10274WAT     H241803   2.131   4.449   3.946
10274WAT    EPW41804   2.079   4.394   3.968
10275WAT      O41805   2.070   4.343   3.592
10275WAT     H141806   2.103   4.279   3.641
10275WAT     H241807   2.094   4.322   3.511
10275WAT    EPW41808   2.078   4.331   3.588
10276WAT      O41809   2.267   3.756   4.726
10276WAT     H141810   2.182   3.746   4.708
10276WAT     H241811   2.270   3.831   4.772
10276WAT    EPW41812   2.255   3.766   4.730
10277WAT      O41813   1.704   3.310   3.637
10277WAT     H141814   1.674   3.360   3.572
10277WAT     H241815   1.790   3.317   3.631
10277WAT    EPW41816   1.712   3.318   3.626
10278WAT      O41817   2.723   3.052   4.638
10278WAT     H141818   2.707   3.129   4.599
10278WAT     H241819   2.645   3.030   4.672
10278WAT    EPW41820   2.709   3.060   4.637
10279WAT      O41821   2.001   3.224   3.859
10279WAT     H141822   2.009   3.310   3.872
10279WAT     H241823   1.998   3.216   3.772
10279WAT    EPW41824   2.002   3.235   3.848
10280WAT      O41825   2.469   3.516   3.089
10280WAT     H141826   2.424   3.584   3.120
10280WAT     H241827   2.480   3.466   3.159
10280WAT    EPW41828   2.464   3.519   3.104
10281WAT      O41829   1.289   3.766   4.009
10281WAT     H141830   1.264   3.849   4.002
10281WAT     H241831   1.223   3.728   4.051
10281WAT    EPW41832   1.276   3.773   4.014
10282WAT      O41833   1.280   4.737   3.799
10282WAT     H141834   1.221   4.793   3.768
10282WAT     H241835   1.323   4.710   3.728
10282WAT    EPW41836   1.278   4.741   3.784
10283WAT      O41837   1.864   4.522   3.547
10283WAT     H141838   1.806   4.494   3.606
10283WAT     H241839   1.927   4.461   3.550
10283WAT    EPW41840   1.865   4.509   3.556
10284WAT      O41841   2.479   4.750   3.299
10284WAT     H141842   2.551   4.798   3.310
10284WAT     H241843   2.502   4.671   3.327
10284WAT    EPW41844   2.493   4.746   3.305
10285WAT      O41845   2.295   4.790   3.498
10285WAT     H141846   2.317   4.842   3.565
10285WAT     H241847   2.372   4.772   3.461
10285WAT    EPW41848   2.310   4.795   3.503
10286WAT      O41849   1.592   3.248   4.058
10286WAT     H141850   1.540   3.185   4.028
10286WAT     H241851   1.651   3.204   4.105
10286WAT    EPW41852   1.593   3.232   4.061
10287WAT      O41853   1.923   3.461   4.988
10287WAT     H141854   1.935   3.416   4.915
10287WAT     H241855   1.952   3.541   4.968
10287WAT    EPW41856   1.929   3.466   4.974
10288WAT      O41857   1.435   4.604   3.592
10288WAT     H141858   1.500   4.547   3.594
10288WAT     H241859   1.474   4.679   3.570
10288WAT    EPW41860   1.450   4.607   3.589
10289WAT      O41861   2.539   4.791   4.329
10289WAT     H141862   2.614   4.836   4.328
10289WAT     H241863   2.527   4.769   4.245
10289WAT    EPW41864   2.549   4.794   4.316
10290WAT      O41865   1.496   3.421   4.887
10290WAT     H141866   1.418   3.382   4.879
10290WAT     H241867   1.545   3.380   4.827
10290WAT    EPW41868   1.492   3.409   4.877
10291WAT      O41869   1.517   4.453   3.942
10291WAT     H141870   1.559   4.417   3.875
10291WAT     H241871   1.549   4.411   4.012
10291WAT    EPW41872   1.528   4.441   3.943
10292WAT      O41873   1.840   4.738   3.872
10292WAT     H141874   1.924   4.749   3.852
10292WAT     H241875   1.810   4.820   3.879
10292WAT    EPW41876   1.848   4.752   3.870
10293WAT      O41877   2.161   3.185   4.803
10293WAT     H141878   2.179   3.104   4.776
10293WAT     H241879   2.147   3.229   4.729
10293WAT    EPW41880   2.162   3.180   4.788
10294WAT      O41881   2.220   3.678   3.681
10294WAT     H141882   2.249   3.655   3.602
10294WAT     H241883   2.294   3.686   3.728
10294WAT    EPW41884   2.235   3.676   3.676
10295WAT      O41885   2.697   4.909   3.339
10295WAT     H141886   2.763   4.894   3.285
10295WAT     H241887   2.733   4.901   3.418
10295WAT    EPW41888   2.712   4.906   3.343
10296WAT      O41889   1.740   4.860   4.446
10296WAT     H141890   1.769   4.853   4.528
10296WAT     H241891   1.677   4.800   4.441
10296WAT    EPW41892   1.735   4.850   4.457
10297WAT      O41893   1.231   3.476   4.645
10297WAT     H141894   1.231   3.534   4.710
10297WAT     H241895   1.290   3.507   4.589
10297WAT    EPW41896   1.240   3.489   4.646
10298WAT      O41897   2.465   4.509   4.699
10298WAT     H141898   2.461   4.547   4.778
10298WAT     H241899   2.550   4.505   4.682
10298WAT    EPW41900   2.477   4.514   4.708
10299WAT      O41901   2.179   4.529   3.174
10299WAT     H141902   2.160   4.583   3.240
10299WAT     H241903   2.255   4.558   3.144
10299WAT    EPW41904   2.187   4.541   3.180
10300WAT      O41905   2.529   3.318   3.280
10300WAT     H141906   2.583   3.250   3.287
10300WAT     H241907   2.535   3.358   3.357
10300WAT    EPW41908   2.538   3.314   3.292
10301WAT      O41909   1.325   3.435   3.537
10301WAT     H141910   1.313   3.349   3.540
10301WAT     H241911   1.277   3.465   3.604
10301WAT    EPW41912   1.316   3.427   3.547
10302WAT      O41913   1.539   4.676   4.358
10302WAT     H141914   1.469   4.625   4.371
10302WAT     H241915   1.565   4.656   4.277
10302WAT    EPW41916   1.532   4.666   4.348
10303WAT      O41917   2.255   3.556   3.411
10303WAT     H141918   2.204   3.490   3.386
10303WAT     H241919   2.260   3.606   3.340
10303WAT    EPW41920   2.248   3.554   3.397
10304WAT      O41921   2.310   4.826   4.449
10304WAT     H141922   2.387   4.818   4.409
10304WAT     H241923   2.252   4.813   4.385
10304WAT    EPW41924   2.313   4.823   4.434
10305WAT      O41925   2.255   3.250   3.400
10305WAT     H141926   2.210   3.210   3.338
10305WAT     H241927   2.332   3.266   3.363
10305WAT    EPW41928   2.260   3.247   3.385
10306WAT      O41929   2.938   4.886   3.739
10306WAT     H141930   2.892   4.958   3.759
10306WAT     H241931   2.876   4.829   3.715
10306WAT    EPW41932   2.922   4.888   3.739
10307WAT      O41933   2.115   3.487   3.852
10307WAT     H141934   2.122   3.544   3.787
10307WAT     H241935   2.127   3.536   3.923
10307WAT    EPW41936   2.118   3.503   3.853
10308WAT      O41937   2.637   4.470   3.694
10308WAT     H141938   2.707   4.422   3.713
10308WAT     H241939   2.571   4.413   3.698
10308WAT    EPW41940   2.638   4.455   3.697
10309WAT      O41941   1.675   4.561   4.615
10309WAT     H141942   1.759   4.568   4.593
10309WAT     H241943   1.671   4.601   4.692
10309WAT    EPW41944   1.687   4.568   4.623
10310WAT      O41945   1.576   3.069   3.687
10310WAT     H141946   1.629   3.138   3.686
10310WAT     H241947   1.576   3.042   3.604
10310WAT    EPW41948   1.584   3.075   3.675
10311WAT      O41949   1.871   4.112   4.090
10311WAT     H141950   1.888   4.091   4.173
10311WAT     H241951   1.806   4.059   4.068
10311WAT    EPW41952   1.864   4.101   4.099
10312WAT      O41953   2.494   3.504   4.441
10312WAT     H141954   2.485   3.536   4.522
10312WAT     H241955   2.435   3.440   4.437
10312WAT    EPW41956   2.484   3.499   4.453
10313WAT      O41957   1.946   4.106   4.349
10313WAT     H141958   1.952   4.191   4.369
10313WAT     H241959   1.918   4.069   4.422
10313WAT    EPW41960   1.943   4.113   4.363
10314WAT      O41961   2.564   4.176   4.262
10314WAT     H141962   2.513   4.135   4.319
10314WAT     H241963   2.551   4.260   4.280
10314WAT    EPW41964   2.555   4.182   4.273
10315WAT      O41965   2.620   3.098   3.725
10315WAT     H141966   2.625   3.066   3.806
10315WAT     H241967   2.652   3.034   3.676
10315WAT    EPW41968   2.625   3.084   3.730
10316WAT      O41969   1.228   4.543   4.970
10316WAT     H141970   1.304   4.578   4.996
10316WAT     H241971   1.246   4.458   4.964
10316WAT    EPW41972   1.242   4.536   4.973
10317WAT      O41973   2.866   3.522   4.556
10317WAT     H141974   2.943   3.499   4.589
10317WAT     H241975   2.819   3.544   4.626
10317WAT    EPW41976   2.870   3.522   4.571
10318WAT      O41977   1.620   3.450   3.853
10318WAT     H141978   1.648   3.407   3.782
10318WAT     H241979   1.603   3.387   3.910
10318WAT    EPW41980   1.622   3.434   3.851
10319WAT      O41981   1.603   4.193   3.808
10319WAT     H141982   1.688   4.185   3.790
10319WAT     H241983   1.567   4.125   3.766
10319WAT    EPW41984   1.610   4.182   3.799
10320WAT      O41985   1.480   4.865   3.931
10320WAT     H141986   1.412   4.816   3.907
10320WAT     H241987   1.520   4.884   3.856
10320WAT    EPW41988   1.476   4.861   3.917
10321WAT      O41989   1.435   3.560   4.161
10321WAT     H141990   1.519   3.582   4.157
10321WAT     H241991   1.396   3.618   4.108
10321WAT    EPW41992   1.441   3.572   4.152
10322WAT      O41993   2.679   3.873   3.233
10322WAT     H141994   2.657   3.946   3.191
10322WAT     H241995   2.634   3.878   3.308
10322WAT    EPW41996   2.669   3.885   3.238
10323WAT      O41997   1.840   4.194   3.631
10323WAT     H141998   1.911   4.243   3.640
10323WAT     H241999   1.862   4.137   3.568
10323WAT    EPW42000   1.853   4.192   3.623
10324WAT      O42001   3.097   3.359   3.178
10324WAT     H142002   3.031   3.303   3.181
10324WAT     H242003   3.078   3.411   3.110
10324WAT    EPW42004   3.085   3.359   3.169
10325WAT      O42005   1.255   4.358   3.963
10325WAT     H142006   1.189   4.407   3.991
10325WAT     H242007   1.323   4.412   3.966
10325WAT    EPW42008   1.255   4.373   3.968
10326WAT      O42009   2.020   3.729   4.973
10326WAT     H142010   1.972   3.787   5.017
10326WAT     H242011   2.017   3.758   4.891
10326WAT    EPW42012   2.012   3.742   4.967
10327WAT      O42013   1.262   4.026   3.473
10327WAT     H142014   1.243   3.942   3.489
10327WAT     H242015   1.328   4.023   3.416
10327WAT    EPW42016   1.269   4.013   3.467
10328WAT      O42017   2.898   3.315   3.406
10328WAT     H142018   2.972   3.275   3.426
10328WAT     H242019   2.924   3.387   3.364
10328WAT    EPW42020   2.913   3.320   3.403
10329WAT      O42021   2.292   4.564   3.864
10329WAT     H142022   2.240   4.627   3.834
10329WAT     H242023   2.323   4.527   3.791
10329WAT    EPW42024   2.289   4.568   3.849
10330WAT      O42025   1.279   4.443   3.431
10330WAT     H142026   1.334   4.500   3.467
10330WAT     H242027   1.256   4.391   3.497
10330WAT    EPW42028   1.284   4.443   3.446
10331WAT      O42029   1.699   4.343   4.140
10331WAT     H142030   1.746   4.372   4.208
10331WAT     H242031   1.757   4.295   4.094
10331WAT    EPW42032   1.715   4.340   4.143
10332WAT      O42033   2.543   3.544   3.913
10332WAT     H142034   2.577   3.559   3.992
10332WAT     H242035   2.498   3.470   3.925
10332WAT    EPW42036   2.541   3.535   3.927
10333WAT      O42037   1.262   4.288   3.194
10333WAT     H142038   1.338   4.244   3.199
10333WAT     H242039   1.264   4.341   3.263
10333WAT    EPW42040   1.273   4.289   3.205
10334WAT      O42041   1.356   4.110   3.994
10334WAT     H142042   1.399   4.097   3.919
10334WAT     H242043   1.336   4.194   3.992
10334WAT    EPW42044   1.359   4.120   3.983
10335WAT      O42045   1.991   3.466   3.359
10335WAT     H142046   1.990   3.454   3.273
10335WAT     H242047   1.973   3.551   3.368
10335WAT    EPW42048   1.988   3.477   3.348
10336WAT      O42049   2.896   4.709   4.509
10336WAT     H142050   2.829   4.760   4.531
10336WAT     H242051   2.902   4.719   4.422
10336WAT    EPW42052   2.887   4.718   4.499
10337WAT      O42053   1.764   4.461   3.822
10337WAT     H142054   1.777   4.546   3.841
10337WAT     H242055   1.831   4.421   3.862
10337WAT    EPW42056   1.776   4.468   3.831
10338WAT      O42057   1.577   3.810   4.809
10338WAT     H142058   1.524   3.759   4.855
10338WAT     H242059   1.579   3.771   4.731
10338WAT    EPW42060   1.570   3.796   4.804
10339WAT      O42061   1.626   3.749   3.323
10339WAT     H142062   1.613   3.704   3.396
10339WAT     H242063   1.568   3.715   3.267
10339WAT    EPW42064   1.615   3.738   3.325
10340WAT      O42065   1.643   3.932   3.982
10340WAT     H142066   1.565   3.926   3.944
10340WAT     H242067   1.650   3.857   4.026
10340WAT    EPW42068   1.632   3.920   3.983
10341WAT      O42069   1.686   3.906   4.329
10341WAT     H142070   1.688   3.838   4.274
10341WAT     H242071   1.621   3.956   4.298
10341WAT    EPW42072   1.677   3.903   4.317
10342WAT      O42073   2.675   3.677   4.169
10342WAT     H142074   2.609   3.710   4.215
10342WAT     H242075   2.694   3.741   4.112
10342WAT    EPW42076   2.668   3.691   4.167
10343WAT      O42077   2.096   4.784   4.268
10343WAT     H142078   2.068   4.720   4.216
10343WAT     H242079   2.075   4.856   4.225
10343WAT    EPW42080   2.089   4.785   4.254
10344WAT      O42081   2.340   3.268   4.512
10344WAT     H142082   2.355   3.185   4.487
10344WAT     H242083   2.378   3.273   4.590
10344WAT    EPW42084   2.347   3.256   4.520
10345WAT      O42085   2.494   3.474   3.520
10345WAT     H142086   2.543   3.546   3.512
10345WAT     H242087   2.415   3.500   3.494
10345WAT    EPW42088   2.490   3.489   3.515
10346WAT      O42089   1.466   4.041   4.885
10346WAT     H142090   1.462   4.092   4.814
10346WAT     H242091   1.499   3.966   4.856
10346WAT    EPW42092   1.470   4.038   4.870
10347WAT      O42093   2.055   4.546   4.829
10347WAT     H142094   2.091   4.529   4.906
10347WAT     H242095   2.012   4.474   4.809
10347WAT    EPW42096   2.054   4.533   4.837
10348WAT      O42097   2.153   3.621   4.092
10348WAT     H142098   2.201   3.691   4.113
10348WAT     H242099   2.190   3.556   4.138
10348WAT    EPW42100   2.165   3.622   4.102
10349WAT      O42101   2.372   3.938   3.320
10349WAT     H142102   2.371   4.010   3.271
10349WAT     H242103   2.308   3.952   3.378
10349WAT    EPW42104   2.362   3.951   3.321
10350WAT      O42105   2.869   4.325   3.718
10350WAT     H142106   2.904   4.290   3.789
10350WAT     H242107   2.868   4.259   3.661
10350WAT    EPW42108   2.874   4.310   3.720
10351WAT      O42109   2.475   4.317   4.042
10351WAT     H142110   2.395   4.339   4.070
10351WAT     H242111   2.500   4.257   4.101
10351WAT    EPW42112   2.467   4.311   4.055
10352WAT      O42113   1.864   4.798   3.487
10352WAT     H142114   1.849   4.720   3.524
10352WAT     H242115   1.933   4.783   3.436
10352WAT    EPW42116   1.872   4.784   3.485
10353WAT      O42117   1.831   3.172   3.286
10353WAT     H142118   1.841   3.162   3.372
10353WAT     H242119   1.760   3.223   3.279
10353WAT    EPW42120   1.822   3.178   3.298
10354WAT      O42121   2.093   4.750   3.327
10354WAT     H142122   2.155   4.766   3.386
10354WAT     H242123   2.097   4.819   3.274
10354WAT    EPW42124   2.103   4.762   3.328
10355WAT      O42125   2.420   4.651   4.955
10355WAT     H142126   2.436   4.680   5.036
10355WAT     H242127   2.446   4.718   4.904
10355WAT    EPW42128   2.426   4.665   4.959
10356WAT      O42129   2.904   3.146   4.826
10356WAT     H142130   2.840   3.106   4.781
10356WAT     H242131   2.906   3.103   4.901
10356WAT    EPW42132   2.895   3.134   4.830
10357WAT      O42133   1.543   4.003   3.410
10357WAT     H142134   1.575   3.925   3.388
10357WAT     H242135   1.608   4.040   3.456
10357WAT    EPW42136   1.557   3.997   3.414
10358WAT      O42137   2.374   4.097   4.487
10358WAT     H142138   2.358   4.158   4.547
10358WAT     H242139   2.427   4.041   4.528
10358WAT    EPW42140   2.379   4.098   4.502
10359WAT      O42141   1.243   3.169   3.507
10359WAT     H142142   1.256   3.098   3.458
10359WAT     H242143   1.206   3.137   3.580
10359WAT    EPW42144   1.239   3.154   3.511
10360WAT      O42145   2.212   3.937   3.553
10360WAT     H142146   2.218   4.002   3.611
10360WAT     H242147   2.193   3.868   3.602
10360WAT    EPW42148   2.210   3.936   3.569
10361WAT      O42149   2.735   4.370   4.140
10361WAT     H142150   2.687   4.400   4.073
10361WAT     H242151   2.699   4.292   4.157
10361WAT    EPW42152   2.722   4.363   4.132
10362WAT      O42153   1.662   3.389   3.204
10362WAT     H142154   1.611   3.394   3.133
10362WAT     H242155   1.740   3.413   3.174
10362WAT    EPW42156   1.666   3.393   3.189
10363WAT      O42157   2.134   4.142   3.996
10363WAT     H142158   2.050   4.122   4.004
10363WAT     H242159   2.167   4.125   4.075
10363WAT    EPW42160   2.127   4.137   4.009
10364WAT      O42161   1.810   4.815   3.084
10364WAT     H142162   1.853   4.745   3.113
10364WAT     H242163   1.830   4.877   3.142
10364WAT    EPW42164   1.819   4.814   3.097
10365WAT      O42165   1.519   4.111   4.227
10365WAT     H142166   1.591   4.160   4.224
10365WAT     H242167   1.492   4.108   4.145
10365WAT    EPW42168   1.526   4.118   4.215
10366WAT      O42169   1.842   3.628   3.901
10366WAT     H142170   1.927   3.609   3.911
10366WAT     H242171   1.805   3.551   3.887
10366WAT    EPW42172   1.849   3.614   3.900
10367WAT      O42173   3.104   4.787   3.334
10367WAT     H142174   3.173   4.740   3.309
10367WAT     H242175   3.050   4.727   3.367
10367WAT    EPW42176   3.106   4.771   3.335
10368WAT      O42177   1.324   3.762   3.566
10368WAT     H142178   1.373   3.733   3.633
10368WAT     H242179   1.337   3.703   3.504
10368WAT    EPW42180   1.333   3.749   3.567
10369WAT      O42181   1.777   3.905   3.115
10369WAT     H142182   1.716   3.865   3.162
10369WAT     H242183   1.738   3.917   3.038
10369WAT    EPW42184   1.762   3.901   3.111
10370WAT      O42185   1.459   4.216   4.655
10370WAT     H142186   1.417   4.165   4.599
10370WAT     H242187   1.423   4.295   4.641
10370WAT    EPW42188   1.447   4.220   4.645
10371WAT      O42189   1.922   3.752   3.386
10371WAT     H142190   1.949   3.834   3.393
10371WAT     H242191   1.836   3.759   3.376
10371WAT    EPW42192   1.914   3.765   3.386
10372WAT      O42193   2.720   3.464   4.849
10372WAT     H142194   2.667   3.510   4.902
10372WAT     H242195   2.683   3.384   4.849
10372WAT    EPW42196   2.706   3.459   4.857
10373WAT      O42197   1.270   3.349   4.040
10373WAT     H142198   1.275   3.383   3.960
10373WAT     H242199   1.346   3.372   4.076
10373WAT    EPW42200   1.282   3.357   4.033
10374WAT      O42201   3.066   4.635   4.048
10374WAT     H142202   3.095   4.660   3.970
10374WAT     H242203   3.136   4.644   4.100
10374WAT    EPW42204   3.081   4.640   4.044
10375WAT      O42205   2.569   3.821   4.857
10375WAT     H142206   2.576   3.831   4.943
10375WAT     H242207   2.505   3.876   4.835
10375WAT    EPW42208   2.560   3.830   4.866
10376WAT      O42209   2.727   4.495   3.246
10376WAT     H142210   2.760   4.414   3.250
10376WAT     H242211   2.651   4.488   3.289
10376WAT    EPW42212   2.721   4.482   3.253
10377WAT      O42213   2.464   4.282   3.187
10377WAT     H142214   2.533   4.231   3.170
10377WAT     H242215   2.423   4.287   3.110
10377WAT    EPW42216   2.468   4.276   3.173
10378WAT      O42217   1.933   4.397   4.317
10378WAT     H142218   1.903   4.457   4.374
10378WAT     H242219   1.938   4.442   4.242
10378WAT    EPW42220   1.929   4.413   4.314
10379WAT      O42221   1.730   4.292   4.657
10379WAT     H142222   1.650   4.263   4.674
10379WAT     H242223   1.722   4.379   4.657
10379WAT    EPW42224   1.717   4.301   4.659
10380WAT      O42225   2.666   3.311   4.558
10380WAT     H142226   2.741   3.357   4.552
10380WAT     H242227   2.610   3.358   4.511
10380WAT    EPW42228   2.669   3.325   4.551
10381WAT      O42229   2.184   4.040   4.266
10381WAT     H142230   2.232   4.077   4.329
10381WAT     H242231   2.102   4.053   4.292
10381WAT    EPW42232   2.179   4.047   4.279
10382WAT      O42233   1.855   3.600   4.540
10382WAT     H142234   1.871   3.526   4.583
10382WAT     H242235   1.851   3.575   4.457
10382WAT    EPW42236   1.857   3.585   4.534
10383WAT      O42237   2.111   4.779   3.789
10383WAT     H142238   2.165   4.847   3.794
10383WAT     H242239   2.076   4.787   3.709
10383WAT    EPW42240   2.113   4.790   3.778
10384WAT      O42241   2.795   3.109   4.325
10384WAT     H142242   2.767   3.192   4.321
10384WAT     H242243   2.866   3.115   4.375
10384WAT    EPW42244   2.801   3.122   4.332
10385WAT      O42245   2.030   3.181   4.528
10385WAT     H142246   2.101   3.213   4.488
10385WAT     H242247   2.054   3.100   4.551
10385WAT    EPW42248   2.044   3.174   4.526
10386WAT      O42249   1.929   4.602   4.128
10386WAT     H142250   1.866   4.660   4.110
10386WAT     H242251   1.954   4.573   4.049
10386WAT    EPW42252   1.923   4.606   4.114
10387WAT      O42253   2.360   4.265   4.827
10387WAT     H142254   2.435   4.294   4.794
10387WAT     H242255   2.305   4.270   4.759
10387WAT    EPW42256   2.363   4.270   4.812
10388WAT      O42257   2.088   4.079   3.119
10388WAT     H142258   2.008   4.062   3.091
10388WAT     H242259   2.085   4.165   3.139
10388WAT    EPW42260   2.076   4.089   3.118
10389WAT      O42261   1.681   3.686   4.134
10389WAT     H142262   1.725   3.676   4.060
10389WAT     H242263   1.736   3.655   4.195
10389WAT    EPW42264   1.696   3.680   4.132
10390WAT      O42265   2.483   3.596   4.694
10390WAT     H142266   2.418   3.643   4.728
10390WAT     H242267   2.539   3.587   4.759
10390WAT    EPW42268   2.482   3.602   4.708
10391WAT      O42269   2.452   3.750   4.323
10391WAT     H142270   2.482   3.792   4.394
10391WAT     H242271   2.455   3.666   4.347
10391WAT    EPW42272   2.457   3.744   4.337
10392WAT      O42273   2.194   4.767   4.716
10392WAT     H142274   2.242   4.707   4.674
10392WAT     H242275   2.159   4.722   4.782
10392WAT    EPW42276   2.196   4.751   4.720
10393WAT      O42277   2.706   3.695   3.549
10393WAT     H142278   2.727   3.675   3.631
10393WAT     H242279   2.782   3.722   3.514
10393WAT    EPW42280   2.721   3.696   3.556
10394WAT      O42281   2.036   3.185   4.139
10394WAT     H142282   1.953   3.170   4.163
10394WAT     H242283   2.032   3.188   4.052
10394WAT    EPW42284   2.023   3.183   4.130
10395WAT      O42285   2.809   3.303   3.696
10395WAT     H142286   2.737   3.256   3.713
10395WAT     H242287   2.792   3.337   3.617
10395WAT    EPW42288   2.796   3.301   3.687
10396WAT      O42289   1.292   3.224   4.743
10396WAT     H142290   1.278   3.304   4.709
10396WAT     H242291   1.214   3.200   4.771
10396WAT    EPW42292   1.279   3.233   4.742
10397WAT      O42293   1.783   4.909   4.150
10397WAT     H142294   1.784   4.915   4.237
10397WAT     H242295   1.741   4.835   4.135
10397WAT    EPW42296   1.777   4.899   4.160
10398WAT      O42297   1.599   3.499   3.465
10398WAT     H142298   1.611   3.466   3.385
10398WAT     H242299   1.518   3.474   3.485
10398WAT    EPW42300   1.589   3.490   3.456
10399WAT      O42301   2.475   4.214   3.769
10399WAT     H142302   2.482   4.248   3.849
10399WAT     H242303   2.491   4.129   3.782
10399WAT    EPW42304   2.478   4.207   3.783
10400WAT      O42305   2.227   4.142   3.726
10400WAT     H142306   2.197   4.110   3.802
10400WAT     H242307   2.296   4.189   3.749
10400WAT    EPW42308   2.233   4.144   3.741
10401WAT      O42309   2.249   4.553   4.529
10401WAT     H142310   2.318   4.542   4.581
10401WAT     H242311   2.262   4.632   4.494
10401WAT    EPW42312   2.261   4.563   4.531
10402WAT      O42313   1.459   4.859   4.694
10402WAT     H142314   1.394   4.802   4.704
10402WAT     H242315   1.422   4.936   4.709
10402WAT    EPW42316   1.444   4.862   4.697
10403WAT      O42317   2.311   4.000   4.886
10403WAT     H142318   2.344   4.068   4.843
10403WAT     H242319   2.241   4.032   4.926
10403WAT    EPW42320   2.306   4.015   4.886
10404WAT      O42321   2.620   4.837   3.979
10404WAT     H142322   2.575   4.901   4.017
10404WAT     H242323   2.690   4.829   4.029
10404WAT    EPW42324   2.623   4.845   3.992
10405WAT      O42325   2.290   4.346   4.272
10405WAT     H142326   2.220   4.386   4.306
10405WAT     H242327   2.357   4.389   4.306
10405WAT    EPW42328   2.289   4.358   4.282
10406WAT      O42329   1.597   3.700   4.507
10406WAT     H142330   1.634   3.762   4.458
10406WAT     H242331   1.664   3.653   4.535
10406WAT    EPW42332   1.612   3.702   4.504
10407WAT      O42333   1.374   3.545   4.434
10407WAT     H142334   1.382   3.528   4.349
10407WAT     H242335   1.449   3.585   4.454
10407WAT    EPW42336   1.386   3.548   4.424
10408WAT      O42337   1.629   3.286   4.675
10408WAT     H142338   1.621   3.201   4.696
10408WAT     H242339   1.598   3.290   4.594
10408WAT    EPW42340   1.624   3.274   4.666
10409WAT      O42341   2.322   4.505   3.589
10409WAT     H142342   2.301   4.589   3.573
10409WAT     H242343   2.244   4.467   3.601
10409WAT    EPW42344   2.307   4.512   3.588
10410WAT      O42345   1.314   4.067   4.457
10410WAT     H142346   1.346   4.089   4.378
10410WAT     H242347   1.304   3.981   4.451
10410WAT    EPW42348   1.317   4.058   4.444
10411WAT      O42349   1.459   3.661   3.118
10411WAT     H142350   1.392   3.662   3.174
10411WAT     H242351   1.469   3.576   3.100
10411WAT    EPW42352   1.451   3.649   3.124
10412WAT      O42353   2.428   3.303   4.792
10412WAT     H142354   2.437   3.375   4.841
10412WAT     H242355   2.364   3.259   4.832
10412WAT    EPW42356   2.420   3.307   4.805
10413WAT      O42357   2.327   3.322   3.877
10413WAT     H142358   2.257   3.374   3.872
10413WAT     H242359   2.331   3.284   3.799
10413WAT    EPW42360   2.318   3.324   3.865
10414WAT      O42361   1.858   4.531   3.230
10414WAT     H142362   1.902   4.539   3.305
10414WAT     H242363   1.778   4.510   3.256
10414WAT    EPW42364   1.853   4.529   3.245
10415WAT      O42365   2.687   3.374   4.157
10415WAT     H142366   2.773   3.384   4.172
10415WAT     H242367   2.650   3.429   4.214
10415WAT    EPW42368   2.694   3.384   4.168
10416WAT      O42369   1.790   3.997   4.595
10416WAT     H142370   1.750   4.074   4.603
10416WAT     H242371   1.749   3.959   4.527
10416WAT    EPW42372   1.778   4.002   4.586
10417WAT      O42373   2.749   4.709   3.587
10417WAT     H142374   2.732   4.643   3.642
10417WAT     H242375   2.820   4.681   3.545
10417WAT    EPW42376   2.757   4.695   3.589
10418WAT      O42377   1.591   4.438   3.290
10418WAT     H142378   1.567   4.408   3.368
10418WAT     H242379   1.588   4.368   3.238
10418WAT    EPW42380   1.587   4.424   3.294
10419WAT      O42381   1.873   4.263   3.164
10419WAT     H142382   1.791   4.236   3.178
10419WAT     H242383   1.870   4.348   3.183
10419WAT    EPW42384   1.860   4.272   3.169
10420WAT      O42385   1.833   3.294   4.340
10420WAT     H142386   1.747   3.303   4.348
10420WAT     H242387   1.855   3.243   4.407
10420WAT    EPW42388   1.823   3.288   4.351
10421WAT      O42389   2.243   3.369   4.177
10421WAT     H142390   2.170   3.324   4.189
10421WAT     H242391   2.300   3.329   4.230
10421WAT    EPW42392   2.241   3.356   4.187
10422WAT      O42393   2.516   4.454   4.356
10422WAT     H142394   2.537   4.484   4.435
10422WAT     H242395   2.510   4.526   4.308
10422WAT    EPW42396   2.519   4.469   4.361
10423WAT      O42397   2.470   4.875   4.781
10423WAT     H142398   2.395   4.873   4.737
10423WAT     H242399   2.487   4.960   4.789
10423WAT    EPW42400   2.461   4.888   4.776
10424WAT      O42401   1.994   3.802   4.698
10424WAT     H142402   1.961   3.744   4.641
10424WAT     H242403   1.958   3.877   4.673
10424WAT    EPW42404   1.984   3.805   4.686
10425WAT      O42405   2.073   3.127   3.161
10425WAT     H142406   2.081   3.152   3.077
10425WAT     H242407   1.999   3.165   3.186
10425WAT    EPW42408   2.063   3.136   3.152
10426WAT      O42409   1.837   4.838   4.723
10426WAT     H142410   1.841   4.850   4.809
10426WAT     H242411   1.902   4.782   4.707
10426WAT    EPW42412   1.847   4.831   4.733
10427WAT      O42413   2.808   4.644   4.182
10427WAT     H142414   2.861   4.635   4.113
10427WAT     H242415   2.769   4.566   4.187
10427WAT    EPW42416   2.810   4.631   4.172
10428WAT      O42417   1.555   3.303   4.405
10428WAT     H142418   1.521   3.226   4.381
10428WAT     H242419   1.485   3.355   4.411
10428WAT    EPW42420   1.540   3.299   4.402
10429WAT      O42421   1.596   4.676   4.859
10429WAT     H142422   1.656   4.719   4.906
10429WAT     H242423   1.560   4.738   4.810
10429WAT    EPW42424   1.600   4.691   4.858
10430WAT      O42425   2.395   3.769   3.852
10430WAT     H142426   2.451   3.708   3.882
10430WAT     H242427   2.353   3.795   3.923
10430WAT    EPW42428   2.397   3.764   3.867
10431WAT      O42429   1.420   3.634   3.800
10431WAT     H142430   1.383   3.664   3.874
10431WAT     H242431   1.474   3.571   3.829
10431WAT    EPW42432   1.423   3.629   3.815
10432WAT      O42433   1.389   4.475   4.552
10432WAT     H142434   1.332   4.516   4.602
10432WAT     H242435   1.462   4.521   4.561
10432WAT    EPW42436   1.391   4.488   4.560
10433WAT      O42437   2.592   3.952   3.508
10433WAT     H142438   2.599   3.867   3.526
10433WAT     H242439   2.510   3.961   3.480
10433WAT    EPW42440   2.581   3.941   3.507
10434WAT      O42441   1.568   4.801   3.429
10434WAT     H142442   1.553   4.817   3.344
10434WAT     H242443   1.654   4.809   3.437
10434WAT    EPW42444   1.578   4.805   3.418
10435WAT      O42445   1.984   4.041   3.402
10435WAT     H142446   1.994   4.055   3.316
10435WAT     H242447   2.066   4.035   3.431
10435WAT    EPW42448   1.998   4.042   3.394
10436WAT      O42449   2.508   4.474   3.382
10436WAT     H142450   2.483   4.461   3.465
10436WAT     H242451   2.476   4.405   3.340
10436WAT    EPW42452   2.499   4.462   3.388
10437WAT      O42453   2.982   3.546   4.897
10437WAT     H142454   2.963   3.610   4.952
10437WAT     H242455   2.910   3.497   4.896
10437WAT    EPW42456   2.969   3.548   4.905
10438WAT      O42457   1.898   3.339   4.713
10438WAT     H142458   1.922   3.281   4.652
10438WAT     H242459   1.814   3.321   4.728
10438WAT    EPW42460   1.889   3.327   4.706
10439WAT      O42461   1.636   4.683   4.077
10439WAT     H142462   1.628   4.602   4.045
10439WAT     H242463   1.592   4.732   4.020
10439WAT    EPW42464   1.629   4.678   4.064
10440WAT      O42465   2.196   4.295   3.325
10440WAT     H142466   2.268   4.260   3.289
10440WAT     H242467   2.193   4.375   3.290
10440WAT    EPW42468   2.207   4.302   3.315
10441WAT      O42469   1.394   4.907   4.435
10441WAT     H142470   1.443   4.902   4.507
10441WAT     H242471   1.412   4.834   4.391
10441WAT    EPW42472   1.404   4.896   4.439
10442WAT      O42473   2.337   3.159   1.749
10442WAT     H142474   2.313   3.208   1.681
10442WAT     H242475   2.424   3.152   1.739
10442WAT    EPW42476   2.346   3.165   1.737
10443WAT      O42477   2.318   3.851   2.216
10443WAT     H142478   2.266   3.910   2.252
10443WAT     H242479   2.358   3.814   2.284
10443WAT    EPW42480   2.316   3.854   2.232
10444WAT      O42481   1.305   4.265   1.762
10444WAT     H142482   1.261   4.276   1.836
10444WAT     H242483   1.277   4.187   1.733
10444WAT    EPW42484   1.294   4.255   1.768
10445WAT      O42485   2.933   4.595   1.513
10445WAT     H142486   3.003   4.543   1.513
10445WAT     H242487   2.874   4.550   1.466
10445WAT    EPW42488   2.934   4.580   1.506
10446WAT      O42489   1.279   3.644   1.412
10446WAT     H142490   1.202   3.660   1.376
10446WAT     H242491   1.283   3.557   1.415
10446WAT    EPW42492   1.269   3.633   1.407
10447WAT      O42493   1.593   4.170   1.280
10447WAT     H142494   1.554   4.133   1.211
10447WAT     H242495   1.585   4.110   1.342
10447WAT    EPW42496   1.586   4.156   1.279
10448WAT      O42497   2.585   3.957   1.884
10448WAT     H142498   2.593   3.958   1.797
10448WAT     H242499   2.527   3.894   1.899
10448WAT    EPW42500   2.578   3.948   1.873
10449WAT      O42501   1.556   4.334   1.670
10449WAT     H142502   1.617   4.317   1.730
10449WAT     H242503   1.481   4.320   1.712
10449WAT    EPW42504   1.554   4.330   1.685
10450WAT      O42505   1.984   3.268   1.664
10450WAT     H142506   1.977   3.335   1.610
10450WAT     H242507   2.058   3.229   1.640
10450WAT    EPW42508   1.994   3.272   1.653
10451WAT      O42509   1.445   4.643   1.277
10451WAT     H142510   1.492   4.652   1.204
10451WAT     H242511   1.491   4.585   1.324
10451WAT    EPW42512   1.459   4.636   1.273
10452WAT      O42513   1.299   4.538   2.387
10452WAT     H142514   1.312   4.510   2.469
10452WAT     H242515   1.238   4.484   2.356
10452WAT    EPW42516   1.292   4.526   2.395
10453WAT      O42517   1.957   4.291   2.894
10453WAT     H142518   1.933   4.290   2.978
10453WAT     H242519   1.882   4.276   2.851
10453WAT    EPW42520   1.942   4.288   2.900
10454WAT      O42521   1.444   3.990   1.807
10454WAT     H142522   1.398   3.951   1.745
10454WAT     H242523   1.514   3.939   1.817
10454WAT    EPW42524   1.447   3.977   1.799
10455WAT      O42525   1.895   3.551   2.342
10455WAT     H142526   1.962   3.553   2.287
10455WAT     H242527   1.890   3.468   2.367
10455WAT    EPW42528   1.904   3.539   2.338
10456WAT      O42529   1.955   4.610   2.620
10456WAT     H142530   1.969   4.686   2.579
10456WAT     H242531   2.034   4.573   2.623
10456WAT    EPW42532   1.968   4.616   2.615
10457WAT      O42533   1.644   3.800   1.810
10457WAT     H142534   1.726   3.781   1.834
10457WAT     H242535   1.596   3.739   1.849
10457WAT    EPW42536   1.649   3.788   1.819
10458WAT      O42537   2.064   4.398   2.071
10458WAT     H142538   2.099   4.318   2.074
10458WAT     H242539   2.131   4.449   2.045
10458WAT    EPW42540   2.079   4.394   2.067
10459WAT      O42541   2.070   4.343   1.692
10459WAT     H142542   2.103   4.279   1.740
10459WAT     H242543   2.094   4.322   1.611
10459WAT    EPW42544   2.078   4.331   1.687
10460WAT      O42545   2.267   3.756   2.826
10460WAT     H142546   2.182   3.746   2.808
10460WAT     H242547   2.270   3.831   2.871
10460WAT    EPW42548   2.255   3.766   2.830
10461WAT      O42549   1.704   3.310   1.736
10461WAT     H142550   1.674   3.360   1.671
10461WAT     H242551   1.790   3.317   1.731
10461WAT    EPW42552   1.712   3.318   1.726
10462WAT      O42553   2.723   3.052   2.737
10462WAT     H142554   2.707   3.129   2.699
10462WAT     H242555   2.645   3.030   2.771
10462WAT    EPW42556   2.709   3.060   2.737
10463WAT      O42557   2.001   3.224   1.959
10463WAT     H142558   2.009   3.310   1.971
10463WAT     H242559   1.998   3.216   1.872
10463WAT    EPW42560   2.002   3.235   1.948
10464WAT      O42561   2.469   3.516   1.188
10464WAT     H142562   2.424   3.584   1.219
10464WAT     H242563   2.480   3.466   1.259
10464WAT    EPW42564   2.464   3.519   1.203
10465WAT      O42565   1.289   3.766   2.109
10465WAT     H142566   1.264   3.849   2.101
10465WAT     H242567   1.223   3.728   2.150
10465WAT    EPW42568   1.276   3.773   2.114
10466WAT      O42569   1.280   4.737   1.899
10466WAT     H142570   1.221   4.793   1.867
10466WAT     H242571   1.323   4.710   1.827
10466WAT    EPW42572   1.278   4.741   1.884
10467WAT      O42573   1.864   4.522   1.647
10467WAT     H142574   1.806   4.494   1.706
10467WAT     H242575   1.927   4.461   1.649
10467WAT    EPW42576   1.865   4.509   1.656
10468WAT      O42577   2.479   4.750   1.399
10468WAT     H142578   2.551   4.798   1.409
10468WAT     H242579   2.502   4.671   1.427
10468WAT    EPW42580   2.493   4.746   1.405
10469WAT      O42581   2.295   4.790   1.598
10469WAT     H142582   2.317   4.842   1.664
10469WAT     H242583   2.372   4.772   1.560
10469WAT    EPW42584   2.310   4.795   1.602
10470WAT      O42585   1.592   3.248   2.158
10470WAT     H142586   1.540   3.185   2.127
10470WAT     H242587   1.651   3.204   2.205
10470WAT    EPW42588   1.593   3.232   2.160
10471WAT      O42589   1.923   3.461   3.088
10471WAT     H142590   1.935   3.416   3.014
10471WAT     H242591   1.952   3.541   3.067
10471WAT    EPW42592   1.929   3.466   3.074
10472WAT      O42593   1.435   4.604   1.692
10472WAT     H142594   1.500   4.547   1.693
10472WAT     H242595   1.474   4.679   1.670
10472WAT    EPW42596   1.450   4.607   1.689
10473WAT      O42597   3.008   3.514   1.818
10473WAT     H142598   2.974   3.581   1.861
10473WAT     H242599   2.945   3.454   1.820
10473WAT    EPW42600   2.994   3.515   1.824
10474WAT      O42601   2.539   4.791   2.428
10474WAT     H142602   2.614   4.836   2.427
10474WAT     H242603   2.527   4.769   2.345
10474WAT    EPW42604   2.549   4.794   2.416
10475WAT      O42605   1.496   3.421   2.986
10475WAT     H142606   1.418   3.382   2.979
10475WAT     H242607   1.545   3.380   2.927
10475WAT    EPW42608   1.492   3.409   2.976
10476WAT      O42609   1.517   4.453   2.042
10476WAT     H142610   1.559   4.417   1.974
10476WAT     H242611   1.549   4.411   2.111
10476WAT    EPW42612   1.528   4.441   2.042
10477WAT      O42613   1.840   4.738   1.971
10477WAT     H142614   1.924   4.749   1.952
10477WAT     H242615   1.810   4.820   1.978
10477WAT    EPW42616   1.848   4.752   1.969
10478WAT      O42617   2.161   3.185   2.903
10478WAT     H142618   2.179   3.104   2.875
10478WAT     H242619   2.147   3.229   2.829
10478WAT    EPW42620   2.162   3.180   2.888
10479WAT      O42621   2.220   3.678   1.780
10479WAT     H142622   2.249   3.655   1.701
10479WAT     H242623   2.294   3.686   1.827
10479WAT    EPW42624   2.235   3.676   1.775
10480WAT      O42625   2.293   3.712   1.292
10480WAT     H142626   2.321   3.791   1.317
10480WAT     H242627   2.215   3.728   1.256
10480WAT    EPW42628   2.285   3.726   1.290
10481WAT      O42629   2.697   4.909   1.439
10481WAT     H142630   2.763   4.894   1.384
10481WAT     H242631   2.733   4.901   1.518
10481WAT    EPW42632   2.712   4.906   1.442
10482WAT      O42633   1.740   4.860   2.545
10482WAT     H142634   1.769   4.853   2.627
10482WAT     H242635   1.677   4.800   2.541
10482WAT    EPW42636   1.735   4.850   2.557
10483WAT      O42637   2.976   3.346   2.355
10483WAT     H142638   3.051   3.353   2.312
10483WAT     H242639   2.982   3.269   2.395
10483WAT    EPW42640   2.988   3.336   2.354
10484WAT      O42641   1.231   3.476   2.745
10484WAT     H142642   1.231   3.534   2.809
10484WAT     H242643   1.290   3.507   2.689
10484WAT    EPW42644   1.240   3.489   2.746
10485WAT      O42645   2.465   4.509   2.799
10485WAT     H142646   2.461   4.547   2.877
10485WAT     H242647   2.550   4.505   2.782
10485WAT    EPW42648   2.477   4.514   2.808
10486WAT      O42649   2.179   4.529   1.274
10486WAT     H142650   2.160   4.583   1.339
10486WAT     H242651   2.255   4.558   1.244
10486WAT    EPW42652   2.187   4.541   1.279
10487WAT      O42653   2.529   3.318   1.379
10487WAT     H142654   2.583   3.250   1.387
10487WAT     H242655   2.535   3.358   1.457
10487WAT    EPW42656   2.538   3.314   1.392
10488WAT      O42657   1.325   3.435   1.636
10488WAT     H142658   1.313   3.349   1.639
10488WAT     H242659   1.277   3.465   1.703
10488WAT    EPW42660   1.316   3.427   1.646
10489WAT      O42661   1.539   4.676   2.458
10489WAT     H142662   1.469   4.625   2.470
10489WAT     H242663   1.565   4.656   2.377
10489WAT    EPW42664   1.532   4.666   2.447
10490WAT      O42665   2.255   3.556   1.511
10490WAT     H142666   2.204   3.490   1.485
10490WAT     H242667   2.260   3.606   1.440
10490WAT    EPW42668   2.248   3.554   1.496
10491WAT      O42669   2.310   4.826   2.549
10491WAT     H142670   2.387   4.818   2.508
10491WAT     H242671   2.252   4.813   2.485
10491WAT    EPW42672   2.313   4.823   2.533
10492WAT      O42673   2.255   3.250   1.500
10492WAT     H142674   2.210   3.210   1.437
10492WAT     H242675   2.332   3.266   1.462
10492WAT    EPW42676   2.260   3.247   1.485
10493WAT      O42677   2.938   4.886   1.839
10493WAT     H142678   2.892   4.958   1.859
10493WAT     H242679   2.876   4.829   1.814
10493WAT    EPW42680   2.922   4.888   1.838
10494WAT      O42681   2.115   3.487   1.952
10494WAT     H142682   2.122   3.544   1.886
10494WAT     H242683   2.127   3.536   2.023
10494WAT    EPW42684   2.118   3.503   1.953
10495WAT      O42685   2.637   4.470   1.793
10495WAT     H142686   2.707   4.422   1.812
10495WAT     H242687   2.571   4.413   1.798
10495WAT    EPW42688   2.638   4.455   1.796
10496WAT      O42689   1.675   4.561   2.714
10496WAT     H142690   1.759   4.568   2.692
10496WAT     H242691   1.671   4.601   2.792
10496WAT    EPW42692   1.687   4.568   2.722
10497WAT      O42693   1.576   3.069   1.787
10497WAT     H142694   1.629   3.138   1.786
10497WAT     H242695   1.576   3.042   1.704
10497WAT    EPW42696   1.584   3.075   1.774
10498WAT      O42697   1.871   4.112   2.189
10498WAT     H142698   1.888   4.091   2.272
10498WAT     H242699   1.806   4.059   2.168
10498WAT    EPW42700   1.864   4.101   2.198
10499WAT      O42701   2.494   3.504   2.541
10499WAT     H142702   2.485   3.536   2.621
10499WAT     H242703   2.435   3.440   2.537
10499WAT    EPW42704   2.484   3.499   2.552
10500WAT      O42705   1.946   4.106   2.448
10500WAT     H142706   1.952   4.191   2.468
10500WAT     H242707   1.918   4.069   2.522
10500WAT    EPW42708   1.943   4.113   2.462
10501WAT      O42709   2.564   4.176   2.361
10501WAT     H142710   2.513   4.135   2.418
10501WAT     H242711   2.551   4.260   2.379
10501WAT    EPW42712   2.555   4.182   2.372
10502WAT      O42713   2.620   3.098   1.824
10502WAT     H142714   2.625   3.066   1.905
10502WAT     H242715   2.652   3.034   1.775
10502WAT    EPW42716   2.625   3.084   1.829
10503WAT      O42717   1.228   4.543   3.069
10503WAT     H142718   1.304   4.578   3.095
10503WAT     H242719   1.246   4.458   3.064
10503WAT    EPW42720   1.242   4.536   3.072
10504WAT      O42721   1.620   3.450   1.952
10504WAT     H142722   1.648   3.407   1.881
10504WAT     H242723   1.603   3.387   2.009
10504WAT    EPW42724   1.622   3.434   1.950
10505WAT      O42725   2.889   4.220   1.374
10505WAT     H142726   2.901   4.191   1.455
10505WAT     H242727   2.970   4.222   1.341
10505WAT    EPW42728   2.903   4.216   1.381
10506WAT      O42729   1.603   4.193   1.907
10506WAT     H142730   1.688   4.185   1.890
10506WAT     H242731   1.567   4.125   1.866
10506WAT    EPW42732   1.610   4.182   1.898
10507WAT      O42733   1.480   4.865   2.031
10507WAT     H142734   1.412   4.816   2.006
10507WAT     H242735   1.520   4.884   1.956
10507WAT    EPW42736   1.476   4.861   2.016
10508WAT      O42737   1.435   3.560   2.260
10508WAT     H142738   1.519   3.582   2.256
10508WAT     H242739   1.396   3.618   2.207
10508WAT    EPW42740   1.441   3.572   2.252
10509WAT      O42741   3.113   4.671   2.799
10509WAT     H142742   3.044   4.702   2.755
10509WAT     H242743   3.076   4.625   2.864
10509WAT    EPW42744   3.097   4.668   2.802
10510WAT      O42745   2.679   3.873   1.332
10510WAT     H142746   2.657   3.946   1.290
10510WAT     H242747   2.634   3.878   1.407
10510WAT    EPW42748   2.669   3.885   1.337
10511WAT      O42749   1.840   4.194   1.730
10511WAT     H142750   1.911   4.243   1.739
10511WAT     H242751   1.862   4.137   1.668
10511WAT    EPW42752   1.853   4.192   1.723
10512WAT      O42753   3.097   3.359   1.278
10512WAT     H142754   3.031   3.303   1.280
10512WAT     H242755   3.078   3.411   1.210
10512WAT    EPW42756   3.085   3.359   1.268
10513WAT      O42757   1.255   4.358   2.062
10513WAT     H142758   1.189   4.407   2.090
10513WAT     H242759   1.323   4.412   2.065
10513WAT    EPW42760   1.255   4.373   2.067
10514WAT      O42761   2.020   3.729   3.072
10514WAT     H142762   1.972   3.787   3.116
10514WAT     H242763   2.017   3.758   2.990
10514WAT    EPW42764   2.012   3.742   3.066
10515WAT      O42765   3.130   3.797   2.533
10515WAT     H142766   3.151   3.717   2.506
10515WAT     H242767   3.045   3.803   2.514
10515WAT    EPW42768   3.120   3.786   2.526
10516WAT      O42769   1.262   4.026   1.573
10516WAT     H142770   1.243   3.942   1.588
10516WAT     H242771   1.328   4.023   1.516
10516WAT    EPW42772   1.269   4.013   1.567
10517WAT      O42773   2.898   3.315   1.506
10517WAT     H142774   2.972   3.275   1.525
10517WAT     H242775   2.924   3.387   1.463
10517WAT    EPW42776   2.913   3.320   1.502
10518WAT      O42777   2.292   4.564   1.963
10518WAT     H142778   2.240   4.627   1.934
10518WAT     H242779   2.323   4.527   1.890
10518WAT    EPW42780   2.289   4.568   1.948
10519WAT      O42781   1.279   4.443   1.530
10519WAT     H142782   1.334   4.500   1.567
10519WAT     H242783   1.256   4.391   1.597
10519WAT    EPW42784   1.284   4.443   1.545
10520WAT      O42785   1.699   4.343   2.239
10520WAT     H142786   1.746   4.372   2.307
10520WAT     H242787   1.757   4.295   2.194
10520WAT    EPW42788   1.715   4.340   2.242
10521WAT      O42789   2.543   3.544   2.013
10521WAT     H142790   2.577   3.559   2.092
10521WAT     H242791   2.498   3.470   2.024
10521WAT    EPW42792   2.541   3.535   2.026
10522WAT      O42793   1.262   4.288   1.293
10522WAT     H142794   1.338   4.244   1.299
10522WAT     H242795   1.264   4.341   1.362
10522WAT    EPW42796   1.273   4.289   1.304
10523WAT      O42797   1.356   4.110   2.094
10523WAT     H142798   1.399   4.097   2.019
10523WAT     H242799   1.336   4.194   2.091
10523WAT    EPW42800   1.359   4.120   2.082
10524WAT      O42801   1.991   3.466   1.459
10524WAT     H142802   1.990   3.454   1.372
10524WAT     H242803   1.973   3.551   1.468
10524WAT    EPW42804   1.988   3.477   1.447
10525WAT      O42805   2.896   4.709   2.608
10525WAT     H142806   2.829   4.760   2.630
10525WAT     H242807   2.902   4.719   2.522
10525WAT    EPW42808   2.887   4.718   2.599
10526WAT      O42809   1.764   4.461   1.922
10526WAT     H142810   1.777   4.546   1.940
10526WAT     H242811   1.831   4.421   1.961
10526WAT    EPW42812   1.776   4.468   1.930
10527WAT      O42813   1.577   3.810   2.908
10527WAT     H142814   1.524   3.759   2.955
10527WAT     H242815   1.579   3.771   2.830
10527WAT    EPW42816   1.570   3.796   2.903
10528WAT      O42817   1.626   3.749   1.422
10528WAT     H142818   1.613   3.704   1.496
10528WAT     H242819   1.568   3.715   1.367
10528WAT    EPW42820   1.615   3.738   1.425
10529WAT      O42821   1.643   3.932   2.082
10529WAT     H142822   1.565   3.926   2.044
10529WAT     H242823   1.650   3.857   2.126
10529WAT    EPW42824   1.632   3.920   2.083
10530WAT      O42825   1.686   3.906   2.429
10530WAT     H142826   1.688   3.838   2.374
10530WAT     H242827   1.621   3.956   2.397
10530WAT    EPW42828   1.677   3.903   2.416
10531WAT      O42829   2.675   3.677   2.268
10531WAT     H142830   2.609   3.710   2.315
10531WAT     H242831   2.694   3.741   2.211
10531WAT    EPW42832   2.668   3.691   2.267
10532WAT      O42833   2.096   4.784   2.368
10532WAT     H142834   2.068   4.720   2.316
10532WAT     H242835   2.075   4.856   2.324
10532WAT    EPW42836   2.089   4.785   2.354
10533WAT      O42837   2.340   3.268   2.611
10533WAT     H142838   2.355   3.185   2.587
10533WAT     H242839   2.378   3.273   2.690
10533WAT    EPW42840   2.347   3.256   2.619
10534WAT      O42841   2.494   3.474   1.619
10534WAT     H142842   2.543   3.546   1.612
10534WAT     H242843   2.415   3.500   1.593
10534WAT    EPW42844   2.490   3.489   1.614
10535WAT      O42845   1.466   4.041   2.985
10535WAT     H142846   1.462   4.092   2.913
10535WAT     H242847   1.499   3.966   2.955
10535WAT    EPW42848   1.470   4.038   2.970
10536WAT      O42849   2.626   4.262   2.810
10536WAT     H142850   2.674   4.334   2.820
10536WAT     H242851   2.665   4.219   2.745
10536WAT    EPW42852   2.639   4.266   2.802
10537WAT      O42853   2.055   4.546   2.928
10537WAT     H142854   2.091   4.529   3.006
10537WAT     H242855   2.012   4.474   2.908
10537WAT    EPW42856   2.054   4.533   2.937
10538WAT      O42857   2.153   3.621   2.192
10538WAT     H142858   2.201   3.691   2.213
10538WAT     H242859   2.190   3.556   2.237
10538WAT    EPW42860   2.165   3.622   2.202
10539WAT      O42861   2.372   3.938   1.419
10539WAT     H142862   2.371   4.010   1.370
10539WAT     H242863   2.308   3.952   1.477
10539WAT    EPW42864   2.362   3.951   1.421
10540WAT      O42865   2.869   4.325   1.817
10540WAT     H142866   2.904   4.290   1.889
10540WAT     H242867   2.868   4.259   1.760
10540WAT    EPW42868   2.874   4.310   1.819
10541WAT      O42869   2.473   4.632   2.202
10541WAT     H142870   2.413   4.602   2.146
10541WAT     H242871   2.528   4.677   2.151
10541WAT    EPW42872   2.472   4.634   2.186
10542WAT      O42873   2.475   4.317   2.142
10542WAT     H142874   2.395   4.339   2.169
10542WAT     H242875   2.500   4.257   2.200
10542WAT    EPW42876   2.467   4.311   2.154
10543WAT      O42877   1.864   4.798   1.587
10543WAT     H142878   1.849   4.720   1.624
10543WAT     H242879   1.933   4.783   1.535
10543WAT    EPW42880   1.872   4.784   1.584
10544WAT      O42881   1.831   3.172   1.385
10544WAT     H142882   1.841   3.162   1.471
10544WAT     H242883   1.760   3.223   1.379
10544WAT    EPW42884   1.822   3.178   1.397
10545WAT      O42885   2.093   4.750   1.427
10545WAT     H142886   2.155   4.766   1.486
10545WAT     H242887   2.097   4.819   1.374
10545WAT    EPW42888   2.103   4.762   1.428
10546WAT      O42889   2.801   4.117   2.626
10546WAT     H142890   2.806   4.129   2.540
10546WAT     H242891   2.876   4.149   2.657
10546WAT    EPW42892   2.812   4.123   2.618
10547WAT      O42893   2.420   4.651   3.054
10547WAT     H142894   2.436   4.680   3.135
10547WAT     H242895   2.446   4.718   3.004
10547WAT    EPW42896   2.426   4.665   3.059
10548WAT      O42897   2.904   3.146   2.925
10548WAT     H142898   2.840   3.106   2.881
10548WAT     H242899   2.906   3.103   3.001
10548WAT    EPW42900   2.895   3.134   2.930
10549WAT      O42901   1.543   4.003   1.510
10549WAT     H142902   1.575   3.925   1.487
10549WAT     H242903   1.608   4.040   1.555
10549WAT    EPW42904   1.557   3.997   1.513
10550WAT      O42905   2.374   4.097   2.586
10550WAT     H142906   2.358   4.158   2.647
10550WAT     H242907   2.427   4.041   2.627
10550WAT    EPW42908   2.379   4.098   2.601
10551WAT      O42909   1.243   3.169   1.606
10551WAT     H142910   1.256   3.098   1.557
10551WAT     H242911   1.206   3.137   1.679
10551WAT    EPW42912   1.239   3.154   1.610
10552WAT      O42913   2.212   3.937   1.652
10552WAT     H142914   2.218   4.002   1.710
10552WAT     H242915   2.193   3.868   1.701
10552WAT    EPW42916   2.210   3.936   1.668
10553WAT      O42917   2.735   4.370   2.239
10553WAT     H142918   2.687   4.400   2.172
10553WAT     H242919   2.699   4.292   2.257
10553WAT    EPW42920   2.722   4.363   2.232
10554WAT      O42921   1.662   3.389   1.303
10554WAT     H142922   1.611   3.394   1.233
10554WAT     H242923   1.740   3.413   1.274
10554WAT    EPW42924   1.666   3.393   1.289
10555WAT      O42925   2.134   4.142   2.095
10555WAT     H142926   2.050   4.122   2.103
10555WAT     H242927   2.167   4.125   2.175
10555WAT    EPW42928   2.127   4.137   2.108
10556WAT      O42929   1.810   4.815   1.184
10556WAT     H142930   1.853   4.745   1.213
10556WAT     H242931   1.830   4.877   1.241
10556WAT    EPW42932   1.819   4.814   1.197
10557WAT      O42933   1.519   4.111   2.327
10557WAT     H142934   1.591   4.160   2.323
10557WAT     H242935   1.492   4.108   2.244
10557WAT    EPW42936   1.526   4.118   2.314
10558WAT      O42937   1.842   3.628   2.000
10558WAT     H142938   1.927   3.609   2.010
10558WAT     H242939   1.805   3.551   1.987
10558WAT    EPW42940   1.849   3.614   2.000
10559WAT      O42941   3.104   4.787   1.433
10559WAT     H142942   3.173   4.740   1.408
10559WAT     H242943   3.050   4.727   1.467
10559WAT    EPW42944   3.106   4.771   1.434
10560WAT      O42945   1.324   3.762   1.666
10560WAT     H142946   1.373   3.733   1.732
10560WAT     H242947   1.337   3.703   1.603
10560WAT    EPW42948   1.333   3.749   1.666
10561WAT      O42949   2.828   4.064   2.351
10561WAT     H142950   2.827   3.987   2.391
10561WAT     H242951   2.744   4.088   2.350
10561WAT    EPW42952   2.815   4.056   2.357
10562WAT      O42953   1.777   3.905   1.214
10562WAT     H142954   1.716   3.865   1.262
10562WAT     H242955   1.738   3.917   1.137
10562WAT    EPW42956   1.762   3.901   1.210
10563WAT      O42957   1.459   4.216   2.755
10563WAT     H142958   1.417   4.165   2.699
10563WAT     H242959   1.423   4.295   2.740
10563WAT    EPW42960   1.447   4.220   2.744
10564WAT      O42961   2.953   4.071   2.095
10564WAT     H142962   2.925   4.111   2.167
10564WAT     H242963   3.039   4.065   2.107
10564WAT    EPW42964   2.962   4.076   2.107
10565WAT      O42965   1.922   3.752   1.485
10565WAT     H142966   1.949   3.834   1.492
10565WAT     H242967   1.836   3.759   1.476
10565WAT    EPW42968   1.914   3.765   1.485
10566WAT      O42969   2.720   3.464   2.949
10566WAT     H142970   2.667   3.510   3.001
10566WAT     H242971   2.683   3.384   2.948
10566WAT    EPW42972   2.706   3.459   2.956
10567WAT      O42973   1.270   3.349   2.139
10567WAT     H142974   1.275   3.383   2.059
10567WAT     H242975   1.346   3.372   2.176
10567WAT    EPW42976   1.282   3.357   2.133
10568WAT      O42977   3.066   4.635   2.148
10568WAT     H142978   3.095   4.660   2.069
10568WAT     H242979   3.136   4.644   2.199
10568WAT    EPW42980   3.081   4.640   2.144
10569WAT      O42981   2.569   3.821   2.956
10569WAT     H142982   2.576   3.831   3.043
10569WAT     H242983   2.505   3.876   2.934
10569WAT    EPW42984   2.560   3.830   2.966
10570WAT      O42985   2.796   3.853   2.793
10570WAT     H142986   2.827   3.931   2.813
10570WAT     H242987   2.759   3.826   2.867
10570WAT    EPW42988   2.795   3.860   2.807
10571WAT      O42989   2.727   4.495   1.346
10571WAT     H142990   2.760   4.414   1.349
10571WAT     H242991   2.651   4.488   1.389
10571WAT    EPW42992   2.721   4.482   1.353
10572WAT      O42993   2.775   3.678   1.912
10572WAT     H142994   2.701   3.646   1.943
10572WAT     H242995   2.775   3.761   1.940
10572WAT    EPW42996   2.764   3.686   1.920
10573WAT      O42997   3.019   4.274   2.687
10573WAT     H142998   3.082   4.219   2.661
10573WAT     H242999   3.013   4.331   2.621
10573WAT    EPW43000   3.028   4.275   2.673
10574WAT      O43001   2.464   4.282   1.286
10574WAT     H143002   2.533   4.231   1.269
10574WAT     H243003   2.423   4.287   1.210
10574WAT    EPW43004   2.468   4.276   1.272
10575WAT      O43005   1.933   4.397   2.416
10575WAT     H143006   1.903   4.457   2.473
10575WAT     H243007   1.938   4.442   2.342
10575WAT    EPW43008   1.929   4.413   2.414
10576WAT      O43009   1.730   4.292   2.756
10576WAT     H143010   1.650   4.263   2.773
10576WAT     H243011   1.722   4.379   2.757
10576WAT    EPW43012   1.717   4.301   2.759
10577WAT      O43013   2.666   3.311   2.658
10577WAT     H143014   2.741   3.357   2.651
10577WAT     H243015   2.610   3.358   2.611
10577WAT    EPW43016   2.669   3.325   2.650
10578WAT      O43017   2.184   4.040   2.366
10578WAT     H143018   2.232   4.077   2.428
10578WAT     H243019   2.102   4.053   2.391
10578WAT    EPW43020   2.179   4.047   2.379
10579WAT      O43021   1.855   3.600   2.640
10579WAT     H143022   1.871   3.526   2.682
10579WAT     H243023   1.851   3.575   2.556
10579WAT    EPW43024   1.857   3.585   2.634
10580WAT      O43025   2.111   4.779   1.888
10580WAT     H143026   2.165   4.847   1.894
10580WAT     H243027   2.076   4.787   1.809
10580WAT    EPW43028   2.113   4.790   1.877
10581WAT      O43029   2.795   3.109   2.425
10581WAT     H143030   2.767   3.192   2.420
10581WAT     H243031   2.866   3.115   2.474
10581WAT    EPW43032   2.801   3.122   2.431
10582WAT      O43033   2.030   3.181   2.628
10582WAT     H143034   2.101   3.213   2.587
10582WAT     H243035   2.054   3.100   2.650
10582WAT    EPW43036   2.044   3.174   2.625
10583WAT      O43037   1.929   4.602   2.227
10583WAT     H143038   1.866   4.660   2.209
10583WAT     H243039   1.954   4.573   2.149
10583WAT    EPW43040   1.923   4.606   2.213
10584WAT      O43041   2.360   4.265   2.926
10584WAT     H143042   2.435   4.294   2.894
10584WAT     H243043   2.305   4.270   2.858
10584WAT    EPW43044   2.363   4.270   2.911
10585WAT      O43045   2.751   4.520   2.777
10585WAT     H143046   2.785   4.547   2.852
10585WAT     H243047   2.780   4.578   2.719
10585WAT    EPW43048   2.760   4.533   2.779
10586WAT      O43049   2.937   3.735   1.310
10586WAT     H143050   2.975   3.803   1.270
10586WAT     H243051   2.853   3.757   1.314
10586WAT    EPW43052   2.930   3.748   1.305
10587WAT      O43053   2.088   4.079   1.219
10587WAT     H143054   2.008   4.062   1.190
10587WAT     H243055   2.085   4.165   1.238
10587WAT    EPW43056   2.076   4.089   1.217
10588WAT      O43057   1.681   3.686   2.234
10588WAT     H143058   1.725   3.676   2.159
10588WAT     H243059   1.736   3.655   2.294
10588WAT    EPW43060   1.696   3.680   2.232
10589WAT      O43061   2.483   3.596   2.793
10589WAT     H143062   2.418   3.643   2.828
10589WAT     H243063   2.539   3.587   2.859
10589WAT    EPW43064   2.482   3.602   2.808
10590WAT      O43065   2.452   3.750   2.423
10590WAT     H143066   2.482   3.792   2.493
10590WAT     H243067   2.455   3.666   2.446
10590WAT    EPW43068   2.457   3.744   2.437
10591WAT      O43069   2.194   4.767   2.815
10591WAT     H143070   2.242   4.707   2.774
10591WAT     H243071   2.159   4.722   2.882
10591WAT    EPW43072   2.196   4.751   2.819
10592WAT      O43073   2.706   3.695   1.648
10592WAT     H143074   2.727   3.675   1.730
10592WAT     H243075   2.782   3.722   1.614
10592WAT    EPW43076   2.721   3.696   1.655
10593WAT      O43077   2.036   3.185   2.238
10593WAT     H143078   1.953   3.170   2.262
10593WAT     H243079   2.032   3.188   2.151
10593WAT    EPW43080   2.023   3.183   2.229
10594WAT      O43081   2.809   3.303   1.795
10594WAT     H143082   2.737   3.256   1.812
10594WAT     H243083   2.792   3.337   1.717
10594WAT    EPW43084   2.796   3.301   1.786
10595WAT      O43085   2.853   4.097   1.633
10595WAT     H143086   2.901   4.025   1.629
10595WAT     H243087   2.771   4.069   1.626
10595WAT    EPW43088   2.848   4.082   1.631
10596WAT      O43089   2.200   4.289   2.717
10596WAT     H143090   2.121   4.282   2.752
10596WAT     H243091   2.207   4.373   2.698
10596WAT    EPW43092   2.189   4.300   2.720
10597WAT      O43093   1.292   3.224   2.842
10597WAT     H143094   1.278   3.304   2.809
10597WAT     H243095   1.214   3.200   2.871
10597WAT    EPW43096   1.279   3.233   2.841
10598WAT      O43097   1.783   4.909   2.249
10598WAT     H143098   1.784   4.915   2.336
10598WAT     H243099   1.741   4.835   2.234
10598WAT    EPW43100   1.777   4.899   2.260
10599WAT      O43101   1.599   3.499   1.564
10599WAT     H143102   1.611   3.466   1.485
10599WAT     H243103   1.518   3.474   1.584
10599WAT    EPW43104   1.589   3.490   1.556
10600WAT      O43105   2.475   4.214   1.869
10600WAT     H143106   2.482   4.248   1.949
10600WAT     H243107   2.491   4.129   1.881
10600WAT    EPW43108   2.478   4.207   1.882
10601WAT      O43109   2.227   4.142   1.825
10601WAT     H143110   2.197   4.110   1.901
10601WAT     H243111   2.296   4.189   1.849
10601WAT    EPW43112   2.233   4.144   1.840
10602WAT      O43113   2.249   4.553   2.628
10602WAT     H143114   2.318   4.542   2.681
10602WAT     H243115   2.262   4.632   2.594
10602WAT    EPW43116   2.261   4.563   2.631
10603WAT      O43117   3.067   3.814   2.809
10603WAT     H143118   2.981   3.802   2.822
10603WAT     H243119   3.082   3.775   2.733
10603WAT    EPW43120   3.056   3.807   2.800
10604WAT      O43121   2.518   3.881   2.667
10604WAT     H143122   2.492   3.809   2.709
10604WAT     H243123   2.600   3.892   2.694
10604WAT    EPW43124   2.526   3.872   2.677
10605WAT      O43125   1.459   4.859   2.793
10605WAT     H143126   1.394   4.802   2.803
10605WAT     H243127   1.422   4.936   2.808
10605WAT    EPW43128   1.444   4.862   2.797
10606WAT      O43129   2.311   4.000   2.985
10606WAT     H143130   2.344   4.068   2.942
10606WAT     H243131   2.241   4.032   3.026
10606WAT    EPW43132   2.306   4.015   2.985
10607WAT      O43133   2.620   4.837   2.078
10607WAT     H143134   2.575   4.901   2.116
10607WAT     H243135   2.690   4.829   2.129
10607WAT    EPW43136   2.623   4.845   2.091
10608WAT      O43137   2.290   4.346   2.371
10608WAT     H143138   2.220   4.386   2.406
10608WAT     H243139   2.357   4.389   2.405
10608WAT    EPW43140   2.289   4.358   2.381
10609WAT      O43141   2.827   4.605   3.029
10609WAT     H143142   2.905   4.566   3.038
10609WAT     H243143   2.781   4.572   3.095
10609WAT    EPW43144   2.832   4.595   3.040
10610WAT      O43145   1.597   3.700   2.606
10610WAT     H143146   1.634   3.762   2.557
10610WAT     H243147   1.664   3.653   2.635
10610WAT    EPW43148   1.612   3.702   2.603
10611WAT      O43149   1.374   3.545   2.534
10611WAT     H143150   1.382   3.528   2.448
10611WAT     H243151   1.449   3.585   2.553
10611WAT    EPW43152   1.386   3.548   2.524
10612WAT      O43153   2.930   3.809   1.578
10612WAT     H143154   2.940   3.803   1.491
10612WAT     H243155   3.004   3.776   1.609
10612WAT    EPW43156   2.942   3.803   1.569
10613WAT      O43157   1.629   3.286   2.775
10613WAT     H143158   1.621   3.201   2.795
10613WAT     H243159   1.598   3.290   2.693
10613WAT    EPW43160   1.624   3.274   2.766
10614WAT      O43161   2.322   4.505   1.688
10614WAT     H143162   2.301   4.589   1.672
10614WAT     H243163   2.244   4.467   1.700
10614WAT    EPW43164   2.307   4.512   1.688
10615WAT      O43165   2.840   3.823   2.513
10615WAT     H143166   2.840   3.737   2.526
10615WAT     H243167   2.847   3.856   2.594
10615WAT    EPW43168   2.841   3.815   2.527
10616WAT      O43169   1.314   4.067   2.556
10616WAT     H143170   1.346   4.089   2.478
10616WAT     H243171   1.304   3.981   2.550
10616WAT    EPW43172   1.317   4.058   2.544
10617WAT      O43173   1.459   3.661   1.218
10617WAT     H143174   1.392   3.662   1.273
10617WAT     H243175   1.469   3.576   1.199
10617WAT    EPW43176   1.451   3.649   1.223
10618WAT      O43177   2.428   3.303   2.891
10618WAT     H143178   2.437   3.375   2.941
10618WAT     H243179   2.364   3.259   2.931
10618WAT    EPW43180   2.420   3.307   2.905
10619WAT      O43181   2.327   3.322   1.977
10619WAT     H143182   2.257   3.374   1.971
10619WAT     H243183   2.331   3.284   1.898
10619WAT    EPW43184   2.318   3.324   1.964
10620WAT      O43185   1.858   4.531   1.329
10620WAT     H143186   1.902   4.539   1.404
10620WAT     H243187   1.778   4.510   1.355
10620WAT    EPW43188   1.853   4.529   1.344
10621WAT      O43189   2.687   3.374   2.257
10621WAT     H143190   2.773   3.384   2.271
10621WAT     H243191   2.650   3.429   2.313
10621WAT    EPW43192   2.694   3.384   2.267
10622WAT      O43193   1.790   3.997   2.694
10622WAT     H143194   1.750   4.074   2.702
10622WAT     H243195   1.749   3.959   2.627
10622WAT    EPW43196   1.778   4.002   2.686
10623WAT      O43197   2.718   3.902   2.106
10623WAT     H143198   2.784   3.956   2.122
10623WAT     H243199   2.683   3.933   2.032
10623WAT    EPW43200   2.722   3.915   2.097
10624WAT      O43201   2.749   4.709   1.687
10624WAT     H143202   2.732   4.643   1.742
10624WAT     H243203   2.820   4.681   1.644
10624WAT    EPW43204   2.757   4.695   1.688
10625WAT      O43205   1.591   4.438   1.389
10625WAT     H143206   1.567   4.408   1.467
10625WAT     H243207   1.588   4.368   1.338
10625WAT    EPW43208   1.587   4.424   1.393
10626WAT      O43209   1.873   4.263   1.264
10626WAT     H143210   1.791   4.236   1.278
10626WAT     H243211   1.870   4.348   1.282
10626WAT    EPW43212   1.860   4.272   1.268
10627WAT      O43213   1.833   3.294   2.439
10627WAT     H143214   1.747   3.303   2.447
10627WAT     H243215   1.855   3.243   2.506
10627WAT    EPW43216   1.823   3.288   2.451
10628WAT      O43217   3.035   3.158   2.572
10628WAT     H143218   3.030   3.153   2.659
10628WAT     H243219   3.103   3.107   2.553
10628WAT    EPW43220   3.044   3.150   2.582
10629WAT      O43221   2.243   3.369   2.277
10629WAT     H143222   2.170   3.324   2.288
10629WAT     H243223   2.300   3.329   2.329
10629WAT    EPW43224   2.241   3.356   2.286
10630WAT      O43225   2.516   4.454   2.456
10630WAT     H143226   2.537   4.484   2.535
10630WAT     H243227   2.510   4.526   2.407
10630WAT    EPW43228   2.519   4.469   2.460
10631WAT      O43229   2.470   4.875   2.880
10631WAT     H143230   2.395   4.873   2.836
10631WAT     H243231   2.487   4.960   2.889
10631WAT    EPW43232   2.461   4.888   2.875
10632WAT      O43233   1.994   3.802   2.797
10632WAT     H143234   1.961   3.744   2.740
10632WAT     H243235   1.958   3.877   2.773
10632WAT    EPW43236   1.984   3.805   2.785
10633WAT      O43237   2.073   3.127   1.260
10633WAT     H143238   2.081   3.152   1.177
10633WAT     H243239   1.999   3.165   1.286
10633WAT    EPW43240   2.063   3.136   1.251
10634WAT      O43241   2.998   4.318   2.401
10634WAT     H143242   2.994   4.232   2.388
10634WAT     H243243   2.928   4.348   2.358
10634WAT    EPW43244   2.987   4.309   2.393
10635WAT      O43245   1.837   4.838   2.822
10635WAT     H143246   1.841   4.850   2.908
10635WAT     H243247   1.902   4.782   2.806
10635WAT    EPW43248   1.847   4.831   2.833
10636WAT      O43249   2.808   4.644   2.281
10636WAT     H143250   2.861   4.635   2.212
10636WAT     H243251   2.769   4.566   2.287
10636WAT    EPW43252   2.810   4.631   2.272
10637WAT      O43253   1.555   3.303   2.504
10637WAT     H143254   1.521   3.226   2.481
10637WAT     H243255   1.485   3.355   2.511
10637WAT    EPW43256   1.540   3.299   2.502
10638WAT      O43257   2.460   3.188   2.202
10638WAT     H143258   2.527   3.243   2.215
10638WAT     H243259   2.409   3.231   2.145
10638WAT    EPW43260   2.462   3.202   2.195
10639WAT      O43261   1.596   4.676   2.958
10639WAT     H143262   1.656   4.719   3.005
10639WAT     H243263   1.560   4.738   2.909
10639WAT    EPW43264   1.600   4.691   2.958
10640WAT      O43265   2.395   3.769   1.951
10640WAT     H143266   2.451   3.708   1.981
10640WAT     H243267   2.353   3.795   2.023
10640WAT    EPW43268   2.397   3.764   1.966
10641WAT      O43269   1.420   3.634   1.900
10641WAT     H143270   1.383   3.664   1.973
10641WAT     H243271   1.474   3.571   1.928
10641WAT    EPW43272   1.423   3.629   1.915
10642WAT      O43273   1.389   4.475   2.651
10642WAT     H143274   1.332   4.516   2.702
10642WAT     H243275   1.462   4.521   2.660
10642WAT    EPW43276   1.391   4.488   2.660
10643WAT      O43277   2.592   3.952   1.607
10643WAT     H143278   2.599   3.867   1.626
10643WAT     H243279   2.510   3.961   1.580
10643WAT    EPW43280   2.581   3.941   1.606
10644WAT      O43281   1.568   4.801   1.528
10644WAT     H143282   1.553   4.817   1.444
10644WAT     H243283   1.654   4.809   1.536
10644WAT    EPW43284   1.578   4.805   1.517
10645WAT      O43285   1.984   4.041   1.501
10645WAT     H143286   1.994   4.055   1.416
10645WAT     H243287   2.066   4.035   1.531
10645WAT    EPW43288   1.998   4.042   1.493
10646WAT      O43289   2.900   4.848   1.249
10646WAT     H143290   2.964   4.834   1.307
10646WAT     H243291   2.866   4.768   1.238
10646WAT    EPW43292   2.905   4.834   1.256
10647WAT      O43293   2.920   4.089   2.923
10647WAT     H143294   2.983   4.072   2.980
10647WAT     H243295   2.962   4.130   2.857
10647WAT    EPW43296   2.935   4.093   2.921
10648WAT      O43297   2.508   4.474   1.481
10648WAT     H143298   2.483   4.461   1.564
10648WAT     H243299   2.476   4.405   1.439
10648WAT    EPW43300   2.499   4.462   1.487
10649WAT      O43301   2.982   3.546   2.996
10649WAT     H143302   2.963   3.610   3.052
10649WAT     H243303   2.910   3.497   2.996
10649WAT    EPW43304   2.969   3.548   3.004
10650WAT      O43305   2.972   3.640   2.293
10650WAT     H143306   2.889   3.665   2.286
10650WAT     H243307   2.967   3.556   2.316
10650WAT    EPW43308   2.959   3.631   2.296
10651WAT      O43309   1.898   3.339   2.813
10651WAT     H143310   1.922   3.281   2.752
10651WAT     H243311   1.814   3.321   2.827
10651WAT    EPW43312   1.889   3.327   2.806
10652WAT      O43313   2.661   4.100   3.058
10652WAT     H143314   2.748   4.097   3.054
10652WAT     H243315   2.639   4.142   2.985
10652WAT    EPW43316   2.671   4.106   3.047
10653WAT      O43317   1.636   4.683   2.176
10653WAT     H143318   1.628   4.602   2.145
10653WAT     H243319   1.592   4.732   2.119
10653WAT    EPW43320   1.629   4.678   2.163
10654WAT      O43321   2.196   4.295   1.424
10654WAT     H143322   2.268   4.260   1.389
10654WAT     H243323   2.193   4.375   1.390
10654WAT    EPW43324   2.207   4.302   1.414
10655WAT      O43325   1.394   4.907   2.534
10655WAT     H143326   1.443   4.902   2.606
10655WAT     H243327   1.412   4.834   2.491
10655WAT    EPW43328   1.404   4.896   2.538
10656WAT      O43329   2.318   3.851   0.315
10656WAT     H143330   2.266   3.910   0.352
10656WAT     H243331   2.358   3.814   0.384
10656WAT    EPW43332   2.316   3.854   0.331
10657WAT      O43333   1.299   4.538   0.487
10657WAT     H143334   1.312   4.510   0.568
10657WAT     H243335   1.238   4.484   0.456
10657WAT    EPW43336   1.292   4.526   0.494
10658WAT      O43337   1.957   4.291   0.993
10658WAT     H143338   1.933   4.290   1.077
10658WAT     H243339   1.882   4.276   0.951
10658WAT    EPW43340   1.942   4.288   0.999
10659WAT      O43341   1.895   3.551   0.441
10659WAT     H143342   1.962   3.553   0.387
10659WAT     H243343   1.890   3.468   0.466
10659WAT    EPW43344   1.904   3.539   0.437
10660WAT      O43345   1.955   4.610   0.720
10660WAT     H143346   1.969   4.686   0.679
10660WAT     H243347   2.034   4.573   0.722
10660WAT    EPW43348   1.968   4.616   0.714
10661WAT      O43349   2.267   3.756   0.925
10661WAT     H143350   2.182   3.746   0.907
10661WAT     H243351   2.270   3.831   0.970
10661WAT    EPW43352   2.255   3.766   0.929
10662WAT      O43353   2.723   3.052   0.836
10662WAT     H143354   2.707   3.129   0.798
10662WAT     H243355   2.645   3.030   0.871
10662WAT    EPW43356   2.709   3.060   0.836
10663WAT      O43357   1.289   3.766   0.208
10663WAT     H143358   1.264   3.849   0.201
10663WAT     H243359   1.223   3.728   0.250
10663WAT    EPW43360   1.276   3.773   0.213
10664WAT      O43361   1.592   3.248   0.257
10664WAT     H143362   1.540   3.185   0.226
10664WAT     H243363   1.651   3.204   0.304
10664WAT    EPW43364   1.593   3.232   0.260
10665WAT      O43365   1.923   3.461   1.187
10665WAT     H143366   1.935   3.416   1.113
10665WAT     H243367   1.952   3.541   1.167
10665WAT    EPW43368   1.929   3.466   1.173
10666WAT      O43369   2.539   4.791   0.528
10666WAT     H143370   2.614   4.836   0.527
10666WAT     H243371   2.527   4.769   0.444
10666WAT    EPW43372   2.549   4.794   0.515
10667WAT      O43373   1.496   3.421   1.085
10667WAT     H143374   1.418   3.382   1.078
10667WAT     H243375   1.545   3.380   1.026
10667WAT    EPW43376   1.492   3.409   1.076
10668WAT      O43377   2.161   3.185   1.002
10668WAT     H143378   2.179   3.104   0.975
10668WAT     H243379   2.147   3.229   0.928
10668WAT    EPW43380   2.162   3.180   0.987
10669WAT      O43381   1.740   4.860   0.645
10669WAT     H143382   1.769   4.853   0.727
10669WAT     H243383   1.677   4.800   0.640
10669WAT    EPW43384   1.735   4.850   0.656
10670WAT      O43385   2.976   3.346   0.454
10670WAT     H143386   3.051   3.353   0.411
10670WAT     H243387   2.982   3.269   0.494
10670WAT    EPW43388   2.988   3.336   0.454
10671WAT      O43389   1.231   3.476   0.844
10671WAT     H143390   1.231   3.534   0.909
10671WAT     H243391   1.290   3.507   0.788
10671WAT    EPW43392   1.240   3.489   0.845
10672WAT      O43393   2.465   4.509   0.898
10672WAT     H143394   2.461   4.547   0.977
10672WAT     H243395   2.550   4.505   0.881
10672WAT    EPW43396   2.477   4.514   0.907
10673WAT      O43397   1.539   4.676   0.557
10673WAT     H143398   1.469   4.625   0.570
10673WAT     H243399   1.565   4.656   0.476
10673WAT    EPW43400   1.532   4.666   0.547
10674WAT      O43401   2.310   4.826   0.648
10674WAT     H143402   2.387   4.818   0.607
10674WAT     H243403   2.252   4.813   0.584
10674WAT    EPW43404   2.313   4.823   0.633
10675WAT      O43405   1.675   4.561   0.814
10675WAT     H143406   1.759   4.568   0.791
10675WAT     H243407   1.671   4.601   0.891
10675WAT    EPW43408   1.687   4.568   0.822
10676WAT      O43409   1.871   4.112   0.289
10676WAT     H143410   1.888   4.091   0.371
10676WAT     H243411   1.806   4.059   0.267
10676WAT    EPW43412   1.864   4.101   0.298
10677WAT      O43413   2.494   3.504   0.640
10677WAT     H143414   2.485   3.536   0.721
10677WAT     H243415   2.435   3.440   0.636
10677WAT    EPW43416   2.484   3.499   0.651
10678WAT      O43417   1.946   4.106   0.548
10678WAT     H143418   1.952   4.191   0.568
10678WAT     H243419   1.918   4.069   0.621
10678WAT    EPW43420   1.943   4.113   0.561
10679WAT      O43421   2.564   4.176   0.461
10679WAT     H143422   2.513   4.135   0.518
10679WAT     H243423   2.551   4.260   0.479
10679WAT    EPW43424   2.555   4.182   0.472
10680WAT      O43425   1.228   4.543   1.169
10680WAT     H143426   1.304   4.578   1.194
10680WAT     H243427   1.246   4.458   1.163
10680WAT    EPW43428   1.242   4.536   1.172
10681WAT      O43429   2.866   3.522   0.754
10681WAT     H143430   2.943   3.499   0.788
10681WAT     H243431   2.819   3.544   0.824
10681WAT    EPW43432   2.870   3.522   0.770
10682WAT      O43433   1.435   3.560   0.360
10682WAT     H143434   1.519   3.582   0.355
10682WAT     H243435   1.396   3.618   0.307
10682WAT    EPW43436   1.441   3.572   0.351
10683WAT      O43437   3.113   4.671   0.899
10683WAT     H143438   3.044   4.702   0.854
10683WAT     H243439   3.076   4.625   0.963
10683WAT    EPW43440   3.097   4.668   0.902
10684WAT      O43441   2.020   3.729   1.171
10684WAT     H143442   1.972   3.787   1.216
10684WAT     H243443   2.017   3.758   1.089
10684WAT    EPW43444   2.012   3.742   1.166
10685WAT      O43445   3.130   3.797   0.633
10685WAT     H143446   3.151   3.717   0.605
10685WAT     H243447   3.045   3.803   0.614
10685WAT    EPW43448   3.120   3.786   0.626
10686WAT      O43449   1.699   4.343   0.339
10686WAT     H143450   1.746   4.372   0.406
10686WAT     H243451   1.757   4.295   0.293
10686WAT    EPW43452   1.715   4.340   0.342
10687WAT      O43453   2.896   4.709   0.708
10687WAT     H143454   2.829   4.760   0.729
10687WAT     H243455   2.902   4.719   0.621
10687WAT    EPW43456   2.887   4.718   0.698
10688WAT      O43457   1.577   3.810   1.007
10688WAT     H143458   1.524   3.759   1.054
10688WAT     H243459   1.579   3.771   0.929
10688WAT    EPW43460   1.570   3.796   1.003
10689WAT      O43461   1.686   3.906   0.528
10689WAT     H143462   1.688   3.838   0.473
10689WAT     H243463   1.621   3.956   0.497
10689WAT    EPW43464   1.677   3.903   0.515
10690WAT      O43465   2.675   3.677   0.368
10690WAT     H143466   2.609   3.710   0.414
10690WAT     H243467   2.694   3.741   0.311
10690WAT    EPW43468   2.668   3.691   0.366
10691WAT      O43469   2.096   4.784   0.467
10691WAT     H143470   2.068   4.720   0.415
10691WAT     H243471   2.075   4.856   0.423
10691WAT    EPW43472   2.089   4.785   0.453
10692WAT      O43473   2.340   3.268   0.711
10692WAT     H143474   2.355   3.185   0.686
10692WAT     H243475   2.378   3.273   0.789
10692WAT    EPW43476   2.347   3.256   0.719
10693WAT      O43477   1.466   4.041   1.084
10693WAT     H143478   1.462   4.092   1.013
10693WAT     H243479   1.499   3.966   1.054
10693WAT    EPW43480   1.470   4.038   1.069
10694WAT      O43481   2.626   4.262   0.910
10694WAT     H143482   2.674   4.334   0.920
10694WAT     H243483   2.665   4.219   0.845
10694WAT    EPW43484   2.639   4.266   0.902
10695WAT      O43485   2.055   4.546   1.027
10695WAT     H143486   2.091   4.529   1.105
10695WAT     H243487   2.012   4.474   1.008
10695WAT    EPW43488   2.054   4.533   1.036
10696WAT      O43489   2.153   3.621   0.291
10696WAT     H143490   2.201   3.691   0.312
10696WAT     H243491   2.190   3.556   0.336
10696WAT    EPW43492   2.165   3.622   0.301
10697WAT      O43493   2.473   4.632   0.301
10697WAT     H143494   2.413   4.602   0.245
10697WAT     H243495   2.528   4.677   0.250
10697WAT    EPW43496   2.472   4.634   0.285
10698WAT      O43497   2.475   4.317   0.241
10698WAT     H143498   2.395   4.339   0.269
10698WAT     H243499   2.500   4.257   0.300
10698WAT    EPW43500   2.467   4.311   0.254
10699WAT      O43501   2.801   4.117   0.726
10699WAT     H143502   2.806   4.129   0.640
10699WAT     H243503   2.876   4.149   0.756
10699WAT    EPW43504   2.812   4.123   0.717
10700WAT      O43505   2.420   4.651   1.153
10700WAT     H143506   2.436   4.680   1.234
10700WAT     H243507   2.446   4.718   1.103
10700WAT    EPW43508   2.426   4.665   1.158
10701WAT      O43509   2.904   3.146   1.024
10701WAT     H143510   2.840   3.106   0.980
10701WAT     H243511   2.906   3.103   1.100
10701WAT    EPW43512   2.895   3.134   1.029
10702WAT      O43513   2.374   4.097   0.686
10702WAT     H143514   2.358   4.158   0.746
10702WAT     H243515   2.427   4.041   0.726
10702WAT    EPW43516   2.379   4.098   0.701
10703WAT      O43517   2.735   4.370   0.338
10703WAT     H143518   2.687   4.400   0.272
10703WAT     H243519   2.699   4.292   0.356
10703WAT    EPW43520   2.722   4.363   0.331
10704WAT      O43521   2.134   4.142   0.195
10704WAT     H143522   2.050   4.122   0.203
10704WAT     H243523   2.167   4.125   0.274
10704WAT    EPW43524   2.127   4.137   0.208
10705WAT      O43525   1.519   4.111   0.426
10705WAT     H143526   1.591   4.160   0.423
10705WAT     H243527   1.492   4.108   0.343
10705WAT    EPW43528   1.526   4.118   0.413
10706WAT      O43529   2.828   4.064   0.450
10706WAT     H143530   2.827   3.987   0.490
10706WAT     H243531   2.744   4.088   0.450
10706WAT    EPW43532   2.815   4.056   0.456
10707WAT      O43533   1.459   4.216   0.854
10707WAT     H143534   1.417   4.165   0.798
10707WAT     H243535   1.423   4.295   0.840
10707WAT    EPW43536   1.447   4.220   0.844
10708WAT      O43537   2.953   4.071   0.194
10708WAT     H143538   2.925   4.111   0.266
10708WAT     H243539   3.039   4.065   0.207
10708WAT    EPW43540   2.962   4.076   0.207
10709WAT      O43541   2.720   3.464   1.048
10709WAT     H143542   2.667   3.510   1.100
10709WAT     H243543   2.683   3.384   1.047
10709WAT    EPW43544   2.706   3.459   1.056
10710WAT      O43545   3.066   4.635   0.247
10710WAT     H143546   3.095   4.660   0.169
10710WAT     H243547   3.136   4.644   0.299
10710WAT    EPW43548   3.081   4.640   0.243
10711WAT      O43549   2.569   3.821   1.056
10711WAT     H143550   2.576   3.831   1.142
10711WAT     H243551   2.505   3.876   1.034
10711WAT    EPW43552   2.560   3.830   1.065
10712WAT      O43553   2.796   3.853   0.892
10712WAT     H143554   2.827   3.931   0.912
10712WAT     H243555   2.759   3.826   0.966
10712WAT    EPW43556   2.795   3.860   0.906
10713WAT      O43557   3.065   3.907   1.166
10713WAT     H143558   3.060   3.873   1.086
10713WAT     H243559   3.139   3.953   1.163
10713WAT    EPW43560   3.075   3.909   1.153
10714WAT      O43561   3.019   4.274   0.786
10714WAT     H143562   3.082   4.219   0.761
10714WAT     H243563   3.013   4.331   0.720
10714WAT    EPW43564   3.028   4.275   0.773
10715WAT      O43565   1.933   4.397   0.516
10715WAT     H143566   1.903   4.457   0.573
10715WAT     H243567   1.938   4.442   0.441
10715WAT    EPW43568   1.929   4.413   0.513
10716WAT      O43569   1.730   4.292   0.856
10716WAT     H143570   1.650   4.263   0.872
10716WAT     H243571   1.722   4.379   0.856
10716WAT    EPW43572   1.717   4.301   0.858
10717WAT      O43573   2.666   3.311   0.757
10717WAT     H143574   2.741   3.357   0.751
10717WAT     H243575   2.610   3.358   0.710
10717WAT    EPW43576   2.669   3.325   0.749
10718WAT      O43577   2.184   4.040   0.465
10718WAT     H143578   2.232   4.077   0.528
10718WAT     H243579   2.102   4.053   0.491
10718WAT    EPW43580   2.179   4.047   0.478
10719WAT      O43581   1.855   3.600   0.739
10719WAT     H143582   1.871   3.526   0.782
10719WAT     H243583   1.851   3.575   0.656
10719WAT    EPW43584   1.857   3.585   0.733
10720WAT      O43585   2.795   3.109   0.524
10720WAT     H143586   2.767   3.192   0.520
10720WAT     H243587   2.866   3.115   0.574
10720WAT    EPW43588   2.801   3.122   0.531
10721WAT      O43589   2.030   3.181   0.727
10721WAT     H143590   2.101   3.213   0.687
10721WAT     H243591   2.054   3.100   0.750
10721WAT    EPW43592   2.044   3.174   0.724
10722WAT      O43593   1.929   4.602   0.327
10722WAT     H143594   1.866   4.660   0.308
10722WAT     H243595   1.954   4.573   0.248
10722WAT    EPW43596   1.923   4.606   0.312
10723WAT      O43597   2.360   4.265   1.026
10723WAT     H143598   2.435   4.294   0.993
10723WAT     H243599   2.305   4.270   0.958
10723WAT    EPW43600   2.363   4.270   1.011
10724WAT      O43601   2.751   4.520   0.876
10724WAT     H143602   2.785   4.547   0.951
10724WAT     H243603   2.780   4.578   0.818
10724WAT    EPW43604   2.760   4.533   0.879
10725WAT      O43605   1.681   3.686   0.333
10725WAT     H143606   1.725   3.676   0.259
10725WAT     H243607   1.736   3.655   0.394
10725WAT    EPW43608   1.696   3.680   0.331
10726WAT      O43609   2.483   3.596   0.892
10726WAT     H143610   2.418   3.643   0.927
10726WAT     H243611   2.539   3.587   0.958
10726WAT    EPW43612   2.482   3.602   0.907
10727WAT      O43613   2.452   3.750   0.522
10727WAT     H143614   2.482   3.792   0.592
10727WAT     H243615   2.455   3.666   0.545
10727WAT    EPW43616   2.457   3.744   0.536
10728WAT      O43617   2.194   4.767   0.915
10728WAT     H143618   2.242   4.707   0.873
10728WAT     H243619   2.159   4.722   0.981
10728WAT    EPW43620   2.196   4.751   0.918
10729WAT      O43621   2.036   3.185   0.338
10729WAT     H143622   1.953   3.170   0.362
10729WAT     H243623   2.032   3.188   0.251
10729WAT    EPW43624   2.023   3.183   0.328
10730WAT      O43625   2.200   4.289   0.817
10730WAT     H143626   2.121   4.282   0.852
10730WAT     H243627   2.207   4.373   0.797
10730WAT    EPW43628   2.189   4.300   0.819
10731WAT      O43629   1.292   3.224   0.941
10731WAT     H143630   1.278   3.304   0.908
10731WAT     H243631   1.214   3.200   0.970
10731WAT    EPW43632   1.279   3.233   0.941
10732WAT      O43633   1.783   4.909   0.348
10732WAT     H143634   1.784   4.915   0.435
10732WAT     H243635   1.741   4.835   0.333
10732WAT    EPW43636   1.777   4.899   0.359
10733WAT      O43637   2.249   4.553   0.727
10733WAT     H143638   2.318   4.542   0.780
10733WAT     H243639   2.262   4.632   0.693
10733WAT    EPW43640   2.261   4.563   0.730
10734WAT      O43641   3.067   3.814   0.909
10734WAT     H143642   2.981   3.802   0.921
10734WAT     H243643   3.082   3.775   0.832
10734WAT    EPW43644   3.056   3.807   0.899
10735WAT      O43645   2.518   3.881   0.766
10735WAT     H143646   2.492   3.809   0.808
10735WAT     H243647   2.600   3.892   0.793
10735WAT    EPW43648   2.526   3.872   0.776
10736WAT      O43649   1.459   4.859   0.893
10736WAT     H143650   1.394   4.802   0.902
10736WAT     H243651   1.422   4.936   0.908
10736WAT    EPW43652   1.444   4.862   0.896
10737WAT      O43653   2.311   4.000   1.085
10737WAT     H143654   2.344   4.068   1.042
10737WAT     H243655   2.241   4.032   1.125
10737WAT    EPW43656   2.306   4.015   1.084
10738WAT      O43657   2.620   4.837   0.178
10738WAT     H143658   2.575   4.901   0.216
10738WAT     H243659   2.690   4.829   0.228
10738WAT    EPW43660   2.623   4.845   0.191
10739WAT      O43661   2.290   4.346   0.471
10739WAT     H143662   2.220   4.386   0.505
10739WAT     H243663   2.357   4.389   0.505
10739WAT    EPW43664   2.289   4.358   0.481
10740WAT      O43665   2.827   4.605   1.129
10740WAT     H143666   2.905   4.566   1.137
10740WAT     H243667   2.781   4.572   1.194
10740WAT    EPW43668   2.832   4.595   1.140
10741WAT      O43669   1.597   3.700   0.705
10741WAT     H143670   1.634   3.762   0.657
10741WAT     H243671   1.664   3.653   0.734
10741WAT    EPW43672   1.612   3.702   0.702
10742WAT      O43673   1.374   3.545   0.633
10742WAT     H143674   1.382   3.528   0.548
10742WAT     H243675   1.449   3.585   0.653
10742WAT    EPW43676   1.386   3.548   0.623
10743WAT      O43677   1.629   3.286   0.874
10743WAT     H143678   1.621   3.201   0.895
10743WAT     H243679   1.598   3.290   0.793
10743WAT    EPW43680   1.624   3.274   0.865
10744WAT      O43681   2.840   3.823   0.613
10744WAT     H143682   2.840   3.737   0.625
10744WAT     H243683   2.847   3.856   0.693
10744WAT    EPW43684   2.841   3.815   0.626
10745WAT      O43685   1.314   4.067   0.655
10745WAT     H143686   1.346   4.089   0.577
10745WAT     H243687   1.304   3.981   0.650
10745WAT    EPW43688   1.317   4.058   0.643
10746WAT      O43689   2.428   3.303   0.991
10746WAT     H143690   2.437   3.375   1.040
10746WAT     H243691   2.364   3.259   1.030
10746WAT    EPW43692   2.420   3.307   1.004
10747WAT      O43693   2.687   3.374   0.356
10747WAT     H143694   2.773   3.384   0.371
10747WAT     H243695   2.650   3.429   0.413
10747WAT    EPW43696   2.694   3.384   0.367
10748WAT      O43697   1.790   3.997   0.794
10748WAT     H143698   1.750   4.074   0.801
10748WAT     H243699   1.749   3.959   0.726
10748WAT    EPW43700   1.778   4.002   0.785
10749WAT      O43701   1.833   3.294   0.539
10749WAT     H143702   1.747   3.303   0.547
10749WAT     H243703   1.855   3.243   0.606
10749WAT    EPW43704   1.823   3.288   0.550
10750WAT      O43705   3.035   3.158   0.672
10750WAT     H143706   3.030   3.153   0.759
10750WAT     H243707   3.103   3.107   0.653
10750WAT    EPW43708   3.044   3.150   0.682
10751WAT      O43709   2.243   3.369   0.376
10751WAT     H143710   2.170   3.324   0.388
10751WAT     H243711   2.300   3.329   0.429
10751WAT    EPW43712   2.241   3.356   0.386
10752WAT      O43713   2.516   4.454   0.555
10752WAT     H143714   2.537   4.484   0.634
10752WAT     H243715   2.510   4.526   0.507
10752WAT    EPW43716   2.519   4.469   0.560
10753WAT      O43717   2.470   4.875   0.980
10753WAT     H143718   2.395   4.873   0.936
10753WAT     H243719   2.487   4.960   0.988
10753WAT    EPW43720   2.461   4.888   0.974
10754WAT      O43721   1.994   3.802   0.897
10754WAT     H143722   1.961   3.744   0.840
10754WAT     H243723   1.958   3.877   0.872
10754WAT    EPW43724   1.984   3.805   0.885
10755WAT      O43725   2.998   4.318   0.501
10755WAT     H143726   2.994   4.232   0.487
10755WAT     H243727   2.928   4.348   0.457
10755WAT    EPW43728   2.987   4.309   0.492
10756WAT      O43729   1.837   4.838   0.921
10756WAT     H143730   1.841   4.850   1.008
10756WAT     H243731   1.902   4.782   0.906
10756WAT    EPW43732   1.847   4.831   0.932
10757WAT      O43733   2.808   4.644   0.381
10757WAT     H143734   2.861   4.635   0.311
10757WAT     H243735   2.769   4.566   0.386
10757WAT    EPW43736   2.810   4.631   0.371
10758WAT      O43737   1.555   3.303   0.604
10758WAT     H143738   1.521   3.226   0.580
10758WAT     H243739   1.485   3.355   0.610
10758WAT    EPW43740   1.540   3.299   0.601
10759WAT      O43741   2.460   3.188   0.301
10759WAT     H143742   2.527   3.243   0.314
10759WAT     H243743   2.409   3.231   0.244
10759WAT    EPW43744   2.462   3.202   0.295
10760WAT      O43745   1.596   4.676   1.057
10760WAT     H143746   1.656   4.719   1.105
10760WAT     H243747   1.560   4.738   1.009
10760WAT    EPW43748   1.600   4.691   1.057
10761WAT      O43749   1.389   4.475   0.750
10761WAT     H143750   1.332   4.516   0.801
10761WAT     H243751   1.462   4.521   0.760
10761WAT    EPW43752   1.391   4.488   0.759
10762WAT      O43753   2.920   4.089   1.022
10762WAT     H143754   2.983   4.072   1.079
10762WAT     H243755   2.962   4.130   0.957
10762WAT    EPW43756   2.935   4.093   1.021
10763WAT      O43757   2.982   3.546   1.096
10763WAT     H143758   2.963   3.610   1.151
10763WAT     H243759   2.910   3.497   1.095
10763WAT    EPW43760   2.969   3.548   1.104
10764WAT      O43761   2.972   3.640   0.393
10764WAT     H143762   2.889   3.665   0.386
10764WAT     H243763   2.967   3.556   0.416
10764WAT    EPW43764   2.959   3.631   0.395
10765WAT      O43765   1.898   3.339   0.912
10765WAT     H143766   1.922   3.281   0.851
10765WAT     H243767   1.814   3.321   0.926
10765WAT    EPW43768   1.889   3.327   0.905
10766WAT      O43769   2.661   4.100   1.157
10766WAT     H143770   2.748   4.097   1.154
10766WAT     H243771   2.639   4.142   1.084
10766WAT    EPW43772   2.671   4.106   1.146
10767WAT      O43773   1.636   4.683   0.276
10767WAT     H143774   1.628   4.602   0.244
10767WAT     H243775   1.592   4.732   0.218
10767WAT    EPW43776   1.629   4.678   0.262
10768WAT      O43777   1.394   4.907   0.634
10768WAT     H143778   1.443   4.902   0.705
10768WAT     H243779   1.412   4.834   0.590
10768WAT    EPW43780   1.404   4.896   0.638
10769WAT      O43781   2.337   1.311   7.451
10769WAT     H143782   2.313   1.360   7.383
10769WAT     H243783   2.424   1.304   7.441
10769WAT    EPW43784   2.346   1.317   7.439
10770WAT      O43785   1.305   2.417   7.464
10770WAT     H143786   1.261   2.429   7.538
10770WAT     H243787   1.277   2.339   7.435
10770WAT    EPW43788   1.294   2.407   7.470
10771WAT      O43789   2.933   2.747   7.215
10771WAT     H143790   3.003   2.695   7.215
10771WAT     H243791   2.874   2.702   7.168
10771WAT    EPW43792   2.934   2.733   7.208
10772WAT      O43793   1.279   1.796   7.114
10772WAT     H143794   1.202   1.812   7.078
10772WAT     H243795   1.283   1.709   7.116
10772WAT    EPW43796   1.269   1.785   7.109
10773WAT      O43797   1.593   2.322   6.981
10773WAT     H143798   1.554   2.285   6.913
10773WAT     H243799   1.585   2.262   7.044
10773WAT    EPW43800   1.586   2.308   6.981
10774WAT      O43801   2.585   2.109   7.586
10774WAT     H143802   2.593   2.110   7.499
10774WAT     H243803   2.527   2.046   7.600
10774WAT    EPW43804   2.578   2.100   7.575
10775WAT      O43805   1.556   2.486   7.371
10775WAT     H143806   1.617   2.469   7.432
10775WAT     H243807   1.481   2.472   7.414
10775WAT    EPW43808   1.554   2.482   7.387
10776WAT      O43809   1.984   1.420   7.366
10776WAT     H143810   1.977   1.488   7.312
10776WAT     H243811   2.058   1.381   7.341
10776WAT    EPW43812   1.994   1.424   7.355
10777WAT      O43813   1.445   2.795   6.979
10777WAT     H143814   1.492   2.804   6.906
10777WAT     H243815   1.491   2.738   7.026
10777WAT    EPW43816   1.459   2.788   6.975
10778WAT      O43817   1.444   2.142   7.509
10778WAT     H143818   1.398   2.103   7.447
10778WAT     H243819   1.514   2.091   7.518
10778WAT    EPW43820   1.447   2.129   7.501
10779WAT      O43821   1.644   1.952   7.512
10779WAT     H143822   1.726   1.934   7.536
10779WAT     H243823   1.596   1.891   7.551
10779WAT    EPW43824   1.649   1.941   7.521
10780WAT      O43825   2.064   2.550   7.773
10780WAT     H143826   2.099   2.471   7.776
10780WAT     H243827   2.131   2.601   7.747
10780WAT    EPW43828   2.079   2.546   7.769
10781WAT      O43829   2.070   2.495   7.394
10781WAT     H143830   2.103   2.431   7.442
10781WAT     H243831   2.094   2.474   7.313
10781WAT    EPW43832   2.078   2.483   7.389
10782WAT      O43833   1.704   1.462   7.438
10782WAT     H143834   1.674   1.512   7.373
10782WAT     H243835   1.790   1.470   7.432
10782WAT    EPW43836   1.712   1.470   7.428
10783WAT      O43837   2.001   1.376   7.660
10783WAT     H143838   2.009   1.462   7.673
10783WAT     H243839   1.998   1.368   7.574
10783WAT    EPW43840   2.002   1.388   7.650
10784WAT      O43841   2.469   1.669   6.890
10784WAT     H143842   2.424   1.737   6.921
10784WAT     H243843   2.480   1.618   6.961
10784WAT    EPW43844   2.464   1.671   6.905
10785WAT      O43845   1.289   1.918   7.811
10785WAT     H143846   1.264   2.002   7.803
10785WAT     H243847   1.223   1.880   7.852
10785WAT    EPW43848   1.276   1.925   7.816
10786WAT      O43849   1.280   2.889   7.601
10786WAT     H143850   1.221   2.945   7.569
10786WAT     H243851   1.323   2.863   7.529
10786WAT    EPW43852   1.278   2.894   7.585
10787WAT      O43853   1.864   2.674   7.349
10787WAT     H143854   1.806   2.646   7.408
10787WAT     H243855   1.927   2.613   7.351
10787WAT    EPW43856   1.865   2.661   7.358
10788WAT      O43857   2.479   2.903   7.101
10788WAT     H143858   2.551   2.950   7.111
10788WAT     H243859   2.502   2.823   7.129
10788WAT    EPW43860   2.493   2.898   7.106
10789WAT      O43861   2.295   2.942   7.300
10789WAT     H143862   2.317   2.995   7.366
10789WAT     H243863   2.372   2.924   7.262
10789WAT    EPW43864   2.310   2.947   7.304
10790WAT      O43865   1.435   2.756   7.394
10790WAT     H143866   1.500   2.699   7.395
10790WAT     H243867   1.474   2.831   7.372
10790WAT    EPW43868   1.450   2.759   7.391
10791WAT      O43869   3.008   1.666   7.520
10791WAT     H143870   2.974   1.734   7.562
10791WAT     H243871   2.945   1.606   7.521
10791WAT    EPW43872   2.994   1.667   7.526
10792WAT      O43873   1.517   2.605   7.744
10792WAT     H143874   1.559   2.570   7.676
10792WAT     H243875   1.549   2.563   7.813
10792WAT    EPW43876   1.528   2.594   7.744
10793WAT      O43877   1.840   2.890   7.673
10793WAT     H143878   1.924   2.901   7.654
10793WAT     H243879   1.810   2.972   7.680
10793WAT    EPW43880   1.848   2.904   7.671
10794WAT      O43881   2.220   1.830   7.482
10794WAT     H143882   2.249   1.807   7.403
10794WAT     H243883   2.294   1.838   7.529
10794WAT    EPW43884   2.235   1.828   7.477
10795WAT      O43885   2.293   1.864   6.994
10795WAT     H143886   2.321   1.943   7.019
10795WAT     H243887   2.215   1.880   6.958
10795WAT    EPW43888   2.285   1.878   6.992
10796WAT      O43889   2.697   3.061   7.141
10796WAT     H143890   2.763   3.047   7.086
10796WAT     H243891   2.733   3.053   7.220
10796WAT    EPW43892   2.712   3.058   7.144
10797WAT      O43893   2.179   2.681   6.976
10797WAT     H143894   2.160   2.736   7.041
10797WAT     H243895   2.255   2.710   6.946
10797WAT    EPW43896   2.187   2.693   6.981
10798WAT      O43897   2.529   1.471   7.081
10798WAT     H143898   2.583   1.402   7.089
10798WAT     H243899   2.535   1.510   7.158
10798WAT    EPW43900   2.538   1.466   7.094
10799WAT      O43901   1.325   1.587   7.338
10799WAT     H143902   1.313   1.501   7.341
10799WAT     H243903   1.277   1.617   7.405
10799WAT    EPW43904   1.316   1.579   7.348
10800WAT      O43905   2.255   1.708   7.212
10800WAT     H143906   2.204   1.642   7.187
10800WAT     H243907   2.260   1.759   7.141
10800WAT    EPW43908   2.248   1.706   7.198
10801WAT      O43909   2.255   1.402   7.202
10801WAT     H143910   2.210   1.362   7.139
10801WAT     H243911   2.332   1.418   7.164
10801WAT    EPW43912   2.260   1.399   7.187
10802WAT      O43913   2.938   3.038   7.541
10802WAT     H143914   2.892   3.110   7.561
10802WAT     H243915   2.876   2.981   7.516
10802WAT    EPW43916   2.922   3.040   7.540
10803WAT      O43917   2.115   1.639   7.654
10803WAT     H143918   2.122   1.696   7.588
10803WAT     H243919   2.127   1.688   7.725
10803WAT    EPW43920   2.118   1.655   7.655
10804WAT      O43921   2.637   2.623   7.495
10804WAT     H143922   2.707   2.574   7.514
10804WAT     H243923   2.571   2.566   7.499
10804WAT    EPW43924   2.638   2.607   7.498
10805WAT      O43925   1.576   1.221   7.489
10805WAT     H143926   1.629   1.290   7.488
10805WAT     H243927   1.576   1.194   7.406
10805WAT    EPW43928   1.584   1.227   7.476
10806WAT      O43929   2.620   1.250   7.526
10806WAT     H143930   2.625   1.219   7.607
10806WAT     H243931   2.652   1.186   7.477
10806WAT    EPW43932   2.625   1.236   7.531
10807WAT      O43933   1.620   1.602   7.654
10807WAT     H143934   1.648   1.559   7.583
10807WAT     H243935   1.603   1.539   7.711
10807WAT    EPW43936   1.622   1.587   7.652
10808WAT      O43937   2.889   2.372   7.076
10808WAT     H143938   2.901   2.343   7.157
10808WAT     H243939   2.970   2.374   7.043
10808WAT    EPW43940   2.903   2.368   7.083
10809WAT      O43941   1.603   2.345   7.609
10809WAT     H143942   1.688   2.337   7.592
10809WAT     H243943   1.567   2.277   7.568
10809WAT    EPW43944   1.610   2.334   7.600
10810WAT      O43945   1.480   3.018   7.733
10810WAT     H143946   1.412   2.968   7.708
10810WAT     H243947   1.520   3.036   7.657
10810WAT    EPW43948   1.476   3.013   7.718
10811WAT      O43949   2.679   2.026   7.034
10811WAT     H143950   2.657   2.099   6.992
10811WAT     H243951   2.634   2.031   7.109
10811WAT    EPW43952   2.669   2.037   7.039
10812WAT      O43953   1.840   2.346   7.432
10812WAT     H143954   1.911   2.395   7.441
10812WAT     H243955   1.862   2.289   7.370
10812WAT    EPW43956   1.853   2.345   7.424
10813WAT      O43957   3.097   1.512   6.980
10813WAT     H143958   3.031   1.455   6.982
10813WAT     H243959   3.078   1.563   6.912
10813WAT    EPW43960   3.085   1.511   6.970
10814WAT      O43961   1.255   2.510   7.764
10814WAT     H143962   1.189   2.559   7.792
10814WAT     H243963   1.323   2.565   7.767
10814WAT    EPW43964   1.255   2.525   7.769
10815WAT      O43965   1.262   2.178   7.275
10815WAT     H143966   1.243   2.095   7.290
10815WAT     H243967   1.328   2.175   7.218
10815WAT    EPW43968   1.269   2.166   7.268
10816WAT      O43969   2.898   1.467   7.207
10816WAT     H143970   2.972   1.427   7.227
10816WAT     H243971   2.924   1.539   7.165
10816WAT    EPW43972   2.913   1.472   7.204
10817WAT      O43973   2.292   2.716   7.665
10817WAT     H143974   2.240   2.779   7.636
10817WAT     H243975   2.323   2.680   7.592
10817WAT    EPW43976   2.289   2.720   7.650
10818WAT      O43977   1.279   2.595   7.232
10818WAT     H143978   1.334   2.652   7.269
10818WAT     H243979   1.256   2.543   7.299
10818WAT    EPW43980   1.284   2.596   7.247
10819WAT      O43981   2.543   1.696   7.715
10819WAT     H143982   2.577   1.711   7.793
10819WAT     H243983   2.498   1.622   7.726
10819WAT    EPW43984   2.541   1.688   7.728
10820WAT      O43985   1.262   2.440   6.995
10820WAT     H143986   1.338   2.397   7.001
10820WAT     H243987   1.264   2.493   7.064
10820WAT    EPW43988   1.273   2.441   7.006
10821WAT      O43989   1.356   2.262   7.795
10821WAT     H143990   1.399   2.249   7.721
10821WAT     H243991   1.336   2.347   7.793
10821WAT    EPW43992   1.359   2.272   7.784
10822WAT      O43993   1.991   1.618   7.160
10822WAT     H143994   1.990   1.607   7.074
10822WAT     H243995   1.973   1.703   7.170
10822WAT    EPW43996   1.988   1.629   7.149
10823WAT      O43997   1.764   2.613   7.624
10823WAT     H143998   1.777   2.698   7.642
10823WAT     H243999   1.831   2.574   7.663
10823WAT    EPW44000   1.776   2.620   7.632
10824WAT      O44001   1.626   1.901   7.124
10824WAT     H144002   1.613   1.857   7.198
10824WAT     H244003   1.568   1.867   7.069
10824WAT    EPW44004   1.615   1.890   7.127
10825WAT      O44005   1.643   2.084   7.784
10825WAT     H144006   1.565   2.079   7.745
10825WAT     H244007   1.650   2.009   7.827
10825WAT    EPW44008   1.632   2.073   7.785
10826WAT      O44009   2.494   1.626   7.321
10826WAT     H144010   2.543   1.698   7.314
10826WAT     H244011   2.415   1.652   7.295
10826WAT    EPW44012   2.490   1.641   7.316
10827WAT      O44013   2.372   2.090   7.121
10827WAT     H144014   2.371   2.162   7.072
10827WAT     H244015   2.308   2.104   7.179
10827WAT    EPW44016   2.362   2.103   7.122
10828WAT      O44017   2.869   2.477   7.519
10828WAT     H144018   2.904   2.442   7.591
10828WAT     H244019   2.868   2.411   7.462
10828WAT    EPW44020   2.874   2.462   7.521
10829WAT      O44021   2.475   2.469   7.844
10829WAT     H144022   2.395   2.491   7.871
10829WAT     H244023   2.500   2.410   7.902
10829WAT    EPW44024   2.467   2.463   7.856
10830WAT      O44025   1.864   2.950   7.288
10830WAT     H144026   1.849   2.873   7.326
10830WAT     H244027   1.933   2.935   7.237
10830WAT    EPW44028   1.872   2.936   7.286
10831WAT      O44029   1.831   1.324   7.087
10831WAT     H144030   1.841   1.314   7.173
10831WAT     H244031   1.760   1.375   7.081
10831WAT    EPW44032   1.822   1.330   7.099
10832WAT      O44033   2.093   2.902   7.129
10832WAT     H144034   2.155   2.918   7.188
10832WAT     H244035   2.097   2.971   7.075
10832WAT    EPW44036   2.103   2.914   7.130
10833WAT      O44037   1.543   2.155   7.212
10833WAT     H144038   1.575   2.077   7.189
10833WAT     H244039   1.608   2.192   7.257
10833WAT    EPW44040   1.557   2.149   7.215
10834WAT      O44041   1.243   1.321   7.308
10834WAT     H144042   1.256   1.250   7.259
10834WAT     H244043   1.206   1.289   7.381
10834WAT    EPW44044   1.239   1.306   7.312
10835WAT      O44045   2.212   2.089   7.354
10835WAT     H144046   2.218   2.154   7.412
10835WAT     H244047   2.193   2.020   7.403
10835WAT    EPW44048   2.210   2.089   7.370
10836WAT      O44049   1.662   1.541   7.005
10836WAT     H144050   1.611   1.546   6.935
10836WAT     H244051   1.740   1.565   6.976
10836WAT    EPW44052   1.666   1.545   6.990
10837WAT      O44053   2.134   2.294   7.797
10837WAT     H144054   2.050   2.275   7.805
10837WAT     H244055   2.167   2.278   7.876
10837WAT    EPW44056   2.127   2.289   7.810
10838WAT      O44057   1.810   2.967   6.886
10838WAT     H144058   1.853   2.897   6.915
10838WAT     H244059   1.830   3.029   6.943
10838WAT    EPW44060   1.819   2.966   6.898
10839WAT      O44061   1.842   1.780   7.702
10839WAT     H144062   1.927   1.761   7.712
10839WAT     H244063   1.805   1.703   7.688
10839WAT    EPW44064   1.849   1.766   7.702
10840WAT      O44065   3.104   2.939   7.135
10840WAT     H144066   3.173   2.892   7.110
10840WAT     H244067   3.050   2.879   7.169
10840WAT    EPW44068   3.106   2.923   7.136
10841WAT      O44069   1.324   1.914   7.368
10841WAT     H144070   1.373   1.885   7.434
10841WAT     H244071   1.337   1.855   7.305
10841WAT    EPW44072   1.333   1.901   7.368
10842WAT      O44073   1.777   2.058   6.916
10842WAT     H144074   1.716   2.017   6.964
10842WAT     H244075   1.738   2.069   6.839
10842WAT    EPW44076   1.762   2.053   6.912
10843WAT      O44077   2.953   2.224   7.797
10843WAT     H144078   2.925   2.264   7.869
10843WAT     H244079   3.039   2.217   7.809
10843WAT    EPW44080   2.962   2.229   7.809
10844WAT      O44081   1.922   1.904   7.187
10844WAT     H144082   1.949   1.986   7.194
10844WAT     H244083   1.836   1.911   7.178
10844WAT    EPW44084   1.914   1.917   7.187
10845WAT      O44085   1.270   1.501   7.841
10845WAT     H144086   1.275   1.535   7.761
10845WAT     H244087   1.346   1.524   7.878
10845WAT    EPW44088   1.282   1.509   7.835
10846WAT      O44089   3.066   2.787   7.849
10846WAT     H144090   3.095   2.813   7.771
10846WAT     H244091   3.136   2.796   7.901
10846WAT    EPW44092   3.081   2.792   7.846
10847WAT      O44093   2.727   2.647   7.048
10847WAT     H144094   2.760   2.567   7.051
10847WAT     H244095   2.651   2.640   7.091
10847WAT    EPW44096   2.721   2.634   7.055
10848WAT      O44097   2.775   1.831   7.614
10848WAT     H144098   2.701   1.798   7.645
10848WAT     H244099   2.775   1.913   7.642
10848WAT    EPW44100   2.764   1.838   7.622
10849WAT      O44101   2.464   2.435   6.988
10849WAT     H144102   2.533   2.383   6.971
10849WAT     H244103   2.423   2.439   6.911
10849WAT    EPW44104   2.468   2.428   6.974
10850WAT      O44105   2.111   2.931   7.590
10850WAT     H144106   2.165   2.999   7.596
10850WAT     H244107   2.076   2.939   7.511
10850WAT    EPW44108   2.113   2.943   7.579
10851WAT      O44109   2.937   1.887   7.012
10851WAT     H144110   2.975   1.955   6.972
10851WAT     H244111   2.853   1.909   7.015
10851WAT    EPW44112   2.930   1.900   7.007
10852WAT      O44113   2.088   2.232   6.921
10852WAT     H144114   2.008   2.214   6.892
10852WAT     H244115   2.085   2.317   6.940
10852WAT    EPW44116   2.076   2.242   6.919
10853WAT      O44117   2.706   1.847   7.350
10853WAT     H144118   2.727   1.827   7.432
10853WAT     H244119   2.782   1.874   7.316
10853WAT    EPW44120   2.721   1.848   7.357
10854WAT      O44121   2.809   1.455   7.497
10854WAT     H144122   2.737   1.408   7.514
10854WAT     H244123   2.792   1.489   7.419
10854WAT    EPW44124   2.796   1.453   7.488
10855WAT      O44125   2.853   2.250   7.335
10855WAT     H144126   2.901   2.177   7.330
10855WAT     H244127   2.771   2.221   7.328
10855WAT    EPW44128   2.848   2.235   7.333
10856WAT      O44129   1.599   1.651   7.266
10856WAT     H144130   1.611   1.618   7.187
10856WAT     H244131   1.518   1.626   7.286
10856WAT    EPW44132   1.589   1.643   7.258
10857WAT      O44133   2.475   2.366   7.571
10857WAT     H144134   2.482   2.400   7.651
10857WAT     H244135   2.491   2.282   7.583
10857WAT    EPW44136   2.478   2.359   7.584
10858WAT      O44137   2.227   2.294   7.527
10858WAT     H144138   2.197   2.262   7.603
10858WAT     H244139   2.296   2.341   7.551
10858WAT    EPW44140   2.233   2.296   7.542
10859WAT      O44141   2.620   2.989   7.780
10859WAT     H144142   2.575   3.054   7.818
10859WAT     H244143   2.690   2.981   7.831
10859WAT    EPW44144   2.623   2.998   7.793
10860WAT      O44145   2.930   1.961   7.279
10860WAT     H144146   2.940   1.955   7.193
10860WAT     H244147   3.004   1.928   7.311
10860WAT    EPW44148   2.942   1.955   7.271
10861WAT      O44149   2.322   2.657   7.390
10861WAT     H144150   2.301   2.741   7.374
10861WAT     H244151   2.244   2.619   7.402
10861WAT    EPW44152   2.307   2.664   7.390
10862WAT      O44153   1.459   1.813   6.920
10862WAT     H144154   1.392   1.815   6.975
10862WAT     H244155   1.469   1.728   6.901
10862WAT    EPW44156   1.451   1.801   6.925
10863WAT      O44157   2.327   1.475   7.679
10863WAT     H144158   2.257   1.526   7.673
10863WAT     H244159   2.331   1.437   7.600
10863WAT    EPW44160   2.318   1.477   7.666
10864WAT      O44161   1.858   2.684   7.031
10864WAT     H144162   1.902   2.692   7.106
10864WAT     H244163   1.778   2.662   7.057
10864WAT    EPW44164   1.853   2.682   7.046
10865WAT      O44165   2.718   2.054   7.808
10865WAT     H144166   2.784   2.108   7.824
10865WAT     H244167   2.683   2.085   7.734
10865WAT    EPW44168   2.722   2.067   7.799
10866WAT      O44169   2.749   2.861   7.388
10866WAT     H144170   2.732   2.795   7.443
10866WAT     H244171   2.820   2.834   7.346
10866WAT    EPW44172   2.757   2.847   7.390
10867WAT      O44173   1.591   2.591   7.091
10867WAT     H144174   1.567   2.560   7.169
10867WAT     H244175   1.588   2.520   7.040
10867WAT    EPW44176   1.587   2.576   7.095
10868WAT      O44177   1.873   2.415   6.965
10868WAT     H144178   1.791   2.388   6.979
10868WAT     H244179   1.870   2.500   6.984
10868WAT    EPW44180   1.860   2.424   6.970
10869WAT      O44181   2.073   1.279   6.962
10869WAT     H144182   2.081   1.304   6.879
10869WAT     H244183   1.999   1.317   6.988
10869WAT    EPW44184   2.063   1.289   6.953
10870WAT      O44185   2.395   1.921   7.653
10870WAT     H144186   2.451   1.860   7.683
10870WAT     H244187   2.353   1.947   7.725
10870WAT    EPW44188   2.397   1.916   7.668
10871WAT      O44189   1.420   1.786   7.602
10871WAT     H144190   1.383   1.816   7.675
10871WAT     H244191   1.474   1.723   7.630
10871WAT    EPW44192   1.423   1.781   7.617
10872WAT      O44193   2.592   2.104   7.309
10872WAT     H144194   2.599   2.019   7.327
10872WAT     H244195   2.510   2.113   7.282
10872WAT    EPW44196   2.581   2.093   7.308
10873WAT      O44197   1.568   2.954   7.230
10873WAT     H144198   1.553   2.969   7.146
10873WAT     H244199   1.654   2.962   7.238
10873WAT    EPW44200   1.578   2.957   7.219
10874WAT      O44201   1.984   2.193   7.203
10874WAT     H144202   1.994   2.207   7.118
10874WAT     H244203   2.066   2.187   7.233
10874WAT    EPW44204   1.998   2.194   7.195
10875WAT      O44205   2.900   3.000   6.951
10875WAT     H144206   2.964   2.986   7.009
10875WAT     H244207   2.866   2.920   6.939
10875WAT    EPW44208   2.905   2.986   6.958
10876WAT      O44209   2.508   2.626   7.183
10876WAT     H144210   2.483   2.613   7.266
10876WAT     H244211   2.476   2.557   7.141
10876WAT    EPW44212   2.499   2.614   7.189
10877WAT      O44213   1.636   2.835   7.878
10877WAT     H144214   1.628   2.754   7.846
10877WAT     H244215   1.592   2.884   7.821
10877WAT    EPW44216   1.629   2.830   7.865
10878WAT      O44217   2.196   2.447   7.126
10878WAT     H144218   2.268   2.412   7.091
10878WAT     H244219   2.193   2.527   7.092
10878WAT    EPW44220   2.207   2.454   7.116
10879WAT      O44221   2.337   1.311   5.550
10879WAT     H144222   2.313   1.360   5.482
10879WAT     H244223   2.424   1.304   5.540
10879WAT    EPW44224   2.346   1.317   5.539
10880WAT      O44225   2.318   2.003   6.017
10880WAT     H144226   2.266   2.062   6.054
10880WAT     H244227   2.358   1.966   6.086
10880WAT    EPW44228   2.316   2.006   6.033
10881WAT      O44229   1.305   2.417   5.563
10881WAT     H144230   1.261   2.429   5.637
10881WAT     H244231   1.277   2.339   5.534
10881WAT    EPW44232   1.294   2.407   5.570
10882WAT      O44233   2.933   2.747   5.314
10882WAT     H144234   3.003   2.695   5.314
10882WAT     H244235   2.874   2.702   5.267
10882WAT    EPW44236   2.934   2.733   5.307
10883WAT      O44237   1.279   1.796   5.214
10883WAT     H144238   1.202   1.812   5.178
10883WAT     H244239   1.283   1.709   5.216
10883WAT    EPW44240   1.269   1.785   5.209
10884WAT      O44241   1.593   2.322   5.081
10884WAT     H144242   1.554   2.285   5.012
10884WAT     H244243   1.585   2.262   5.144
10884WAT    EPW44244   1.586   2.308   5.080
10885WAT      O44245   2.585   2.109   5.685
10885WAT     H144246   2.593   2.110   5.598
10885WAT     H244247   2.527   2.046   5.700
10885WAT    EPW44248   2.578   2.100   5.674
10886WAT      O44249   1.556   2.486   5.471
10886WAT     H144250   1.617   2.469   5.531
10886WAT     H244251   1.481   2.472   5.513
10886WAT    EPW44252   1.554   2.482   5.486
10887WAT      O44253   1.984   1.420   5.466
10887WAT     H144254   1.977   1.488   5.411
10887WAT     H244255   2.058   1.381   5.441
10887WAT    EPW44256   1.994   1.424   5.454
10888WAT      O44257   1.445   2.795   5.078
10888WAT     H144258   1.492   2.804   5.005
10888WAT     H244259   1.491   2.738   5.125
10888WAT    EPW44260   1.459   2.788   5.075
10889WAT      O44261   1.299   2.690   6.188
10889WAT     H144262   1.312   2.662   6.270
10889WAT     H244263   1.238   2.636   6.157
10889WAT    EPW44264   1.292   2.678   6.196
10890WAT      O44265   1.957   2.443   6.695
10890WAT     H144266   1.933   2.442   6.779
10890WAT     H244267   1.882   2.428   6.653
10890WAT    EPW44268   1.942   2.440   6.701
10891WAT      O44269   1.444   2.142   5.609
10891WAT     H144270   1.398   2.103   5.546
10891WAT     H244271   1.514   2.091   5.618
10891WAT    EPW44272   1.447   2.129   5.601
10892WAT      O44273   1.895   1.703   6.143
10892WAT     H144274   1.962   1.705   6.088
10892WAT     H244275   1.890   1.620   6.168
10892WAT    EPW44276   1.904   1.691   6.139
10893WAT      O44277   1.955   2.762   6.421
10893WAT     H144278   1.969   2.838   6.381
10893WAT     H244279   2.034   2.725   6.424
10893WAT    EPW44280   1.968   2.768   6.416
10894WAT      O44281   1.644   1.952   5.611
10894WAT     H144282   1.726   1.934   5.635
10894WAT     H244283   1.596   1.891   5.650
10894WAT    EPW44284   1.649   1.941   5.620
10895WAT      O44285   2.064   2.550   5.872
10895WAT     H144286   2.099   2.471   5.875
10895WAT     H244287   2.131   2.601   5.846
10895WAT    EPW44288   2.079   2.546   5.869
10896WAT      O44289   2.070   2.495   5.493
10896WAT     H144290   2.103   2.431   5.542
10896WAT     H244291   2.094   2.474   5.412
10896WAT    EPW44292   2.078   2.483   5.488
10897WAT      O44293   2.267   1.908   6.627
10897WAT     H144294   2.182   1.899   6.609
10897WAT     H244295   2.270   1.983   6.672
10897WAT    EPW44296   2.255   1.918   6.631
10898WAT      O44297   1.704   1.462   5.537
10898WAT     H144298   1.674   1.512   5.472
10898WAT     H244299   1.790   1.470   5.532
10898WAT    EPW44300   1.712   1.470   5.527
10899WAT      O44301   2.723   1.204   6.538
10899WAT     H144302   2.707   1.281   6.500
10899WAT     H244303   2.645   1.182   6.573
10899WAT    EPW44304   2.709   1.213   6.538
10900WAT      O44305   2.001   1.376   5.760
10900WAT     H144306   2.009   1.462   5.773
10900WAT     H244307   1.998   1.368   5.673
10900WAT    EPW44308   2.002   1.388   5.749
10901WAT      O44309   2.469   1.669   4.990
10901WAT     H144310   2.424   1.737   5.020
10901WAT     H244311   2.480   1.618   5.060
10901WAT    EPW44312   2.464   1.671   5.005
10902WAT      O44313   1.289   1.918   5.910
10902WAT     H144314   1.264   2.002   5.902
10902WAT     H244315   1.223   1.880   5.952
10902WAT    EPW44316   1.276   1.925   5.915
10903WAT      O44317   1.280   2.889   5.700
10903WAT     H144318   1.221   2.945   5.669
10903WAT     H244319   1.323   2.863   5.629
10903WAT    EPW44320   1.278   2.894   5.685
10904WAT      O44321   1.864   2.674   5.448
10904WAT     H144322   1.806   2.646   5.507
10904WAT     H244323   1.927   2.613   5.450
10904WAT    EPW44324   1.865   2.661   5.457
10905WAT      O44325   2.479   2.903   5.200
10905WAT     H144326   2.551   2.950   5.210
10905WAT     H244327   2.502   2.823   5.228
10905WAT    EPW44328   2.493   2.898   5.206
10906WAT      O44329   2.295   2.942   5.399
10906WAT     H144330   2.317   2.995   5.465
10906WAT     H244331   2.372   2.924   5.361
10906WAT    EPW44332   2.310   2.947   5.403
10907WAT      O44333   1.592   1.400   5.959
10907WAT     H144334   1.540   1.337   5.928
10907WAT     H244335   1.651   1.356   6.006
10907WAT    EPW44336   1.593   1.384   5.961
10908WAT      O44337   1.923   1.613   6.889
10908WAT     H144338   1.935   1.568   6.815
10908WAT     H244339   1.952   1.693   6.868
10908WAT    EPW44340   1.929   1.619   6.875
10909WAT      O44341   1.435   2.756   5.493
10909WAT     H144342   1.500   2.699   5.494
10909WAT     H244343   1.474   2.831   5.471
10909WAT    EPW44344   1.450   2.759   5.490
10910WAT      O44345   3.008   1.666   5.619
10910WAT     H144346   2.974   1.734   5.662
10910WAT     H244347   2.945   1.606   5.621
10910WAT    EPW44348   2.994   1.667   5.626
10911WAT      O44349   2.539   2.943   6.230
10911WAT     H144350   2.614   2.988   6.229
10911WAT     H244351   2.527   2.921   6.146
10911WAT    EPW44352   2.549   2.946   6.217
10912WAT      O44353   1.496   1.573   6.787
10912WAT     H144354   1.418   1.534   6.780
10912WAT     H244355   1.545   1.532   6.728
10912WAT    EPW44356   1.492   1.561   6.777
10913WAT      O44357   1.517   2.605   5.843
10913WAT     H144358   1.559   2.570   5.776
10913WAT     H244359   1.549   2.563   5.912
10913WAT    EPW44360   1.528   2.594   5.843
10914WAT      O44361   1.840   2.890   5.773
10914WAT     H144362   1.924   2.901   5.753
10914WAT     H244363   1.810   2.972   5.779
10914WAT    EPW44364   1.848   2.904   5.771
10915WAT      O44365   2.161   1.337   6.704
10915WAT     H144366   2.179   1.257   6.676
10915WAT     H244367   2.147   1.382   6.630
10915WAT    EPW44368   2.162   1.332   6.689
10916WAT      O44369   2.220   1.830   5.581
10916WAT     H144370   2.249   1.807   5.502
10916WAT     H244371   2.294   1.838   5.628
10916WAT    EPW44372   2.235   1.828   5.577
10917WAT      O44373   2.293   1.864   5.093
10917WAT     H144374   2.321   1.943   5.118
10917WAT     H244375   2.215   1.880   5.057
10917WAT    EPW44376   2.285   1.878   5.092
10918WAT      O44377   2.697   3.061   5.240
10918WAT     H144378   2.763   3.047   5.186
10918WAT     H244379   2.733   3.053   5.319
10918WAT    EPW44380   2.712   3.058   5.244
10919WAT      O44381   1.740   3.012   6.347
10919WAT     H144382   1.769   3.006   6.429
10919WAT     H244383   1.677   2.952   6.342
10919WAT    EPW44384   1.735   3.002   6.358
10920WAT      O44385   2.976   1.498   6.156
10920WAT     H144386   3.051   1.505   6.113
10920WAT     H244387   2.982   1.421   6.196
10920WAT    EPW44388   2.988   1.488   6.156
10921WAT      O44389   1.231   1.628   6.546
10921WAT     H144390   1.231   1.687   6.610
10921WAT     H244391   1.290   1.659   6.490
10921WAT    EPW44392   1.240   1.641   6.547
10922WAT      O44393   2.465   2.661   6.600
10922WAT     H144394   2.461   2.700   6.678
10922WAT     H244395   2.550   2.657   6.583
10922WAT    EPW44396   2.477   2.666   6.609
10923WAT      O44397   2.179   2.681   5.075
10923WAT     H144398   2.160   2.736   5.141
10923WAT     H244399   2.255   2.710   5.045
10923WAT    EPW44400   2.187   2.693   5.080
10924WAT      O44401   2.529   1.471   5.180
10924WAT     H144402   2.583   1.402   5.188
10924WAT     H244403   2.535   1.510   5.258
10924WAT    EPW44404   2.538   1.466   5.193
10925WAT      O44405   1.325   1.587   5.437
10925WAT     H144406   1.313   1.501   5.440
10925WAT     H244407   1.277   1.617   5.504
10925WAT    EPW44408   1.316   1.579   5.448
10926WAT      O44409   1.539   2.828   6.259
10926WAT     H144410   1.469   2.778   6.271
10926WAT     H244411   1.565   2.808   6.178
10926WAT    EPW44412   1.532   2.818   6.249
10927WAT      O44413   2.255   1.708   5.312
10927WAT     H144414   2.204   1.642   5.286
10927WAT     H244415   2.260   1.759   5.241
10927WAT    EPW44416   2.248   1.706   5.298
10928WAT      O44417   2.310   2.978   6.350
10928WAT     H144418   2.387   2.970   6.309
10928WAT     H244419   2.252   2.966   6.286
10928WAT    EPW44420   2.313   2.975   6.334
10929WAT      O44421   2.255   1.402   5.301
10929WAT     H144422   2.210   1.362   5.238
10929WAT     H244423   2.332   1.418   5.263
10929WAT    EPW44424   2.260   1.399   5.286
10930WAT      O44425   2.938   3.038   5.640
10930WAT     H144426   2.892   3.110   5.660
10930WAT     H244427   2.876   2.981   5.616
10930WAT    EPW44428   2.922   3.040   5.639
10931WAT      O44429   2.115   1.639   5.753
10931WAT     H144430   2.122   1.696   5.687
10931WAT     H244431   2.127   1.688   5.824
10931WAT    EPW44432   2.118   1.655   5.754
10932WAT      O44433   2.637   2.623   5.594
10932WAT     H144434   2.707   2.574   5.613
10932WAT     H244435   2.571   2.566   5.599
10932WAT    EPW44436   2.638   2.607   5.598
10933WAT      O44437   1.675   2.714   6.515
10933WAT     H144438   1.759   2.720   6.493
10933WAT     H244439   1.671   2.753   6.593
10933WAT    EPW44440   1.687   2.720   6.524
10934WAT      O44441   1.576   1.221   5.588
10934WAT     H144442   1.629   1.290   5.587
10934WAT     H244443   1.576   1.194   5.505
10934WAT    EPW44444   1.584   1.227   5.575
10935WAT      O44445   1.871   2.265   5.990
10935WAT     H144446   1.888   2.244   6.073
10935WAT     H244447   1.806   2.211   5.969
10935WAT    EPW44448   1.864   2.254   5.999
10936WAT      O44449   2.494   1.656   6.342
10936WAT     H144450   2.485   1.688   6.422
10936WAT     H244451   2.435   1.592   6.338
10936WAT    EPW44452   2.484   1.651   6.353
10937WAT      O44453   1.946   2.258   6.249
10937WAT     H144454   1.952   2.343   6.270
10937WAT     H244455   1.918   2.221   6.323
10937WAT    EPW44456   1.943   2.265   6.263
10938WAT      O44457   2.564   2.328   6.162
10938WAT     H144458   2.513   2.287   6.219
10938WAT     H244459   2.551   2.412   6.180
10938WAT    EPW44460   2.555   2.334   6.173
10939WAT      O44461   2.620   1.250   5.625
10939WAT     H144462   2.625   1.219   5.707
10939WAT     H244463   2.652   1.186   5.576
10939WAT    EPW44464   2.625   1.236   5.630
10940WAT      O44465   1.228   2.696   6.870
10940WAT     H144466   1.304   2.730   6.896
10940WAT     H244467   1.246   2.610   6.865
10940WAT    EPW44468   1.242   2.688   6.873
10941WAT      O44469   2.866   1.674   6.456
10941WAT     H144470   2.943   1.652   6.490
10941WAT     H244471   2.819   1.696   6.526
10941WAT    EPW44472   2.870   1.674   6.472
10942WAT      O44473   1.620   1.602   5.753
10942WAT     H144474   1.648   1.559   5.682
10942WAT     H244475   1.603   1.539   5.810
10942WAT    EPW44476   1.622   1.587   5.751
10943WAT      O44477   2.889   2.372   5.175
10943WAT     H144478   2.901   2.343   5.257
10943WAT     H244479   2.970   2.374   5.142
10943WAT    EPW44480   2.903   2.368   5.182
10944WAT      O44481   1.603   2.345   5.708
10944WAT     H144482   1.688   2.337   5.691
10944WAT     H244483   1.567   2.277   5.667
10944WAT    EPW44484   1.610   2.334   5.699
10945WAT      O44485   1.480   3.018   5.832
10945WAT     H144486   1.412   2.968   5.807
10945WAT     H244487   1.520   3.036   5.757
10945WAT    EPW44488   1.476   3.013   5.817
10946WAT      O44489   1.435   1.713   6.061
10946WAT     H144490   1.519   1.735   6.057
10946WAT     H244491   1.396   1.770   6.008
10946WAT    EPW44492   1.441   1.724   6.053
10947WAT      O44493   3.113   2.823   6.600
10947WAT     H144494   3.044   2.854   6.556
10947WAT     H244495   3.076   2.777   6.665
10947WAT    EPW44496   3.097   2.821   6.603
10948WAT      O44497   2.679   2.026   5.134
10948WAT     H144498   2.657   2.099   5.091
10948WAT     H244499   2.634   2.031   5.208
10948WAT    EPW44500   2.669   2.037   5.138
10949WAT      O44501   1.840   2.346   5.532
10949WAT     H144502   1.911   2.395   5.541
10949WAT     H244503   1.862   2.289   5.469
10949WAT    EPW44504   1.853   2.345   5.524
10950WAT      O44505   3.097   1.512   5.079
10950WAT     H144506   3.031   1.455   5.081
10950WAT     H244507   3.078   1.563   5.011
10950WAT    EPW44508   3.085   1.511   5.069
10951WAT      O44509   1.255   2.510   5.864
10951WAT     H144510   1.189   2.559   5.891
10951WAT     H244511   1.323   2.565   5.867
10951WAT    EPW44512   1.255   2.525   5.868
10952WAT      O44513   2.020   1.881   6.873
10952WAT     H144514   1.972   1.939   6.917
10952WAT     H244515   2.017   1.911   6.791
10952WAT    EPW44516   2.012   1.894   6.868
10953WAT      O44517   3.130   1.949   6.334
10953WAT     H144518   3.151   1.869   6.307
10953WAT     H244519   3.045   1.955   6.316
10953WAT    EPW44520   3.120   1.939   6.328
10954WAT      O44521   1.262   2.178   5.374
10954WAT     H144522   1.243   2.095   5.389
10954WAT     H244523   1.328   2.175   5.317
10954WAT    EPW44524   1.269   2.166   5.368
10955WAT      O44525   2.898   1.467   5.307
10955WAT     H144526   2.972   1.427   5.327
10955WAT     H244527   2.924   1.539   5.264
10955WAT    EPW44528   2.913   1.472   5.303
10956WAT      O44529   2.292   2.716   5.764
10956WAT     H144530   2.240   2.779   5.735
10956WAT     H244531   2.323   2.680   5.691
10956WAT    EPW44532   2.289   2.720   5.749
10957WAT      O44533   1.279   2.595   5.331
10957WAT     H144534   1.334   2.652   5.368
10957WAT     H244535   1.256   2.543   5.398
10957WAT    EPW44536   1.284   2.596   5.347
10958WAT      O44537   1.699   2.495   6.040
10958WAT     H144538   1.746   2.524   6.108
10958WAT     H244539   1.757   2.447   5.995
10958WAT    EPW44540   1.715   2.492   6.044
10959WAT      O44541   2.543   1.696   5.814
10959WAT     H144542   2.577   1.711   5.893
10959WAT     H244543   2.498   1.622   5.825
10959WAT    EPW44544   2.541   1.688   5.827
10960WAT      O44545   1.262   2.440   5.094
10960WAT     H144546   1.338   2.397   5.100
10960WAT     H244547   1.264   2.493   5.163
10960WAT    EPW44548   1.273   2.441   5.105
10961WAT      O44549   1.356   2.262   5.895
10961WAT     H144550   1.399   2.249   5.820
10961WAT     H244551   1.336   2.347   5.892
10961WAT    EPW44552   1.359   2.272   5.883
10962WAT      O44553   1.991   1.618   5.260
10962WAT     H144554   1.990   1.607   5.173
10962WAT     H244555   1.973   1.703   5.269
10962WAT    EPW44556   1.988   1.629   5.248
10963WAT      O44557   2.896   2.861   6.409
10963WAT     H144558   2.829   2.912   6.431
10963WAT     H244559   2.902   2.871   6.323
10963WAT    EPW44560   2.887   2.870   6.400
10964WAT      O44561   1.764   2.613   5.723
10964WAT     H144562   1.777   2.698   5.742
10964WAT     H244563   1.831   2.574   5.763
10964WAT    EPW44564   1.776   2.620   5.732
10965WAT      O44565   1.577   1.962   6.709
10965WAT     H144566   1.524   1.911   6.756
10965WAT     H244567   1.579   1.923   6.631
10965WAT    EPW44568   1.570   1.948   6.705
10966WAT      O44569   1.626   1.901   5.223
10966WAT     H144570   1.613   1.857   5.297
10966WAT     H244571   1.568   1.867   5.168
10966WAT    EPW44572   1.615   1.890   5.226
10967WAT      O44573   1.643   2.084   5.883
10967WAT     H144574   1.565   2.079   5.845
10967WAT     H244575   1.650   2.009   5.927
10967WAT    EPW44576   1.632   2.073   5.884
10968WAT      O44577   1.686   2.058   6.230
10968WAT     H144578   1.688   1.991   6.175
10968WAT     H244579   1.621   2.108   6.199
10968WAT    EPW44580   1.677   2.055   6.217
10969WAT      O44581   2.675   1.829   6.069
10969WAT     H144582   2.609   1.862   6.116
10969WAT     H244583   2.694   1.893   6.013
10969WAT    EPW44584   2.668   1.844   6.068
10970WAT      O44585   2.096   2.936   6.169
10970WAT     H144586   2.068   2.872   6.117
10970WAT     H244587   2.075   3.008   6.125
10970WAT    EPW44588   2.089   2.937   6.155
10971WAT      O44589   2.340   1.420   6.412
10971WAT     H144590   2.355   1.338   6.388
10971WAT     H244591   2.378   1.426   6.491
10971WAT    EPW44592   2.347   1.409   6.420
10972WAT      O44593   2.494   1.626   5.421
10972WAT     H144594   2.543   1.698   5.413
10972WAT     H244595   2.415   1.652   5.394
10972WAT    EPW44596   2.490   1.641   5.416
10973WAT      O44597   1.466   2.194   6.786
10973WAT     H144598   1.462   2.244   6.714
10973WAT     H244599   1.499   2.118   6.756
10973WAT    EPW44600   1.470   2.190   6.771
10974WAT      O44601   2.626   2.414   6.612
10974WAT     H144602   2.674   2.486   6.621
10974WAT     H244603   2.665   2.371   6.546
10974WAT    EPW44604   2.639   2.418   6.603
10975WAT      O44605   2.055   2.699   6.729
10975WAT     H144606   2.091   2.681   6.807
10975WAT     H244607   2.012   2.626   6.709
10975WAT    EPW44608   2.054   2.685   6.738
10976WAT      O44609   2.153   1.773   5.993
10976WAT     H144610   2.201   1.843   6.014
10976WAT     H244611   2.190   1.709   6.038
10976WAT    EPW44612   2.165   1.774   6.003
10977WAT      O44613   2.372   2.090   5.220
10977WAT     H144614   2.371   2.162   5.171
10977WAT     H244615   2.308   2.104   5.278
10977WAT    EPW44616   2.362   2.103   5.222
10978WAT      O44617   2.869   2.477   5.619
10978WAT     H144618   2.904   2.442   5.690
10978WAT     H244619   2.868   2.411   5.562
10978WAT    EPW44620   2.874   2.462   5.621
10979WAT      O44621   2.473   2.784   6.003
10979WAT     H144622   2.413   2.754   5.947
10979WAT     H244623   2.528   2.829   5.952
10979WAT    EPW44624   2.472   2.786   5.987
10980WAT      O44625   2.475   2.469   5.943
10980WAT     H144626   2.395   2.491   5.970
10980WAT     H244627   2.500   2.410   6.001
10980WAT    EPW44628   2.467   2.463   5.956
10981WAT      O44629   1.864   2.950   5.388
10981WAT     H144630   1.849   2.873   5.425
10981WAT     H244631   1.933   2.935   5.336
10981WAT    EPW44632   1.872   2.936   5.386
10982WAT      O44633   1.831   1.324   5.187
10982WAT     H144634   1.841   1.314   5.273
10982WAT     H244635   1.760   1.375   5.180
10982WAT    EPW44636   1.822   1.330   5.198
10983WAT      O44637   2.093   2.902   5.228
10983WAT     H144638   2.155   2.918   5.287
10983WAT     H244639   2.097   2.971   5.175
10983WAT    EPW44640   2.103   2.914   5.229
10984WAT      O44641   2.801   2.269   6.428
10984WAT     H144642   2.806   2.281   6.341
10984WAT     H244643   2.876   2.301   6.458
10984WAT    EPW44644   2.812   2.275   6.419
10985WAT      O44645   2.420   2.804   6.855
10985WAT     H144646   2.436   2.832   6.936
10985WAT     H244647   2.446   2.870   6.805
10985WAT    EPW44648   2.426   2.818   6.860
10986WAT      O44649   2.904   1.299   6.726
10986WAT     H144650   2.840   1.259   6.682
10986WAT     H244651   2.906   1.255   6.802
10986WAT    EPW44652   2.895   1.286   6.731
10987WAT      O44653   1.543   2.155   5.311
10987WAT     H144654   1.575   2.077   5.289
10987WAT     H244655   1.608   2.192   5.356
10987WAT    EPW44656   1.557   2.149   5.314
10988WAT      O44657   2.374   2.249   6.388
10988WAT     H144658   2.358   2.310   6.448
10988WAT     H244659   2.427   2.194   6.428
10988WAT    EPW44660   2.379   2.250   6.402
10989WAT      O44661   1.243   1.321   5.408
10989WAT     H144662   1.256   1.250   5.358
10989WAT     H244663   1.206   1.289   5.480
10989WAT    EPW44664   1.239   1.306   5.411
10990WAT      O44665   2.212   2.089   5.453
10990WAT     H144666   2.218   2.154   5.511
10990WAT     H244667   2.193   2.020   5.502
10990WAT    EPW44668   2.210   2.089   5.469
10991WAT      O44669   2.735   2.522   6.040
10991WAT     H144670   2.687   2.552   5.974
10991WAT     H244671   2.699   2.445   6.058
10991WAT    EPW44672   2.722   2.515   6.033
10992WAT      O44673   1.662   1.541   5.105
10992WAT     H144674   1.611   1.546   5.034
10992WAT     H244675   1.740   1.565   5.075
10992WAT    EPW44676   1.666   1.545   5.090
10993WAT      O44677   2.134   2.294   5.896
10993WAT     H144678   2.050   2.275   5.905
10993WAT     H244679   2.167   2.278   5.976
10993WAT    EPW44680   2.127   2.289   5.909
10994WAT      O44681   1.810   2.967   4.985
10994WAT     H144682   1.853   2.897   5.014
10994WAT     H244683   1.830   3.029   5.042
10994WAT    EPW44684   1.819   2.966   4.998
10995WAT      O44685   1.519   2.263   6.128
10995WAT     H144686   1.591   2.312   6.124
10995WAT     H244687   1.492   2.260   6.045
10995WAT    EPW44688   1.526   2.270   6.115
10996WAT      O44689   1.842   1.780   5.802
10996WAT     H144690   1.927   1.761   5.811
10996WAT     H244691   1.805   1.703   5.788
10996WAT    EPW44692   1.849   1.766   5.801
10997WAT      O44693   3.104   2.939   5.234
10997WAT     H144694   3.173   2.892   5.209
10997WAT     H244695   3.050   2.879   5.268
10997WAT    EPW44696   3.106   2.923   5.236
10998WAT      O44697   1.324   1.914   5.467
10998WAT     H144698   1.373   1.885   5.533
10998WAT     H244699   1.337   1.855   5.404
10998WAT    EPW44700   1.333   1.901   5.468
10999WAT      O44701   2.828   2.216   6.152
10999WAT     H144702   2.827   2.139   6.192
10999WAT     H244703   2.744   2.240   6.151
10999WAT    EPW44704   2.815   2.208   6.158
11000WAT      O44705   1.777   2.058   5.016
11000WAT     H144706   1.716   2.017   5.063
11000WAT     H244707   1.738   2.069   4.938
11000WAT    EPW44708   1.762   2.053   5.011
11001WAT      O44709   1.459   2.369   6.556
11001WAT     H144710   1.417   2.317   6.500
11001WAT     H244711   1.423   2.447   6.542
11001WAT    EPW44712   1.447   2.373   6.545
11002WAT      O44713   2.953   2.224   5.896
11002WAT     H144714   2.925   2.264   5.968
11002WAT     H244715   3.039   2.217   5.909
11002WAT    EPW44716   2.962   2.229   5.908
11003WAT      O44717   1.922   1.904   5.287
11003WAT     H144718   1.949   1.986   5.293
11003WAT     H244719   1.836   1.911   5.277
11003WAT    EPW44720   1.914   1.917   5.286
11004WAT      O44721   2.720   1.616   6.750
11004WAT     H144722   2.667   1.662   6.802
11004WAT     H244723   2.683   1.536   6.749
11004WAT    EPW44724   2.706   1.611   6.757
11005WAT      O44725   1.270   1.501   5.940
11005WAT     H144726   1.275   1.535   5.860
11005WAT     H244727   1.346   1.524   5.977
11005WAT    EPW44728   1.282   1.509   5.934
11006WAT      O44729   3.066   2.787   5.949
11006WAT     H144730   3.095   2.813   5.871
11006WAT     H244731   3.136   2.796   6.001
11006WAT    EPW44732   3.081   2.792   5.945
11007WAT      O44733   2.569   1.973   6.757
11007WAT     H144734   2.576   1.983   6.844
11007WAT     H244735   2.505   2.029   6.735
11007WAT    EPW44736   2.560   1.983   6.767
11008WAT      O44737   2.796   2.005   6.594
11008WAT     H144738   2.827   2.083   6.614
11008WAT     H244739   2.759   1.978   6.668
11008WAT    EPW44740   2.795   2.012   6.608
11009WAT      O44741   2.727   2.647   5.147
11009WAT     H144742   2.760   2.567   5.150
11009WAT     H244743   2.651   2.640   5.190
11009WAT    EPW44744   2.721   2.634   5.154
11010WAT      O44745   2.775   1.831   5.713
11010WAT     H144746   2.701   1.798   5.745
11010WAT     H244747   2.775   1.913   5.741
11010WAT    EPW44748   2.764   1.838   5.722
11011WAT      O44749   3.065   2.059   6.867
11011WAT     H144750   3.060   2.025   6.787
11011WAT     H244751   3.139   2.106   6.865
11011WAT    EPW44752   3.075   2.061   6.855
11012WAT      O44753   3.019   2.427   6.488
11012WAT     H144754   3.082   2.372   6.462
11012WAT     H244755   3.013   2.483   6.422
11012WAT    EPW44756   3.028   2.427   6.474
11013WAT      O44757   2.464   2.435   5.087
11013WAT     H144758   2.533   2.383   5.070
11013WAT     H244759   2.423   2.439   5.011
11013WAT    EPW44760   2.468   2.428   5.073
11014WAT      O44761   1.933   2.550   6.218
11014WAT     H144762   1.903   2.609   6.274
11014WAT     H244763   1.938   2.594   6.143
11014WAT    EPW44764   1.929   2.565   6.215
11015WAT      O44765   1.730   2.445   6.557
11015WAT     H144766   1.650   2.416   6.574
11015WAT     H244767   1.722   2.531   6.558
11015WAT    EPW44768   1.717   2.453   6.560
11016WAT      O44769   2.666   1.464   6.459
11016WAT     H144770   2.741   1.509   6.453
11016WAT     H244771   2.610   1.511   6.412
11016WAT    EPW44772   2.669   1.477   6.451
11017WAT      O44773   2.184   2.192   6.167
11017WAT     H144774   2.232   2.229   6.230
11017WAT     H244775   2.102   2.205   6.193
11017WAT    EPW44776   2.179   2.199   6.180
11018WAT      O44777   1.855   1.752   6.441
11018WAT     H144778   1.871   1.678   6.484
11018WAT     H244779   1.851   1.727   6.357
11018WAT    EPW44780   1.857   1.738   6.435
11019WAT      O44781   2.111   2.931   5.690
11019WAT     H144782   2.165   2.999   5.695
11019WAT     H244783   2.076   2.939   5.610
11019WAT    EPW44784   2.113   2.943   5.679
11020WAT      O44785   2.795   1.262   6.226
11020WAT     H144786   2.767   1.344   6.222
11020WAT     H244787   2.866   1.267   6.276
11020WAT    EPW44788   2.801   1.275   6.233
11021WAT      O44789   2.030   1.333   6.429
11021WAT     H144790   2.101   1.365   6.389
11021WAT     H244791   2.054   1.252   6.452
11021WAT    EPW44792   2.044   1.326   6.426
11022WAT      O44793   1.929   2.754   6.028
11022WAT     H144794   1.866   2.812   6.010
11022WAT     H244795   1.954   2.725   5.950
11022WAT    EPW44796   1.923   2.758   6.014
11023WAT      O44797   2.360   2.417   6.727
11023WAT     H144798   2.435   2.446   6.695
11023WAT     H244799   2.305   2.423   6.660
11023WAT    EPW44800   2.363   2.422   6.712
11024WAT      O44801   2.751   2.672   6.578
11024WAT     H144802   2.785   2.699   6.653
11024WAT     H244803   2.780   2.731   6.520
11024WAT    EPW44804   2.760   2.685   6.580
11025WAT      O44805   2.937   1.887   5.112
11025WAT     H144806   2.975   1.955   5.072
11025WAT     H244807   2.853   1.909   5.115
11025WAT    EPW44808   2.930   1.900   5.106
11026WAT      O44809   2.088   2.232   5.020
11026WAT     H144810   2.008   2.214   4.991
11026WAT     H244811   2.085   2.317   5.039
11026WAT    EPW44812   2.076   2.242   5.019
11027WAT      O44813   1.681   1.838   6.035
11027WAT     H144814   1.725   1.828   5.960
11027WAT     H244815   1.736   1.807   6.095
11027WAT    EPW44816   1.696   1.832   6.033
11028WAT      O44817   2.483   1.749   6.594
11028WAT     H144818   2.418   1.796   6.629
11028WAT     H244819   2.539   1.740   6.660
11028WAT    EPW44820   2.482   1.754   6.609
11029WAT      O44821   2.452   1.902   6.224
11029WAT     H144822   2.482   1.944   6.294
11029WAT     H244823   2.455   1.818   6.247
11029WAT    EPW44824   2.457   1.896   6.238
11030WAT      O44825   2.194   2.919   6.616
11030WAT     H144826   2.242   2.859   6.575
11030WAT     H244827   2.159   2.875   6.683
11030WAT    EPW44828   2.196   2.904   6.620
11031WAT      O44829   2.706   1.847   5.449
11031WAT     H144830   2.727   1.827   5.532
11031WAT     H244831   2.782   1.874   5.415
11031WAT    EPW44832   2.721   1.848   5.456
11032WAT      O44833   2.036   1.337   6.040
11032WAT     H144834   1.953   1.322   6.063
11032WAT     H244835   2.032   1.340   5.953
11032WAT    EPW44836   2.023   1.335   6.030
11033WAT      O44837   2.809   1.455   5.597
11033WAT     H144838   2.737   1.408   5.614
11033WAT     H244839   2.792   1.489   5.518
11033WAT    EPW44840   2.796   1.453   5.587
11034WAT      O44841   2.853   2.250   5.435
11034WAT     H144842   2.901   2.177   5.430
11034WAT     H244843   2.771   2.221   5.427
11034WAT    EPW44844   2.848   2.235   5.433
11035WAT      O44845   2.200   2.441   6.518
11035WAT     H144846   2.121   2.434   6.554
11035WAT     H244847   2.207   2.526   6.499
11035WAT    EPW44848   2.189   2.452   6.521
11036WAT      O44849   1.292   1.377   6.643
11036WAT     H144850   1.278   1.456   6.610
11036WAT     H244851   1.214   1.352   6.672
11036WAT    EPW44852   1.279   1.385   6.643
11037WAT      O44853   1.783   3.062   6.050
11037WAT     H144854   1.784   3.067   6.137
11037WAT     H244855   1.741   2.987   6.035
11037WAT    EPW44856   1.777   3.051   6.061
11038WAT      O44857   1.599   1.651   5.366
11038WAT     H144858   1.611   1.618   5.286
11038WAT     H244859   1.518   1.626   5.386
11038WAT    EPW44860   1.589   1.643   5.357
11039WAT      O44861   2.475   2.366   5.670
11039WAT     H144862   2.482   2.400   5.750
11039WAT     H244863   2.491   2.282   5.682
11039WAT    EPW44864   2.478   2.359   5.684
11040WAT      O44865   2.227   2.294   5.627
11040WAT     H144866   2.197   2.262   5.702
11040WAT     H244867   2.296   2.341   5.650
11040WAT    EPW44868   2.233   2.296   5.641
11041WAT      O44869   2.249   2.706   6.429
11041WAT     H144870   2.318   2.694   6.482
11041WAT     H244871   2.262   2.785   6.395
11041WAT    EPW44872   2.261   2.716   6.432
11042WAT      O44873   3.067   1.966   6.610
11042WAT     H144874   2.981   1.954   6.623
11042WAT     H244875   3.082   1.927   6.534
11042WAT    EPW44876   3.056   1.959   6.601
11043WAT      O44877   2.518   2.033   6.468
11043WAT     H144878   2.492   1.961   6.510
11043WAT     H244879   2.600   2.045   6.495
11043WAT    EPW44880   2.526   2.024   6.478
11044WAT      O44881   1.459   3.011   6.594
11044WAT     H144882   1.394   2.954   6.604
11044WAT     H244883   1.422   3.089   6.609
11044WAT    EPW44884   1.444   3.014   6.598
11045WAT      O44885   2.311   2.152   6.787
11045WAT     H144886   2.344   2.221   6.743
11045WAT     H244887   2.241   2.184   6.827
11045WAT    EPW44888   2.306   2.167   6.786
11046WAT      O44889   2.620   2.989   5.880
11046WAT     H144890   2.575   3.054   5.917
11046WAT     H244891   2.690   2.981   5.930
11046WAT    EPW44892   2.623   2.998   5.893
11047WAT      O44893   2.290   2.498   6.173
11047WAT     H144894   2.220   2.539   6.207
11047WAT     H244895   2.357   2.542   6.206
11047WAT    EPW44896   2.289   2.511   6.183
11048WAT      O44897   2.827   2.758   6.831
11048WAT     H144898   2.905   2.719   6.839
11048WAT     H244899   2.781   2.724   6.896
11048WAT    EPW44900   2.832   2.747   6.841
11049WAT      O44901   1.597   1.852   6.407
11049WAT     H144902   1.634   1.914   6.359
11049WAT     H244903   1.664   1.805   6.436
11049WAT    EPW44904   1.612   1.854   6.404
11050WAT      O44905   1.374   1.697   6.335
11050WAT     H144906   1.382   1.680   6.249
11050WAT     H244907   1.449   1.738   6.354
11050WAT    EPW44908   1.386   1.700   6.325
11051WAT      O44909   2.930   1.961   5.379
11051WAT     H144910   2.940   1.955   5.292
11051WAT     H244911   3.004   1.928   5.411
11051WAT    EPW44912   2.942   1.955   5.371
11052WAT      O44913   1.629   1.438   6.576
11052WAT     H144914   1.621   1.354   6.596
11052WAT     H244915   1.598   1.442   6.495
11052WAT    EPW44916   1.624   1.426   6.567
11053WAT      O44917   2.322   2.657   5.489
11053WAT     H144918   2.301   2.741   5.474
11053WAT     H244919   2.244   2.619   5.502
11053WAT    EPW44920   2.307   2.664   5.489
11054WAT      O44921   2.840   1.976   6.314
11054WAT     H144922   2.840   1.889   6.327
11054WAT     H244923   2.847   2.008   6.395
11054WAT    EPW44924   2.841   1.968   6.328
11055WAT      O44925   1.314   2.220   6.357
11055WAT     H144926   1.346   2.241   6.279
11055WAT     H244927   1.304   2.133   6.352
11055WAT    EPW44928   1.317   2.210   6.345
11056WAT      O44929   1.459   1.813   5.019
11056WAT     H144930   1.392   1.815   5.075
11056WAT     H244931   1.469   1.728   5.001
11056WAT    EPW44932   1.451   1.801   5.024
11057WAT      O44933   2.428   1.456   6.693
11057WAT     H144934   2.437   1.527   6.742
11057WAT     H244935   2.364   1.411   6.732
11057WAT    EPW44936   2.420   1.459   6.706
11058WAT      O44937   2.327   1.475   5.778
11058WAT     H144938   2.257   1.526   5.772
11058WAT     H244939   2.331   1.437   5.700
11058WAT    EPW44940   2.318   1.477   5.766
11059WAT      O44941   1.858   2.684   5.130
11059WAT     H144942   1.902   2.692   5.205
11059WAT     H244943   1.778   2.662   5.156
11059WAT    EPW44944   1.853   2.682   5.145
11060WAT      O44945   2.687   1.526   6.058
11060WAT     H144946   2.773   1.536   6.072
11060WAT     H244947   2.650   1.581   6.114
11060WAT    EPW44948   2.694   1.536   6.068
11061WAT      O44949   1.790   2.149   6.496
11061WAT     H144950   1.750   2.226   6.503
11061WAT     H244951   1.749   2.111   6.428
11061WAT    EPW44952   1.778   2.155   6.487
11062WAT      O44953   2.718   2.054   5.907
11062WAT     H144954   2.784   2.108   5.923
11062WAT     H244955   2.683   2.085   5.833
11062WAT    EPW44956   2.722   2.067   5.899
11063WAT      O44957   2.749   2.861   5.488
11063WAT     H144958   2.732   2.795   5.543
11063WAT     H244959   2.820   2.834   5.445
11063WAT    EPW44960   2.757   2.847   5.490
11064WAT      O44961   1.591   2.591   5.190
11064WAT     H144962   1.567   2.560   5.268
11064WAT     H244963   1.588   2.520   5.139
11064WAT    EPW44964   1.587   2.576   5.194
11065WAT      O44965   1.873   2.415   5.065
11065WAT     H144966   1.791   2.388   5.079
11065WAT     H244967   1.870   2.500   5.083
11065WAT    EPW44968   1.860   2.424   5.070
11066WAT      O44969   1.833   1.446   6.241
11066WAT     H144970   1.747   1.455   6.249
11066WAT     H244971   1.855   1.395   6.308
11066WAT    EPW44972   1.823   1.440   6.252
11067WAT      O44973   3.035   1.310   6.374
11067WAT     H144974   3.030   1.306   6.461
11067WAT     H244975   3.103   1.260   6.355
11067WAT    EPW44976   3.044   1.302   6.384
11068WAT      O44977   2.243   1.521   6.078
11068WAT     H144978   2.170   1.476   6.089
11068WAT     H244979   2.300   1.481   6.130
11068WAT    EPW44980   2.241   1.509   6.087
11069WAT      O44981   2.516   2.606   6.257
11069WAT     H144982   2.537   2.636   6.336
11069WAT     H244983   2.510   2.678   6.208
11069WAT    EPW44984   2.519   2.621   6.261
11070WAT      O44985   2.470   3.027   6.681
11070WAT     H144986   2.395   3.026   6.637
11070WAT     H244987   2.487   3.113   6.690
11070WAT    EPW44988   2.461   3.040   6.676
11071WAT      O44989   1.994   1.954   6.598
11071WAT     H144990   1.961   1.897   6.541
11071WAT     H244991   1.958   2.030   6.574
11071WAT    EPW44992   1.984   1.957   6.586
11072WAT      O44993   2.073   1.279   5.061
11072WAT     H144994   2.081   1.304   4.978
11072WAT     H244995   1.999   1.317   5.087
11072WAT    EPW44996   2.063   1.289   5.053
11073WAT      O44997   2.998   2.470   6.203
11073WAT     H144998   2.994   2.384   6.189
11073WAT     H244999   2.928   2.500   6.159
11073WAT    EPW45000   2.987   2.462   6.194
11074WAT      O45001   1.837   2.990   6.623
11074WAT     H145002   1.841   3.002   6.710
11074WAT     H245003   1.902   2.934   6.608
11074WAT    EPW45004   1.847   2.983   6.634
11075WAT      O45005   2.808   2.796   6.082
11075WAT     H145006   2.861   2.788   6.013
11075WAT     H245007   2.769   2.718   6.088
11075WAT    EPW45008   2.810   2.783   6.073
11076WAT      O45009   1.555   1.455   6.305
11076WAT     H145010   1.521   1.378   6.282
11076WAT     H245011   1.485   1.507   6.312
11076WAT    EPW45012   1.540   1.451   6.303
11077WAT      O45013   2.460   1.340   6.003
11077WAT     H145014   2.527   1.395   6.016
11077WAT     H245015   2.409   1.383   5.946
11077WAT    EPW45016   2.462   1.355   5.997
11078WAT      O45017   1.596   2.828   6.759
11078WAT     H145018   1.656   2.871   6.806
11078WAT     H245019   1.560   2.890   6.710
11078WAT    EPW45020   1.600   2.844   6.759
11079WAT      O45021   2.395   1.921   5.752
11079WAT     H145022   2.451   1.860   5.782
11079WAT     H245023   2.353   1.947   5.824
11079WAT    EPW45024   2.397   1.916   5.767
11080WAT      O45025   1.420   1.786   5.701
11080WAT     H145026   1.383   1.816   5.774
11080WAT     H245027   1.474   1.723   5.729
11080WAT    EPW45028   1.423   1.781   5.716
11081WAT      O45029   1.389   2.627   6.452
11081WAT     H145030   1.332   2.669   6.503
11081WAT     H245031   1.462   2.673   6.462
11081WAT    EPW45032   1.391   2.640   6.461
11082WAT      O45033   2.592   2.104   5.409
11082WAT     H145034   2.599   2.019   5.427
11082WAT     H245035   2.510   2.113   5.381
11082WAT    EPW45036   2.581   2.093   5.407
11083WAT      O45037   1.568   2.954   5.330
11083WAT     H145038   1.553   2.969   5.245
11083WAT     H245039   1.654   2.962   5.337
11083WAT    EPW45040   1.578   2.957   5.318
11084WAT      O45041   1.984   2.193   5.302
11084WAT     H145042   1.994   2.207   5.217
11084WAT     H245043   2.066   2.187   5.332
11084WAT    EPW45044   1.998   2.194   5.294
11085WAT      O45045   2.900   3.000   5.050
11085WAT     H145046   2.964   2.986   5.109
11085WAT     H245047   2.866   2.920   5.039
11085WAT    EPW45048   2.905   2.986   5.057
11086WAT      O45049   2.920   2.242   6.724
11086WAT     H145050   2.983   2.225   6.781
11086WAT     H245051   2.962   2.282   6.659
11086WAT    EPW45052   2.935   2.245   6.723
11087WAT      O45053   2.508   2.626   5.283
11087WAT     H145054   2.483   2.613   5.365
11087WAT     H245055   2.476   2.557   5.241
11087WAT    EPW45056   2.499   2.614   5.289
11088WAT      O45057   2.982   1.698   6.798
11088WAT     H145058   2.963   1.762   6.853
11088WAT     H245059   2.910   1.649   6.797
11088WAT    EPW45060   2.969   1.700   6.806
11089WAT      O45061   2.972   1.792   6.095
11089WAT     H145062   2.889   1.817   6.087
11089WAT     H245063   2.967   1.708   6.118
11089WAT    EPW45064   2.959   1.783   6.097
11090WAT      O45065   1.898   1.491   6.614
11090WAT     H145066   1.922   1.433   6.553
11090WAT     H245067   1.814   1.473   6.628
11090WAT    EPW45068   1.889   1.480   6.607
11091WAT      O45069   2.661   2.253   6.859
11091WAT     H145070   2.748   2.249   6.856
11091WAT     H245071   2.639   2.295   6.786
11091WAT    EPW45072   2.671   2.258   6.848
11092WAT      O45073   1.636   2.835   5.977
11092WAT     H145074   1.628   2.754   5.946
11092WAT     H245075   1.592   2.884   5.920
11092WAT    EPW45076   1.629   2.830   5.964
11093WAT      O45077   2.196   2.447   5.226
11093WAT     H145078   2.268   2.412   5.190
11093WAT     H245079   2.193   2.527   5.191
11093WAT    EPW45080   2.207   2.454   5.215
11094WAT      O45081   1.394   3.060   6.335
11094WAT     H145082   1.443   3.054   6.407
11094WAT     H245083   1.412   2.986   6.292
11094WAT    EPW45084   1.404   3.048   6.340
11095WAT      O45085   2.337   1.311   3.650
11095WAT     H145086   2.313   1.360   3.582
11095WAT     H245087   2.424   1.304   3.640
11095WAT    EPW45088   2.346   1.317   3.638
11096WAT      O45089   2.318   2.003   4.117
11096WAT     H145090   2.266   2.062   4.153
11096WAT     H245091   2.358   1.966   4.185
11096WAT    EPW45092   2.316   2.006   4.132
11097WAT      O45093   1.305   2.417   3.662
11097WAT     H145094   1.261   2.429   3.737
11097WAT     H245095   1.277   2.339   3.634
11097WAT    EPW45096   1.294   2.407   3.669
11098WAT      O45097   2.933   2.747   3.414
11098WAT     H145098   3.003   2.695   3.413
11098WAT     H245099   2.874   2.702   3.367
11098WAT    EPW45100   2.934   2.733   3.407
11099WAT      O45101   1.279   1.796   3.313
11099WAT     H145102   1.202   1.812   3.277
11099WAT     H245103   1.283   1.709   3.315
11099WAT    EPW45104   1.269   1.785   3.308
11100WAT      O45105   1.593   2.322   3.180
11100WAT     H145106   1.554   2.285   3.112
11100WAT     H245107   1.585   2.262   3.243
11100WAT    EPW45108   1.586   2.308   3.179
11101WAT      O45109   2.585   2.109   3.784
11101WAT     H145110   2.593   2.110   3.697
11101WAT     H245111   2.527   2.046   3.799
11101WAT    EPW45112   2.578   2.100   3.774
11102WAT      O45113   1.556   2.486   3.570
11102WAT     H145114   1.617   2.469   3.630
11102WAT     H245115   1.481   2.472   3.612
11102WAT    EPW45116   1.554   2.482   3.585
11103WAT      O45117   1.984   1.420   3.565
11103WAT     H145118   1.977   1.488   3.510
11103WAT     H245119   2.058   1.381   3.540
11103WAT    EPW45120   1.994   1.424   3.553
11104WAT      O45121   1.445   2.795   3.178
11104WAT     H145122   1.492   2.804   3.105
11104WAT     H245123   1.491   2.738   3.225
11104WAT    EPW45124   1.459   2.788   3.174
11105WAT      O45125   1.299   2.690   4.288
11105WAT     H145126   1.312   2.662   4.369
11105WAT     H245127   1.238   2.636   4.257
11105WAT    EPW45128   1.292   2.678   4.295
11106WAT      O45129   1.957   2.443   4.794
11106WAT     H145130   1.933   2.442   4.878
11106WAT     H245131   1.882   2.428   4.752
11106WAT    EPW45132   1.942   2.440   4.801
11107WAT      O45133   1.444   2.142   3.708
11107WAT     H145134   1.398   2.103   3.645
11107WAT     H245135   1.514   2.091   3.717
11107WAT    EPW45136   1.447   2.129   3.700
11108WAT      O45137   1.895   1.703   4.243
11108WAT     H145138   1.962   1.705   4.188
11108WAT     H245139   1.890   1.620   4.267
11108WAT    EPW45140   1.904   1.691   4.238
11109WAT      O45141   1.955   2.762   4.521
11109WAT     H145142   1.969   2.838   4.480
11109WAT     H245143   2.034   2.725   4.523
11109WAT    EPW45144   1.968   2.768   4.515
11110WAT      O45145   1.644   1.952   3.710
11110WAT     H145146   1.726   1.934   3.735
11110WAT     H245147   1.596   1.891   3.750
11110WAT    EPW45148   1.649   1.941   3.720
11111WAT      O45149   2.064   2.550   3.971
11111WAT     H145150   2.099   2.471   3.974
11111WAT     H245151   2.131   2.601   3.946
11111WAT    EPW45152   2.079   2.546   3.968
11112WAT      O45153   2.070   2.495   3.592
11112WAT     H145154   2.103   2.431   3.641
11112WAT     H245155   2.094   2.474   3.511
11112WAT    EPW45156   2.078   2.483   3.588
11113WAT      O45157   2.267   1.908   4.726
11113WAT     H145158   2.182   1.899   4.708
11113WAT     H245159   2.270   1.983   4.772
11113WAT    EPW45160   2.255   1.918   4.730
11114WAT      O45161   1.704   1.462   3.637
11114WAT     H145162   1.674   1.512   3.572
11114WAT     H245163   1.790   1.470   3.631
11114WAT    EPW45164   1.712   1.470   3.626
11115WAT      O45165   2.723   1.204   4.638
11115WAT     H145166   2.707   1.281   4.599
11115WAT     H245167   2.645   1.182   4.672
11115WAT    EPW45168   2.709   1.213   4.637
11116WAT      O45169   2.001   1.376   3.859
11116WAT     H145170   2.009   1.462   3.872
11116WAT     H245171   1.998   1.368   3.772
11116WAT    EPW45172   2.002   1.388   3.848
11117WAT      O45173   2.469   1.669   3.089
11117WAT     H145174   2.424   1.737   3.120
11117WAT     H245175   2.480   1.618   3.159
11117WAT    EPW45176   2.464   1.671   3.104
11118WAT      O45177   1.289   1.918   4.009
11118WAT     H145178   1.264   2.002   4.002
11118WAT     H245179   1.223   1.880   4.051
11118WAT    EPW45180   1.276   1.925   4.014
11119WAT      O45181   1.280   2.889   3.799
11119WAT     H145182   1.221   2.945   3.768
11119WAT     H245183   1.323   2.863   3.728
11119WAT    EPW45184   1.278   2.894   3.784
11120WAT      O45185   1.864   2.674   3.547
11120WAT     H145186   1.806   2.646   3.606
11120WAT     H245187   1.927   2.613   3.550
11120WAT    EPW45188   1.865   2.661   3.556
11121WAT      O45189   2.479   2.903   3.299
11121WAT     H145190   2.551   2.950   3.310
11121WAT     H245191   2.502   2.823   3.327
11121WAT    EPW45192   2.493   2.898   3.305
11122WAT      O45193   2.295   2.942   3.498
11122WAT     H145194   2.317   2.995   3.565
11122WAT     H245195   2.372   2.924   3.461
11122WAT    EPW45196   2.310   2.947   3.503
11123WAT      O45197   1.592   1.400   4.058
11123WAT     H145198   1.540   1.337   4.028
11123WAT     H245199   1.651   1.356   4.105
11123WAT    EPW45200   1.593   1.384   4.061
11124WAT      O45201   1.923   1.613   4.988
11124WAT     H145202   1.935   1.568   4.915
11124WAT     H245203   1.952   1.693   4.968
11124WAT    EPW45204   1.929   1.619   4.974
11125WAT      O45205   1.435   2.756   3.592
11125WAT     H145206   1.500   2.699   3.594
11125WAT     H245207   1.474   2.831   3.570
11125WAT    EPW45208   1.450   2.759   3.589
11126WAT      O45209   3.008   1.666   3.719
11126WAT     H145210   2.974   1.734   3.761
11126WAT     H245211   2.945   1.606   3.720
11126WAT    EPW45212   2.994   1.667   3.725
11127WAT      O45213   2.539   2.943   4.329
11127WAT     H145214   2.614   2.988   4.328
11127WAT     H245215   2.527   2.921   4.245
11127WAT    EPW45216   2.549   2.946   4.316
11128WAT      O45217   1.496   1.573   4.887
11128WAT     H145218   1.418   1.534   4.879
11128WAT     H245219   1.545   1.532   4.827
11128WAT    EPW45220   1.492   1.561   4.877
11129WAT      O45221   1.517   2.605   3.942
11129WAT     H145222   1.559   2.570   3.875
11129WAT     H245223   1.549   2.563   4.012
11129WAT    EPW45224   1.528   2.594   3.943
11130WAT      O45225   1.840   2.890   3.872
11130WAT     H145226   1.924   2.901   3.852
11130WAT     H245227   1.810   2.972   3.879
11130WAT    EPW45228   1.848   2.904   3.870
11131WAT      O45229   2.161   1.337   4.803
11131WAT     H145230   2.179   1.257   4.776
11131WAT     H245231   2.147   1.382   4.729
11131WAT    EPW45232   2.162   1.332   4.788
11132WAT      O45233   2.220   1.830   3.681
11132WAT     H145234   2.249   1.807   3.602
11132WAT     H245235   2.294   1.838   3.728
11132WAT    EPW45236   2.235   1.828   3.676
11133WAT      O45237   2.293   1.864   3.193
11133WAT     H145238   2.321   1.943   3.218
11133WAT     H245239   2.215   1.880   3.156
11133WAT    EPW45240   2.285   1.878   3.191
11134WAT      O45241   2.697   3.061   3.339
11134WAT     H145242   2.763   3.047   3.285
11134WAT     H245243   2.733   3.053   3.418
11134WAT    EPW45244   2.712   3.058   3.343
11135WAT      O45245   1.740   3.012   4.446
11135WAT     H145246   1.769   3.006   4.528
11135WAT     H245247   1.677   2.952   4.441
11135WAT    EPW45248   1.735   3.002   4.457
11136WAT      O45249   2.976   1.498   4.255
11136WAT     H145250   3.051   1.505   4.213
11136WAT     H245251   2.982   1.421   4.295
11136WAT    EPW45252   2.988   1.488   4.255
11137WAT      O45253   1.231   1.628   4.645
11137WAT     H145254   1.231   1.687   4.710
11137WAT     H245255   1.290   1.659   4.589
11137WAT    EPW45256   1.240   1.641   4.646
11138WAT      O45257   2.465   2.661   4.699
11138WAT     H145258   2.461   2.700   4.778
11138WAT     H245259   2.550   2.657   4.682
11138WAT    EPW45260   2.477   2.666   4.708
11139WAT      O45261   2.179   2.681   3.174
11139WAT     H145262   2.160   2.736   3.240
11139WAT     H245263   2.255   2.710   3.144
11139WAT    EPW45264   2.187   2.693   3.180
11140WAT      O45265   2.529   1.471   3.280
11140WAT     H145266   2.583   1.402   3.287
11140WAT     H245267   2.535   1.510   3.357
11140WAT    EPW45268   2.538   1.466   3.292
11141WAT      O45269   1.325   1.587   3.537
11141WAT     H145270   1.313   1.501   3.540
11141WAT     H245271   1.277   1.617   3.604
11141WAT    EPW45272   1.316   1.579   3.547
11142WAT      O45273   1.539   2.828   4.358
11142WAT     H145274   1.469   2.778   4.371
11142WAT     H245275   1.565   2.808   4.277
11142WAT    EPW45276   1.532   2.818   4.348
11143WAT      O45277   2.255   1.708   3.411
11143WAT     H145278   2.204   1.642   3.386
11143WAT     H245279   2.260   1.759   3.340
11143WAT    EPW45280   2.248   1.706   3.397
11144WAT      O45281   2.310   2.978   4.449
11144WAT     H145282   2.387   2.970   4.409
11144WAT     H245283   2.252   2.966   4.385
11144WAT    EPW45284   2.313   2.975   4.434
11145WAT      O45285   2.255   1.402   3.400
11145WAT     H145286   2.210   1.362   3.338
11145WAT     H245287   2.332   1.418   3.363
11145WAT    EPW45288   2.260   1.399   3.385
11146WAT      O45289   2.938   3.038   3.739
11146WAT     H145290   2.892   3.110   3.759
11146WAT     H245291   2.876   2.981   3.715
11146WAT    EPW45292   2.922   3.040   3.739
11147WAT      O45293   2.115   1.639   3.852
11147WAT     H145294   2.122   1.696   3.787
11147WAT     H245295   2.127   1.688   3.923
11147WAT    EPW45296   2.118   1.655   3.853
11148WAT      O45297   2.637   2.623   3.694
11148WAT     H145298   2.707   2.574   3.713
11148WAT     H245299   2.571   2.566   3.698
11148WAT    EPW45300   2.638   2.607   3.697
11149WAT      O45301   1.675   2.714   4.615
11149WAT     H145302   1.759   2.720   4.593
11149WAT     H245303   1.671   2.753   4.692
11149WAT    EPW45304   1.687   2.720   4.623
11150WAT      O45305   1.576   1.221   3.687
11150WAT     H145306   1.629   1.290   3.686
11150WAT     H245307   1.576   1.194   3.604
11150WAT    EPW45308   1.584   1.227   3.675
11151WAT      O45309   1.871   2.265   4.090
11151WAT     H145310   1.888   2.244   4.173
11151WAT     H245311   1.806   2.211   4.068
11151WAT    EPW45312   1.864   2.254   4.099
11152WAT      O45313   2.494   1.656   4.441
11152WAT     H145314   2.485   1.688   4.522
11152WAT     H245315   2.435   1.592   4.437
11152WAT    EPW45316   2.484   1.651   4.453
11153WAT      O45317   1.946   2.258   4.349
11153WAT     H145318   1.952   2.343   4.369
11153WAT     H245319   1.918   2.221   4.422
11153WAT    EPW45320   1.943   2.265   4.363
11154WAT      O45321   2.564   2.328   4.262
11154WAT     H145322   2.513   2.287   4.319
11154WAT     H245323   2.551   2.412   4.280
11154WAT    EPW45324   2.555   2.334   4.273
11155WAT      O45325   2.620   1.250   3.725
11155WAT     H145326   2.625   1.219   3.806
11155WAT     H245327   2.652   1.186   3.676
11155WAT    EPW45328   2.625   1.236   3.730
11156WAT      O45329   1.228   2.696   4.970
11156WAT     H145330   1.304   2.730   4.996
11156WAT     H245331   1.246   2.610   4.964
11156WAT    EPW45332   1.242   2.688   4.973
11157WAT      O45333   2.866   1.674   4.556
11157WAT     H145334   2.943   1.652   4.589
11157WAT     H245335   2.819   1.696   4.626
11157WAT    EPW45336   2.870   1.674   4.571
11158WAT      O45337   1.620   1.602   3.853
11158WAT     H145338   1.648   1.559   3.782
11158WAT     H245339   1.603   1.539   3.910
11158WAT    EPW45340   1.622   1.587   3.851
11159WAT      O45341   2.889   2.372   3.274
11159WAT     H145342   2.901   2.343   3.356
11159WAT     H245343   2.970   2.374   3.241
11159WAT    EPW45344   2.903   2.368   3.282
11160WAT      O45345   1.603   2.345   3.808
11160WAT     H145346   1.688   2.337   3.790
11160WAT     H245347   1.567   2.277   3.766
11160WAT    EPW45348   1.610   2.334   3.799
11161WAT      O45349   1.480   3.018   3.931
11161WAT     H145350   1.412   2.968   3.907
11161WAT     H245351   1.520   3.036   3.856
11161WAT    EPW45352   1.476   3.013   3.917
11162WAT      O45353   1.435   1.713   4.161
11162WAT     H145354   1.519   1.735   4.157
11162WAT     H245355   1.396   1.770   4.108
11162WAT    EPW45356   1.441   1.724   4.152
11163WAT      O45357   1.840   2.346   3.631
11163WAT     H145358   1.911   2.395   3.640
11163WAT     H245359   1.862   2.289   3.568
11163WAT    EPW45360   1.853   2.345   3.623
11164WAT      O45361   3.097   1.512   3.178
11164WAT     H145362   3.031   1.455   3.181
11164WAT     H245363   3.078   1.563   3.110
11164WAT    EPW45364   3.085   1.511   3.169
11165WAT      O45365   1.255   2.510   3.963
11165WAT     H145366   1.189   2.559   3.991
11165WAT     H245367   1.323   2.565   3.966
11165WAT    EPW45368   1.255   2.525   3.968
11166WAT      O45369   2.020   1.881   4.973
11166WAT     H145370   1.972   1.939   5.017
11166WAT     H245371   2.017   1.911   4.891
11166WAT    EPW45372   2.012   1.894   4.967
11167WAT      O45373   3.130   1.949   4.434
11167WAT     H145374   3.151   1.869   4.406
11167WAT     H245375   3.045   1.955   4.415
11167WAT    EPW45376   3.120   1.939   4.427
11168WAT      O45377   1.262   2.178   3.473
11168WAT     H145378   1.243   2.095   3.489
11168WAT     H245379   1.328   2.175   3.416
11168WAT    EPW45380   1.269   2.166   3.467
11169WAT      O45381   2.898   1.467   3.406
11169WAT     H145382   2.972   1.427   3.426
11169WAT     H245383   2.924   1.539   3.364
11169WAT    EPW45384   2.913   1.472   3.403
11170WAT      O45385   2.292   2.716   3.864
11170WAT     H145386   2.240   2.779   3.834
11170WAT     H245387   2.323   2.680   3.791
11170WAT    EPW45388   2.289   2.720   3.849
11171WAT      O45389   1.279   2.595   3.431
11171WAT     H145390   1.334   2.652   3.467
11171WAT     H245391   1.256   2.543   3.497
11171WAT    EPW45392   1.284   2.596   3.446
11172WAT      O45393   1.699   2.495   4.140
11172WAT     H145394   1.746   2.524   4.208
11172WAT     H245395   1.757   2.447   4.094
11172WAT    EPW45396   1.715   2.492   4.143
11173WAT      O45397   1.262   2.440   3.194
11173WAT     H145398   1.338   2.397   3.199
11173WAT     H245399   1.264   2.493   3.263
11173WAT    EPW45400   1.273   2.441   3.205
11174WAT      O45401   1.356   2.262   3.994
11174WAT     H145402   1.399   2.249   3.919
11174WAT     H245403   1.336   2.347   3.992
11174WAT    EPW45404   1.359   2.272   3.983
11175WAT      O45405   1.991   1.618   3.359
11175WAT     H145406   1.990   1.607   3.273
11175WAT     H245407   1.973   1.703   3.368
11175WAT    EPW45408   1.988   1.629   3.348
11176WAT      O45409   2.896   2.861   4.509
11176WAT     H145410   2.829   2.912   4.531
11176WAT     H245411   2.902   2.871   4.422
11176WAT    EPW45412   2.887   2.870   4.499
11177WAT      O45413   1.764   2.613   3.822
11177WAT     H145414   1.777   2.698   3.841
11177WAT     H245415   1.831   2.574   3.862
11177WAT    EPW45416   1.776   2.620   3.831
11178WAT      O45417   1.577   1.962   4.809
11178WAT     H145418   1.524   1.911   4.855
11178WAT     H245419   1.579   1.923   4.731
11178WAT    EPW45420   1.570   1.948   4.804
11179WAT      O45421   1.626   1.901   3.323
11179WAT     H145422   1.613   1.857   3.396
11179WAT     H245423   1.568   1.867   3.267
11179WAT    EPW45424   1.615   1.890   3.325
11180WAT      O45425   1.643   2.084   3.982
11180WAT     H145426   1.565   2.079   3.944
11180WAT     H245427   1.650   2.009   4.026
11180WAT    EPW45428   1.632   2.073   3.983
11181WAT      O45429   1.686   2.058   4.329
11181WAT     H145430   1.688   1.991   4.274
11181WAT     H245431   1.621   2.108   4.298
11181WAT    EPW45432   1.677   2.055   4.317
11182WAT      O45433   2.675   1.829   4.169
11182WAT     H145434   2.609   1.862   4.215
11182WAT     H245435   2.694   1.893   4.112
11182WAT    EPW45436   2.668   1.844   4.167
11183WAT      O45437   2.096   2.936   4.268
11183WAT     H145438   2.068   2.872   4.216
11183WAT     H245439   2.075   3.008   4.225
11183WAT    EPW45440   2.089   2.937   4.254
11184WAT      O45441   2.340   1.420   4.512
11184WAT     H145442   2.355   1.338   4.487
11184WAT     H245443   2.378   1.426   4.590
11184WAT    EPW45444   2.347   1.409   4.520
11185WAT      O45445   2.494   1.626   3.520
11185WAT     H145446   2.543   1.698   3.512
11185WAT     H245447   2.415   1.652   3.494
11185WAT    EPW45448   2.490   1.641   3.515
11186WAT      O45449   1.466   2.194   4.885
11186WAT     H145450   1.462   2.244   4.814
11186WAT     H245451   1.499   2.118   4.856
11186WAT    EPW45452   1.470   2.190   4.870
11187WAT      O45453   2.626   2.414   4.711
11187WAT     H145454   2.674   2.486   4.721
11187WAT     H245455   2.665   2.371   4.646
11187WAT    EPW45456   2.639   2.418   4.703
11188WAT      O45457   2.055   2.699   4.829
11188WAT     H145458   2.091   2.681   4.906
11188WAT     H245459   2.012   2.626   4.809
11188WAT    EPW45460   2.054   2.685   4.837
11189WAT      O45461   2.153   1.773   4.092
11189WAT     H145462   2.201   1.843   4.113
11189WAT     H245463   2.190   1.709   4.138
11189WAT    EPW45464   2.165   1.774   4.102
11190WAT      O45465   2.372   2.090   3.320
11190WAT     H145466   2.371   2.162   3.271
11190WAT     H245467   2.308   2.104   3.378
11190WAT    EPW45468   2.362   2.103   3.321
11191WAT      O45469   2.869   2.477   3.718
11191WAT     H145470   2.904   2.442   3.789
11191WAT     H245471   2.868   2.411   3.661
11191WAT    EPW45472   2.874   2.462   3.720
11192WAT      O45473   2.473   2.784   4.102
11192WAT     H145474   2.413   2.754   4.047
11192WAT     H245475   2.528   2.829   4.051
11192WAT    EPW45476   2.472   2.786   4.087
11193WAT      O45477   2.475   2.469   4.042
11193WAT     H145478   2.395   2.491   4.070
11193WAT     H245479   2.500   2.410   4.101
11193WAT    EPW45480   2.467   2.463   4.055
11194WAT      O45481   1.864   2.950   3.487
11194WAT     H145482   1.849   2.873   3.524
11194WAT     H245483   1.933   2.935   3.436
11194WAT    EPW45484   1.872   2.936   3.485
11195WAT      O45485   1.831   1.324   3.286
11195WAT     H145486   1.841   1.314   3.372
11195WAT     H245487   1.760   1.375   3.279
11195WAT    EPW45488   1.822   1.330   3.298
11196WAT      O45489   2.093   2.902   3.327
11196WAT     H145490   2.155   2.918   3.386
11196WAT     H245491   2.097   2.971   3.274
11196WAT    EPW45492   2.103   2.914   3.328
11197WAT      O45493   2.801   2.269   4.527
11197WAT     H145494   2.806   2.281   4.441
11197WAT     H245495   2.876   2.301   4.557
11197WAT    EPW45496   2.812   2.275   4.519
11198WAT      O45497   2.420   2.804   4.955
11198WAT     H145498   2.436   2.832   5.036
11198WAT     H245499   2.446   2.870   4.904
11198WAT    EPW45500   2.426   2.818   4.959
11199WAT      O45501   2.904   1.299   4.826
11199WAT     H145502   2.840   1.259   4.781
11199WAT     H245503   2.906   1.255   4.901
11199WAT    EPW45504   2.895   1.286   4.830
11200WAT      O45505   1.543   2.155   3.410
11200WAT     H145506   1.575   2.077   3.388
11200WAT     H245507   1.608   2.192   3.456
11200WAT    EPW45508   1.557   2.149   3.414
11201WAT      O45509   2.374   2.249   4.487
11201WAT     H145510   2.358   2.310   4.547
11201WAT     H245511   2.427   2.194   4.528
11201WAT    EPW45512   2.379   2.250   4.502
11202WAT      O45513   1.243   1.321   3.507
11202WAT     H145514   1.256   1.250   3.458
11202WAT     H245515   1.206   1.289   3.580
11202WAT    EPW45516   1.239   1.306   3.511
11203WAT      O45517   2.212   2.089   3.553
11203WAT     H145518   2.218   2.154   3.611
11203WAT     H245519   2.193   2.020   3.602
11203WAT    EPW45520   2.210   2.089   3.569
11204WAT      O45521   2.735   2.522   4.140
11204WAT     H145522   2.687   2.552   4.073
11204WAT     H245523   2.699   2.445   4.157
11204WAT    EPW45524   2.722   2.515   4.132
11205WAT      O45525   1.662   1.541   3.204
11205WAT     H145526   1.611   1.546   3.133
11205WAT     H245527   1.740   1.565   3.174
11205WAT    EPW45528   1.666   1.545   3.189
11206WAT      O45529   2.134   2.294   3.996
11206WAT     H145530   2.050   2.275   4.004
11206WAT     H245531   2.167   2.278   4.075
11206WAT    EPW45532   2.127   2.289   4.009
11207WAT      O45533   1.810   2.967   3.084
11207WAT     H145534   1.853   2.897   3.113
11207WAT     H245535   1.830   3.029   3.142
11207WAT    EPW45536   1.819   2.966   3.097
11208WAT      O45537   1.519   2.263   4.227
11208WAT     H145538   1.591   2.312   4.224
11208WAT     H245539   1.492   2.260   4.145
11208WAT    EPW45540   1.526   2.270   4.215
11209WAT      O45541   1.842   1.780   3.901
11209WAT     H145542   1.927   1.761   3.911
11209WAT     H245543   1.805   1.703   3.887
11209WAT    EPW45544   1.849   1.766   3.900
11210WAT      O45545   1.324   1.914   3.566
11210WAT     H145546   1.373   1.885   3.633
11210WAT     H245547   1.337   1.855   3.504
11210WAT    EPW45548   1.333   1.901   3.567
11211WAT      O45549   2.828   2.216   4.252
11211WAT     H145550   2.827   2.139   4.291
11211WAT     H245551   2.744   2.240   4.251
11211WAT    EPW45552   2.815   2.208   4.257
11212WAT      O45553   1.777   2.058   3.115
11212WAT     H145554   1.716   2.017   3.162
11212WAT     H245555   1.738   2.069   3.038
11212WAT    EPW45556   1.762   2.053   3.111
11213WAT      O45557   1.459   2.369   4.655
11213WAT     H145558   1.417   2.317   4.599
11213WAT     H245559   1.423   2.447   4.641
11213WAT    EPW45560   1.447   2.373   4.645
11214WAT      O45561   2.953   2.224   3.995
11214WAT     H145562   2.925   2.264   4.067
11214WAT     H245563   3.039   2.217   4.008
11214WAT    EPW45564   2.962   2.229   4.008
11215WAT      O45565   1.922   1.904   3.386
11215WAT     H145566   1.949   1.986   3.393
11215WAT     H245567   1.836   1.911   3.376
11215WAT    EPW45568   1.914   1.917   3.386
11216WAT      O45569   2.720   1.616   4.849
11216WAT     H145570   2.667   1.662   4.902
11216WAT     H245571   2.683   1.536   4.849
11216WAT    EPW45572   2.706   1.611   4.857
11217WAT      O45573   1.270   1.501   4.040
11217WAT     H145574   1.275   1.535   3.960
11217WAT     H245575   1.346   1.524   4.076
11217WAT    EPW45576   1.282   1.509   4.033
11218WAT      O45577   2.569   1.973   4.857
11218WAT     H145578   2.576   1.983   4.943
11218WAT     H245579   2.505   2.029   4.835
11218WAT    EPW45580   2.560   1.983   4.866
11219WAT      O45581   2.727   2.647   3.246
11219WAT     H145582   2.760   2.567   3.250
11219WAT     H245583   2.651   2.640   3.289
11219WAT    EPW45584   2.721   2.634   3.253
11220WAT      O45585   2.775   1.831   3.812
11220WAT     H145586   2.701   1.798   3.844
11220WAT     H245587   2.775   1.913   3.840
11220WAT    EPW45588   2.764   1.838   3.821
11221WAT      O45589   3.065   2.059   4.967
11221WAT     H145590   3.060   2.025   4.887
11221WAT     H245591   3.139   2.106   4.965
11221WAT    EPW45592   3.075   2.061   4.955
11222WAT      O45593   3.019   2.427   4.587
11222WAT     H145594   3.082   2.372   4.562
11222WAT     H245595   3.013   2.483   4.521
11222WAT    EPW45596   3.028   2.427   4.574
11223WAT      O45597   2.464   2.435   3.187
11223WAT     H145598   2.533   2.383   3.170
11223WAT     H245599   2.423   2.439   3.110
11223WAT    EPW45600   2.468   2.428   3.173
11224WAT      O45601   1.933   2.550   4.317
11224WAT     H145602   1.903   2.609   4.374
11224WAT     H245603   1.938   2.594   4.242
11224WAT    EPW45604   1.929   2.565   4.314
11225WAT      O45605   1.730   2.445   4.657
11225WAT     H145606   1.650   2.416   4.674
11225WAT     H245607   1.722   2.531   4.657
11225WAT    EPW45608   1.717   2.453   4.659
11226WAT      O45609   2.666   1.464   4.558
11226WAT     H145610   2.741   1.509   4.552
11226WAT     H245611   2.610   1.511   4.511
11226WAT    EPW45612   2.669   1.477   4.551
11227WAT      O45613   2.184   2.192   4.266
11227WAT     H145614   2.232   2.229   4.329
11227WAT     H245615   2.102   2.205   4.292
11227WAT    EPW45616   2.179   2.199   4.279
11228WAT      O45617   1.855   1.752   4.540
11228WAT     H145618   1.871   1.678   4.583
11228WAT     H245619   1.851   1.727   4.457
11228WAT    EPW45620   1.857   1.738   4.534
11229WAT      O45621   2.111   2.931   3.789
11229WAT     H145622   2.165   2.999   3.794
11229WAT     H245623   2.076   2.939   3.709
11229WAT    EPW45624   2.113   2.943   3.778
11230WAT      O45625   2.795   1.262   4.325
11230WAT     H145626   2.767   1.344   4.321
11230WAT     H245627   2.866   1.267   4.375
11230WAT    EPW45628   2.801   1.275   4.332
11231WAT      O45629   2.030   1.333   4.528
11231WAT     H145630   2.101   1.365   4.488
11231WAT     H245631   2.054   1.252   4.551
11231WAT    EPW45632   2.044   1.326   4.526
11232WAT      O45633   1.929   2.754   4.128
11232WAT     H145634   1.866   2.812   4.110
11232WAT     H245635   1.954   2.725   4.049
11232WAT    EPW45636   1.923   2.758   4.114
11233WAT      O45637   2.360   2.417   4.827
11233WAT     H145638   2.435   2.446   4.794
11233WAT     H245639   2.305   2.423   4.759
11233WAT    EPW45640   2.363   2.422   4.812
11234WAT      O45641   2.751   2.672   4.677
11234WAT     H145642   2.785   2.699   4.753
11234WAT     H245643   2.780   2.731   4.619
11234WAT    EPW45644   2.760   2.685   4.680
11235WAT      O45645   2.937   1.887   3.211
11235WAT     H145646   2.975   1.955   3.171
11235WAT     H245647   2.853   1.909   3.214
11235WAT    EPW45648   2.930   1.900   3.206
11236WAT      O45649   2.088   2.232   3.119
11236WAT     H145650   2.008   2.214   3.091
11236WAT     H245651   2.085   2.317   3.139
11236WAT    EPW45652   2.076   2.242   3.118
11237WAT      O45653   1.681   1.838   4.134
11237WAT     H145654   1.725   1.828   4.060
11237WAT     H245655   1.736   1.807   4.195
11237WAT    EPW45656   1.696   1.832   4.132
11238WAT      O45657   2.483   1.749   4.694
11238WAT     H145658   2.418   1.796   4.728
11238WAT     H245659   2.539   1.740   4.759
11238WAT    EPW45660   2.482   1.754   4.708
11239WAT      O45661   2.452   1.902   4.323
11239WAT     H145662   2.482   1.944   4.394
11239WAT     H245663   2.455   1.818   4.347
11239WAT    EPW45664   2.457   1.896   4.337
11240WAT      O45665   2.194   2.919   4.716
11240WAT     H145666   2.242   2.859   4.674
11240WAT     H245667   2.159   2.875   4.782
11240WAT    EPW45668   2.196   2.904   4.720
11241WAT      O45669   2.706   1.847   3.549
11241WAT     H145670   2.727   1.827   3.631
11241WAT     H245671   2.782   1.874   3.514
11241WAT    EPW45672   2.721   1.848   3.556
11242WAT      O45673   2.036   1.337   4.139
11242WAT     H145674   1.953   1.322   4.163
11242WAT     H245675   2.032   1.340   4.052
11242WAT    EPW45676   2.023   1.335   4.130
11243WAT      O45677   2.809   1.455   3.696
11243WAT     H145678   2.737   1.408   3.713
11243WAT     H245679   2.792   1.489   3.617
11243WAT    EPW45680   2.796   1.453   3.687
11244WAT      O45681   2.853   2.250   3.534
11244WAT     H145682   2.901   2.177   3.529
11244WAT     H245683   2.771   2.221   3.526
11244WAT    EPW45684   2.848   2.235   3.532
11245WAT      O45685   2.200   2.441   4.618
11245WAT     H145686   2.121   2.434   4.653
11245WAT     H245687   2.207   2.526   4.598
11245WAT    EPW45688   2.189   2.452   4.620
11246WAT      O45689   1.292   1.377   4.743
11246WAT     H145690   1.278   1.456   4.709
11246WAT     H245691   1.214   1.352   4.771
11246WAT    EPW45692   1.279   1.385   4.742
11247WAT      O45693   1.783   3.062   4.150
11247WAT     H145694   1.784   3.067   4.237
11247WAT     H245695   1.741   2.987   4.135
11247WAT    EPW45696   1.777   3.051   4.160
11248WAT      O45697   1.599   1.651   3.465
11248WAT     H145698   1.611   1.618   3.385
11248WAT     H245699   1.518   1.626   3.485
11248WAT    EPW45700   1.589   1.643   3.456
11249WAT      O45701   2.475   2.366   3.769
11249WAT     H145702   2.482   2.400   3.849
11249WAT     H245703   2.491   2.282   3.782
11249WAT    EPW45704   2.478   2.359   3.783
11250WAT      O45705   2.227   2.294   3.726
11250WAT     H145706   2.197   2.262   3.802
11250WAT     H245707   2.296   2.341   3.749
11250WAT    EPW45708   2.233   2.296   3.741
11251WAT      O45709   2.249   2.706   4.529
11251WAT     H145710   2.318   2.694   4.581
11251WAT     H245711   2.262   2.785   4.494
11251WAT    EPW45712   2.261   2.716   4.531
11252WAT      O45713   3.067   1.966   4.710
11252WAT     H145714   2.981   1.954   4.722
11252WAT     H245715   3.082   1.927   4.633
11252WAT    EPW45716   3.056   1.959   4.700
11253WAT      O45717   2.518   2.033   4.567
11253WAT     H145718   2.492   1.961   4.610
11253WAT     H245719   2.600   2.045   4.594
11253WAT    EPW45720   2.526   2.024   4.578
11254WAT      O45721   1.459   3.011   4.694
11254WAT     H145722   1.394   2.954   4.704
11254WAT     H245723   1.422   3.089   4.709
11254WAT    EPW45724   1.444   3.014   4.697
11255WAT      O45725   2.311   2.152   4.886
11255WAT     H145726   2.344   2.221   4.843
11255WAT     H245727   2.241   2.184   4.926
11255WAT    EPW45728   2.306   2.167   4.886
11256WAT      O45729   2.620   2.989   3.979
11256WAT     H145730   2.575   3.054   4.017
11256WAT     H245731   2.690   2.981   4.029
11256WAT    EPW45732   2.623   2.998   3.992
11257WAT      O45733   2.290   2.498   4.272
11257WAT     H145734   2.220   2.539   4.306
11257WAT     H245735   2.357   2.542   4.306
11257WAT    EPW45736   2.289   2.511   4.282
11258WAT      O45737   2.827   2.758   4.930
11258WAT     H145738   2.905   2.719   4.938
11258WAT     H245739   2.781   2.724   4.995
11258WAT    EPW45740   2.832   2.747   4.941
11259WAT      O45741   1.597   1.852   4.507
11259WAT     H145742   1.634   1.914   4.458
11259WAT     H245743   1.664   1.805   4.535
11259WAT    EPW45744   1.612   1.854   4.504
11260WAT      O45745   1.374   1.697   4.434
11260WAT     H145746   1.382   1.680   4.349
11260WAT     H245747   1.449   1.738   4.454
11260WAT    EPW45748   1.386   1.700   4.424
11261WAT      O45749   2.930   1.961   3.478
11261WAT     H145750   2.940   1.955   3.392
11261WAT     H245751   3.004   1.928   3.510
11261WAT    EPW45752   2.942   1.955   3.470
11262WAT      O45753   1.629   1.438   4.675
11262WAT     H145754   1.621   1.354   4.696
11262WAT     H245755   1.598   1.442   4.594
11262WAT    EPW45756   1.624   1.426   4.666
11263WAT      O45757   2.322   2.657   3.589
11263WAT     H145758   2.301   2.741   3.573
11263WAT     H245759   2.244   2.619   3.601
11263WAT    EPW45760   2.307   2.664   3.588
11264WAT      O45761   2.840   1.976   4.414
11264WAT     H145762   2.840   1.889   4.426
11264WAT     H245763   2.847   2.008   4.494
11264WAT    EPW45764   2.841   1.968   4.427
11265WAT      O45765   1.314   2.220   4.457
11265WAT     H145766   1.346   2.241   4.378
11265WAT     H245767   1.304   2.133   4.451
11265WAT    EPW45768   1.317   2.210   4.444
11266WAT      O45769   1.459   1.813   3.118
11266WAT     H145770   1.392   1.815   3.174
11266WAT     H245771   1.469   1.728   3.100
11266WAT    EPW45772   1.451   1.801   3.124
11267WAT      O45773   2.428   1.456   4.792
11267WAT     H145774   2.437   1.527   4.841
11267WAT     H245775   2.364   1.411   4.832
11267WAT    EPW45776   2.420   1.459   4.805
11268WAT      O45777   2.327   1.475   3.877
11268WAT     H145778   2.257   1.526   3.872
11268WAT     H245779   2.331   1.437   3.799
11268WAT    EPW45780   2.318   1.477   3.865
11269WAT      O45781   1.858   2.684   3.230
11269WAT     H145782   1.902   2.692   3.305
11269WAT     H245783   1.778   2.662   3.256
11269WAT    EPW45784   1.853   2.682   3.245
11270WAT      O45785   2.687   1.526   4.157
11270WAT     H145786   2.773   1.536   4.172
11270WAT     H245787   2.650   1.581   4.214
11270WAT    EPW45788   2.694   1.536   4.168
11271WAT      O45789   1.790   2.149   4.595
11271WAT     H145790   1.750   2.226   4.603
11271WAT     H245791   1.749   2.111   4.527
11271WAT    EPW45792   1.778   2.155   4.586
11272WAT      O45793   2.718   2.054   4.006
11272WAT     H145794   2.784   2.108   4.022
11272WAT     H245795   2.683   2.085   3.933
11272WAT    EPW45796   2.722   2.067   3.998
11273WAT      O45797   2.749   2.861   3.587
11273WAT     H145798   2.732   2.795   3.642
11273WAT     H245799   2.820   2.834   3.545
11273WAT    EPW45800   2.757   2.847   3.589
11274WAT      O45801   1.591   2.591   3.290
11274WAT     H145802   1.567   2.560   3.368
11274WAT     H245803   1.588   2.520   3.238
11274WAT    EPW45804   1.587   2.576   3.294
11275WAT      O45805   1.873   2.415   3.164
11275WAT     H145806   1.791   2.388   3.178
11275WAT     H245807   1.870   2.500   3.183
11275WAT    EPW45808   1.860   2.424   3.169
11276WAT      O45809   1.833   1.446   4.340
11276WAT     H145810   1.747   1.455   4.348
11276WAT     H245811   1.855   1.395   4.407
11276WAT    EPW45812   1.823   1.440   4.351
11277WAT      O45813   3.035   1.310   4.473
11277WAT     H145814   3.030   1.306   4.560
11277WAT     H245815   3.103   1.260   4.454
11277WAT    EPW45816   3.044   1.302   4.483
11278WAT      O45817   2.243   1.521   4.177
11278WAT     H145818   2.170   1.476   4.189
11278WAT     H245819   2.300   1.481   4.230
11278WAT    EPW45820   2.241   1.509   4.187
11279WAT      O45821   2.516   2.606   4.356
11279WAT     H145822   2.537   2.636   4.435
11279WAT     H245823   2.510   2.678   4.308
11279WAT    EPW45824   2.519   2.621   4.361
11280WAT      O45825   2.470   3.027   4.781
11280WAT     H145826   2.395   3.026   4.737
11280WAT     H245827   2.487   3.113   4.789
11280WAT    EPW45828   2.461   3.040   4.776
11281WAT      O45829   1.994   1.954   4.698
11281WAT     H145830   1.961   1.897   4.641
11281WAT     H245831   1.958   2.030   4.673
11281WAT    EPW45832   1.984   1.957   4.686
11282WAT      O45833   2.073   1.279   3.161
11282WAT     H145834   2.081   1.304   3.077
11282WAT     H245835   1.999   1.317   3.186
11282WAT    EPW45836   2.063   1.289   3.152
11283WAT      O45837   2.998   2.470   4.302
11283WAT     H145838   2.994   2.384   4.289
11283WAT     H245839   2.928   2.500   4.259
11283WAT    EPW45840   2.987   2.462   4.294
11284WAT      O45841   1.837   2.990   4.723
11284WAT     H145842   1.841   3.002   4.809
11284WAT     H245843   1.902   2.934   4.707
11284WAT    EPW45844   1.847   2.983   4.733
11285WAT      O45845   2.808   2.796   4.182
11285WAT     H145846   2.861   2.788   4.113
11285WAT     H245847   2.769   2.718   4.187
11285WAT    EPW45848   2.810   2.783   4.172
11286WAT      O45849   1.555   1.455   4.405
11286WAT     H145850   1.521   1.378   4.381
11286WAT     H245851   1.485   1.507   4.411
11286WAT    EPW45852   1.540   1.451   4.402
11287WAT      O45853   2.460   1.340   4.103
11287WAT     H145854   2.527   1.395   4.115
11287WAT     H245855   2.409   1.383   4.045
11287WAT    EPW45856   2.462   1.355   4.096
11288WAT      O45857   1.596   2.828   4.859
11288WAT     H145858   1.656   2.871   4.906
11288WAT     H245859   1.560   2.890   4.810
11288WAT    EPW45860   1.600   2.844   4.858
11289WAT      O45861   2.395   1.921   3.852
11289WAT     H145862   2.451   1.860   3.882
11289WAT     H245863   2.353   1.947   3.923
11289WAT    EPW45864   2.397   1.916   3.867
11290WAT      O45865   1.420   1.786   3.800
11290WAT     H145866   1.383   1.816   3.874
11290WAT     H245867   1.474   1.723   3.829
11290WAT    EPW45868   1.423   1.781   3.815
11291WAT      O45869   1.389   2.627   4.552
11291WAT     H145870   1.332   2.669   4.602
11291WAT     H245871   1.462   2.673   4.561
11291WAT    EPW45872   1.391   2.640   4.560
11292WAT      O45873   2.592   2.104   3.508
11292WAT     H145874   2.599   2.019   3.526
11292WAT     H245875   2.510   2.113   3.480
11292WAT    EPW45876   2.581   2.093   3.507
11293WAT      O45877   1.568   2.954   3.429
11293WAT     H145878   1.553   2.969   3.344
11293WAT     H245879   1.654   2.962   3.437
11293WAT    EPW45880   1.578   2.957   3.418
11294WAT      O45881   1.984   2.193   3.402
11294WAT     H145882   1.994   2.207   3.316
11294WAT     H245883   2.066   2.187   3.431
11294WAT    EPW45884   1.998   2.194   3.394
11295WAT      O45885   2.900   3.000   3.150
11295WAT     H145886   2.964   2.986   3.208
11295WAT     H245887   2.866   2.920   3.138
11295WAT    EPW45888   2.905   2.986   3.157
11296WAT      O45889   2.920   2.242   4.823
11296WAT     H145890   2.983   2.225   4.881
11296WAT     H245891   2.962   2.282   4.758
11296WAT    EPW45892   2.935   2.245   4.822
11297WAT      O45893   2.508   2.626   3.382
11297WAT     H145894   2.483   2.613   3.465
11297WAT     H245895   2.476   2.557   3.340
11297WAT    EPW45896   2.499   2.614   3.388
11298WAT      O45897   2.982   1.698   4.897
11298WAT     H145898   2.963   1.762   4.952
11298WAT     H245899   2.910   1.649   4.896
11298WAT    EPW45900   2.969   1.700   4.905
11299WAT      O45901   2.972   1.792   4.194
11299WAT     H145902   2.889   1.817   4.187
11299WAT     H245903   2.967   1.708   4.217
11299WAT    EPW45904   2.959   1.783   4.196
11300WAT      O45905   1.898   1.491   4.713
11300WAT     H145906   1.922   1.433   4.652
11300WAT     H245907   1.814   1.473   4.728
11300WAT    EPW45908   1.889   1.480   4.706
11301WAT      O45909   2.661   2.253   4.959
11301WAT     H145910   2.748   2.249   4.955
11301WAT     H245911   2.639   2.295   4.885
11301WAT    EPW45912   2.671   2.258   4.947
11302WAT      O45913   1.636   2.835   4.077
11302WAT     H145914   1.628   2.754   4.045
11302WAT     H245915   1.592   2.884   4.020
11302WAT    EPW45916   1.629   2.830   4.064
11303WAT      O45917   2.196   2.447   3.325
11303WAT     H145918   2.268   2.412   3.289
11303WAT     H245919   2.193   2.527   3.290
11303WAT    EPW45920   2.207   2.454   3.315
11304WAT      O45921   1.394   3.060   4.435
11304WAT     H145922   1.443   3.054   4.507
11304WAT     H245923   1.412   2.986   4.391
11304WAT    EPW45924   1.404   3.048   4.439
11305WAT      O45925   2.337   1.311   1.749
11305WAT     H145926   2.313   1.360   1.681
11305WAT     H245927   2.424   1.304   1.739
11305WAT    EPW45928   2.346   1.317   1.737
11306WAT      O45929   2.318   2.003   2.216
11306WAT     H145930   2.266   2.062   2.252
11306WAT     H245931   2.358   1.966   2.284
11306WAT    EPW45932   2.316   2.006   2.232
11307WAT      O45933   1.305   2.417   1.762
11307WAT     H145934   1.261   2.429   1.836
11307WAT     H245935   1.277   2.339   1.733
11307WAT    EPW45936   1.294   2.407   1.768
11308WAT      O45937   2.933   2.747   1.513
11308WAT     H145938   3.003   2.695   1.513
11308WAT     H245939   2.874   2.702   1.466
11308WAT    EPW45940   2.934   2.733   1.506
11309WAT      O45941   1.279   1.796   1.412
11309WAT     H145942   1.202   1.812   1.376
11309WAT     H245943   1.283   1.709   1.415
11309WAT    EPW45944   1.269   1.785   1.407
11310WAT      O45945   1.593   2.322   1.280
11310WAT     H145946   1.554   2.285   1.211
11310WAT     H245947   1.585   2.262   1.342
11310WAT    EPW45948   1.586   2.308   1.279
11311WAT      O45949   2.585   2.109   1.884
11311WAT     H145950   2.593   2.110   1.797
11311WAT     H245951   2.527   2.046   1.899
11311WAT    EPW45952   2.578   2.100   1.873
11312WAT      O45953   1.556   2.486   1.670
11312WAT     H145954   1.617   2.469   1.730
11312WAT     H245955   1.481   2.472   1.712
11312WAT    EPW45956   1.554   2.482   1.685
11313WAT      O45957   1.984   1.420   1.664
11313WAT     H145958   1.977   1.488   1.610
11313WAT     H245959   2.058   1.381   1.640
11313WAT    EPW45960   1.994   1.424   1.653
11314WAT      O45961   1.445   2.795   1.277
11314WAT     H145962   1.492   2.804   1.204
11314WAT     H245963   1.491   2.738   1.324
11314WAT    EPW45964   1.459   2.788   1.273
11315WAT      O45965   1.299   2.690   2.387
11315WAT     H145966   1.312   2.662   2.469
11315WAT     H245967   1.238   2.636   2.356
11315WAT    EPW45968   1.292   2.678   2.395
11316WAT      O45969   1.957   2.443   2.894
11316WAT     H145970   1.933   2.442   2.978
11316WAT     H245971   1.882   2.428   2.851
11316WAT    EPW45972   1.942   2.440   2.900
11317WAT      O45973   1.444   2.142   1.807
11317WAT     H145974   1.398   2.103   1.745
11317WAT     H245975   1.514   2.091   1.817
11317WAT    EPW45976   1.447   2.129   1.799
11318WAT      O45977   1.895   1.703   2.342
11318WAT     H145978   1.962   1.705   2.287
11318WAT     H245979   1.890   1.620   2.367
11318WAT    EPW45980   1.904   1.691   2.338
11319WAT      O45981   1.955   2.762   2.620
11319WAT     H145982   1.969   2.838   2.579
11319WAT     H245983   2.034   2.725   2.623
11319WAT    EPW45984   1.968   2.768   2.615
11320WAT      O45985   1.644   1.952   1.810
11320WAT     H145986   1.726   1.934   1.834
11320WAT     H245987   1.596   1.891   1.849
11320WAT    EPW45988   1.649   1.941   1.819
11321WAT      O45989   2.064   2.550   2.071
11321WAT     H145990   2.099   2.471   2.074
11321WAT     H245991   2.131   2.601   2.045
11321WAT    EPW45992   2.079   2.546   2.067
11322WAT      O45993   2.070   2.495   1.692
11322WAT     H145994   2.103   2.431   1.740
11322WAT     H245995   2.094   2.474   1.611
11322WAT    EPW45996   2.078   2.483   1.687
11323WAT      O45997   2.267   1.908   2.826
11323WAT     H145998   2.182   1.899   2.808
11323WAT     H245999   2.270   1.983   2.871
11323WAT    EPW46000   2.255   1.918   2.830
11324WAT      O46001   1.704   1.462   1.736
11324WAT     H146002   1.674   1.512   1.671
11324WAT     H246003   1.790   1.470   1.731
11324WAT    EPW46004   1.712   1.470   1.726
11325WAT      O46005   2.723   1.204   2.737
11325WAT     H146006   2.707   1.281   2.699
11325WAT     H246007   2.645   1.182   2.771
11325WAT    EPW46008   2.709   1.213   2.737
11326WAT      O46009   2.001   1.376   1.959
11326WAT     H146010   2.009   1.462   1.971
11326WAT     H246011   1.998   1.368   1.872
11326WAT    EPW46012   2.002   1.388   1.948
11327WAT      O46013   2.469   1.669   1.188
11327WAT     H146014   2.424   1.737   1.219
11327WAT     H246015   2.480   1.618   1.259
11327WAT    EPW46016   2.464   1.671   1.203
11328WAT      O46017   1.289   1.918   2.109
11328WAT     H146018   1.264   2.002   2.101
11328WAT     H246019   1.223   1.880   2.150
11328WAT    EPW46020   1.276   1.925   2.114
11329WAT      O46021   1.280   2.889   1.899
11329WAT     H146022   1.221   2.945   1.867
11329WAT     H246023   1.323   2.863   1.827
11329WAT    EPW46024   1.278   2.894   1.884
11330WAT      O46025   1.864   2.674   1.647
11330WAT     H146026   1.806   2.646   1.706
11330WAT     H246027   1.927   2.613   1.649
11330WAT    EPW46028   1.865   2.661   1.656
11331WAT      O46029   2.479   2.903   1.399
11331WAT     H146030   2.551   2.950   1.409
11331WAT     H246031   2.502   2.823   1.427
11331WAT    EPW46032   2.493   2.898   1.405
11332WAT      O46033   2.295   2.942   1.598
11332WAT     H146034   2.317   2.995   1.664
11332WAT     H246035   2.372   2.924   1.560
11332WAT    EPW46036   2.310   2.947   1.602
11333WAT      O46037   1.592   1.400   2.158
11333WAT     H146038   1.540   1.337   2.127
11333WAT     H246039   1.651   1.356   2.205
11333WAT    EPW46040   1.593   1.384   2.160
11334WAT      O46041   1.923   1.613   3.088
11334WAT     H146042   1.935   1.568   3.014
11334WAT     H246043   1.952   1.693   3.067
11334WAT    EPW46044   1.929   1.619   3.074
11335WAT      O46045   1.435   2.756   1.692
11335WAT     H146046   1.500   2.699   1.693
11335WAT     H246047   1.474   2.831   1.670
11335WAT    EPW46048   1.450   2.759   1.689
11336WAT      O46049   3.008   1.666   1.818
11336WAT     H146050   2.974   1.734   1.861
11336WAT     H246051   2.945   1.606   1.820
11336WAT    EPW46052   2.994   1.667   1.824
11337WAT      O46053   2.539   2.943   2.428
11337WAT     H146054   2.614   2.988   2.427
11337WAT     H246055   2.527   2.921   2.345
11337WAT    EPW46056   2.549   2.946   2.416
11338WAT      O46057   1.496   1.573   2.986
11338WAT     H146058   1.418   1.534   2.979
11338WAT     H246059   1.545   1.532   2.927
11338WAT    EPW46060   1.492   1.561   2.976
11339WAT      O46061   1.517   2.605   2.042
11339WAT     H146062   1.559   2.570   1.974
11339WAT     H246063   1.549   2.563   2.111
11339WAT    EPW46064   1.528   2.594   2.042
11340WAT      O46065   1.840   2.890   1.971
11340WAT     H146066   1.924   2.901   1.952
11340WAT     H246067   1.810   2.972   1.978
11340WAT    EPW46068   1.848   2.904   1.969
11341WAT      O46069   2.161   1.337   2.903
11341WAT     H146070   2.179   1.257   2.875
11341WAT     H246071   2.147   1.382   2.829
11341WAT    EPW46072   2.162   1.332   2.888
11342WAT      O46073   2.220   1.830   1.780
11342WAT     H146074   2.249   1.807   1.701
11342WAT     H246075   2.294   1.838   1.827
11342WAT    EPW46076   2.235   1.828   1.775
11343WAT      O46077   2.293   1.864   1.292
11343WAT     H146078   2.321   1.943   1.317
11343WAT     H246079   2.215   1.880   1.256
11343WAT    EPW46080   2.285   1.878   1.290
11344WAT      O46081   2.697   3.061   1.439
11344WAT     H146082   2.763   3.047   1.384
11344WAT     H246083   2.733   3.053   1.518
11344WAT    EPW46084   2.712   3.058   1.442
11345WAT      O46085   1.740   3.012   2.545
11345WAT     H146086   1.769   3.006   2.627
11345WAT     H246087   1.677   2.952   2.541
11345WAT    EPW46088   1.735   3.002   2.557
11346WAT      O46089   2.976   1.498   2.355
11346WAT     H146090   3.051   1.505   2.312
11346WAT     H246091   2.982   1.421   2.395
11346WAT    EPW46092   2.988   1.488   2.354
11347WAT      O46093   1.231   1.628   2.745
11347WAT     H146094   1.231   1.687   2.809
11347WAT     H246095   1.290   1.659   2.689
11347WAT    EPW46096   1.240   1.641   2.746
11348WAT      O46097   2.465   2.661   2.799
11348WAT     H146098   2.461   2.700   2.877
11348WAT     H246099   2.550   2.657   2.782
11348WAT    EPW46100   2.477   2.666   2.808
11349WAT      O46101   2.179   2.681   1.274
11349WAT     H146102   2.160   2.736   1.339
11349WAT     H246103   2.255   2.710   1.244
11349WAT    EPW46104   2.187   2.693   1.279
11350WAT      O46105   2.529   1.471   1.379
11350WAT     H146106   2.583   1.402   1.387
11350WAT     H246107   2.535   1.510   1.457
11350WAT    EPW46108   2.538   1.466   1.392
11351WAT      O46109   1.325   1.587   1.636
11351WAT     H146110   1.313   1.501   1.639
11351WAT     H246111   1.277   1.617   1.703
11351WAT    EPW46112   1.316   1.579   1.646
11352WAT      O46113   1.539   2.828   2.458
11352WAT     H146114   1.469   2.778   2.470
11352WAT     H246115   1.565   2.808   2.377
11352WAT    EPW46116   1.532   2.818   2.447
11353WAT      O46117   2.255   1.708   1.511
11353WAT     H146118   2.204   1.642   1.485
11353WAT     H246119   2.260   1.759   1.440
11353WAT    EPW46120   2.248   1.706   1.496
11354WAT      O46121   2.310   2.978   2.549
11354WAT     H146122   2.387   2.970   2.508
11354WAT     H246123   2.252   2.966   2.485
11354WAT    EPW46124   2.313   2.975   2.533
11355WAT      O46125   2.255   1.402   1.500
11355WAT     H146126   2.210   1.362   1.437
11355WAT     H246127   2.332   1.418   1.462
11355WAT    EPW46128   2.260   1.399   1.485
11356WAT      O46129   2.938   3.038   1.839
11356WAT     H146130   2.892   3.110   1.859
11356WAT     H246131   2.876   2.981   1.814
11356WAT    EPW46132   2.922   3.040   1.838
11357WAT      O46133   2.115   1.639   1.952
11357WAT     H146134   2.122   1.696   1.886
11357WAT     H246135   2.127   1.688   2.023
11357WAT    EPW46136   2.118   1.655   1.953
11358WAT      O46137   2.637   2.623   1.793
11358WAT     H146138   2.707   2.574   1.812
11358WAT     H246139   2.571   2.566   1.798
11358WAT    EPW46140   2.638   2.607   1.796
11359WAT      O46141   1.675   2.714   2.714
11359WAT     H146142   1.759   2.720   2.692
11359WAT     H246143   1.671   2.753   2.792
11359WAT    EPW46144   1.687   2.720   2.722
11360WAT      O46145   1.576   1.221   1.787
11360WAT     H146146   1.629   1.290   1.786
11360WAT     H246147   1.576   1.194   1.704
11360WAT    EPW46148   1.584   1.227   1.774
11361WAT      O46149   1.871   2.265   2.189
11361WAT     H146150   1.888   2.244   2.272
11361WAT     H246151   1.806   2.211   2.168
11361WAT    EPW46152   1.864   2.254   2.198
11362WAT      O46153   2.494   1.656   2.541
11362WAT     H146154   2.485   1.688   2.621
11362WAT     H246155   2.435   1.592   2.537
11362WAT    EPW46156   2.484   1.651   2.552
11363WAT      O46157   1.946   2.258   2.448
11363WAT     H146158   1.952   2.343   2.468
11363WAT     H246159   1.918   2.221   2.522
11363WAT    EPW46160   1.943   2.265   2.462
11364WAT      O46161   2.564   2.328   2.361
11364WAT     H146162   2.513   2.287   2.418
11364WAT     H246163   2.551   2.412   2.379
11364WAT    EPW46164   2.555   2.334   2.372
11365WAT      O46165   2.620   1.250   1.824
11365WAT     H146166   2.625   1.219   1.905
11365WAT     H246167   2.652   1.186   1.775
11365WAT    EPW46168   2.625   1.236   1.829
11366WAT      O46169   1.228   2.696   3.069
11366WAT     H146170   1.304   2.730   3.095
11366WAT     H246171   1.246   2.610   3.064
11366WAT    EPW46172   1.242   2.688   3.072
11367WAT      O46173   2.866   1.674   2.655
11367WAT     H146174   2.943   1.652   2.689
11367WAT     H246175   2.819   1.696   2.725
11367WAT    EPW46176   2.870   1.674   2.670
11368WAT      O46177   1.620   1.602   1.952
11368WAT     H146178   1.648   1.559   1.881
11368WAT     H246179   1.603   1.539   2.009
11368WAT    EPW46180   1.622   1.587   1.950
11369WAT      O46181   2.889   2.372   1.374
11369WAT     H146182   2.901   2.343   1.455
11369WAT     H246183   2.970   2.374   1.341
11369WAT    EPW46184   2.903   2.368   1.381
11370WAT      O46185   1.603   2.345   1.907
11370WAT     H146186   1.688   2.337   1.890
11370WAT     H246187   1.567   2.277   1.866
11370WAT    EPW46188   1.610   2.334   1.898
11371WAT      O46189   1.480   3.018   2.031
11371WAT     H146190   1.412   2.968   2.006
11371WAT     H246191   1.520   3.036   1.956
11371WAT    EPW46192   1.476   3.013   2.016
11372WAT      O46193   1.435   1.713   2.260
11372WAT     H146194   1.519   1.735   2.256
11372WAT     H246195   1.396   1.770   2.207
11372WAT    EPW46196   1.441   1.724   2.252
11373WAT      O46197   3.113   2.823   2.799
11373WAT     H146198   3.044   2.854   2.755
11373WAT     H246199   3.076   2.777   2.864
11373WAT    EPW46200   3.097   2.821   2.802
11374WAT      O46201   2.679   2.026   1.332
11374WAT     H146202   2.657   2.099   1.290
11374WAT     H246203   2.634   2.031   1.407
11374WAT    EPW46204   2.669   2.037   1.337
11375WAT      O46205   1.840   2.346   1.730
11375WAT     H146206   1.911   2.395   1.739
11375WAT     H246207   1.862   2.289   1.668
11375WAT    EPW46208   1.853   2.345   1.723
11376WAT      O46209   3.097   1.512   1.278
11376WAT     H146210   3.031   1.455   1.280
11376WAT     H246211   3.078   1.563   1.210
11376WAT    EPW46212   3.085   1.511   1.268
11377WAT      O46213   1.255   2.510   2.062
11377WAT     H146214   1.189   2.559   2.090
11377WAT     H246215   1.323   2.565   2.065
11377WAT    EPW46216   1.255   2.525   2.067
11378WAT      O46217   2.020   1.881   3.072
11378WAT     H146218   1.972   1.939   3.116
11378WAT     H246219   2.017   1.911   2.990
11378WAT    EPW46220   2.012   1.894   3.066
11379WAT      O46221   3.130   1.949   2.533
11379WAT     H146222   3.151   1.869   2.506
11379WAT     H246223   3.045   1.955   2.514
11379WAT    EPW46224   3.120   1.939   2.526
11380WAT      O46225   1.262   2.178   1.573
11380WAT     H146226   1.243   2.095   1.588
11380WAT     H246227   1.328   2.175   1.516
11380WAT    EPW46228   1.269   2.166   1.567
11381WAT      O46229   2.898   1.467   1.506
11381WAT     H146230   2.972   1.427   1.525
11381WAT     H246231   2.924   1.539   1.463
11381WAT    EPW46232   2.913   1.472   1.502
11382WAT      O46233   2.292   2.716   1.963
11382WAT     H146234   2.240   2.779   1.934
11382WAT     H246235   2.323   2.680   1.890
11382WAT    EPW46236   2.289   2.720   1.948
11383WAT      O46237   1.279   2.595   1.530
11383WAT     H146238   1.334   2.652   1.567
11383WAT     H246239   1.256   2.543   1.597
11383WAT    EPW46240   1.284   2.596   1.545
11384WAT      O46241   1.699   2.495   2.239
11384WAT     H146242   1.746   2.524   2.307
11384WAT     H246243   1.757   2.447   2.194
11384WAT    EPW46244   1.715   2.492   2.242
11385WAT      O46245   2.543   1.696   2.013
11385WAT     H146246   2.577   1.711   2.092
11385WAT     H246247   2.498   1.622   2.024
11385WAT    EPW46248   2.541   1.688   2.026
11386WAT      O46249   1.262   2.440   1.293
11386WAT     H146250   1.338   2.397   1.299
11386WAT     H246251   1.264   2.493   1.362
11386WAT    EPW46252   1.273   2.441   1.304
11387WAT      O46253   1.356   2.262   2.094
11387WAT     H146254   1.399   2.249   2.019
11387WAT     H246255   1.336   2.347   2.091
11387WAT    EPW46256   1.359   2.272   2.082
11388WAT      O46257   1.991   1.618   1.459
11388WAT     H146258   1.990   1.607   1.372
11388WAT     H246259   1.973   1.703   1.468
11388WAT    EPW46260   1.988   1.629   1.447
11389WAT      O46261   2.896   2.861   2.608
11389WAT     H146262   2.829   2.912   2.630
11389WAT     H246263   2.902   2.871   2.522
11389WAT    EPW46264   2.887   2.870   2.599
11390WAT      O46265   1.764   2.613   1.922
11390WAT     H146266   1.777   2.698   1.940
11390WAT     H246267   1.831   2.574   1.961
11390WAT    EPW46268   1.776   2.620   1.930
11391WAT      O46269   1.577   1.962   2.908
11391WAT     H146270   1.524   1.911   2.955
11391WAT     H246271   1.579   1.923   2.830
11391WAT    EPW46272   1.570   1.948   2.903
11392WAT      O46273   1.626   1.901   1.422
11392WAT     H146274   1.613   1.857   1.496
11392WAT     H246275   1.568   1.867   1.367
11392WAT    EPW46276   1.615   1.890   1.425
11393WAT      O46277   1.643   2.084   2.082
11393WAT     H146278   1.565   2.079   2.044
11393WAT     H246279   1.650   2.009   2.126
11393WAT    EPW46280   1.632   2.073   2.083
11394WAT      O46281   1.686   2.058   2.429
11394WAT     H146282   1.688   1.991   2.374
11394WAT     H246283   1.621   2.108   2.397
11394WAT    EPW46284   1.677   2.055   2.416
11395WAT      O46285   2.675   1.829   2.268
11395WAT     H146286   2.609   1.862   2.315
11395WAT     H246287   2.694   1.893   2.211
11395WAT    EPW46288   2.668   1.844   2.267
11396WAT      O46289   2.096   2.936   2.368
11396WAT     H146290   2.068   2.872   2.316
11396WAT     H246291   2.075   3.008   2.324
11396WAT    EPW46292   2.089   2.937   2.354
11397WAT      O46293   2.340   1.420   2.611
11397WAT     H146294   2.355   1.338   2.587
11397WAT     H246295   2.378   1.426   2.690
11397WAT    EPW46296   2.347   1.409   2.619
11398WAT      O46297   2.494   1.626   1.619
11398WAT     H146298   2.543   1.698   1.612
11398WAT     H246299   2.415   1.652   1.593
11398WAT    EPW46300   2.490   1.641   1.614
11399WAT      O46301   1.466   2.194   2.985
11399WAT     H146302   1.462   2.244   2.913
11399WAT     H246303   1.499   2.118   2.955
11399WAT    EPW46304   1.470   2.190   2.970
11400WAT      O46305   2.626   2.414   2.810
11400WAT     H146306   2.674   2.486   2.820
11400WAT     H246307   2.665   2.371   2.745
11400WAT    EPW46308   2.639   2.418   2.802
11401WAT      O46309   2.055   2.699   2.928
11401WAT     H146310   2.091   2.681   3.006
11401WAT     H246311   2.012   2.626   2.908
11401WAT    EPW46312   2.054   2.685   2.937
11402WAT      O46313   2.153   1.773   2.192
11402WAT     H146314   2.201   1.843   2.213
11402WAT     H246315   2.190   1.709   2.237
11402WAT    EPW46316   2.165   1.774   2.202
11403WAT      O46317   2.372   2.090   1.419
11403WAT     H146318   2.371   2.162   1.370
11403WAT     H246319   2.308   2.104   1.477
11403WAT    EPW46320   2.362   2.103   1.421
11404WAT      O46321   2.869   2.477   1.817
11404WAT     H146322   2.904   2.442   1.889
11404WAT     H246323   2.868   2.411   1.760
11404WAT    EPW46324   2.874   2.462   1.819
11405WAT      O46325   2.473   2.784   2.202
11405WAT     H146326   2.413   2.754   2.146
11405WAT     H246327   2.528   2.829   2.151
11405WAT    EPW46328   2.472   2.786   2.186
11406WAT      O46329   2.475   2.469   2.142
11406WAT     H146330   2.395   2.491   2.169
11406WAT     H246331   2.500   2.410   2.200
11406WAT    EPW46332   2.467   2.463   2.154
11407WAT      O46333   1.864   2.950   1.587
11407WAT     H146334   1.849   2.873   1.624
11407WAT     H246335   1.933   2.935   1.535
11407WAT    EPW46336   1.872   2.936   1.584
11408WAT      O46337   1.831   1.324   1.385
11408WAT     H146338   1.841   1.314   1.471
11408WAT     H246339   1.760   1.375   1.379
11408WAT    EPW46340   1.822   1.330   1.397
11409WAT      O46341   2.093   2.902   1.427
11409WAT     H146342   2.155   2.918   1.486
11409WAT     H246343   2.097   2.971   1.374
11409WAT    EPW46344   2.103   2.914   1.428
11410WAT      O46345   2.801   2.269   2.626
11410WAT     H146346   2.806   2.281   2.540
11410WAT     H246347   2.876   2.301   2.657
11410WAT    EPW46348   2.812   2.275   2.618
11411WAT      O46349   2.420   2.804   3.054
11411WAT     H146350   2.436   2.832   3.135
11411WAT     H246351   2.446   2.870   3.004
11411WAT    EPW46352   2.426   2.818   3.059
11412WAT      O46353   2.904   1.299   2.925
11412WAT     H146354   2.840   1.259   2.881
11412WAT     H246355   2.906   1.255   3.001
11412WAT    EPW46356   2.895   1.286   2.930
11413WAT      O46357   1.543   2.155   1.510
11413WAT     H146358   1.575   2.077   1.487
11413WAT     H246359   1.608   2.192   1.555
11413WAT    EPW46360   1.557   2.149   1.513
11414WAT      O46361   2.374   2.249   2.586
11414WAT     H146362   2.358   2.310   2.647
11414WAT     H246363   2.427   2.194   2.627
11414WAT    EPW46364   2.379   2.250   2.601
11415WAT      O46365   1.243   1.321   1.606
11415WAT     H146366   1.256   1.250   1.557
11415WAT     H246367   1.206   1.289   1.679
11415WAT    EPW46368   1.239   1.306   1.610
11416WAT      O46369   2.212   2.089   1.652
11416WAT     H146370   2.218   2.154   1.710
11416WAT     H246371   2.193   2.020   1.701
11416WAT    EPW46372   2.210   2.089   1.668
11417WAT      O46373   2.735   2.522   2.239
11417WAT     H146374   2.687   2.552   2.172
11417WAT     H246375   2.699   2.445   2.257
11417WAT    EPW46376   2.722   2.515   2.232
11418WAT      O46377   1.662   1.541   1.303
11418WAT     H146378   1.611   1.546   1.233
11418WAT     H246379   1.740   1.565   1.274
11418WAT    EPW46380   1.666   1.545   1.289
11419WAT      O46381   2.134   2.294   2.095
11419WAT     H146382   2.050   2.275   2.103
11419WAT     H246383   2.167   2.278   2.175
11419WAT    EPW46384   2.127   2.289   2.108
11420WAT      O46385   1.810   2.967   1.184
11420WAT     H146386   1.853   2.897   1.213
11420WAT     H246387   1.830   3.029   1.241
11420WAT    EPW46388   1.819   2.966   1.197
11421WAT      O46389   1.519   2.263   2.327
11421WAT     H146390   1.591   2.312   2.323
11421WAT     H246391   1.492   2.260   2.244
11421WAT    EPW46392   1.526   2.270   2.314
11422WAT      O46393   1.842   1.780   2.000
11422WAT     H146394   1.927   1.761   2.010
11422WAT     H246395   1.805   1.703   1.987
11422WAT    EPW46396   1.849   1.766   2.000
11423WAT      O46397   3.104   2.939   1.433
11423WAT     H146398   3.173   2.892   1.408
11423WAT     H246399   3.050   2.879   1.467
11423WAT    EPW46400   3.106   2.923   1.434
11424WAT      O46401   1.324   1.914   1.666
11424WAT     H146402   1.373   1.885   1.732
11424WAT     H246403   1.337   1.855   1.603
11424WAT    EPW46404   1.333   1.901   1.666
11425WAT      O46405   2.828   2.216   2.351
11425WAT     H146406   2.827   2.139   2.391
11425WAT     H246407   2.744   2.240   2.350
11425WAT    EPW46408   2.815   2.208   2.357
11426WAT      O46409   1.777   2.058   1.214
11426WAT     H146410   1.716   2.017   1.262
11426WAT     H246411   1.738   2.069   1.137
11426WAT    EPW46412   1.762   2.053   1.210
11427WAT      O46413   1.459   2.369   2.755
11427WAT     H146414   1.417   2.317   2.699
11427WAT     H246415   1.423   2.447   2.740
11427WAT    EPW46416   1.447   2.373   2.744
11428WAT      O46417   2.953   2.224   2.095
11428WAT     H146418   2.925   2.264   2.167
11428WAT     H246419   3.039   2.217   2.107
11428WAT    EPW46420   2.962   2.229   2.107
11429WAT      O46421   1.922   1.904   1.485
11429WAT     H146422   1.949   1.986   1.492
11429WAT     H246423   1.836   1.911   1.476
11429WAT    EPW46424   1.914   1.917   1.485
11430WAT      O46425   2.720   1.616   2.949
11430WAT     H146426   2.667   1.662   3.001
11430WAT     H246427   2.683   1.536   2.948
11430WAT    EPW46428   2.706   1.611   2.956
11431WAT      O46429   1.270   1.501   2.139
11431WAT     H146430   1.275   1.535   2.059
11431WAT     H246431   1.346   1.524   2.176
11431WAT    EPW46432   1.282   1.509   2.133
11432WAT      O46433   3.066   2.787   2.148
11432WAT     H146434   3.095   2.813   2.069
11432WAT     H246435   3.136   2.796   2.199
11432WAT    EPW46436   3.081   2.792   2.144
11433WAT      O46437   2.569   1.973   2.956
11433WAT     H146438   2.576   1.983   3.043
11433WAT     H246439   2.505   2.029   2.934
11433WAT    EPW46440   2.560   1.983   2.966
11434WAT      O46441   2.796   2.005   2.793
11434WAT     H146442   2.827   2.083   2.813
11434WAT     H246443   2.759   1.978   2.867
11434WAT    EPW46444   2.795   2.012   2.807
11435WAT      O46445   2.727   2.647   1.346
11435WAT     H146446   2.760   2.567   1.349
11435WAT     H246447   2.651   2.640   1.389
11435WAT    EPW46448   2.721   2.634   1.353
11436WAT      O46449   2.775   1.831   1.912
11436WAT     H146450   2.701   1.798   1.943
11436WAT     H246451   2.775   1.913   1.940
11436WAT    EPW46452   2.764   1.838   1.920
11437WAT      O46453   3.065   2.059   3.066
11437WAT     H146454   3.060   2.025   2.986
11437WAT     H246455   3.139   2.106   3.064
11437WAT    EPW46456   3.075   2.061   3.054
11438WAT      O46457   3.019   2.427   2.687
11438WAT     H146458   3.082   2.372   2.661
11438WAT     H246459   3.013   2.483   2.621
11438WAT    EPW46460   3.028   2.427   2.673
11439WAT      O46461   2.464   2.435   1.286
11439WAT     H146462   2.533   2.383   1.269
11439WAT     H246463   2.423   2.439   1.210
11439WAT    EPW46464   2.468   2.428   1.272
11440WAT      O46465   1.933   2.550   2.416
11440WAT     H146466   1.903   2.609   2.473
11440WAT     H246467   1.938   2.594   2.342
11440WAT    EPW46468   1.929   2.565   2.414
11441WAT      O46469   1.730   2.445   2.756
11441WAT     H146470   1.650   2.416   2.773
11441WAT     H246471   1.722   2.531   2.757
11441WAT    EPW46472   1.717   2.453   2.759
11442WAT      O46473   2.666   1.464   2.658
11442WAT     H146474   2.741   1.509   2.651
11442WAT     H246475   2.610   1.511   2.611
11442WAT    EPW46476   2.669   1.477   2.650
11443WAT      O46477   2.184   2.192   2.366
11443WAT     H146478   2.232   2.229   2.428
11443WAT     H246479   2.102   2.205   2.391
11443WAT    EPW46480   2.179   2.199   2.379
11444WAT      O46481   1.855   1.752   2.640
11444WAT     H146482   1.871   1.678   2.682
11444WAT     H246483   1.851   1.727   2.556
11444WAT    EPW46484   1.857   1.738   2.634
11445WAT      O46485   2.111   2.931   1.888
11445WAT     H146486   2.165   2.999   1.894
11445WAT     H246487   2.076   2.939   1.809
11445WAT    EPW46488   2.113   2.943   1.877
11446WAT      O46489   2.795   1.262   2.425
11446WAT     H146490   2.767   1.344   2.420
11446WAT     H246491   2.866   1.267   2.474
11446WAT    EPW46492   2.801   1.275   2.431
11447WAT      O46493   2.030   1.333   2.628
11447WAT     H146494   2.101   1.365   2.587
11447WAT     H246495   2.054   1.252   2.650
11447WAT    EPW46496   2.044   1.326   2.625
11448WAT      O46497   1.929   2.754   2.227
11448WAT     H146498   1.866   2.812   2.209
11448WAT     H246499   1.954   2.725   2.149
11448WAT    EPW46500   1.923   2.758   2.213
11449WAT      O46501   2.360   2.417   2.926
11449WAT     H146502   2.435   2.446   2.894
11449WAT     H246503   2.305   2.423   2.858
11449WAT    EPW46504   2.363   2.422   2.911
11450WAT      O46505   2.751   2.672   2.777
11450WAT     H146506   2.785   2.699   2.852
11450WAT     H246507   2.780   2.731   2.719
11450WAT    EPW46508   2.760   2.685   2.779
11451WAT      O46509   2.937   1.887   1.310
11451WAT     H146510   2.975   1.955   1.270
11451WAT     H246511   2.853   1.909   1.314
11451WAT    EPW46512   2.930   1.900   1.305
11452WAT      O46513   2.088   2.232   1.219
11452WAT     H146514   2.008   2.214   1.190
11452WAT     H246515   2.085   2.317   1.238
11452WAT    EPW46516   2.076   2.242   1.217
11453WAT      O46517   1.681   1.838   2.234
11453WAT     H146518   1.725   1.828   2.159
11453WAT     H246519   1.736   1.807   2.294
11453WAT    EPW46520   1.696   1.832   2.232
11454WAT      O46521   2.483   1.749   2.793
11454WAT     H146522   2.418   1.796   2.828
11454WAT     H246523   2.539   1.740   2.859
11454WAT    EPW46524   2.482   1.754   2.808
11455WAT      O46525   2.452   1.902   2.423
11455WAT     H146526   2.482   1.944   2.493
11455WAT     H246527   2.455   1.818   2.446
11455WAT    EPW46528   2.457   1.896   2.437
11456WAT      O46529   2.194   2.919   2.815
11456WAT     H146530   2.242   2.859   2.774
11456WAT     H246531   2.159   2.875   2.882
11456WAT    EPW46532   2.196   2.904   2.819
11457WAT      O46533   2.706   1.847   1.648
11457WAT     H146534   2.727   1.827   1.730
11457WAT     H246535   2.782   1.874   1.614
11457WAT    EPW46536   2.721   1.848   1.655
11458WAT      O46537   2.036   1.337   2.238
11458WAT     H146538   1.953   1.322   2.262
11458WAT     H246539   2.032   1.340   2.151
11458WAT    EPW46540   2.023   1.335   2.229
11459WAT      O46541   2.809   1.455   1.795
11459WAT     H146542   2.737   1.408   1.812
11459WAT     H246543   2.792   1.489   1.717
11459WAT    EPW46544   2.796   1.453   1.786
11460WAT      O46545   2.853   2.250   1.633
11460WAT     H146546   2.901   2.177   1.629
11460WAT     H246547   2.771   2.221   1.626
11460WAT    EPW46548   2.848   2.235   1.631
11461WAT      O46549   2.200   2.441   2.717
11461WAT     H146550   2.121   2.434   2.752
11461WAT     H246551   2.207   2.526   2.698
11461WAT    EPW46552   2.189   2.452   2.720
11462WAT      O46553   1.292   1.377   2.842
11462WAT     H146554   1.278   1.456   2.809
11462WAT     H246555   1.214   1.352   2.871
11462WAT    EPW46556   1.279   1.385   2.841
11463WAT      O46557   1.783   3.062   2.249
11463WAT     H146558   1.784   3.067   2.336
11463WAT     H246559   1.741   2.987   2.234
11463WAT    EPW46560   1.777   3.051   2.260
11464WAT      O46561   1.599   1.651   1.564
11464WAT     H146562   1.611   1.618   1.485
11464WAT     H246563   1.518   1.626   1.584
11464WAT    EPW46564   1.589   1.643   1.556
11465WAT      O46565   2.475   2.366   1.869
11465WAT     H146566   2.482   2.400   1.949
11465WAT     H246567   2.491   2.282   1.881
11465WAT    EPW46568   2.478   2.359   1.882
11466WAT      O46569   2.227   2.294   1.825
11466WAT     H146570   2.197   2.262   1.901
11466WAT     H246571   2.296   2.341   1.849
11466WAT    EPW46572   2.233   2.296   1.840
11467WAT      O46573   2.249   2.706   2.628
11467WAT     H146574   2.318   2.694   2.681
11467WAT     H246575   2.262   2.785   2.594
11467WAT    EPW46576   2.261   2.716   2.631
11468WAT      O46577   3.067   1.966   2.809
11468WAT     H146578   2.981   1.954   2.822
11468WAT     H246579   3.082   1.927   2.733
11468WAT    EPW46580   3.056   1.959   2.800
11469WAT      O46581   2.518   2.033   2.667
11469WAT     H146582   2.492   1.961   2.709
11469WAT     H246583   2.600   2.045   2.694
11469WAT    EPW46584   2.526   2.024   2.677
11470WAT      O46585   1.459   3.011   2.793
11470WAT     H146586   1.394   2.954   2.803
11470WAT     H246587   1.422   3.089   2.808
11470WAT    EPW46588   1.444   3.014   2.797
11471WAT      O46589   2.311   2.152   2.985
11471WAT     H146590   2.344   2.221   2.942
11471WAT     H246591   2.241   2.184   3.026
11471WAT    EPW46592   2.306   2.167   2.985
11472WAT      O46593   2.620   2.989   2.078
11472WAT     H146594   2.575   3.054   2.116
11472WAT     H246595   2.690   2.981   2.129
11472WAT    EPW46596   2.623   2.998   2.091
11473WAT      O46597   2.290   2.498   2.371
11473WAT     H146598   2.220   2.539   2.406
11473WAT     H246599   2.357   2.542   2.405
11473WAT    EPW46600   2.289   2.511   2.381
11474WAT      O46601   2.827   2.758   3.029
11474WAT     H146602   2.905   2.719   3.038
11474WAT     H246603   2.781   2.724   3.095
11474WAT    EPW46604   2.832   2.747   3.040
11475WAT      O46605   1.597   1.852   2.606
11475WAT     H146606   1.634   1.914   2.557
11475WAT     H246607   1.664   1.805   2.635
11475WAT    EPW46608   1.612   1.854   2.603
11476WAT      O46609   1.374   1.697   2.534
11476WAT     H146610   1.382   1.680   2.448
11476WAT     H246611   1.449   1.738   2.553
11476WAT    EPW46612   1.386   1.700   2.524
11477WAT      O46613   2.930   1.961   1.578
11477WAT     H146614   2.940   1.955   1.491
11477WAT     H246615   3.004   1.928   1.609
11477WAT    EPW46616   2.942   1.955   1.569
11478WAT      O46617   1.629   1.438   2.775
11478WAT     H146618   1.621   1.354   2.795
11478WAT     H246619   1.598   1.442   2.693
11478WAT    EPW46620   1.624   1.426   2.766
11479WAT      O46621   2.322   2.657   1.688
11479WAT     H146622   2.301   2.741   1.672
11479WAT     H246623   2.244   2.619   1.700
11479WAT    EPW46624   2.307   2.664   1.688
11480WAT      O46625   2.840   1.976   2.513
11480WAT     H146626   2.840   1.889   2.526
11480WAT     H246627   2.847   2.008   2.594
11480WAT    EPW46628   2.841   1.968   2.527
11481WAT      O46629   1.314   2.220   2.556
11481WAT     H146630   1.346   2.241   2.478
11481WAT     H246631   1.304   2.133   2.550
11481WAT    EPW46632   1.317   2.210   2.544
11482WAT      O46633   1.459   1.813   1.218
11482WAT     H146634   1.392   1.815   1.273
11482WAT     H246635   1.469   1.728   1.199
11482WAT    EPW46636   1.451   1.801   1.223
11483WAT      O46637   2.428   1.456   2.891
11483WAT     H146638   2.437   1.527   2.941
11483WAT     H246639   2.364   1.411   2.931
11483WAT    EPW46640   2.420   1.459   2.905
11484WAT      O46641   2.327   1.475   1.977
11484WAT     H146642   2.257   1.526   1.971
11484WAT     H246643   2.331   1.437   1.898
11484WAT    EPW46644   2.318   1.477   1.964
11485WAT      O46645   1.858   2.684   1.329
11485WAT     H146646   1.902   2.692   1.404
11485WAT     H246647   1.778   2.662   1.355
11485WAT    EPW46648   1.853   2.682   1.344
11486WAT      O46649   2.687   1.526   2.257
11486WAT     H146650   2.773   1.536   2.271
11486WAT     H246651   2.650   1.581   2.313
11486WAT    EPW46652   2.694   1.536   2.267
11487WAT      O46653   1.790   2.149   2.694
11487WAT     H146654   1.750   2.226   2.702
11487WAT     H246655   1.749   2.111   2.627
11487WAT    EPW46656   1.778   2.155   2.686
11488WAT      O46657   2.718   2.054   2.106
11488WAT     H146658   2.784   2.108   2.122
11488WAT     H246659   2.683   2.085   2.032
11488WAT    EPW46660   2.722   2.067   2.097
11489WAT      O46661   2.749   2.861   1.687
11489WAT     H146662   2.732   2.795   1.742
11489WAT     H246663   2.820   2.834   1.644
11489WAT    EPW46664   2.757   2.847   1.688
11490WAT      O46665   1.591   2.591   1.389
11490WAT     H146666   1.567   2.560   1.467
11490WAT     H246667   1.588   2.520   1.338
11490WAT    EPW46668   1.587   2.576   1.393
11491WAT      O46669   1.873   2.415   1.264
11491WAT     H146670   1.791   2.388   1.278
11491WAT     H246671   1.870   2.500   1.282
11491WAT    EPW46672   1.860   2.424   1.268
11492WAT      O46673   1.833   1.446   2.439
11492WAT     H146674   1.747   1.455   2.447
11492WAT     H246675   1.855   1.395   2.506
11492WAT    EPW46676   1.823   1.440   2.451
11493WAT      O46677   3.035   1.310   2.572
11493WAT     H146678   3.030   1.306   2.659
11493WAT     H246679   3.103   1.260   2.553
11493WAT    EPW46680   3.044   1.302   2.582
11494WAT      O46681   2.243   1.521   2.277
11494WAT     H146682   2.170   1.476   2.288
11494WAT     H246683   2.300   1.481   2.329
11494WAT    EPW46684   2.241   1.509   2.286
11495WAT      O46685   2.516   2.606   2.456
11495WAT     H146686   2.537   2.636   2.535
11495WAT     H246687   2.510   2.678   2.407
11495WAT    EPW46688   2.519   2.621   2.460
11496WAT      O46689   2.470   3.027   2.880
11496WAT     H146690   2.395   3.026   2.836
11496WAT     H246691   2.487   3.113   2.889
11496WAT    EPW46692   2.461   3.040   2.875
11497WAT      O46693   1.994   1.954   2.797
11497WAT     H146694   1.961   1.897   2.740
11497WAT     H246695   1.958   2.030   2.773
11497WAT    EPW46696   1.984   1.957   2.785
11498WAT      O46697   2.073   1.279   1.260
11498WAT     H146698   2.081   1.304   1.177
11498WAT     H246699   1.999   1.317   1.286
11498WAT    EPW46700   2.063   1.289   1.251
11499WAT      O46701   2.998   2.470   2.401
11499WAT     H146702   2.994   2.384   2.388
11499WAT     H246703   2.928   2.500   2.358
11499WAT    EPW46704   2.987   2.462   2.393
11500WAT      O46705   1.837   2.990   2.822
11500WAT     H146706   1.841   3.002   2.908
11500WAT     H246707   1.902   2.934   2.806
11500WAT    EPW46708   1.847   2.983   2.833
11501WAT      O46709   1.555   1.455   2.504
11501WAT     H146710   1.521   1.378   2.481
11501WAT     H246711   1.485   1.507   2.511
11501WAT    EPW46712   1.540   1.451   2.502
11502WAT      O46713   2.460   1.340   2.202
11502WAT     H146714   2.527   1.395   2.215
11502WAT     H246715   2.409   1.383   2.145
11502WAT    EPW46716   2.462   1.355   2.195
11503WAT      O46717   1.596   2.828   2.958
11503WAT     H146718   1.656   2.871   3.005
11503WAT     H246719   1.560   2.890   2.909
11503WAT    EPW46720   1.600   2.844   2.958
11504WAT      O46721   2.395   1.921   1.951
11504WAT     H146722   2.451   1.860   1.981
11504WAT     H246723   2.353   1.947   2.023
11504WAT    EPW46724   2.397   1.916   1.966
11505WAT      O46725   1.420   1.786   1.900
11505WAT     H146726   1.383   1.816   1.973
11505WAT     H246727   1.474   1.723   1.928
11505WAT    EPW46728   1.423   1.781   1.915
11506WAT      O46729   1.389   2.627   2.651
11506WAT     H146730   1.332   2.669   2.702
11506WAT     H246731   1.462   2.673   2.660
11506WAT    EPW46732   1.391   2.640   2.660
11507WAT      O46733   2.592   2.104   1.607
11507WAT     H146734   2.599   2.019   1.626
11507WAT     H246735   2.510   2.113   1.580
11507WAT    EPW46736   2.581   2.093   1.606
11508WAT      O46737   1.568   2.954   1.528
11508WAT     H146738   1.553   2.969   1.444
11508WAT     H246739   1.654   2.962   1.536
11508WAT    EPW46740   1.578   2.957   1.517
11509WAT      O46741   1.984   2.193   1.501
11509WAT     H146742   1.994   2.207   1.416
11509WAT     H246743   2.066   2.187   1.531
11509WAT    EPW46744   1.998   2.194   1.493
11510WAT      O46745   2.900   3.000   1.249
11510WAT     H146746   2.964   2.986   1.307
11510WAT     H246747   2.866   2.920   1.238
11510WAT    EPW46748   2.905   2.986   1.256
11511WAT      O46749   2.920   2.242   2.923
11511WAT     H146750   2.983   2.225   2.980
11511WAT     H246751   2.962   2.282   2.857
11511WAT    EPW46752   2.935   2.245   2.921
11512WAT      O46753   2.508   2.626   1.481
11512WAT     H146754   2.483   2.613   1.564
11512WAT     H246755   2.476   2.557   1.439
11512WAT    EPW46756   2.499   2.614   1.487
11513WAT      O46757   2.982   1.698   2.996
11513WAT     H146758   2.963   1.762   3.052
11513WAT     H246759   2.910   1.649   2.996
11513WAT    EPW46760   2.969   1.700   3.004
11514WAT      O46761   2.972   1.792   2.293
11514WAT     H146762   2.889   1.817   2.286
11514WAT     H246763   2.967   1.708   2.316
11514WAT    EPW46764   2.959   1.783   2.296
11515WAT      O46765   1.898   1.491   2.813
11515WAT     H146766   1.922   1.433   2.752
11515WAT     H246767   1.814   1.473   2.827
11515WAT    EPW46768   1.889   1.480   2.806
11516WAT      O46769   2.661   2.253   3.058
11516WAT     H146770   2.748   2.249   3.054
11516WAT     H246771   2.639   2.295   2.985
11516WAT    EPW46772   2.671   2.258   3.047
11517WAT      O46773   1.636   2.835   2.176
11517WAT     H146774   1.628   2.754   2.145
11517WAT     H246775   1.592   2.884   2.119
11517WAT    EPW46776   1.629   2.830   2.163
11518WAT      O46777   2.196   2.447   1.424
11518WAT     H146778   2.268   2.412   1.389
11518WAT     H246779   2.193   2.527   1.390
11518WAT    EPW46780   2.207   2.454   1.414
11519WAT      O46781   1.394   3.060   2.534
11519WAT     H146782   1.443   3.054   2.606
11519WAT     H246783   1.412   2.986   2.491
11519WAT    EPW46784   1.404   3.048   2.538
11520WAT      O46785   2.318   2.003   0.315
11520WAT     H146786   2.266   2.062   0.352
11520WAT     H246787   2.358   1.966   0.384
11520WAT    EPW46788   2.316   2.006   0.331
11521WAT      O46789   1.299   2.690   0.487
11521WAT     H146790   1.312   2.662   0.568
11521WAT     H246791   1.238   2.636   0.456
11521WAT    EPW46792   1.292   2.678   0.494
11522WAT      O46793   1.957   2.443   0.993
11522WAT     H146794   1.933   2.442   1.077
11522WAT     H246795   1.882   2.428   0.951
11522WAT    EPW46796   1.942   2.440   0.999
11523WAT      O46797   1.895   1.703   0.441
11523WAT     H146798   1.962   1.705   0.387
11523WAT     H246799   1.890   1.620   0.466
11523WAT    EPW46800   1.904   1.691   0.437
11524WAT      O46801   1.955   2.762   0.720
11524WAT     H146802   1.969   2.838   0.679
11524WAT     H246803   2.034   2.725   0.722
11524WAT    EPW46804   1.968   2.768   0.714
11525WAT      O46805   2.267   1.908   0.925
11525WAT     H146806   2.182   1.899   0.907
11525WAT     H246807   2.270   1.983   0.970
11525WAT    EPW46808   2.255   1.918   0.929
11526WAT      O46809   2.723   1.204   0.836
11526WAT     H146810   2.707   1.281   0.798
11526WAT     H246811   2.645   1.182   0.871
11526WAT    EPW46812   2.709   1.213   0.836
11527WAT      O46813   1.289   1.918   0.208
11527WAT     H146814   1.264   2.002   0.201
11527WAT     H246815   1.223   1.880   0.250
11527WAT    EPW46816   1.276   1.925   0.213
11528WAT      O46817   1.592   1.400   0.257
11528WAT     H146818   1.540   1.337   0.226
11528WAT     H246819   1.651   1.356   0.304
11528WAT    EPW46820   1.593   1.384   0.260
11529WAT      O46821   1.923   1.613   1.187
11529WAT     H146822   1.935   1.568   1.113
11529WAT     H246823   1.952   1.693   1.167
11529WAT    EPW46824   1.929   1.619   1.173
11530WAT      O46825   2.539   2.943   0.528
11530WAT     H146826   2.614   2.988   0.527
11530WAT     H246827   2.527   2.921   0.444
11530WAT    EPW46828   2.549   2.946   0.515
11531WAT      O46829   1.496   1.573   1.085
11531WAT     H146830   1.418   1.534   1.078
11531WAT     H246831   1.545   1.532   1.026
11531WAT    EPW46832   1.492   1.561   1.076
11532WAT      O46833   2.161   1.337   1.002
11532WAT     H146834   2.179   1.257   0.975
11532WAT     H246835   2.147   1.382   0.928
11532WAT    EPW46836   2.162   1.332   0.987
11533WAT      O46837   1.740   3.012   0.645
11533WAT     H146838   1.769   3.006   0.727
11533WAT     H246839   1.677   2.952   0.640
11533WAT    EPW46840   1.735   3.002   0.656
11534WAT      O46841   2.976   1.498   0.454
11534WAT     H146842   3.051   1.505   0.411
11534WAT     H246843   2.982   1.421   0.494
11534WAT    EPW46844   2.988   1.488   0.454
11535WAT      O46845   1.231   1.628   0.844
11535WAT     H146846   1.231   1.687   0.909
11535WAT     H246847   1.290   1.659   0.788
11535WAT    EPW46848   1.240   1.641   0.845
11536WAT      O46849   2.465   2.661   0.898
11536WAT     H146850   2.461   2.700   0.977
11536WAT     H246851   2.550   2.657   0.881
11536WAT    EPW46852   2.477   2.666   0.907
11537WAT      O46853   1.539   2.828   0.557
11537WAT     H146854   1.469   2.778   0.570
11537WAT     H246855   1.565   2.808   0.476
11537WAT    EPW46856   1.532   2.818   0.547
11538WAT      O46857   2.310   2.978   0.648
11538WAT     H146858   2.387   2.970   0.607
11538WAT     H246859   2.252   2.966   0.584
11538WAT    EPW46860   2.313   2.975   0.633
11539WAT      O46861   1.675   2.714   0.814
11539WAT     H146862   1.759   2.720   0.791
11539WAT     H246863   1.671   2.753   0.891
11539WAT    EPW46864   1.687   2.720   0.822
11540WAT      O46865   1.871   2.265   0.289
11540WAT     H146866   1.888   2.244   0.371
11540WAT     H246867   1.806   2.211   0.267
11540WAT    EPW46868   1.864   2.254   0.298
11541WAT      O46869   2.494   1.656   0.640
11541WAT     H146870   2.485   1.688   0.721
11541WAT     H246871   2.435   1.592   0.636
11541WAT    EPW46872   2.484   1.651   0.651
11542WAT      O46873   1.946   2.258   0.548
11542WAT     H146874   1.952   2.343   0.568
11542WAT     H246875   1.918   2.221   0.621
11542WAT    EPW46876   1.943   2.265   0.561
11543WAT      O46877   2.564   2.328   0.461
11543WAT     H146878   2.513   2.287   0.518
11543WAT     H246879   2.551   2.412   0.479
11543WAT    EPW46880   2.555   2.334   0.472
11544WAT      O46881   1.228   2.696   1.169
11544WAT     H146882   1.304   2.730   1.194
11544WAT     H246883   1.246   2.610   1.163
11544WAT    EPW46884   1.242   2.688   1.172
11545WAT      O46885   2.866   1.674   0.754
11545WAT     H146886   2.943   1.652   0.788
11545WAT     H246887   2.819   1.696   0.824
11545WAT    EPW46888   2.870   1.674   0.770
11546WAT      O46889   1.435   1.713   0.360
11546WAT     H146890   1.519   1.735   0.355
11546WAT     H246891   1.396   1.770   0.307
11546WAT    EPW46892   1.441   1.724   0.351
11547WAT      O46893   3.113   2.823   0.899
11547WAT     H146894   3.044   2.854   0.854
11547WAT     H246895   3.076   2.777   0.963
11547WAT    EPW46896   3.097   2.821   0.902
11548WAT      O46897   2.020   1.881   1.171
11548WAT     H146898   1.972   1.939   1.216
11548WAT     H246899   2.017   1.911   1.089
11548WAT    EPW46900   2.012   1.894   1.166
11549WAT      O46901   3.130   1.949   0.633
11549WAT     H146902   3.151   1.869   0.605
11549WAT     H246903   3.045   1.955   0.614
11549WAT    EPW46904   3.120   1.939   0.626
11550WAT      O46905   1.699   2.495   0.339
11550WAT     H146906   1.746   2.524   0.406
11550WAT     H246907   1.757   2.447   0.293
11550WAT    EPW46908   1.715   2.492   0.342
11551WAT      O46909   2.896   2.861   0.708
11551WAT     H146910   2.829   2.912   0.729
11551WAT     H246911   2.902   2.871   0.621
11551WAT    EPW46912   2.887   2.870   0.698
11552WAT      O46913   1.577   1.962   1.007
11552WAT     H146914   1.524   1.911   1.054
11552WAT     H246915   1.579   1.923   0.929
11552WAT    EPW46916   1.570   1.948   1.003
11553WAT      O46917   1.686   2.058   0.528
11553WAT     H146918   1.688   1.991   0.473
11553WAT     H246919   1.621   2.108   0.497
11553WAT    EPW46920   1.677   2.055   0.515
11554WAT      O46921   2.675   1.829   0.368
11554WAT     H146922   2.609   1.862   0.414
11554WAT     H246923   2.694   1.893   0.311
11554WAT    EPW46924   2.668   1.844   0.366
11555WAT      O46925   2.096   2.936   0.467
11555WAT     H146926   2.068   2.872   0.415
11555WAT     H246927   2.075   3.008   0.423
11555WAT    EPW46928   2.089   2.937   0.453
11556WAT      O46929   2.340   1.420   0.711
11556WAT     H146930   2.355   1.338   0.686
11556WAT     H246931   2.378   1.426   0.789
11556WAT    EPW46932   2.347   1.409   0.719
11557WAT      O46933   1.466   2.194   1.084
11557WAT     H146934   1.462   2.244   1.013
11557WAT     H246935   1.499   2.118   1.054
11557WAT    EPW46936   1.470   2.190   1.069
11558WAT      O46937   2.626   2.414   0.910
11558WAT     H146938   2.674   2.486   0.920
11558WAT     H246939   2.665   2.371   0.845
11558WAT    EPW46940   2.639   2.418   0.902
11559WAT      O46941   2.055   2.699   1.027
11559WAT     H146942   2.091   2.681   1.105
11559WAT     H246943   2.012   2.626   1.008
11559WAT    EPW46944   2.054   2.685   1.036
11560WAT      O46945   2.153   1.773   0.291
11560WAT     H146946   2.201   1.843   0.312
11560WAT     H246947   2.190   1.709   0.336
11560WAT    EPW46948   2.165   1.774   0.301
11561WAT      O46949   2.473   2.784   0.301
11561WAT     H146950   2.413   2.754   0.245
11561WAT     H246951   2.528   2.829   0.250
11561WAT    EPW46952   2.472   2.786   0.285
11562WAT      O46953   2.475   2.469   0.241
11562WAT     H146954   2.395   2.491   0.269
11562WAT     H246955   2.500   2.410   0.300
11562WAT    EPW46956   2.467   2.463   0.254
11563WAT      O46957   2.801   2.269   0.726
11563WAT     H146958   2.806   2.281   0.640
11563WAT     H246959   2.876   2.301   0.756
11563WAT    EPW46960   2.812   2.275   0.717
11564WAT      O46961   2.420   2.804   1.153
11564WAT     H146962   2.436   2.832   1.234
11564WAT     H246963   2.446   2.870   1.103
11564WAT    EPW46964   2.426   2.818   1.158
11565WAT      O46965   2.904   1.299   1.024
11565WAT     H146966   2.840   1.259   0.980
11565WAT     H246967   2.906   1.255   1.100
11565WAT    EPW46968   2.895   1.286   1.029
11566WAT      O46969   2.374   2.249   0.686
11566WAT     H146970   2.358   2.310   0.746
11566WAT     H246971   2.427   2.194   0.726
11566WAT    EPW46972   2.379   2.250   0.701
11567WAT      O46973   2.735   2.522   0.338
11567WAT     H146974   2.687   2.552   0.272
11567WAT     H246975   2.699   2.445   0.356
11567WAT    EPW46976   2.722   2.515   0.331
11568WAT      O46977   2.134   2.294   0.195
11568WAT     H146978   2.050   2.275   0.203
11568WAT     H246979   2.167   2.278   0.274
11568WAT    EPW46980   2.127   2.289   0.208
11569WAT      O46981   1.519   2.263   0.426
11569WAT     H146982   1.591   2.312   0.423
11569WAT     H246983   1.492   2.260   0.343
11569WAT    EPW46984   1.526   2.270   0.413
11570WAT      O46985   2.828   2.216   0.450
11570WAT     H146986   2.827   2.139   0.490
11570WAT     H246987   2.744   2.240   0.450
11570WAT    EPW46988   2.815   2.208   0.456
11571WAT      O46989   1.459   2.369   0.854
11571WAT     H146990   1.417   2.317   0.798
11571WAT     H246991   1.423   2.447   0.840
11571WAT    EPW46992   1.447   2.373   0.844
11572WAT      O46993   2.953   2.224   0.194
11572WAT     H146994   2.925   2.264   0.266
11572WAT     H246995   3.039   2.217   0.207
11572WAT    EPW46996   2.962   2.229   0.207
11573WAT      O46997   2.720   1.616   1.048
11573WAT     H146998   2.667   1.662   1.100
11573WAT     H246999   2.683   1.536   1.047
11573WAT    EPW47000   2.706   1.611   1.056
11574WAT      O47001   3.066   2.787   0.247
11574WAT     H147002   3.095   2.813   0.169
11574WAT     H247003   3.136   2.796   0.299
11574WAT    EPW47004   3.081   2.792   0.243
11575WAT      O47005   2.569   1.973   1.056
11575WAT     H147006   2.576   1.983   1.142
11575WAT     H247007   2.505   2.029   1.034
11575WAT    EPW47008   2.560   1.983   1.065
11576WAT      O47009   2.796   2.005   0.892
11576WAT     H147010   2.827   2.083   0.912
11576WAT     H247011   2.759   1.978   0.966
11576WAT    EPW47012   2.795   2.012   0.906
11577WAT      O47013   3.065   2.059   1.166
11577WAT     H147014   3.060   2.025   1.086
11577WAT     H247015   3.139   2.106   1.163
11577WAT    EPW47016   3.075   2.061   1.153
11578WAT      O47017   3.019   2.427   0.786
11578WAT     H147018   3.082   2.372   0.761
11578WAT     H247019   3.013   2.483   0.720
11578WAT    EPW47020   3.028   2.427   0.773
11579WAT      O47021   1.933   2.550   0.516
11579WAT     H147022   1.903   2.609   0.573
11579WAT     H247023   1.938   2.594   0.441
11579WAT    EPW47024   1.929   2.565   0.513
11580WAT      O47025   1.730   2.445   0.856
11580WAT     H147026   1.650   2.416   0.872
11580WAT     H247027   1.722   2.531   0.856
11580WAT    EPW47028   1.717   2.453   0.858
11581WAT      O47029   2.666   1.464   0.757
11581WAT     H147030   2.741   1.509   0.751
11581WAT     H247031   2.610   1.511   0.710
11581WAT    EPW47032   2.669   1.477   0.749
11582WAT      O47033   2.184   2.192   0.465
11582WAT     H147034   2.232   2.229   0.528
11582WAT     H247035   2.102   2.205   0.491
11582WAT    EPW47036   2.179   2.199   0.478
11583WAT      O47037   1.855   1.752   0.739
11583WAT     H147038   1.871   1.678   0.782
11583WAT     H247039   1.851   1.727   0.656
11583WAT    EPW47040   1.857   1.738   0.733
11584WAT      O47041   2.795   1.262   0.524
11584WAT     H147042   2.767   1.344   0.520
11584WAT     H247043   2.866   1.267   0.574
11584WAT    EPW47044   2.801   1.275   0.531
11585WAT      O47045   2.030   1.333   0.727
11585WAT     H147046   2.101   1.365   0.687
11585WAT     H247047   2.054   1.252   0.750
11585WAT    EPW47048   2.044   1.326   0.724
11586WAT      O47049   1.929   2.754   0.327
11586WAT     H147050   1.866   2.812   0.308
11586WAT     H247051   1.954   2.725   0.248
11586WAT    EPW47052   1.923   2.758   0.312
11587WAT      O47053   2.360   2.417   1.026
11587WAT     H147054   2.435   2.446   0.993
11587WAT     H247055   2.305   2.423   0.958
11587WAT    EPW47056   2.363   2.422   1.011
11588WAT      O47057   2.751   2.672   0.876
11588WAT     H147058   2.785   2.699   0.951
11588WAT     H247059   2.780   2.731   0.818
11588WAT    EPW47060   2.760   2.685   0.879
11589WAT      O47061   1.681   1.838   0.333
11589WAT     H147062   1.725   1.828   0.259
11589WAT     H247063   1.736   1.807   0.394
11589WAT    EPW47064   1.696   1.832   0.331
11590WAT      O47065   2.483   1.749   0.892
11590WAT     H147066   2.418   1.796   0.927
11590WAT     H247067   2.539   1.740   0.958
11590WAT    EPW47068   2.482   1.754   0.907
11591WAT      O47069   2.452   1.902   0.522
11591WAT     H147070   2.482   1.944   0.592
11591WAT     H247071   2.455   1.818   0.545
11591WAT    EPW47072   2.457   1.896   0.536
11592WAT      O47073   2.194   2.919   0.915
11592WAT     H147074   2.242   2.859   0.873
11592WAT     H247075   2.159   2.875   0.981
11592WAT    EPW47076   2.196   2.904   0.918
11593WAT      O47077   2.036   1.337   0.338
11593WAT     H147078   1.953   1.322   0.362
11593WAT     H247079   2.032   1.340   0.251
11593WAT    EPW47080   2.023   1.335   0.328
11594WAT      O47081   2.200   2.441   0.817
11594WAT     H147082   2.121   2.434   0.852
11594WAT     H247083   2.207   2.526   0.797
11594WAT    EPW47084   2.189   2.452   0.819
11595WAT      O47085   1.292   1.377   0.941
11595WAT     H147086   1.278   1.456   0.908
11595WAT     H247087   1.214   1.352   0.970
11595WAT    EPW47088   1.279   1.385   0.941
11596WAT      O47089   1.783   3.062   0.348
11596WAT     H147090   1.784   3.067   0.435
11596WAT     H247091   1.741   2.987   0.333
11596WAT    EPW47092   1.777   3.051   0.359
11597WAT      O47093   2.249   2.706   0.727
11597WAT     H147094   2.318   2.694   0.780
11597WAT     H247095   2.262   2.785   0.693
11597WAT    EPW47096   2.261   2.716   0.730
11598WAT      O47097   3.067   1.966   0.909
11598WAT     H147098   2.981   1.954   0.921
11598WAT     H247099   3.082   1.927   0.832
11598WAT    EPW47100   3.056   1.959   0.899
11599WAT      O47101   2.518   2.033   0.766
11599WAT     H147102   2.492   1.961   0.808
11599WAT     H247103   2.600   2.045   0.793
11599WAT    EPW47104   2.526   2.024   0.776
11600WAT      O47105   1.459   3.011   0.893
11600WAT     H147106   1.394   2.954   0.902
11600WAT     H247107   1.422   3.089   0.908
11600WAT    EPW47108   1.444   3.014   0.896
11601WAT      O47109   2.311   2.152   1.085
11601WAT     H147110   2.344   2.221   1.042
11601WAT     H247111   2.241   2.184   1.125
11601WAT    EPW47112   2.306   2.167   1.084
11602WAT      O47113   2.620   2.989   0.178
11602WAT     H147114   2.575   3.054   0.216
11602WAT     H247115   2.690   2.981   0.228
11602WAT    EPW47116   2.623   2.998   0.191
11603WAT      O47117   2.290   2.498   0.471
11603WAT     H147118   2.220   2.539   0.505
11603WAT     H247119   2.357   2.542   0.505
11603WAT    EPW47120   2.289   2.511   0.481
11604WAT      O47121   2.827   2.758   1.129
11604WAT     H147122   2.905   2.719   1.137
11604WAT     H247123   2.781   2.724   1.194
11604WAT    EPW47124   2.832   2.747   1.140
11605WAT      O47125   1.597   1.852   0.705
11605WAT     H147126   1.634   1.914   0.657
11605WAT     H247127   1.664   1.805   0.734
11605WAT    EPW47128   1.612   1.854   0.702
11606WAT      O47129   1.374   1.697   0.633
11606WAT     H147130   1.382   1.680   0.548
11606WAT     H247131   1.449   1.738   0.653
11606WAT    EPW47132   1.386   1.700   0.623
11607WAT      O47133   1.629   1.438   0.874
11607WAT     H147134   1.621   1.354   0.895
11607WAT     H247135   1.598   1.442   0.793
11607WAT    EPW47136   1.624   1.426   0.865
11608WAT      O47137   2.840   1.976   0.613
11608WAT     H147138   2.840   1.889   0.625
11608WAT     H247139   2.847   2.008   0.693
11608WAT    EPW47140   2.841   1.968   0.626
11609WAT      O47141   1.314   2.220   0.655
11609WAT     H147142   1.346   2.241   0.577
11609WAT     H247143   1.304   2.133   0.650
11609WAT    EPW47144   1.317   2.210   0.643
11610WAT      O47145   2.428   1.456   0.991
11610WAT     H147146   2.437   1.527   1.040
11610WAT     H247147   2.364   1.411   1.030
11610WAT    EPW47148   2.420   1.459   1.004
11611WAT      O47149   2.687   1.526   0.356
11611WAT     H147150   2.773   1.536   0.371
11611WAT     H247151   2.650   1.581   0.413
11611WAT    EPW47152   2.694   1.536   0.367
11612WAT      O47153   1.790   2.149   0.794
11612WAT     H147154   1.750   2.226   0.801
11612WAT     H247155   1.749   2.111   0.726
11612WAT    EPW47156   1.778   2.155   0.785
11613WAT      O47157   1.833   1.446   0.539
11613WAT     H147158   1.747   1.455   0.547
11613WAT     H247159   1.855   1.395   0.606
11613WAT    EPW47160   1.823   1.440   0.550
11614WAT      O47161   3.035   1.310   0.672
11614WAT     H147162   3.030   1.306   0.759
11614WAT     H247163   3.103   1.260   0.653
11614WAT    EPW47164   3.044   1.302   0.682
11615WAT      O47165   2.243   1.521   0.376
11615WAT     H147166   2.170   1.476   0.388
11615WAT     H247167   2.300   1.481   0.429
11615WAT    EPW47168   2.241   1.509   0.386
11616WAT      O47169   2.516   2.606   0.555
11616WAT     H147170   2.537   2.636   0.634
11616WAT     H247171   2.510   2.678   0.507
11616WAT    EPW47172   2.519   2.621   0.560
11617WAT      O47173   2.470   3.027   0.980
11617WAT     H147174   2.395   3.026   0.936
11617WAT     H247175   2.487   3.113   0.988
11617WAT    EPW47176   2.461   3.040   0.974
11618WAT      O47177   1.994   1.954   0.897
11618WAT     H147178   1.961   1.897   0.840
11618WAT     H247179   1.958   2.030   0.872
11618WAT    EPW47180   1.984   1.957   0.885
11619WAT      O47181   2.998   2.470   0.501
11619WAT     H147182   2.994   2.384   0.487
11619WAT     H247183   2.928   2.500   0.457
11619WAT    EPW47184   2.987   2.462   0.492
11620WAT      O47185   1.837   2.990   0.921
11620WAT     H147186   1.841   3.002   1.008
11620WAT     H247187   1.902   2.934   0.906
11620WAT    EPW47188   1.847   2.983   0.932
11621WAT      O47189   2.808   2.796   0.381
11621WAT     H147190   2.861   2.788   0.311
11621WAT     H247191   2.769   2.718   0.386
11621WAT    EPW47192   2.810   2.783   0.371
11622WAT      O47193   1.555   1.455   0.604
11622WAT     H147194   1.521   1.378   0.580
11622WAT     H247195   1.485   1.507   0.610
11622WAT    EPW47196   1.540   1.451   0.601
11623WAT      O47197   2.460   1.340   0.301
11623WAT     H147198   2.527   1.395   0.314
11623WAT     H247199   2.409   1.383   0.244
11623WAT    EPW47200   2.462   1.355   0.295
11624WAT      O47201   1.596   2.828   1.057
11624WAT     H147202   1.656   2.871   1.105
11624WAT     H247203   1.560   2.890   1.009
11624WAT    EPW47204   1.600   2.844   1.057
11625WAT      O47205   1.389   2.627   0.750
11625WAT     H147206   1.332   2.669   0.801
11625WAT     H247207   1.462   2.673   0.760
11625WAT    EPW47208   1.391   2.640   0.759
11626WAT      O47209   2.920   2.242   1.022
11626WAT     H147210   2.983   2.225   1.079
11626WAT     H247211   2.962   2.282   0.957
11626WAT    EPW47212   2.935   2.245   1.021
11627WAT      O47213   2.982   1.698   1.096
11627WAT     H147214   2.963   1.762   1.151
11627WAT     H247215   2.910   1.649   1.095
11627WAT    EPW47216   2.969   1.700   1.104
11628WAT      O47217   2.972   1.792   0.393
11628WAT     H147218   2.889   1.817   0.386
11628WAT     H247219   2.967   1.708   0.416
11628WAT    EPW47220   2.959   1.783   0.395
11629WAT      O47221   1.898   1.491   0.912
11629WAT     H147222   1.922   1.433   0.851
11629WAT     H247223   1.814   1.473   0.926
11629WAT    EPW47224   1.889   1.480   0.905
11630WAT      O47225   2.661   2.253   1.157
11630WAT     H147226   2.748   2.249   1.154
11630WAT     H247227   2.639   2.295   1.084
11630WAT    EPW47228   2.671   2.258   1.146
11631WAT      O47229   1.636   2.835   0.276
11631WAT     H147230   1.628   2.754   0.244
11631WAT     H247231   1.592   2.884   0.218
11631WAT    EPW47232   1.629   2.830   0.262
11632WAT      O47233   1.394   3.060   0.634
11632WAT     H147234   1.443   3.054   0.705
11632WAT     H247235   1.412   2.986   0.590
11632WAT    EPW47236   1.404   3.048   0.638
11633WAT      O47237   1.305   0.569   7.464
11633WAT     H147238   1.261   0.581   7.538
11633WAT     H247239   1.277   0.491   7.435
11633WAT    EPW47240   1.294   0.559   7.470
11634WAT      O47241   2.933   0.899   7.215
11634WAT     H147242   3.003   0.847   7.215
11634WAT     H247243   2.874   0.855   7.168
11634WAT    EPW47244   2.934   0.885   7.208
11635WAT      O47245   1.593   0.474   6.981
11635WAT     H147246   1.554   0.437   6.913
11635WAT     H247247   1.585   0.415   7.044
11635WAT    EPW47248   1.586   0.460   6.981
11636WAT      O47249   2.585   0.262   7.586
11636WAT     H147250   2.593   0.262   7.499
11636WAT     H247251   2.527   0.198   7.600
11636WAT    EPW47252   2.578   0.252   7.575
11637WAT      O47253   1.556   0.639   7.371
11637WAT     H147254   1.617   0.622   7.432
11637WAT     H247255   1.481   0.625   7.414
11637WAT    EPW47256   1.554   0.634   7.387
11638WAT      O47257   1.445   0.948   6.979
11638WAT     H147258   1.492   0.956   6.906
11638WAT     H247259   1.491   0.890   7.026
11638WAT    EPW47260   1.459   0.940   6.975
11639WAT      O47261   1.444   0.295   7.509
11639WAT     H147262   1.398   0.255   7.447
11639WAT     H247263   1.514   0.243   7.518
11639WAT    EPW47264   1.447   0.281   7.501
11640WAT      O47265   2.064   0.703   7.773
11640WAT     H147266   2.099   0.623   7.776
11640WAT     H247267   2.131   0.753   7.747
11640WAT    EPW47268   2.079   0.698   7.769
11641WAT      O47269   2.070   0.648   7.394
11641WAT     H147270   2.103   0.583   7.442
11641WAT     H247271   2.094   0.626   7.313
11641WAT    EPW47272   2.078   0.635   7.389
11642WAT      O47273   1.280   1.042   7.601
11642WAT     H147274   1.221   1.097   7.569
11642WAT     H247275   1.323   1.015   7.529
11642WAT    EPW47276   1.278   1.046   7.585
11643WAT      O47277   1.864   0.826   7.349
11643WAT     H147278   1.806   0.799   7.408
11643WAT     H247279   1.927   0.765   7.351
11643WAT    EPW47280   1.865   0.813   7.358
11644WAT      O47281   2.479   1.055   7.101
11644WAT     H147282   2.551   1.102   7.111
11644WAT     H247283   2.502   0.975   7.129
11644WAT    EPW47284   2.493   1.050   7.106
11645WAT      O47285   2.295   1.094   7.300
11645WAT     H147286   2.317   1.147   7.366
11645WAT     H247287   2.372   1.077   7.262
11645WAT    EPW47288   2.310   1.099   7.304
11646WAT      O47289   1.435   0.909   7.394
11646WAT     H147290   1.500   0.851   7.395
11646WAT     H247291   1.474   0.984   7.372
11646WAT    EPW47292   1.450   0.911   7.391
11647WAT      O47293   1.517   0.757   7.744
11647WAT     H147294   1.559   0.722   7.676
11647WAT     H247295   1.549   0.715   7.813
11647WAT    EPW47296   1.528   0.746   7.744
11648WAT      O47297   1.840   1.043   7.673
11648WAT     H147298   1.924   1.053   7.654
11648WAT     H247299   1.810   1.124   7.680
11648WAT    EPW47300   1.848   1.056   7.671
11649WAT      O47301   2.697   1.214   7.141
11649WAT     H147302   2.763   1.199   7.086
11649WAT     H247303   2.733   1.205   7.220
11649WAT    EPW47304   2.712   1.210   7.144
11650WAT      O47305   2.179   0.833   6.976
11650WAT     H147306   2.160   0.888   7.041
11650WAT     H247307   2.255   0.862   6.946
11650WAT    EPW47308   2.187   0.846   6.981
11651WAT      O47309   2.938   1.190   7.541
11651WAT     H147310   2.892   1.262   7.561
11651WAT     H247311   2.876   1.133   7.516
11651WAT    EPW47312   2.922   1.192   7.540
11652WAT      O47313   2.637   0.775   7.495
11652WAT     H147314   2.707   0.727   7.514
11652WAT     H247315   2.571   0.718   7.499
11652WAT    EPW47316   2.638   0.759   7.498
11653WAT      O47317   2.889   0.524   7.076
11653WAT     H147318   2.901   0.495   7.157
11653WAT     H247319   2.970   0.526   7.043
11653WAT    EPW47320   2.903   0.520   7.083
11654WAT      O47321   1.603   0.497   7.609
11654WAT     H147322   1.688   0.489   7.592
11654WAT     H247323   1.567   0.429   7.568
11654WAT    EPW47324   1.610   0.486   7.600
11655WAT      O47325   1.480   1.170   7.733
11655WAT     H147326   1.412   1.120   7.708
11655WAT     H247327   1.520   1.188   7.657
11655WAT    EPW47328   1.476   1.165   7.718
11656WAT      O47329   2.679   0.178   7.034
11656WAT     H147330   2.657   0.251   6.992
11656WAT     H247331   2.634   0.183   7.109
11656WAT    EPW47332   2.669   0.189   7.039
11657WAT      O47333   1.840   0.498   7.432
11657WAT     H147334   1.911   0.547   7.441
11657WAT     H247335   1.862   0.441   7.370
11657WAT    EPW47336   1.853   0.497   7.424
11658WAT      O47337   1.255   0.662   7.764
11658WAT     H147338   1.189   0.711   7.792
11658WAT     H247339   1.323   0.717   7.767
11658WAT    EPW47340   1.255   0.677   7.769
11659WAT      O47341   1.262   0.331   7.275
11659WAT     H147342   1.243   0.247   7.290
11659WAT     H247343   1.328   0.327   7.218
11659WAT    EPW47344   1.269   0.318   7.268
11660WAT      O47345   2.292   0.868   7.665
11660WAT     H147346   2.240   0.932   7.636
11660WAT     H247347   2.323   0.832   7.592
11660WAT    EPW47348   2.289   0.872   7.650
11661WAT      O47349   1.279   0.747   7.232
11661WAT     H147350   1.334   0.804   7.269
11661WAT     H247351   1.256   0.696   7.299
11661WAT    EPW47352   1.284   0.748   7.247
11662WAT      O47353   1.262   0.592   6.995
11662WAT     H147354   1.338   0.549   7.001
11662WAT     H247355   1.264   0.645   7.064
11662WAT    EPW47356   1.273   0.593   7.006
11663WAT      O47357   1.356   0.414   7.795
11663WAT     H147358   1.399   0.401   7.721
11663WAT     H247359   1.336   0.499   7.793
11663WAT    EPW47360   1.359   0.425   7.784
11664WAT      O47361   1.764   0.766   7.624
11664WAT     H147362   1.777   0.850   7.642
11664WAT     H247363   1.831   0.726   7.663
11664WAT    EPW47364   1.776   0.772   7.632
11665WAT      O47365   1.643   0.237   7.784
11665WAT     H147366   1.565   0.231   7.745
11665WAT     H247367   1.650   0.161   7.827
11665WAT    EPW47368   1.632   0.225   7.785
11666WAT      O47369   2.372   0.242   7.121
11666WAT     H147370   2.371   0.315   7.072
11666WAT     H247371   2.308   0.256   7.179
11666WAT    EPW47372   2.362   0.255   7.122
11667WAT      O47373   2.869   0.629   7.519
11667WAT     H147374   2.904   0.594   7.591
11667WAT     H247375   2.868   0.563   7.462
11667WAT    EPW47376   2.874   0.614   7.521
11668WAT      O47377   2.475   0.621   7.844
11668WAT     H147378   2.395   0.644   7.871
11668WAT     H247379   2.500   0.562   7.902
11668WAT    EPW47380   2.467   0.616   7.856
11669WAT      O47381   1.864   1.102   7.288
11669WAT     H147382   1.849   1.025   7.326
11669WAT     H247383   1.933   1.088   7.237
11669WAT    EPW47384   1.872   1.089   7.286
11670WAT      O47385   2.093   1.054   7.129
11670WAT     H147386   2.155   1.070   7.188
11670WAT     H247387   2.097   1.123   7.075
11670WAT    EPW47388   2.103   1.067   7.130
11671WAT      O47389   1.543   0.307   7.212
11671WAT     H147390   1.575   0.229   7.189
11671WAT     H247391   1.608   0.344   7.257
11671WAT    EPW47392   1.557   0.301   7.215
11672WAT      O47393   2.212   0.242   7.354
11672WAT     H147394   2.218   0.307   7.412
11672WAT     H247395   2.193   0.172   7.403
11672WAT    EPW47396   2.210   0.241   7.370
11673WAT      O47397   2.134   0.446   7.797
11673WAT     H147398   2.050   0.427   7.805
11673WAT     H247399   2.167   0.430   7.876
11673WAT    EPW47400   2.127   0.441   7.810
11674WAT      O47401   1.810   1.119   6.886
11674WAT     H147402   1.853   1.050   6.915
11674WAT     H247403   1.830   1.182   6.943
11674WAT    EPW47404   1.819   1.118   6.898
11675WAT      O47405   3.104   1.091   7.135
11675WAT     H147406   3.173   1.044   7.110
11675WAT     H247407   3.050   1.031   7.169
11675WAT    EPW47408   3.106   1.075   7.136
11676WAT      O47409   1.777   0.210   6.916
11676WAT     H147410   1.716   0.169   6.964
11676WAT     H247411   1.738   0.222   6.839
11676WAT    EPW47412   1.762   0.206   6.912
11677WAT      O47413   2.953   0.376   7.797
11677WAT     H147414   2.925   0.416   7.869
11677WAT     H247415   3.039   0.370   7.809
11677WAT    EPW47416   2.962   0.381   7.809
11678WAT      O47417   3.066   0.939   7.849
11678WAT     H147418   3.095   0.965   7.771
11678WAT     H247419   3.136   0.949   7.901
11678WAT    EPW47420   3.081   0.944   7.846
11679WAT      O47421   2.727   0.799   7.048
11679WAT     H147422   2.760   0.719   7.051
11679WAT     H247423   2.651   0.792   7.091
11679WAT    EPW47424   2.721   0.786   7.055
11680WAT      O47425   2.464   0.587   6.988
11680WAT     H147426   2.533   0.535   6.971
11680WAT     H247427   2.423   0.591   6.911
11680WAT    EPW47428   2.468   0.580   6.974
11681WAT      O47429   2.111   1.083   7.590
11681WAT     H147430   2.165   1.151   7.596
11681WAT     H247431   2.076   1.092   7.511
11681WAT    EPW47432   2.113   1.095   7.579
11682WAT      O47433   2.088   0.384   6.921
11682WAT     H147434   2.008   0.366   6.892
11682WAT     H247435   2.085   0.469   6.940
11682WAT    EPW47436   2.076   0.394   6.919
11683WAT      O47437   2.853   0.402   7.335
11683WAT     H147438   2.901   0.329   7.330
11683WAT     H247439   2.771   0.373   7.328
11683WAT    EPW47440   2.848   0.387   7.333
11684WAT      O47441   2.475   0.519   7.571
11684WAT     H147442   2.482   0.553   7.651
11684WAT     H247443   2.491   0.434   7.583
11684WAT    EPW47444   2.478   0.511   7.584
11685WAT      O47445   2.227   0.446   7.527
11685WAT     H147446   2.197   0.414   7.603
11685WAT     H247447   2.296   0.493   7.551
11685WAT    EPW47448   2.233   0.448   7.542
11686WAT      O47449   2.620   1.142   7.780
11686WAT     H147450   2.575   1.206   7.818
11686WAT     H247451   2.690   1.134   7.831
11686WAT    EPW47452   2.623   1.150   7.793
11687WAT      O47453   2.322   0.810   7.390
11687WAT     H147454   2.301   0.893   7.374
11687WAT     H247455   2.244   0.771   7.402
11687WAT    EPW47456   2.307   0.816   7.390
11688WAT      O47457   1.858   0.836   7.031
11688WAT     H147458   1.902   0.844   7.106
11688WAT     H247459   1.778   0.814   7.057
11688WAT    EPW47460   1.853   0.834   7.046
11689WAT      O47461   2.718   0.206   7.808
11689WAT     H147462   2.784   0.260   7.824
11689WAT     H247463   2.683   0.237   7.734
11689WAT    EPW47464   2.722   0.219   7.799
11690WAT      O47465   2.749   1.013   7.388
11690WAT     H147466   2.732   0.948   7.443
11690WAT     H247467   2.820   0.986   7.346
11690WAT    EPW47468   2.757   0.999   7.390
11691WAT      O47469   1.591   0.743   7.091
11691WAT     H147470   1.567   0.712   7.169
11691WAT     H247471   1.588   0.673   7.040
11691WAT    EPW47472   1.587   0.728   7.095
11692WAT      O47473   1.873   0.567   6.965
11692WAT     H147474   1.791   0.541   6.979
11692WAT     H247475   1.870   0.653   6.984
11692WAT    EPW47476   1.860   0.576   6.970
11693WAT      O47477   2.592   0.256   7.309
11693WAT     H147478   2.599   0.171   7.327
11693WAT     H247479   2.510   0.265   7.282
11693WAT    EPW47480   2.581   0.245   7.308
11694WAT      O47481   1.568   1.106   7.230
11694WAT     H147482   1.553   1.121   7.146
11694WAT     H247483   1.654   1.114   7.238
11694WAT    EPW47484   1.578   1.109   7.219
11695WAT      O47485   1.984   0.346   7.203
11695WAT     H147486   1.994   0.359   7.118
11695WAT     H247487   2.066   0.340   7.233
11695WAT    EPW47488   1.998   0.347   7.195
11696WAT      O47489   2.900   1.152   6.951
11696WAT     H147490   2.964   1.139   7.009
11696WAT     H247491   2.866   1.073   6.939
11696WAT    EPW47492   2.905   1.138   6.958
11697WAT      O47493   2.508   0.778   7.183
11697WAT     H147494   2.483   0.766   7.266
11697WAT     H247495   2.476   0.709   7.141
11697WAT    EPW47496   2.499   0.766   7.189
11698WAT      O47497   1.636   0.987   7.878
11698WAT     H147498   1.628   0.906   7.846
11698WAT     H247499   1.592   1.036   7.821
11698WAT    EPW47500   1.629   0.983   7.865
11699WAT      O47501   2.196   0.599   7.126
11699WAT     H147502   2.268   0.565   7.091
11699WAT     H247503   2.193   0.679   7.092
11699WAT    EPW47504   2.207   0.606   7.116
11700WAT      O47505   1.305   0.569   5.563
11700WAT     H147506   1.261   0.581   5.637
11700WAT     H247507   1.277   0.491   5.534
11700WAT    EPW47508   1.294   0.559   5.570
11701WAT      O47509   2.933   0.899   5.314
11701WAT     H147510   3.003   0.847   5.314
11701WAT     H247511   2.874   0.855   5.267
11701WAT    EPW47512   2.934   0.885   5.307
11702WAT      O47513   1.593   0.474   5.081
11702WAT     H147514   1.554   0.437   5.012
11702WAT     H247515   1.585   0.415   5.144
11702WAT    EPW47516   1.586   0.460   5.080
11703WAT      O47517   2.585   0.262   5.685
11703WAT     H147518   2.593   0.262   5.598
11703WAT     H247519   2.527   0.198   5.700
11703WAT    EPW47520   2.578   0.252   5.674
11704WAT      O47521   1.556   0.639   5.471
11704WAT     H147522   1.617   0.622   5.531
11704WAT     H247523   1.481   0.625   5.513
11704WAT    EPW47524   1.554   0.634   5.486
11705WAT      O47525   1.445   0.948   5.078
11705WAT     H147526   1.492   0.956   5.005
11705WAT     H247527   1.491   0.890   5.125
11705WAT    EPW47528   1.459   0.940   5.075
11706WAT      O47529   1.299   0.842   6.188
11706WAT     H147530   1.312   0.814   6.270
11706WAT     H247531   1.238   0.788   6.157
11706WAT    EPW47532   1.292   0.830   6.196
11707WAT      O47533   1.957   0.595   6.695
11707WAT     H147534   1.933   0.595   6.779
11707WAT     H247535   1.882   0.580   6.653
11707WAT    EPW47536   1.942   0.593   6.701
11708WAT      O47537   1.444   0.295   5.609
11708WAT     H147538   1.398   0.255   5.546
11708WAT     H247539   1.514   0.243   5.618
11708WAT    EPW47540   1.447   0.281   5.601
11709WAT      O47541   1.955   0.914   6.421
11709WAT     H147542   1.969   0.990   6.381
11709WAT     H247543   2.034   0.878   6.424
11709WAT    EPW47544   1.968   0.920   6.416
11710WAT      O47545   2.064   0.703   5.872
11710WAT     H147546   2.099   0.623   5.875
11710WAT     H247547   2.131   0.753   5.846
11710WAT    EPW47548   2.079   0.698   5.869
11711WAT      O47549   2.070   0.648   5.493
11711WAT     H147550   2.103   0.583   5.542
11711WAT     H247551   2.094   0.626   5.412
11711WAT    EPW47552   2.078   0.635   5.488
11712WAT      O47553   1.280   1.042   5.700
11712WAT     H147554   1.221   1.097   5.669
11712WAT     H247555   1.323   1.015   5.629
11712WAT    EPW47556   1.278   1.046   5.685
11713WAT      O47557   1.864   0.826   5.448
11713WAT     H147558   1.806   0.799   5.507
11713WAT     H247559   1.927   0.765   5.450
11713WAT    EPW47560   1.865   0.813   5.457
11714WAT      O47561   2.479   1.055   5.200
11714WAT     H147562   2.551   1.102   5.210
11714WAT     H247563   2.502   0.975   5.228
11714WAT    EPW47564   2.493   1.050   5.206
11715WAT      O47565   2.295   1.094   5.399
11715WAT     H147566   2.317   1.147   5.465
11715WAT     H247567   2.372   1.077   5.361
11715WAT    EPW47568   2.310   1.099   5.403
11716WAT      O47569   1.435   0.909   5.493
11716WAT     H147570   1.500   0.851   5.494
11716WAT     H247571   1.474   0.984   5.471
11716WAT    EPW47572   1.450   0.911   5.490
11717WAT      O47573   2.539   1.095   6.230
11717WAT     H147574   2.614   1.141   6.229
11717WAT     H247575   2.527   1.074   6.146
11717WAT    EPW47576   2.549   1.099   6.217
11718WAT      O47577   1.517   0.757   5.843
11718WAT     H147578   1.559   0.722   5.776
11718WAT     H247579   1.549   0.715   5.912
11718WAT    EPW47580   1.528   0.746   5.843
11719WAT      O47581   1.840   1.043   5.773
11719WAT     H147582   1.924   1.053   5.753
11719WAT     H247583   1.810   1.124   5.779
11719WAT    EPW47584   1.848   1.056   5.771
11720WAT      O47585   2.697   1.214   5.240
11720WAT     H147586   2.763   1.199   5.186
11720WAT     H247587   2.733   1.205   5.319
11720WAT    EPW47588   2.712   1.210   5.244
11721WAT      O47589   1.740   1.164   6.347
11721WAT     H147590   1.769   1.158   6.429
11721WAT     H247591   1.677   1.104   6.342
11721WAT    EPW47592   1.735   1.155   6.358
11722WAT      O47593   2.465   0.814   6.600
11722WAT     H147594   2.461   0.852   6.678
11722WAT     H247595   2.550   0.809   6.583
11722WAT    EPW47596   2.477   0.819   6.609
11723WAT      O47597   2.179   0.833   5.075
11723WAT     H147598   2.160   0.888   5.141
11723WAT     H247599   2.255   0.862   5.045
11723WAT    EPW47600   2.187   0.846   5.080
11724WAT      O47601   1.539   0.981   6.259
11724WAT     H147602   1.469   0.930   6.271
11724WAT     H247603   1.565   0.960   6.178
11724WAT    EPW47604   1.532   0.970   6.249
11725WAT      O47605   2.310   1.130   6.350
11725WAT     H147606   2.387   1.122   6.309
11725WAT     H247607   2.252   1.118   6.286
11725WAT    EPW47608   2.313   1.127   6.334
11726WAT      O47609   2.938   1.190   5.640
11726WAT     H147610   2.892   1.262   5.660
11726WAT     H247611   2.876   1.133   5.616
11726WAT    EPW47612   2.922   1.192   5.639
11727WAT      O47613   2.637   0.775   5.594
11727WAT     H147614   2.707   0.727   5.613
11727WAT     H247615   2.571   0.718   5.599
11727WAT    EPW47616   2.638   0.759   5.598
11728WAT      O47617   1.675   0.866   6.515
11728WAT     H147618   1.759   0.872   6.493
11728WAT     H247619   1.671   0.905   6.593
11728WAT    EPW47620   1.687   0.873   6.524
11729WAT      O47621   1.871   0.417   5.990
11729WAT     H147622   1.888   0.396   6.073
11729WAT     H247623   1.806   0.363   5.969
11729WAT    EPW47624   1.864   0.406   5.999
11730WAT      O47625   1.946   0.411   6.249
11730WAT     H147626   1.952   0.495   6.270
11730WAT     H247627   1.918   0.374   6.323
11730WAT    EPW47628   1.943   0.418   6.263
11731WAT      O47629   2.564   0.480   6.162
11731WAT     H147630   2.513   0.439   6.219
11731WAT     H247631   2.551   0.565   6.180
11731WAT    EPW47632   2.555   0.487   6.173
11732WAT      O47633   1.228   0.848   6.870
11732WAT     H147634   1.304   0.883   6.896
11732WAT     H247635   1.246   0.762   6.865
11732WAT    EPW47636   1.242   0.840   6.873
11733WAT      O47637   2.889   0.524   5.175
11733WAT     H147638   2.901   0.495   5.257
11733WAT     H247639   2.970   0.526   5.142
11733WAT    EPW47640   2.903   0.520   5.182
11734WAT      O47641   1.603   0.497   5.708
11734WAT     H147642   1.688   0.489   5.691
11734WAT     H247643   1.567   0.429   5.667
11734WAT    EPW47644   1.610   0.486   5.699
11735WAT      O47645   1.480   1.170   5.832
11735WAT     H147646   1.412   1.120   5.807
11735WAT     H247647   1.520   1.188   5.757
11735WAT    EPW47648   1.476   1.165   5.817
11736WAT      O47649   3.113   0.975   6.600
11736WAT     H147650   3.044   1.006   6.556
11736WAT     H247651   3.076   0.929   6.665
11736WAT    EPW47652   3.097   0.973   6.603
11737WAT      O47653   2.679   0.178   5.134
11737WAT     H147654   2.657   0.251   5.091
11737WAT     H247655   2.634   0.183   5.208
11737WAT    EPW47656   2.669   0.189   5.138
11738WAT      O47657   1.840   0.498   5.532
11738WAT     H147658   1.911   0.547   5.541
11738WAT     H247659   1.862   0.441   5.469
11738WAT    EPW47660   1.853   0.497   5.524
11739WAT      O47661   1.255   0.662   5.864
11739WAT     H147662   1.189   0.711   5.891
11739WAT     H247663   1.323   0.717   5.867
11739WAT    EPW47664   1.255   0.677   5.868
11740WAT      O47665   1.262   0.331   5.374
11740WAT     H147666   1.243   0.247   5.389
11740WAT     H247667   1.328   0.327   5.317
11740WAT    EPW47668   1.269   0.318   5.368
11741WAT      O47669   2.292   0.868   5.764
11741WAT     H147670   2.240   0.932   5.735
11741WAT     H247671   2.323   0.832   5.691
11741WAT    EPW47672   2.289   0.872   5.749
11742WAT      O47673   1.279   0.747   5.331
11742WAT     H147674   1.334   0.804   5.368
11742WAT     H247675   1.256   0.696   5.398
11742WAT    EPW47676   1.284   0.748   5.347
11743WAT      O47677   1.699   0.647   6.040
11743WAT     H147678   1.746   0.676   6.108
11743WAT     H247679   1.757   0.599   5.995
11743WAT    EPW47680   1.715   0.644   6.044
11744WAT      O47681   1.262   0.592   5.094
11744WAT     H147682   1.338   0.549   5.100
11744WAT     H247683   1.264   0.645   5.163
11744WAT    EPW47684   1.273   0.593   5.105
11745WAT      O47685   1.356   0.414   5.895
11745WAT     H147686   1.399   0.401   5.820
11745WAT     H247687   1.336   0.499   5.892
11745WAT    EPW47688   1.359   0.425   5.883
11746WAT      O47689   2.896   1.013   6.409
11746WAT     H147690   2.829   1.065   6.431
11746WAT     H247691   2.902   1.023   6.323
11746WAT    EPW47692   2.887   1.022   6.400
11747WAT      O47693   1.764   0.766   5.723
11747WAT     H147694   1.777   0.850   5.742
11747WAT     H247695   1.831   0.726   5.763
11747WAT    EPW47696   1.776   0.772   5.732
11748WAT      O47697   1.643   0.237   5.883
11748WAT     H147698   1.565   0.231   5.845
11748WAT     H247699   1.650   0.161   5.927
11748WAT    EPW47700   1.632   0.225   5.884
11749WAT      O47701   2.096   1.088   6.169
11749WAT     H147702   2.068   1.024   6.117
11749WAT     H247703   2.075   1.161   6.125
11749WAT    EPW47704   2.089   1.089   6.155
11750WAT      O47705   1.466   0.346   6.786
11750WAT     H147706   1.462   0.396   6.714
11750WAT     H247707   1.499   0.271   6.756
11750WAT    EPW47708   1.470   0.342   6.771
11751WAT      O47709   2.626   0.566   6.612
11751WAT     H147710   2.674   0.638   6.621
11751WAT     H247711   2.665   0.524   6.546
11751WAT    EPW47712   2.639   0.571   6.603
11752WAT      O47713   2.055   0.851   6.729
11752WAT     H147714   2.091   0.833   6.807
11752WAT     H247715   2.012   0.778   6.709
11752WAT    EPW47716   2.054   0.837   6.738
11753WAT      O47717   2.372   0.242   5.220
11753WAT     H147718   2.371   0.315   5.171
11753WAT     H247719   2.308   0.256   5.278
11753WAT    EPW47720   2.362   0.255   5.222
11754WAT      O47721   2.869   0.629   5.619
11754WAT     H147722   2.904   0.594   5.690
11754WAT     H247723   2.868   0.563   5.562
11754WAT    EPW47724   2.874   0.614   5.621
11755WAT      O47725   2.473   0.936   6.003
11755WAT     H147726   2.413   0.906   5.947
11755WAT     H247727   2.528   0.981   5.952
11755WAT    EPW47728   2.472   0.938   5.987
11756WAT      O47729   2.475   0.621   5.943
11756WAT     H147730   2.395   0.644   5.970
11756WAT     H247731   2.500   0.562   6.001
11756WAT    EPW47732   2.467   0.616   5.956
11757WAT      O47733   1.864   1.102   5.388
11757WAT     H147734   1.849   1.025   5.425
11757WAT     H247735   1.933   1.088   5.336
11757WAT    EPW47736   1.872   1.089   5.386
11758WAT      O47737   2.093   1.054   5.228
11758WAT     H147738   2.155   1.070   5.287
11758WAT     H247739   2.097   1.123   5.175
11758WAT    EPW47740   2.103   1.067   5.229
11759WAT      O47741   2.801   0.421   6.428
11759WAT     H147742   2.806   0.433   6.341
11759WAT     H247743   2.876   0.453   6.458
11759WAT    EPW47744   2.812   0.427   6.419
11760WAT      O47745   2.420   0.956   6.855
11760WAT     H147746   2.436   0.984   6.936
11760WAT     H247747   2.446   1.022   6.805
11760WAT    EPW47748   2.426   0.970   6.860
11761WAT      O47749   1.543   0.307   5.311
11761WAT     H147750   1.575   0.229   5.289
11761WAT     H247751   1.608   0.344   5.356
11761WAT    EPW47752   1.557   0.301   5.314
11762WAT      O47753   2.374   0.402   6.388
11762WAT     H147754   2.358   0.463   6.448
11762WAT     H247755   2.427   0.346   6.428
11762WAT    EPW47756   2.379   0.402   6.402
11763WAT      O47757   2.212   0.242   5.453
11763WAT     H147758   2.218   0.307   5.511
11763WAT     H247759   2.193   0.172   5.502
11763WAT    EPW47760   2.210   0.241   5.469
11764WAT      O47761   2.735   0.674   6.040
11764WAT     H147762   2.687   0.704   5.974
11764WAT     H247763   2.699   0.597   6.058
11764WAT    EPW47764   2.722   0.667   6.033
11765WAT      O47765   2.134   0.446   5.896
11765WAT     H147766   2.050   0.427   5.905
11765WAT     H247767   2.167   0.430   5.976
11765WAT    EPW47768   2.127   0.441   5.909
11766WAT      O47769   1.810   1.119   4.985
11766WAT     H147770   1.853   1.050   5.014
11766WAT     H247771   1.830   1.182   5.042
11766WAT    EPW47772   1.819   1.118   4.998
11767WAT      O47773   1.519   0.416   6.128
11767WAT     H147774   1.591   0.464   6.124
11767WAT     H247775   1.492   0.413   6.045
11767WAT    EPW47776   1.526   0.422   6.115
11768WAT      O47777   3.104   1.091   5.234
11768WAT     H147778   3.173   1.044   5.209
11768WAT     H247779   3.050   1.031   5.268
11768WAT    EPW47780   3.106   1.075   5.236
11769WAT      O47781   2.828   0.369   6.152
11769WAT     H147782   2.827   0.291   6.192
11769WAT     H247783   2.744   0.392   6.151
11769WAT    EPW47784   2.815   0.361   6.158
11770WAT      O47785   1.777   0.210   5.016
11770WAT     H147786   1.716   0.169   5.063
11770WAT     H247787   1.738   0.222   4.938
11770WAT    EPW47788   1.762   0.206   5.011
11771WAT      O47789   1.459   0.521   6.556
11771WAT     H147790   1.417   0.469   6.500
11771WAT     H247791   1.423   0.599   6.542
11771WAT    EPW47792   1.447   0.525   6.545
11772WAT      O47793   2.953   0.376   5.896
11772WAT     H147794   2.925   0.416   5.968
11772WAT     H247795   3.039   0.370   5.909
11772WAT    EPW47796   2.962   0.381   5.908
11773WAT      O47797   3.066   0.939   5.949
11773WAT     H147798   3.095   0.965   5.871
11773WAT     H247799   3.136   0.949   6.001
11773WAT    EPW47800   3.081   0.944   5.945
11774WAT      O47801   2.727   0.799   5.147
11774WAT     H147802   2.760   0.719   5.150
11774WAT     H247803   2.651   0.792   5.190
11774WAT    EPW47804   2.721   0.786   5.154
11775WAT      O47805   3.065   0.211   6.867
11775WAT     H147806   3.060   0.177   6.787
11775WAT     H247807   3.139   0.258   6.865
11775WAT    EPW47808   3.075   0.213   6.855
11776WAT      O47809   3.019   0.579   6.488
11776WAT     H147810   3.082   0.524   6.462
11776WAT     H247811   3.013   0.635   6.422
11776WAT    EPW47812   3.028   0.579   6.474
11777WAT      O47813   2.464   0.587   5.087
11777WAT     H147814   2.533   0.535   5.070
11777WAT     H247815   2.423   0.591   5.011
11777WAT    EPW47816   2.468   0.580   5.073
11778WAT      O47817   1.933   0.702   6.218
11778WAT     H147818   1.903   0.761   6.274
11778WAT     H247819   1.938   0.746   6.143
11778WAT    EPW47820   1.929   0.717   6.215
11779WAT      O47821   1.730   0.597   6.557
11779WAT     H147822   1.650   0.568   6.574
11779WAT     H247823   1.722   0.684   6.558
11779WAT    EPW47824   1.717   0.605   6.560
11780WAT      O47825   2.184   0.344   6.167
11780WAT     H147826   2.232   0.382   6.230
11780WAT     H247827   2.102   0.358   6.193
11780WAT    EPW47828   2.179   0.352   6.180
11781WAT      O47829   2.111   1.083   5.690
11781WAT     H147830   2.165   1.151   5.695
11781WAT     H247831   2.076   1.092   5.610
11781WAT    EPW47832   2.113   1.095   5.679
11782WAT      O47833   1.929   0.906   6.028
11782WAT     H147834   1.866   0.964   6.010
11782WAT     H247835   1.954   0.878   5.950
11782WAT    EPW47836   1.923   0.911   6.014
11783WAT      O47837   2.360   0.570   6.727
11783WAT     H147838   2.435   0.598   6.695
11783WAT     H247839   2.305   0.575   6.660
11783WAT    EPW47840   2.363   0.575   6.712
11784WAT      O47841   2.751   0.825   6.578
11784WAT     H147842   2.785   0.852   6.653
11784WAT     H247843   2.780   0.883   6.520
11784WAT    EPW47844   2.760   0.837   6.580
11785WAT      O47845   2.088   0.384   5.020
11785WAT     H147846   2.008   0.366   4.991
11785WAT     H247847   2.085   0.469   5.039
11785WAT    EPW47848   2.076   0.394   5.019
11786WAT      O47849   2.194   1.071   6.616
11786WAT     H147850   2.242   1.011   6.575
11786WAT     H247851   2.159   1.027   6.683
11786WAT    EPW47852   2.196   1.056   6.620
11787WAT      O47853   2.853   0.402   5.435
11787WAT     H147854   2.901   0.329   5.430
11787WAT     H247855   2.771   0.373   5.427
11787WAT    EPW47856   2.848   0.387   5.433
11788WAT      O47857   2.200   0.593   6.518
11788WAT     H147858   2.121   0.587   6.554
11788WAT     H247859   2.207   0.678   6.499
11788WAT    EPW47860   2.189   0.605   6.521
11789WAT      O47861   1.783   1.214   6.050
11789WAT     H147862   1.784   1.220   6.137
11789WAT     H247863   1.741   1.139   6.035
11789WAT    EPW47864   1.777   1.204   6.061
11790WAT      O47865   2.475   0.519   5.670
11790WAT     H147866   2.482   0.553   5.750
11790WAT     H247867   2.491   0.434   5.682
11790WAT    EPW47868   2.478   0.511   5.684
11791WAT      O47869   2.227   0.446   5.627
11791WAT     H147870   2.197   0.414   5.702
11791WAT     H247871   2.296   0.493   5.650
11791WAT    EPW47872   2.233   0.448   5.641
11792WAT      O47873   2.249   0.858   6.429
11792WAT     H147874   2.318   0.846   6.482
11792WAT     H247875   2.262   0.937   6.395
11792WAT    EPW47876   2.261   0.868   6.432
11793WAT      O47877   1.459   1.164   6.594
11793WAT     H147878   1.394   1.107   6.604
11793WAT     H247879   1.422   1.241   6.609
11793WAT    EPW47880   1.444   1.167   6.598
11794WAT      O47881   2.311   0.304   6.787
11794WAT     H147882   2.344   0.373   6.743
11794WAT     H247883   2.241   0.336   6.827
11794WAT    EPW47884   2.306   0.319   6.786
11795WAT      O47885   2.620   1.142   5.880
11795WAT     H147886   2.575   1.206   5.917
11795WAT     H247887   2.690   1.134   5.930
11795WAT    EPW47888   2.623   1.150   5.893
11796WAT      O47889   2.290   0.651   6.173
11796WAT     H147890   2.220   0.691   6.207
11796WAT     H247891   2.357   0.694   6.206
11796WAT    EPW47892   2.289   0.663   6.183
11797WAT      O47893   2.827   0.910   6.831
11797WAT     H147894   2.905   0.871   6.839
11797WAT     H247895   2.781   0.876   6.896
11797WAT    EPW47896   2.832   0.899   6.841
11798WAT      O47897   2.322   0.810   5.489
11798WAT     H147898   2.301   0.893   5.474
11798WAT     H247899   2.244   0.771   5.502
11798WAT    EPW47900   2.307   0.816   5.489
11799WAT      O47901   1.314   0.372   6.357
11799WAT     H147902   1.346   0.394   6.279
11799WAT     H247903   1.304   0.285   6.352
11799WAT    EPW47904   1.317   0.362   6.345
11800WAT      O47905   1.858   0.836   5.130
11800WAT     H147906   1.902   0.844   5.205
11800WAT     H247907   1.778   0.814   5.156
11800WAT    EPW47908   1.853   0.834   5.145
11801WAT      O47909   1.790   0.301   6.496
11801WAT     H147910   1.750   0.378   6.503
11801WAT     H247911   1.749   0.264   6.428
11801WAT    EPW47912   1.778   0.307   6.487
11802WAT      O47913   2.718   0.206   5.907
11802WAT     H147914   2.784   0.260   5.923
11802WAT     H247915   2.683   0.237   5.833
11802WAT    EPW47916   2.722   0.219   5.899
11803WAT      O47917   2.749   1.013   5.488
11803WAT     H147918   2.732   0.948   5.543
11803WAT     H247919   2.820   0.986   5.445
11803WAT    EPW47920   2.757   0.999   5.490
11804WAT      O47921   1.591   0.743   5.190
11804WAT     H147922   1.567   0.712   5.268
11804WAT     H247923   1.588   0.673   5.139
11804WAT    EPW47924   1.587   0.728   5.194
11805WAT      O47925   1.873   0.567   5.065
11805WAT     H147926   1.791   0.541   5.079
11805WAT     H247927   1.870   0.653   5.083
11805WAT    EPW47928   1.860   0.576   5.070
11806WAT      O47929   2.516   0.758   6.257
11806WAT     H147930   2.537   0.788   6.336
11806WAT     H247931   2.510   0.830   6.208
11806WAT    EPW47932   2.519   0.773   6.261
11807WAT      O47933   2.470   1.180   6.681
11807WAT     H147934   2.395   1.178   6.637
11807WAT     H247935   2.487   1.265   6.690
11807WAT    EPW47936   2.461   1.192   6.676
11808WAT      O47937   2.998   0.622   6.203
11808WAT     H147938   2.994   0.536   6.189
11808WAT     H247939   2.928   0.652   6.159
11808WAT    EPW47940   2.987   0.614   6.194
11809WAT      O47941   1.837   1.142   6.623
11809WAT     H147942   1.841   1.155   6.710
11809WAT     H247943   1.902   1.086   6.608
11809WAT    EPW47944   1.847   1.136   6.634
11810WAT      O47945   2.808   0.948   6.082
11810WAT     H147946   2.861   0.940   6.013
11810WAT     H247947   2.769   0.870   6.088
11810WAT    EPW47948   2.810   0.935   6.073
11811WAT      O47949   1.596   0.980   6.759
11811WAT     H147950   1.656   1.023   6.806
11811WAT     H247951   1.560   1.043   6.710
11811WAT    EPW47952   1.600   0.996   6.759
11812WAT      O47953   1.389   0.779   6.452
11812WAT     H147954   1.332   0.821   6.503
11812WAT     H247955   1.462   0.826   6.462
11812WAT    EPW47956   1.391   0.792   6.461
11813WAT      O47957   2.592   0.256   5.409
11813WAT     H147958   2.599   0.171   5.427
11813WAT     H247959   2.510   0.265   5.381
11813WAT    EPW47960   2.581   0.245   5.407
11814WAT      O47961   1.568   1.106   5.330
11814WAT     H147962   1.553   1.121   5.245
11814WAT     H247963   1.654   1.114   5.337
11814WAT    EPW47964   1.578   1.109   5.318
11815WAT      O47965   1.984   0.346   5.302
11815WAT     H147966   1.994   0.359   5.217
11815WAT     H247967   2.066   0.340   5.332
11815WAT    EPW47968   1.998   0.347   5.294
11816WAT      O47969   2.900   1.152   5.050
11816WAT     H147970   2.964   1.139   5.109
11816WAT     H247971   2.866   1.073   5.039
11816WAT    EPW47972   2.905   1.138   5.057
11817WAT      O47973   2.920   0.394   6.724
11817WAT     H147974   2.983   0.377   6.781
11817WAT     H247975   2.962   0.434   6.659
11817WAT    EPW47976   2.935   0.397   6.723
11818WAT      O47977   2.508   0.778   5.283
11818WAT     H147978   2.483   0.766   5.365
11818WAT     H247979   2.476   0.709   5.241
11818WAT    EPW47980   2.499   0.766   5.289
11819WAT      O47981   2.661   0.405   6.859
11819WAT     H147982   2.748   0.401   6.856
11819WAT     H247983   2.639   0.447   6.786
11819WAT    EPW47984   2.671   0.410   6.848
11820WAT      O47985   1.636   0.987   5.977
11820WAT     H147986   1.628   0.906   5.946
11820WAT     H247987   1.592   1.036   5.920
11820WAT    EPW47988   1.629   0.983   5.964
11821WAT      O47989   2.196   0.599   5.226
11821WAT     H147990   2.268   0.565   5.190
11821WAT     H247991   2.193   0.679   5.191
11821WAT    EPW47992   2.207   0.606   5.215
11822WAT      O47993   1.394   1.212   6.335
11822WAT     H147994   1.443   1.206   6.407
11822WAT     H247995   1.412   1.138   6.292
11822WAT    EPW47996   1.404   1.200   6.340
11823WAT      O47997   1.305   0.569   3.662
11823WAT     H147998   1.261   0.581   3.737
11823WAT     H247999   1.277   0.491   3.634
11823WAT    EPW48000   1.294   0.559   3.669
11824WAT      O48001   2.933   0.899   3.414
11824WAT     H148002   3.003   0.847   3.413
11824WAT     H248003   2.874   0.855   3.367
11824WAT    EPW48004   2.934   0.885   3.407
11825WAT      O48005   1.593   0.474   3.180
11825WAT     H148006   1.554   0.437   3.112
11825WAT     H248007   1.585   0.415   3.243
11825WAT    EPW48008   1.586   0.460   3.179
11826WAT      O48009   2.585   0.262   3.784
11826WAT     H148010   2.593   0.262   3.697
11826WAT     H248011   2.527   0.198   3.799
11826WAT    EPW48012   2.578   0.252   3.774
11827WAT      O48013   1.556   0.639   3.570
11827WAT     H148014   1.617   0.622   3.630
11827WAT     H248015   1.481   0.625   3.612
11827WAT    EPW48016   1.554   0.634   3.585
11828WAT      O48017   1.445   0.948   3.178
11828WAT     H148018   1.492   0.956   3.105
11828WAT     H248019   1.491   0.890   3.225
11828WAT    EPW48020   1.459   0.940   3.174
11829WAT      O48021   1.299   0.842   4.288
11829WAT     H148022   1.312   0.814   4.369
11829WAT     H248023   1.238   0.788   4.257
11829WAT    EPW48024   1.292   0.830   4.295
11830WAT      O48025   1.957   0.595   4.794
11830WAT     H148026   1.933   0.595   4.878
11830WAT     H248027   1.882   0.580   4.752
11830WAT    EPW48028   1.942   0.593   4.801
11831WAT      O48029   1.444   0.295   3.708
11831WAT     H148030   1.398   0.255   3.645
11831WAT     H248031   1.514   0.243   3.717
11831WAT    EPW48032   1.447   0.281   3.700
11832WAT      O48033   1.955   0.914   4.521
11832WAT     H148034   1.969   0.990   4.480
11832WAT     H248035   2.034   0.878   4.523
11832WAT    EPW48036   1.968   0.920   4.515
11833WAT      O48037   2.064   0.703   3.971
11833WAT     H148038   2.099   0.623   3.974
11833WAT     H248039   2.131   0.753   3.946
11833WAT    EPW48040   2.079   0.698   3.968
11834WAT      O48041   2.070   0.648   3.592
11834WAT     H148042   2.103   0.583   3.641
11834WAT     H248043   2.094   0.626   3.511
11834WAT    EPW48044   2.078   0.635   3.588
11835WAT      O48045   1.280   1.042   3.799
11835WAT     H148046   1.221   1.097   3.768
11835WAT     H248047   1.323   1.015   3.728
11835WAT    EPW48048   1.278   1.046   3.784
11836WAT      O48049   1.864   0.826   3.547
11836WAT     H148050   1.806   0.799   3.606
11836WAT     H248051   1.927   0.765   3.550
11836WAT    EPW48052   1.865   0.813   3.556
11837WAT      O48053   2.479   1.055   3.299
11837WAT     H148054   2.551   1.102   3.310
11837WAT     H248055   2.502   0.975   3.327
11837WAT    EPW48056   2.493   1.050   3.305
11838WAT      O48057   2.295   1.094   3.498
11838WAT     H148058   2.317   1.147   3.565
11838WAT     H248059   2.372   1.077   3.461
11838WAT    EPW48060   2.310   1.099   3.503
11839WAT      O48061   1.435   0.909   3.592
11839WAT     H148062   1.500   0.851   3.594
11839WAT     H248063   1.474   0.984   3.570
11839WAT    EPW48064   1.450   0.911   3.589
11840WAT      O48065   2.539   1.095   4.329
11840WAT     H148066   2.614   1.141   4.328
11840WAT     H248067   2.527   1.074   4.245
11840WAT    EPW48068   2.549   1.099   4.316
11841WAT      O48069   1.517   0.757   3.942
11841WAT     H148070   1.559   0.722   3.875
11841WAT     H248071   1.549   0.715   4.012
11841WAT    EPW48072   1.528   0.746   3.943
11842WAT      O48073   1.840   1.043   3.872
11842WAT     H148074   1.924   1.053   3.852
11842WAT     H248075   1.810   1.124   3.879
11842WAT    EPW48076   1.848   1.056   3.870
11843WAT      O48077   2.697   1.214   3.339
11843WAT     H148078   2.763   1.199   3.285
11843WAT     H248079   2.733   1.205   3.418
11843WAT    EPW48080   2.712   1.210   3.343
11844WAT      O48081   1.740   1.164   4.446
11844WAT     H148082   1.769   1.158   4.528
11844WAT     H248083   1.677   1.104   4.441
11844WAT    EPW48084   1.735   1.155   4.457
11845WAT      O48085   2.465   0.814   4.699
11845WAT     H148086   2.461   0.852   4.778
11845WAT     H248087   2.550   0.809   4.682
11845WAT    EPW48088   2.477   0.819   4.708
11846WAT      O48089   2.179   0.833   3.174
11846WAT     H148090   2.160   0.888   3.240
11846WAT     H248091   2.255   0.862   3.144
11846WAT    EPW48092   2.187   0.846   3.180
11847WAT      O48093   1.539   0.981   4.358
11847WAT     H148094   1.469   0.930   4.371
11847WAT     H248095   1.565   0.960   4.277
11847WAT    EPW48096   1.532   0.970   4.348
11848WAT      O48097   2.310   1.130   4.449
11848WAT     H148098   2.387   1.122   4.409
11848WAT     H248099   2.252   1.118   4.385
11848WAT    EPW48100   2.313   1.127   4.434
11849WAT      O48101   2.637   0.775   3.694
11849WAT     H148102   2.707   0.727   3.713
11849WAT     H248103   2.571   0.718   3.698
11849WAT    EPW48104   2.638   0.759   3.697
11850WAT      O48105   1.675   0.866   4.615
11850WAT     H148106   1.759   0.872   4.593
11850WAT     H248107   1.671   0.905   4.692
11850WAT    EPW48108   1.687   0.873   4.623
11851WAT      O48109   1.871   0.417   4.090
11851WAT     H148110   1.888   0.396   4.173
11851WAT     H248111   1.806   0.363   4.068
11851WAT    EPW48112   1.864   0.406   4.099
11852WAT      O48113   1.946   0.411   4.349
11852WAT     H148114   1.952   0.495   4.369
11852WAT     H248115   1.918   0.374   4.422
11852WAT    EPW48116   1.943   0.418   4.363
11853WAT      O48117   2.564   0.480   4.262
11853WAT     H148118   2.513   0.439   4.319
11853WAT     H248119   2.551   0.565   4.280
11853WAT    EPW48120   2.555   0.487   4.273
11854WAT      O48121   1.228   0.848   4.970
11854WAT     H148122   1.304   0.883   4.996
11854WAT     H248123   1.246   0.762   4.964
11854WAT    EPW48124   1.242   0.840   4.973
11855WAT      O48125   2.889   0.524   3.274
11855WAT     H148126   2.901   0.495   3.356
11855WAT     H248127   2.970   0.526   3.241
11855WAT    EPW48128   2.903   0.520   3.282
11856WAT      O48129   1.603   0.497   3.808
11856WAT     H148130   1.688   0.489   3.790
11856WAT     H248131   1.567   0.429   3.766
11856WAT    EPW48132   1.610   0.486   3.799
11857WAT      O48133   1.480   1.170   3.931
11857WAT     H148134   1.412   1.120   3.907
11857WAT     H248135   1.520   1.188   3.856
11857WAT    EPW48136   1.476   1.165   3.917
11858WAT      O48137   3.113   0.975   4.700
11858WAT     H148138   3.044   1.006   4.655
11858WAT     H248139   3.076   0.929   4.764
11858WAT    EPW48140   3.097   0.973   4.703
11859WAT      O48141   2.679   0.178   3.233
11859WAT     H148142   2.657   0.251   3.191
11859WAT     H248143   2.634   0.183   3.308
11859WAT    EPW48144   2.669   0.189   3.238
11860WAT      O48145   1.840   0.498   3.631
11860WAT     H148146   1.911   0.547   3.640
11860WAT     H248147   1.862   0.441   3.568
11860WAT    EPW48148   1.853   0.497   3.623
11861WAT      O48149   1.255   0.662   3.963
11861WAT     H148150   1.189   0.711   3.991
11861WAT     H248151   1.323   0.717   3.966
11861WAT    EPW48152   1.255   0.677   3.968
11862WAT      O48153   1.262   0.331   3.473
11862WAT     H148154   1.243   0.247   3.489
11862WAT     H248155   1.328   0.327   3.416
11862WAT    EPW48156   1.269   0.318   3.467
11863WAT      O48157   2.292   0.868   3.864
11863WAT     H148158   2.240   0.932   3.834
11863WAT     H248159   2.323   0.832   3.791
11863WAT    EPW48160   2.289   0.872   3.849
11864WAT      O48161   1.279   0.747   3.431
11864WAT     H148162   1.334   0.804   3.467
11864WAT     H248163   1.256   0.696   3.497
11864WAT    EPW48164   1.284   0.748   3.446
11865WAT      O48165   1.699   0.647   4.140
11865WAT     H148166   1.746   0.676   4.208
11865WAT     H248167   1.757   0.599   4.094
11865WAT    EPW48168   1.715   0.644   4.143
11866WAT      O48169   1.262   0.592   3.194
11866WAT     H148170   1.338   0.549   3.199
11866WAT     H248171   1.264   0.645   3.263
11866WAT    EPW48172   1.273   0.593   3.205
11867WAT      O48173   1.356   0.414   3.994
11867WAT     H148174   1.399   0.401   3.919
11867WAT     H248175   1.336   0.499   3.992
11867WAT    EPW48176   1.359   0.425   3.983
11868WAT      O48177   2.896   1.013   4.509
11868WAT     H148178   2.829   1.065   4.531
11868WAT     H248179   2.902   1.023   4.422
11868WAT    EPW48180   2.887   1.022   4.499
11869WAT      O48181   1.764   0.766   3.822
11869WAT     H148182   1.777   0.850   3.841
11869WAT     H248183   1.831   0.726   3.862
11869WAT    EPW48184   1.776   0.772   3.831
11870WAT      O48185   1.643   0.237   3.982
11870WAT     H148186   1.565   0.231   3.944
11870WAT     H248187   1.650   0.161   4.026
11870WAT    EPW48188   1.632   0.225   3.983
11871WAT      O48189   2.096   1.088   4.268
11871WAT     H148190   2.068   1.024   4.216
11871WAT     H248191   2.075   1.161   4.225
11871WAT    EPW48192   2.089   1.089   4.254
11872WAT      O48193   1.466   0.346   4.885
11872WAT     H148194   1.462   0.396   4.814
11872WAT     H248195   1.499   0.271   4.856
11872WAT    EPW48196   1.470   0.342   4.870
11873WAT      O48197   2.626   0.566   4.711
11873WAT     H148198   2.674   0.638   4.721
11873WAT     H248199   2.665   0.524   4.646
11873WAT    EPW48200   2.639   0.571   4.703
11874WAT      O48201   2.055   0.851   4.829
11874WAT     H148202   2.091   0.833   4.906
11874WAT     H248203   2.012   0.778   4.809
11874WAT    EPW48204   2.054   0.837   4.837
11875WAT      O48205   2.372   0.242   3.320
11875WAT     H148206   2.371   0.315   3.271
11875WAT     H248207   2.308   0.256   3.378
11875WAT    EPW48208   2.362   0.255   3.321
11876WAT      O48209   2.869   0.629   3.718
11876WAT     H148210   2.904   0.594   3.789
11876WAT     H248211   2.868   0.563   3.661
11876WAT    EPW48212   2.874   0.614   3.720
11877WAT      O48213   2.473   0.936   4.102
11877WAT     H148214   2.413   0.906   4.047
11877WAT     H248215   2.528   0.981   4.051
11877WAT    EPW48216   2.472   0.938   4.087
11878WAT      O48217   2.475   0.621   4.042
11878WAT     H148218   2.395   0.644   4.070
11878WAT     H248219   2.500   0.562   4.101
11878WAT    EPW48220   2.467   0.616   4.055
11879WAT      O48221   1.864   1.102   3.487
11879WAT     H148222   1.849   1.025   3.524
11879WAT     H248223   1.933   1.088   3.436
11879WAT    EPW48224   1.872   1.089   3.485
11880WAT      O48225   2.093   1.054   3.327
11880WAT     H148226   2.155   1.070   3.386
11880WAT     H248227   2.097   1.123   3.274
11880WAT    EPW48228   2.103   1.067   3.328
11881WAT      O48229   2.801   0.421   4.527
11881WAT     H148230   2.806   0.433   4.441
11881WAT     H248231   2.876   0.453   4.557
11881WAT    EPW48232   2.812   0.427   4.519
11882WAT      O48233   2.420   0.956   4.955
11882WAT     H148234   2.436   0.984   5.036
11882WAT     H248235   2.446   1.022   4.904
11882WAT    EPW48236   2.426   0.970   4.959
11883WAT      O48237   1.543   0.307   3.410
11883WAT     H148238   1.575   0.229   3.388
11883WAT     H248239   1.608   0.344   3.456
11883WAT    EPW48240   1.557   0.301   3.414
11884WAT      O48241   2.374   0.402   4.487
11884WAT     H148242   2.358   0.463   4.547
11884WAT     H248243   2.427   0.346   4.528
11884WAT    EPW48244   2.379   0.402   4.502
11885WAT      O48245   2.212   0.242   3.553
11885WAT     H148246   2.218   0.307   3.611
11885WAT     H248247   2.193   0.172   3.602
11885WAT    EPW48248   2.210   0.241   3.569
11886WAT      O48249   2.735   0.674   4.140
11886WAT     H148250   2.687   0.704   4.073
11886WAT     H248251   2.699   0.597   4.157
11886WAT    EPW48252   2.722   0.667   4.132
11887WAT      O48253   2.134   0.446   3.996
11887WAT     H148254   2.050   0.427   4.004
11887WAT     H248255   2.167   0.430   4.075
11887WAT    EPW48256   2.127   0.441   4.009
11888WAT      O48257   1.810   1.119   3.084
11888WAT     H148258   1.853   1.050   3.113
11888WAT     H248259   1.830   1.182   3.142
11888WAT    EPW48260   1.819   1.118   3.097
11889WAT      O48261   1.519   0.416   4.227
11889WAT     H148262   1.591   0.464   4.224
11889WAT     H248263   1.492   0.413   4.145
11889WAT    EPW48264   1.526   0.422   4.215
11890WAT      O48265   3.104   1.091   3.334
11890WAT     H148266   3.173   1.044   3.309
11890WAT     H248267   3.050   1.031   3.367
11890WAT    EPW48268   3.106   1.075   3.335
11891WAT      O48269   2.828   0.369   4.252
11891WAT     H148270   2.827   0.291   4.291
11891WAT     H248271   2.744   0.392   4.251
11891WAT    EPW48272   2.815   0.361   4.257
11892WAT      O48273   1.777   0.210   3.115
11892WAT     H148274   1.716   0.169   3.162
11892WAT     H248275   1.738   0.222   3.038
11892WAT    EPW48276   1.762   0.206   3.111
11893WAT      O48277   1.459   0.521   4.655
11893WAT     H148278   1.417   0.469   4.599
11893WAT     H248279   1.423   0.599   4.641
11893WAT    EPW48280   1.447   0.525   4.645
11894WAT      O48281   2.953   0.376   3.995
11894WAT     H148282   2.925   0.416   4.067
11894WAT     H248283   3.039   0.370   4.008
11894WAT    EPW48284   2.962   0.381   4.008
11895WAT      O48285   3.066   0.939   4.048
11895WAT     H148286   3.095   0.965   3.970
11895WAT     H248287   3.136   0.949   4.100
11895WAT    EPW48288   3.081   0.944   4.044
11896WAT      O48289   2.727   0.799   3.246
11896WAT     H148290   2.760   0.719   3.250
11896WAT     H248291   2.651   0.792   3.289
11896WAT    EPW48292   2.721   0.786   3.253
11897WAT      O48293   3.065   0.211   4.967
11897WAT     H148294   3.060   0.177   4.887
11897WAT     H248295   3.139   0.258   4.965
11897WAT    EPW48296   3.075   0.213   4.955
11898WAT      O48297   3.019   0.579   4.587
11898WAT     H148298   3.082   0.524   4.562
11898WAT     H248299   3.013   0.635   4.521
11898WAT    EPW48300   3.028   0.579   4.574
11899WAT      O48301   2.464   0.587   3.187
11899WAT     H148302   2.533   0.535   3.170
11899WAT     H248303   2.423   0.591   3.110
11899WAT    EPW48304   2.468   0.580   3.173
11900WAT      O48305   1.933   0.702   4.317
11900WAT     H148306   1.903   0.761   4.374
11900WAT     H248307   1.938   0.746   4.242
11900WAT    EPW48308   1.929   0.717   4.314
11901WAT      O48309   1.730   0.597   4.657
11901WAT     H148310   1.650   0.568   4.674
11901WAT     H248311   1.722   0.684   4.657
11901WAT    EPW48312   1.717   0.605   4.659
11902WAT      O48313   2.184   0.344   4.266
11902WAT     H148314   2.232   0.382   4.329
11902WAT     H248315   2.102   0.358   4.292
11902WAT    EPW48316   2.179   0.352   4.279
11903WAT      O48317   2.111   1.083   3.789
11903WAT     H148318   2.165   1.151   3.794
11903WAT     H248319   2.076   1.092   3.709
11903WAT    EPW48320   2.113   1.095   3.778
11904WAT      O48321   1.929   0.906   4.128
11904WAT     H148322   1.866   0.964   4.110
11904WAT     H248323   1.954   0.878   4.049
11904WAT    EPW48324   1.923   0.911   4.114
11905WAT      O48325   2.360   0.570   4.827
11905WAT     H148326   2.435   0.598   4.794
11905WAT     H248327   2.305   0.575   4.759
11905WAT    EPW48328   2.363   0.575   4.812
11906WAT      O48329   2.751   0.825   4.677
11906WAT     H148330   2.785   0.852   4.753
11906WAT     H248331   2.780   0.883   4.619
11906WAT    EPW48332   2.760   0.837   4.680
11907WAT      O48333   2.088   0.384   3.119
11907WAT     H148334   2.008   0.366   3.091
11907WAT     H248335   2.085   0.469   3.139
11907WAT    EPW48336   2.076   0.394   3.118
11908WAT      O48337   2.194   1.071   4.716
11908WAT     H148338   2.242   1.011   4.674
11908WAT     H248339   2.159   1.027   4.782
11908WAT    EPW48340   2.196   1.056   4.720
11909WAT      O48341   2.853   0.402   3.534
11909WAT     H148342   2.901   0.329   3.529
11909WAT     H248343   2.771   0.373   3.526
11909WAT    EPW48344   2.848   0.387   3.532
11910WAT      O48345   2.200   0.593   4.618
11910WAT     H148346   2.121   0.587   4.653
11910WAT     H248347   2.207   0.678   4.598
11910WAT    EPW48348   2.189   0.605   4.620
11911WAT      O48349   1.783   1.214   4.150
11911WAT     H148350   1.784   1.220   4.237
11911WAT     H248351   1.741   1.139   4.135
11911WAT    EPW48352   1.777   1.204   4.160
11912WAT      O48353   2.475   0.519   3.769
11912WAT     H148354   2.482   0.553   3.849
11912WAT     H248355   2.491   0.434   3.782
11912WAT    EPW48356   2.478   0.511   3.783
11913WAT      O48357   2.227   0.446   3.726
11913WAT     H148358   2.197   0.414   3.802
11913WAT     H248359   2.296   0.493   3.749
11913WAT    EPW48360   2.233   0.448   3.741
11914WAT      O48361   2.249   0.858   4.529
11914WAT     H148362   2.318   0.846   4.581
11914WAT     H248363   2.262   0.937   4.494
11914WAT    EPW48364   2.261   0.868   4.531
11915WAT      O48365   1.459   1.164   4.694
11915WAT     H148366   1.394   1.107   4.704
11915WAT     H248367   1.422   1.241   4.709
11915WAT    EPW48368   1.444   1.167   4.697
11916WAT      O48369   2.311   0.304   4.886
11916WAT     H148370   2.344   0.373   4.843
11916WAT     H248371   2.241   0.336   4.926
11916WAT    EPW48372   2.306   0.319   4.886
11917WAT      O48373   2.620   1.142   3.979
11917WAT     H148374   2.575   1.206   4.017
11917WAT     H248375   2.690   1.134   4.029
11917WAT    EPW48376   2.623   1.150   3.992
11918WAT      O48377   2.290   0.651   4.272
11918WAT     H148378   2.220   0.691   4.306
11918WAT     H248379   2.357   0.694   4.306
11918WAT    EPW48380   2.289   0.663   4.282
11919WAT      O48381   2.827   0.910   4.930
11919WAT     H148382   2.905   0.871   4.938
11919WAT     H248383   2.781   0.876   4.995
11919WAT    EPW48384   2.832   0.899   4.941
11920WAT      O48385   2.322   0.810   3.589
11920WAT     H148386   2.301   0.893   3.573
11920WAT     H248387   2.244   0.771   3.601
11920WAT    EPW48388   2.307   0.816   3.588
11921WAT      O48389   1.314   0.372   4.457
11921WAT     H148390   1.346   0.394   4.378
11921WAT     H248391   1.304   0.285   4.451
11921WAT    EPW48392   1.317   0.362   4.444
11922WAT      O48393   1.858   0.836   3.230
11922WAT     H148394   1.902   0.844   3.305
11922WAT     H248395   1.778   0.814   3.256
11922WAT    EPW48396   1.853   0.834   3.245
11923WAT      O48397   1.790   0.301   4.595
11923WAT     H148398   1.750   0.378   4.603
11923WAT     H248399   1.749   0.264   4.527
11923WAT    EPW48400   1.778   0.307   4.586
11924WAT      O48401   2.718   0.206   4.006
11924WAT     H148402   2.784   0.260   4.022
11924WAT     H248403   2.683   0.237   3.933
11924WAT    EPW48404   2.722   0.219   3.998
11925WAT      O48405   2.749   1.013   3.587
11925WAT     H148406   2.732   0.948   3.642
11925WAT     H248407   2.820   0.986   3.545
11925WAT    EPW48408   2.757   0.999   3.589
11926WAT      O48409   1.591   0.743   3.290
11926WAT     H148410   1.567   0.712   3.368
11926WAT     H248411   1.588   0.673   3.238
11926WAT    EPW48412   1.587   0.728   3.294
11927WAT      O48413   1.873   0.567   3.164
11927WAT     H148414   1.791   0.541   3.178
11927WAT     H248415   1.870   0.653   3.183
11927WAT    EPW48416   1.860   0.576   3.169
11928WAT      O48417   2.516   0.758   4.356
11928WAT     H148418   2.537   0.788   4.435
11928WAT     H248419   2.510   0.830   4.308
11928WAT    EPW48420   2.519   0.773   4.361
11929WAT      O48421   2.470   1.180   4.781
11929WAT     H148422   2.395   1.178   4.737
11929WAT     H248423   2.487   1.265   4.789
11929WAT    EPW48424   2.461   1.192   4.776
11930WAT      O48425   2.998   0.622   4.302
11930WAT     H148426   2.994   0.536   4.289
11930WAT     H248427   2.928   0.652   4.259
11930WAT    EPW48428   2.987   0.614   4.294
11931WAT      O48429   1.837   1.142   4.723
11931WAT     H148430   1.841   1.155   4.809
11931WAT     H248431   1.902   1.086   4.707
11931WAT    EPW48432   1.847   1.136   4.733
11932WAT      O48433   2.808   0.948   4.182
11932WAT     H148434   2.861   0.940   4.113
11932WAT     H248435   2.769   0.870   4.187
11932WAT    EPW48436   2.810   0.935   4.172
11933WAT      O48437   1.596   0.980   4.859
11933WAT     H148438   1.656   1.023   4.906
11933WAT     H248439   1.560   1.043   4.810
11933WAT    EPW48440   1.600   0.996   4.858
11934WAT      O48441   1.389   0.779   4.552
11934WAT     H148442   1.332   0.821   4.602
11934WAT     H248443   1.462   0.826   4.561
11934WAT    EPW48444   1.391   0.792   4.560
11935WAT      O48445   2.592   0.256   3.508
11935WAT     H148446   2.599   0.171   3.526
11935WAT     H248447   2.510   0.265   3.480
11935WAT    EPW48448   2.581   0.245   3.507
11936WAT      O48449   1.568   1.106   3.429
11936WAT     H148450   1.553   1.121   3.344
11936WAT     H248451   1.654   1.114   3.437
11936WAT    EPW48452   1.578   1.109   3.418
11937WAT      O48453   1.984   0.346   3.402
11937WAT     H148454   1.994   0.359   3.316
11937WAT     H248455   2.066   0.340   3.431
11937WAT    EPW48456   1.998   0.347   3.394
11938WAT      O48457   2.900   1.152   3.150
11938WAT     H148458   2.964   1.139   3.208
11938WAT     H248459   2.866   1.073   3.138
11938WAT    EPW48460   2.905   1.138   3.157
11939WAT      O48461   2.920   0.394   4.823
11939WAT     H148462   2.983   0.377   4.881
11939WAT     H248463   2.962   0.434   4.758
11939WAT    EPW48464   2.935   0.397   4.822
11940WAT      O48465   2.508   0.778   3.382
11940WAT     H148466   2.483   0.766   3.465
11940WAT     H248467   2.476   0.709   3.340
11940WAT    EPW48468   2.499   0.766   3.388
11941WAT      O48469   2.661   0.405   4.959
11941WAT     H148470   2.748   0.401   4.955
11941WAT     H248471   2.639   0.447   4.885
11941WAT    EPW48472   2.671   0.410   4.947
11942WAT      O48473   1.636   0.987   4.077
11942WAT     H148474   1.628   0.906   4.045
11942WAT     H248475   1.592   1.036   4.020
11942WAT    EPW48476   1.629   0.983   4.064
11943WAT      O48477   2.196   0.599   3.325
11943WAT     H148478   2.268   0.565   3.289
11943WAT     H248479   2.193   0.679   3.290
11943WAT    EPW48480   2.207   0.606   3.315
11944WAT      O48481   1.394   1.212   4.435
11944WAT     H148482   1.443   1.206   4.507
11944WAT     H248483   1.412   1.138   4.391
11944WAT    EPW48484   1.404   1.200   4.439
11945WAT      O48485   1.305   0.569   1.762
11945WAT     H148486   1.261   0.581   1.836
11945WAT     H248487   1.277   0.491   1.733
11945WAT    EPW48488   1.294   0.559   1.768
11946WAT      O48489   2.933   0.899   1.513
11946WAT     H148490   3.003   0.847   1.513
11946WAT     H248491   2.874   0.855   1.466
11946WAT    EPW48492   2.934   0.885   1.506
11947WAT      O48493   1.593   0.474   1.280
11947WAT     H148494   1.554   0.437   1.211
11947WAT     H248495   1.585   0.415   1.342
11947WAT    EPW48496   1.586   0.460   1.279
11948WAT      O48497   2.585   0.262   1.884
11948WAT     H148498   2.593   0.262   1.797
11948WAT     H248499   2.527   0.198   1.899
11948WAT    EPW48500   2.578   0.252   1.873
11949WAT      O48501   1.556   0.639   1.670
11949WAT     H148502   1.617   0.622   1.730
11949WAT     H248503   1.481   0.625   1.712
11949WAT    EPW48504   1.554   0.634   1.685
11950WAT      O48505   1.445   0.948   1.277
11950WAT     H148506   1.492   0.956   1.204
11950WAT     H248507   1.491   0.890   1.324
11950WAT    EPW48508   1.459   0.940   1.273
11951WAT      O48509   1.299   0.842   2.387
11951WAT     H148510   1.312   0.814   2.469
11951WAT     H248511   1.238   0.788   2.356
11951WAT    EPW48512   1.292   0.830   2.395
11952WAT      O48513   1.957   0.595   2.894
11952WAT     H148514   1.933   0.595   2.978
11952WAT     H248515   1.882   0.580   2.851
11952WAT    EPW48516   1.942   0.593   2.900
11953WAT      O48517   1.444   0.295   1.807
11953WAT     H148518   1.398   0.255   1.745
11953WAT     H248519   1.514   0.243   1.817
11953WAT    EPW48520   1.447   0.281   1.799
11954WAT      O48521   1.955   0.914   2.620
11954WAT     H148522   1.969   0.990   2.579
11954WAT     H248523   2.034   0.878   2.623
11954WAT    EPW48524   1.968   0.920   2.615
11955WAT      O48525   2.064   0.703   2.071
11955WAT     H148526   2.099   0.623   2.074
11955WAT     H248527   2.131   0.753   2.045
11955WAT    EPW48528   2.079   0.698   2.067
11956WAT      O48529   2.070   0.648   1.692
11956WAT     H148530   2.103   0.583   1.740
11956WAT     H248531   2.094   0.626   1.611
11956WAT    EPW48532   2.078   0.635   1.687
11957WAT      O48533   1.280   1.042   1.899
11957WAT     H148534   1.221   1.097   1.867
11957WAT     H248535   1.323   1.015   1.827
11957WAT    EPW48536   1.278   1.046   1.884
11958WAT      O48537   1.864   0.826   1.647
11958WAT     H148538   1.806   0.799   1.706
11958WAT     H248539   1.927   0.765   1.649
11958WAT    EPW48540   1.865   0.813   1.656
11959WAT      O48541   2.479   1.055   1.399
11959WAT     H148542   2.551   1.102   1.409
11959WAT     H248543   2.502   0.975   1.427
11959WAT    EPW48544   2.493   1.050   1.405
11960WAT      O48545   2.295   1.094   1.598
11960WAT     H148546   2.317   1.147   1.664
11960WAT     H248547   2.372   1.077   1.560
11960WAT    EPW48548   2.310   1.099   1.602
11961WAT      O48549   1.435   0.909   1.692
11961WAT     H148550   1.500   0.851   1.693
11961WAT     H248551   1.474   0.984   1.670
11961WAT    EPW48552   1.450   0.911   1.689
11962WAT      O48553   2.539   1.095   2.428
11962WAT     H148554   2.614   1.141   2.427
11962WAT     H248555   2.527   1.074   2.345
11962WAT    EPW48556   2.549   1.099   2.416
11963WAT      O48557   1.517   0.757   2.042
11963WAT     H148558   1.559   0.722   1.974
11963WAT     H248559   1.549   0.715   2.111
11963WAT    EPW48560   1.528   0.746   2.042
11964WAT      O48561   1.840   1.043   1.971
11964WAT     H148562   1.924   1.053   1.952
11964WAT     H248563   1.810   1.124   1.978
11964WAT    EPW48564   1.848   1.056   1.969
11965WAT      O48565   2.697   1.214   1.439
11965WAT     H148566   2.763   1.199   1.384
11965WAT     H248567   2.733   1.205   1.518
11965WAT    EPW48568   2.712   1.210   1.442
11966WAT      O48569   1.740   1.164   2.545
11966WAT     H148570   1.769   1.158   2.627
11966WAT     H248571   1.677   1.104   2.541
11966WAT    EPW48572   1.735   1.155   2.557
11967WAT      O48573   2.465   0.814   2.799
11967WAT     H148574   2.461   0.852   2.877
11967WAT     H248575   2.550   0.809   2.782
11967WAT    EPW48576   2.477   0.819   2.808
11968WAT      O48577   2.179   0.833   1.274
11968WAT     H148578   2.160   0.888   1.339
11968WAT     H248579   2.255   0.862   1.244
11968WAT    EPW48580   2.187   0.846   1.279
11969WAT      O48581   1.539   0.981   2.458
11969WAT     H148582   1.469   0.930   2.470
11969WAT     H248583   1.565   0.960   2.377
11969WAT    EPW48584   1.532   0.970   2.447
11970WAT      O48585   2.310   1.130   2.549
11970WAT     H148586   2.387   1.122   2.508
11970WAT     H248587   2.252   1.118   2.485
11970WAT    EPW48588   2.313   1.127   2.533
11971WAT      O48589   2.938   1.190   1.839
11971WAT     H148590   2.892   1.262   1.859
11971WAT     H248591   2.876   1.133   1.814
11971WAT    EPW48592   2.922   1.192   1.838
11972WAT      O48593   2.637   0.775   1.793
11972WAT     H148594   2.707   0.727   1.812
11972WAT     H248595   2.571   0.718   1.798
11972WAT    EPW48596   2.638   0.759   1.796
11973WAT      O48597   1.675   0.866   2.714
11973WAT     H148598   1.759   0.872   2.692
11973WAT     H248599   1.671   0.905   2.792
11973WAT    EPW48600   1.687   0.873   2.722
11974WAT      O48601   1.871   0.417   2.189
11974WAT     H148602   1.888   0.396   2.272
11974WAT     H248603   1.806   0.363   2.168
11974WAT    EPW48604   1.864   0.406   2.198
11975WAT      O48605   1.946   0.411   2.448
11975WAT     H148606   1.952   0.495   2.468
11975WAT     H248607   1.918   0.374   2.522
11975WAT    EPW48608   1.943   0.418   2.462
11976WAT      O48609   2.564   0.480   2.361
11976WAT     H148610   2.513   0.439   2.418
11976WAT     H248611   2.551   0.565   2.379
11976WAT    EPW48612   2.555   0.487   2.372
11977WAT      O48613   1.228   0.848   3.069
11977WAT     H148614   1.304   0.883   3.095
11977WAT     H248615   1.246   0.762   3.064
11977WAT    EPW48616   1.242   0.840   3.072
11978WAT      O48617   2.889   0.524   1.374
11978WAT     H148618   2.901   0.495   1.455
11978WAT     H248619   2.970   0.526   1.341
11978WAT    EPW48620   2.903   0.520   1.381
11979WAT      O48621   1.603   0.497   1.907
11979WAT     H148622   1.688   0.489   1.890
11979WAT     H248623   1.567   0.429   1.866
11979WAT    EPW48624   1.610   0.486   1.898
11980WAT      O48625   1.480   1.170   2.031
11980WAT     H148626   1.412   1.120   2.006
11980WAT     H248627   1.520   1.188   1.956
11980WAT    EPW48628   1.476   1.165   2.016
11981WAT      O48629   3.113   0.975   2.799
11981WAT     H148630   3.044   1.006   2.755
11981WAT     H248631   3.076   0.929   2.864
11981WAT    EPW48632   3.097   0.973   2.802
11982WAT      O48633   2.679   0.178   1.332
11982WAT     H148634   2.657   0.251   1.290
11982WAT     H248635   2.634   0.183   1.407
11982WAT    EPW48636   2.669   0.189   1.337
11983WAT      O48637   1.840   0.498   1.730
11983WAT     H148638   1.911   0.547   1.739
11983WAT     H248639   1.862   0.441   1.668
11983WAT    EPW48640   1.853   0.497   1.723
11984WAT      O48641   1.255   0.662   2.062
11984WAT     H148642   1.189   0.711   2.090
11984WAT     H248643   1.323   0.717   2.065
11984WAT    EPW48644   1.255   0.677   2.067
11985WAT      O48645   1.262   0.331   1.573
11985WAT     H148646   1.243   0.247   1.588
11985WAT     H248647   1.328   0.327   1.516
11985WAT    EPW48648   1.269   0.318   1.567
11986WAT      O48649   2.292   0.868   1.963
11986WAT     H148650   2.240   0.932   1.934
11986WAT     H248651   2.323   0.832   1.890
11986WAT    EPW48652   2.289   0.872   1.948
11987WAT      O48653   1.279   0.747   1.530
11987WAT     H148654   1.334   0.804   1.567
11987WAT     H248655   1.256   0.696   1.597
11987WAT    EPW48656   1.284   0.748   1.545
11988WAT      O48657   1.699   0.647   2.239
11988WAT     H148658   1.746   0.676   2.307
11988WAT     H248659   1.757   0.599   2.194
11988WAT    EPW48660   1.715   0.644   2.242
11989WAT      O48661   1.262   0.592   1.293
11989WAT     H148662   1.338   0.549   1.299
11989WAT     H248663   1.264   0.645   1.362
11989WAT    EPW48664   1.273   0.593   1.304
11990WAT      O48665   1.356   0.414   2.094
11990WAT     H148666   1.399   0.401   2.019
11990WAT     H248667   1.336   0.499   2.091
11990WAT    EPW48668   1.359   0.425   2.082
11991WAT      O48669   2.896   1.013   2.608
11991WAT     H148670   2.829   1.065   2.630
11991WAT     H248671   2.902   1.023   2.522
11991WAT    EPW48672   2.887   1.022   2.599
11992WAT      O48673   1.764   0.766   1.922
11992WAT     H148674   1.777   0.850   1.940
11992WAT     H248675   1.831   0.726   1.961
11992WAT    EPW48676   1.776   0.772   1.930
11993WAT      O48677   1.643   0.237   2.082
11993WAT     H148678   1.565   0.231   2.044
11993WAT     H248679   1.650   0.161   2.126
11993WAT    EPW48680   1.632   0.225   2.083
11994WAT      O48681   2.096   1.088   2.368
11994WAT     H148682   2.068   1.024   2.316
11994WAT     H248683   2.075   1.161   2.324
11994WAT    EPW48684   2.089   1.089   2.354
11995WAT      O48685   1.466   0.346   2.985
11995WAT     H148686   1.462   0.396   2.913
11995WAT     H248687   1.499   0.271   2.955
11995WAT    EPW48688   1.470   0.342   2.970
11996WAT      O48689   2.626   0.566   2.810
11996WAT     H148690   2.674   0.638   2.820
11996WAT     H248691   2.665   0.524   2.745
11996WAT    EPW48692   2.639   0.571   2.802
11997WAT      O48693   2.055   0.851   2.928
11997WAT     H148694   2.091   0.833   3.006
11997WAT     H248695   2.012   0.778   2.908
11997WAT    EPW48696   2.054   0.837   2.937
11998WAT      O48697   2.372   0.242   1.419
11998WAT     H148698   2.371   0.315   1.370
11998WAT     H248699   2.308   0.256   1.477
11998WAT    EPW48700   2.362   0.255   1.421
11999WAT      O48701   2.869   0.629   1.817
11999WAT     H148702   2.904   0.594   1.889
11999WAT     H248703   2.868   0.563   1.760
11999WAT    EPW48704   2.874   0.614   1.819
12000WAT      O48705   2.473   0.936   2.202
12000WAT     H148706   2.413   0.906   2.146
12000WAT     H248707   2.528   0.981   2.151
12000WAT    EPW48708   2.472   0.938   2.186
12001WAT      O48709   2.475   0.621   2.142
12001WAT     H148710   2.395   0.644   2.169
12001WAT     H248711   2.500   0.562   2.200
12001WAT    EPW48712   2.467   0.616   2.154
12002WAT      O48713   1.864   1.102   1.587
12002WAT     H148714   1.849   1.025   1.624
12002WAT     H248715   1.933   1.088   1.535
12002WAT    EPW48716   1.872   1.089   1.584
12003WAT      O48717   2.093   1.054   1.427
12003WAT     H148718   2.155   1.070   1.486
12003WAT     H248719   2.097   1.123   1.374
12003WAT    EPW48720   2.103   1.067   1.428
12004WAT      O48721   2.801   0.421   2.626
12004WAT     H148722   2.806   0.433   2.540
12004WAT     H248723   2.876   0.453   2.657
12004WAT    EPW48724   2.812   0.427   2.618
12005WAT      O48725   2.420   0.956   3.054
12005WAT     H148726   2.436   0.984   3.135
12005WAT     H248727   2.446   1.022   3.004
12005WAT    EPW48728   2.426   0.970   3.059
12006WAT      O48729   1.543   0.307   1.510
12006WAT     H148730   1.575   0.229   1.487
12006WAT     H248731   1.608   0.344   1.555
12006WAT    EPW48732   1.557   0.301   1.513
12007WAT      O48733   2.374   0.402   2.586
12007WAT     H148734   2.358   0.463   2.647
12007WAT     H248735   2.427   0.346   2.627
12007WAT    EPW48736   2.379   0.402   2.601
12008WAT      O48737   2.212   0.242   1.652
12008WAT     H148738   2.218   0.307   1.710
12008WAT     H248739   2.193   0.172   1.701
12008WAT    EPW48740   2.210   0.241   1.668
12009WAT      O48741   2.735   0.674   2.239
12009WAT     H148742   2.687   0.704   2.172
12009WAT     H248743   2.699   0.597   2.257
12009WAT    EPW48744   2.722   0.667   2.232
12010WAT      O48745   2.134   0.446   2.095
12010WAT     H148746   2.050   0.427   2.103
12010WAT     H248747   2.167   0.430   2.175
12010WAT    EPW48748   2.127   0.441   2.108
12011WAT      O48749   1.810   1.119   1.184
12011WAT     H148750   1.853   1.050   1.213
12011WAT     H248751   1.830   1.182   1.241
12011WAT    EPW48752   1.819   1.118   1.197
12012WAT      O48753   1.519   0.416   2.327
12012WAT     H148754   1.591   0.464   2.323
12012WAT     H248755   1.492   0.413   2.244
12012WAT    EPW48756   1.526   0.422   2.314
12013WAT      O48757   3.104   1.091   1.433
12013WAT     H148758   3.173   1.044   1.408
12013WAT     H248759   3.050   1.031   1.467
12013WAT    EPW48760   3.106   1.075   1.434
12014WAT      O48761   2.828   0.369   2.351
12014WAT     H148762   2.827   0.291   2.391
12014WAT     H248763   2.744   0.392   2.350
12014WAT    EPW48764   2.815   0.361   2.357
12015WAT      O48765   1.777   0.210   1.214
12015WAT     H148766   1.716   0.169   1.262
12015WAT     H248767   1.738   0.222   1.137
12015WAT    EPW48768   1.762   0.206   1.210
12016WAT      O48769   1.459   0.521   2.755
12016WAT     H148770   1.417   0.469   2.699
12016WAT     H248771   1.423   0.599   2.740
12016WAT    EPW48772   1.447   0.525   2.744
12017WAT      O48773   2.953   0.376   2.095
12017WAT     H148774   2.925   0.416   2.167
12017WAT     H248775   3.039   0.370   2.107
12017WAT    EPW48776   2.962   0.381   2.107
12018WAT      O48777   3.066   0.939   2.148
12018WAT     H148778   3.095   0.965   2.069
12018WAT     H248779   3.136   0.949   2.199
12018WAT    EPW48780   3.081   0.944   2.144
12019WAT      O48781   2.727   0.799   1.346
12019WAT     H148782   2.760   0.719   1.349
12019WAT     H248783   2.651   0.792   1.389
12019WAT    EPW48784   2.721   0.786   1.353
12020WAT      O48785   3.065   0.211   3.066
12020WAT     H148786   3.060   0.177   2.986
12020WAT     H248787   3.139   0.258   3.064
12020WAT    EPW48788   3.075   0.213   3.054
12021WAT      O48789   3.019   0.579   2.687
12021WAT     H148790   3.082   0.524   2.661
12021WAT     H248791   3.013   0.635   2.621
12021WAT    EPW48792   3.028   0.579   2.673
12022WAT      O48793   2.464   0.587   1.286
12022WAT     H148794   2.533   0.535   1.269
12022WAT     H248795   2.423   0.591   1.210
12022WAT    EPW48796   2.468   0.580   1.272
12023WAT      O48797   1.933   0.702   2.416
12023WAT     H148798   1.903   0.761   2.473
12023WAT     H248799   1.938   0.746   2.342
12023WAT    EPW48800   1.929   0.717   2.414
12024WAT      O48801   1.730   0.597   2.756
12024WAT     H148802   1.650   0.568   2.773
12024WAT     H248803   1.722   0.684   2.757
12024WAT    EPW48804   1.717   0.605   2.759
12025WAT      O48805   2.184   0.344   2.366
12025WAT     H148806   2.232   0.382   2.428
12025WAT     H248807   2.102   0.358   2.391
12025WAT    EPW48808   2.179   0.352   2.379
12026WAT      O48809   2.111   1.083   1.888
12026WAT     H148810   2.165   1.151   1.894
12026WAT     H248811   2.076   1.092   1.809
12026WAT    EPW48812   2.113   1.095   1.877
12027WAT      O48813   1.929   0.906   2.227
12027WAT     H148814   1.866   0.964   2.209
12027WAT     H248815   1.954   0.878   2.149
12027WAT    EPW48816   1.923   0.911   2.213
12028WAT      O48817   2.360   0.570   2.926
12028WAT     H148818   2.435   0.598   2.894
12028WAT     H248819   2.305   0.575   2.858
12028WAT    EPW48820   2.363   0.575   2.911
12029WAT      O48821   2.751   0.825   2.777
12029WAT     H148822   2.785   0.852   2.852
12029WAT     H248823   2.780   0.883   2.719
12029WAT    EPW48824   2.760   0.837   2.779
12030WAT      O48825   2.088   0.384   1.219
12030WAT     H148826   2.008   0.366   1.190
12030WAT     H248827   2.085   0.469   1.238
12030WAT    EPW48828   2.076   0.394   1.217
12031WAT      O48829   2.194   1.071   2.815
12031WAT     H148830   2.242   1.011   2.774
12031WAT     H248831   2.159   1.027   2.882
12031WAT    EPW48832   2.196   1.056   2.819
12032WAT      O48833   2.853   0.402   1.633
12032WAT     H148834   2.901   0.329   1.629
12032WAT     H248835   2.771   0.373   1.626
12032WAT    EPW48836   2.848   0.387   1.631
12033WAT      O48837   2.200   0.593   2.717
12033WAT     H148838   2.121   0.587   2.752
12033WAT     H248839   2.207   0.678   2.698
12033WAT    EPW48840   2.189   0.605   2.720
12034WAT      O48841   1.783   1.214   2.249
12034WAT     H148842   1.784   1.220   2.336
12034WAT     H248843   1.741   1.139   2.234
12034WAT    EPW48844   1.777   1.204   2.260
12035WAT      O48845   2.475   0.519   1.869
12035WAT     H148846   2.482   0.553   1.949
12035WAT     H248847   2.491   0.434   1.881
12035WAT    EPW48848   2.478   0.511   1.882
12036WAT      O48849   2.227   0.446   1.825
12036WAT     H148850   2.197   0.414   1.901
12036WAT     H248851   2.296   0.493   1.849
12036WAT    EPW48852   2.233   0.448   1.840
12037WAT      O48853   2.249   0.858   2.628
12037WAT     H148854   2.318   0.846   2.681
12037WAT     H248855   2.262   0.937   2.594
12037WAT    EPW48856   2.261   0.868   2.631
12038WAT      O48857   1.459   1.164   2.793
12038WAT     H148858   1.394   1.107   2.803
12038WAT     H248859   1.422   1.241   2.808
12038WAT    EPW48860   1.444   1.167   2.797
12039WAT      O48861   2.311   0.304   2.985
12039WAT     H148862   2.344   0.373   2.942
12039WAT     H248863   2.241   0.336   3.026
12039WAT    EPW48864   2.306   0.319   2.985
12040WAT      O48865   2.620   1.142   2.078
12040WAT     H148866   2.575   1.206   2.116
12040WAT     H248867   2.690   1.134   2.129
12040WAT    EPW48868   2.623   1.150   2.091
12041WAT      O48869   2.290   0.651   2.371
12041WAT     H148870   2.220   0.691   2.406
12041WAT     H248871   2.357   0.694   2.405
12041WAT    EPW48872   2.289   0.663   2.381
12042WAT      O48873   2.827   0.910   3.029
12042WAT     H148874   2.905   0.871   3.038
12042WAT     H248875   2.781   0.876   3.095
12042WAT    EPW48876   2.832   0.899   3.040
12043WAT      O48877   2.322   0.810   1.688
12043WAT     H148878   2.301   0.893   1.672
12043WAT     H248879   2.244   0.771   1.700
12043WAT    EPW48880   2.307   0.816   1.688
12044WAT      O48881   1.314   0.372   2.556
12044WAT     H148882   1.346   0.394   2.478
12044WAT     H248883   1.304   0.285   2.550
12044WAT    EPW48884   1.317   0.362   2.544
12045WAT      O48885   1.858   0.836   1.329
12045WAT     H148886   1.902   0.844   1.404
12045WAT     H248887   1.778   0.814   1.355
12045WAT    EPW48888   1.853   0.834   1.344
12046WAT      O48889   1.790   0.301   2.694
12046WAT     H148890   1.750   0.378   2.702
12046WAT     H248891   1.749   0.264   2.627
12046WAT    EPW48892   1.778   0.307   2.686
12047WAT      O48893   2.718   0.206   2.106
12047WAT     H148894   2.784   0.260   2.122
12047WAT     H248895   2.683   0.237   2.032
12047WAT    EPW48896   2.722   0.219   2.097
12048WAT      O48897   2.749   1.013   1.687
12048WAT     H148898   2.732   0.948   1.742
12048WAT     H248899   2.820   0.986   1.644
12048WAT    EPW48900   2.757   0.999   1.688
12049WAT      O48901   1.591   0.743   1.389
12049WAT     H148902   1.567   0.712   1.467
12049WAT     H248903   1.588   0.673   1.338
12049WAT    EPW48904   1.587   0.728   1.393
12050WAT      O48905   1.873   0.567   1.264
12050WAT     H148906   1.791   0.541   1.278
12050WAT     H248907   1.870   0.653   1.282
12050WAT    EPW48908   1.860   0.576   1.268
12051WAT      O48909   2.516   0.758   2.456
12051WAT     H148910   2.537   0.788   2.535
12051WAT     H248911   2.510   0.830   2.407
12051WAT    EPW48912   2.519   0.773   2.460
12052WAT      O48913   2.470   1.180   2.880
12052WAT     H148914   2.395   1.178   2.836
12052WAT     H248915   2.487   1.265   2.889
12052WAT    EPW48916   2.461   1.192   2.875
12053WAT      O48917   2.998   0.622   2.401
12053WAT     H148918   2.994   0.536   2.388
12053WAT     H248919   2.928   0.652   2.358
12053WAT    EPW48920   2.987   0.614   2.393
12054WAT      O48921   1.837   1.142   2.822
12054WAT     H148922   1.841   1.155   2.908
12054WAT     H248923   1.902   1.086   2.806
12054WAT    EPW48924   1.847   1.136   2.833
12055WAT      O48925   2.808   0.948   2.281
12055WAT     H148926   2.861   0.940   2.212
12055WAT     H248927   2.769   0.870   2.287
12055WAT    EPW48928   2.810   0.935   2.272
12056WAT      O48929   1.596   0.980   2.958
12056WAT     H148930   1.656   1.023   3.005
12056WAT     H248931   1.560   1.043   2.909
12056WAT    EPW48932   1.600   0.996   2.958
12057WAT      O48933   1.389   0.779   2.651
12057WAT     H148934   1.332   0.821   2.702
12057WAT     H248935   1.462   0.826   2.660
12057WAT    EPW48936   1.391   0.792   2.660
12058WAT      O48937   2.592   0.256   1.607
12058WAT     H148938   2.599   0.171   1.626
12058WAT     H248939   2.510   0.265   1.580
12058WAT    EPW48940   2.581   0.245   1.606
12059WAT      O48941   1.568   1.106   1.528
12059WAT     H148942   1.553   1.121   1.444
12059WAT     H248943   1.654   1.114   1.536
12059WAT    EPW48944   1.578   1.109   1.517
12060WAT      O48945   1.984   0.346   1.501
12060WAT     H148946   1.994   0.359   1.416
12060WAT     H248947   2.066   0.340   1.531
12060WAT    EPW48948   1.998   0.347   1.493
12061WAT      O48949   2.900   1.152   1.249
12061WAT     H148950   2.964   1.139   1.307
12061WAT     H248951   2.866   1.073   1.238
12061WAT    EPW48952   2.905   1.138   1.256
12062WAT      O48953   2.920   0.394   2.923
12062WAT     H148954   2.983   0.377   2.980
12062WAT     H248955   2.962   0.434   2.857
12062WAT    EPW48956   2.935   0.397   2.921
12063WAT      O48957   2.508   0.778   1.481
12063WAT     H148958   2.483   0.766   1.564
12063WAT     H248959   2.476   0.709   1.439
12063WAT    EPW48960   2.499   0.766   1.487
12064WAT      O48961   2.661   0.405   3.058
12064WAT     H148962   2.748   0.401   3.054
12064WAT     H248963   2.639   0.447   2.985
12064WAT    EPW48964   2.671   0.410   3.047
12065WAT      O48965   1.636   0.987   2.176
12065WAT     H148966   1.628   0.906   2.145
12065WAT     H248967   1.592   1.036   2.119
12065WAT    EPW48968   1.629   0.983   2.163
12066WAT      O48969   2.196   0.599   1.424
12066WAT     H148970   2.268   0.565   1.389
12066WAT     H248971   2.193   0.679   1.390
12066WAT    EPW48972   2.207   0.606   1.414
12067WAT      O48973   1.394   1.212   2.534
12067WAT     H148974   1.443   1.206   2.606
12067WAT     H248975   1.412   1.138   2.491
12067WAT    EPW48976   1.404   1.200   2.538
12068WAT      O48977   1.299   0.842   0.487
12068WAT     H148978   1.312   0.814   0.568
12068WAT     H248979   1.238   0.788   0.456
12068WAT    EPW48980   1.292   0.830   0.494
12069WAT      O48981   1.957   0.595   0.993
12069WAT     H148982   1.933   0.595   1.077
12069WAT     H248983   1.882   0.580   0.951
12069WAT    EPW48984   1.942   0.593   0.999
12070WAT      O48985   1.955   0.914   0.720
12070WAT     H148986   1.969   0.990   0.679
12070WAT     H248987   2.034   0.878   0.722
12070WAT    EPW48988   1.968   0.920   0.714
12071WAT      O48989   2.539   1.095   0.528
12071WAT     H148990   2.614   1.141   0.527
12071WAT     H248991   2.527   1.074   0.444
12071WAT    EPW48992   2.549   1.099   0.515
12072WAT      O48993   1.740   1.164   0.645
12072WAT     H148994   1.769   1.158   0.727
12072WAT     H248995   1.677   1.104   0.640
12072WAT    EPW48996   1.735   1.155   0.656
12073WAT      O48997   2.465   0.814   0.898
12073WAT     H148998   2.461   0.852   0.977
12073WAT     H248999   2.550   0.809   0.881
12073WAT    EPW49000   2.477   0.819   0.907
12074WAT      O49001   1.539   0.981   0.557
12074WAT     H149002   1.469   0.930   0.570
12074WAT     H249003   1.565   0.960   0.476
12074WAT    EPW49004   1.532   0.970   0.547
12075WAT      O49005   2.310   1.130   0.648
12075WAT     H149006   2.387   1.122   0.607
12075WAT     H249007   2.252   1.118   0.584
12075WAT    EPW49008   2.313   1.127   0.633
12076WAT      O49009   1.675   0.866   0.814
12076WAT     H149010   1.759   0.872   0.791
12076WAT     H249011   1.671   0.905   0.891
12076WAT    EPW49012   1.687   0.873   0.822
12077WAT      O49013   1.871   0.417   0.289
12077WAT     H149014   1.888   0.396   0.371
12077WAT     H249015   1.806   0.363   0.267
12077WAT    EPW49016   1.864   0.406   0.298
12078WAT      O49017   1.946   0.411   0.548
12078WAT     H149018   1.952   0.495   0.568
12078WAT     H249019   1.918   0.374   0.621
12078WAT    EPW49020   1.943   0.418   0.561
12079WAT      O49021   2.564   0.480   0.461
12079WAT     H149022   2.513   0.439   0.518
12079WAT     H249023   2.551   0.565   0.479
12079WAT    EPW49024   2.555   0.487   0.472
12080WAT      O49025   1.228   0.848   1.169
12080WAT     H149026   1.304   0.883   1.194
12080WAT     H249027   1.246   0.762   1.163
12080WAT    EPW49028   1.242   0.840   1.172
12081WAT      O49029   3.113   0.975   0.899
12081WAT     H149030   3.044   1.006   0.854
12081WAT     H249031   3.076   0.929   0.963
12081WAT    EPW49032   3.097   0.973   0.902
12082WAT      O49033   1.699   0.647   0.339
12082WAT     H149034   1.746   0.676   0.406
12082WAT     H249035   1.757   0.599   0.293
12082WAT    EPW49036   1.715   0.644   0.342
12083WAT      O49037   2.896   1.013   0.708
12083WAT     H149038   2.829   1.065   0.729
12083WAT     H249039   2.902   1.023   0.621
12083WAT    EPW49040   2.887   1.022   0.698
12084WAT      O49041   2.096   1.088   0.467
12084WAT     H149042   2.068   1.024   0.415
12084WAT     H249043   2.075   1.161   0.423
12084WAT    EPW49044   2.089   1.089   0.453
12085WAT      O49045   1.466   0.346   1.084
12085WAT     H149046   1.462   0.396   1.013
12085WAT     H249047   1.499   0.271   1.054
12085WAT    EPW49048   1.470   0.342   1.069
12086WAT      O49049   2.626   0.566   0.910
12086WAT     H149050   2.674   0.638   0.920
12086WAT     H249051   2.665   0.524   0.845
12086WAT    EPW49052   2.639   0.571   0.902
12087WAT      O49053   2.055   0.851   1.027
12087WAT     H149054   2.091   0.833   1.105
12087WAT     H249055   2.012   0.778   1.008
12087WAT    EPW49056   2.054   0.837   1.036
12088WAT      O49057   2.473   0.936   0.301
12088WAT     H149058   2.413   0.906   0.245
12088WAT     H249059   2.528   0.981   0.250
12088WAT    EPW49060   2.472   0.938   0.285
12089WAT      O49061   2.475   0.621   0.241
12089WAT     H149062   2.395   0.644   0.269
12089WAT     H249063   2.500   0.562   0.300
12089WAT    EPW49064   2.467   0.616   0.254
12090WAT      O49065   2.801   0.421   0.726
12090WAT     H149066   2.806   0.433   0.640
12090WAT     H249067   2.876   0.453   0.756
12090WAT    EPW49068   2.812   0.427   0.717
12091WAT      O49069   2.420   0.956   1.153
12091WAT     H149070   2.436   0.984   1.234
12091WAT     H249071   2.446   1.022   1.103
12091WAT    EPW49072   2.426   0.970   1.158
12092WAT      O49073   2.374   0.402   0.686
12092WAT     H149074   2.358   0.463   0.746
12092WAT     H249075   2.427   0.346   0.726
12092WAT    EPW49076   2.379   0.402   0.701
12093WAT      O49077   2.735   0.674   0.338
12093WAT     H149078   2.687   0.704   0.272
12093WAT     H249079   2.699   0.597   0.356
12093WAT    EPW49080   2.722   0.667   0.331
12094WAT      O49081   2.134   0.446   0.195
12094WAT     H149082   2.050   0.427   0.203
12094WAT     H249083   2.167   0.430   0.274
12094WAT    EPW49084   2.127   0.441   0.208
12095WAT      O49085   1.519   0.416   0.426
12095WAT     H149086   1.591   0.464   0.423
12095WAT     H249087   1.492   0.413   0.343
12095WAT    EPW49088   1.526   0.422   0.413
12096WAT      O49089   2.828   0.369   0.450
12096WAT     H149090   2.827   0.291   0.490
12096WAT     H249091   2.744   0.392   0.450
12096WAT    EPW49092   2.815   0.361   0.456
12097WAT      O49093   1.459   0.521   0.854
12097WAT     H149094   1.417   0.469   0.798
12097WAT     H249095   1.423   0.599   0.840
12097WAT    EPW49096   1.447   0.525   0.844
12098WAT      O49097   2.953   0.376   0.194
12098WAT     H149098   2.925   0.416   0.266
12098WAT     H249099   3.039   0.370   0.207
12098WAT    EPW49100   2.962   0.381   0.207
12099WAT      O49101   3.066   0.939   0.247
12099WAT     H149102   3.095   0.965   0.169
12099WAT     H249103   3.136   0.949   0.299
12099WAT    EPW49104   3.081   0.944   0.243
12100WAT      O49105   3.065   0.211   1.166
12100WAT     H149106   3.060   0.177   1.086
12100WAT     H249107   3.139   0.258   1.163
12100WAT    EPW49108   3.075   0.213   1.153
12101WAT      O49109   3.019   0.579   0.786
12101WAT     H149110   3.082   0.524   0.761
12101WAT     H249111   3.013   0.635   0.720
12101WAT    EPW49112   3.028   0.579   0.773
12102WAT      O49113   1.933   0.702   0.516
12102WAT     H149114   1.903   0.761   0.573
12102WAT     H249115   1.938   0.746   0.441
12102WAT    EPW49116   1.929   0.717   0.513
12103WAT      O49117   1.730   0.597   0.856
12103WAT     H149118   1.650   0.568   0.872
12103WAT     H249119   1.722   0.684   0.856
12103WAT    EPW49120   1.717   0.605   0.858
12104WAT      O49121   2.184   0.344   0.465
12104WAT     H149122   2.232   0.382   0.528
12104WAT     H249123   2.102   0.358   0.491
12104WAT    EPW49124   2.179   0.352   0.478
12105WAT      O49125   1.929   0.906   0.327
12105WAT     H149126   1.866   0.964   0.308
12105WAT     H249127   1.954   0.878   0.248
12105WAT    EPW49128   1.923   0.911   0.312
12106WAT      O49129   2.360   0.570   1.026
12106WAT     H149130   2.435   0.598   0.993
12106WAT     H249131   2.305   0.575   0.958
12106WAT    EPW49132   2.363   0.575   1.011
12107WAT      O49133   2.751   0.825   0.876
12107WAT     H149134   2.785   0.852   0.951
12107WAT     H249135   2.780   0.883   0.818
12107WAT    EPW49136   2.760   0.837   0.879
12108WAT      O49137   2.194   1.071   0.915
12108WAT     H149138   2.242   1.011   0.873
12108WAT     H249139   2.159   1.027   0.981
12108WAT    EPW49140   2.196   1.056   0.918
12109WAT      O49141   2.200   0.593   0.817
12109WAT     H149142   2.121   0.587   0.852
12109WAT     H249143   2.207   0.678   0.797
12109WAT    EPW49144   2.189   0.605   0.819
12110WAT      O49145   1.783   1.214   0.348
12110WAT     H149146   1.784   1.220   0.435
12110WAT     H249147   1.741   1.139   0.333
12110WAT    EPW49148   1.777   1.204   0.359
12111WAT      O49149   2.249   0.858   0.727
12111WAT     H149150   2.318   0.846   0.780
12111WAT     H249151   2.262   0.937   0.693
12111WAT    EPW49152   2.261   0.868   0.730
12112WAT      O49153   1.459   1.164   0.893
12112WAT     H149154   1.394   1.107   0.902
12112WAT     H249155   1.422   1.241   0.908
12112WAT    EPW49156   1.444   1.167   0.896
12113WAT      O49157   2.311   0.304   1.085
12113WAT     H149158   2.344   0.373   1.042
12113WAT     H249159   2.241   0.336   1.125
12113WAT    EPW49160   2.306   0.319   1.084
12114WAT      O49161   2.620   1.142   0.178
12114WAT     H149162   2.575   1.206   0.216
12114WAT     H249163   2.690   1.134   0.228
12114WAT    EPW49164   2.623   1.150   0.191
12115WAT      O49165   2.290   0.651   0.471
12115WAT     H149166   2.220   0.691   0.505
12115WAT     H249167   2.357   0.694   0.505
12115WAT    EPW49168   2.289   0.663   0.481
12116WAT      O49169   2.827   0.910   1.129
12116WAT     H149170   2.905   0.871   1.137
12116WAT     H249171   2.781   0.876   1.194
12116WAT    EPW49172   2.832   0.899   1.140
12117WAT      O49173   1.314   0.372   0.655
12117WAT     H149174   1.346   0.394   0.577
12117WAT     H249175   1.304   0.285   0.650
12117WAT    EPW49176   1.317   0.362   0.643
12118WAT      O49177   1.790   0.301   0.794
12118WAT     H149178   1.750   0.378   0.801
12118WAT     H249179   1.749   0.264   0.726
12118WAT    EPW49180   1.778   0.307   0.785
12119WAT      O49181   2.516   0.758   0.555
12119WAT     H149182   2.537   0.788   0.634
12119WAT     H249183   2.510   0.830   0.507
12119WAT    EPW49184   2.519   0.773   0.560
12120WAT      O49185   2.470   1.180   0.980
12120WAT     H149186   2.395   1.178   0.936
12120WAT     H249187   2.487   1.265   0.988
12120WAT    EPW49188   2.461   1.192   0.974
12121WAT      O49189   2.998   0.622   0.501
12121WAT     H149190   2.994   0.536   0.487
12121WAT     H249191   2.928   0.652   0.457
12121WAT    EPW49192   2.987   0.614   0.492
12122WAT      O49193   1.837   1.142   0.921
12122WAT     H149194   1.841   1.155   1.008
12122WAT     H249195   1.902   1.086   0.906
12122WAT    EPW49196   1.847   1.136   0.932
12123WAT      O49197   2.808   0.948   0.381
12123WAT     H149198   2.861   0.940   0.311
12123WAT     H249199   2.769   0.870   0.386
12123WAT    EPW49200   2.810   0.935   0.371
12124WAT      O49201   1.596   0.980   1.057
12124WAT     H149202   1.656   1.023   1.105
12124WAT     H249203   1.560   1.043   1.009
12124WAT    EPW49204   1.600   0.996   1.057
12125WAT      O49205   1.389   0.779   0.750
12125WAT     H149206   1.332   0.821   0.801
12125WAT     H249207   1.462   0.826   0.760
12125WAT    EPW49208   1.391   0.792   0.759
12126WAT      O49209   2.920   0.394   1.022
12126WAT     H149210   2.983   0.377   1.079
12126WAT     H249211   2.962   0.434   0.957
12126WAT    EPW49212   2.935   0.397   1.021
12127WAT      O49213   2.661   0.405   1.157
12127WAT     H149214   2.748   0.401   1.154
12127WAT     H249215   2.639   0.447   1.084
12127WAT    EPW49216   2.671   0.410   1.146
12128WAT      O49217   1.636   0.987   0.276
12128WAT     H149218   1.628   0.906   0.244
12128WAT     H249219   1.592   1.036   0.218
12128WAT    EPW49220   1.629   0.983   0.262
12129WAT      O49221   1.394   1.212   0.634
12129WAT     H149222   1.443   1.206   0.705
12129WAT     H249223   1.412   1.138   0.590
12129WAT    EPW49224   1.404   1.200   0.638
12130WAT      O49225   0.451   6.855   7.451
12130WAT     H149226   0.426   6.903   7.383
12130WAT     H249227   0.537   6.847   7.441
12130WAT    EPW49228   0.460   6.861   7.439
12131WAT      O49229   0.699   7.653   7.586
12131WAT     H149230   0.707   7.653   7.499
12131WAT     H249231   0.640   7.590   7.600
12131WAT    EPW49232   0.691   7.644   7.575
12132WAT      O49233   0.582   7.212   6.890
12132WAT     H149234   0.537   7.280   6.921
12132WAT     H249235   0.594   7.162   6.961
12132WAT    EPW49236   0.577   7.215   6.905
12133WAT      O49237   1.122   7.209   7.520
12133WAT     H149238   1.087   7.277   7.562
12133WAT     H249239   1.058   7.149   7.521
12133WAT    EPW49240   1.107   7.210   7.526
12134WAT      O49241   0.334   7.373   7.482
12134WAT     H149242   0.363   7.350   7.403
12134WAT     H249243   0.407   7.381   7.529
12134WAT    EPW49244   0.349   7.371   7.477
12135WAT      O49245   0.406   7.407   6.994
12135WAT     H149246   0.434   7.486   7.019
12135WAT     H249247   0.329   7.424   6.958
12135WAT    EPW49248   0.399   7.421   6.992
12136WAT      O49249   0.643   7.014   7.081
12136WAT     H149250   0.697   6.946   7.089
12136WAT     H249251   0.649   7.054   7.158
12136WAT    EPW49252   0.652   7.010   7.094
12137WAT      O49253   0.369   7.252   7.212
12137WAT     H149254   0.318   7.185   7.187
12137WAT     H249255   0.374   7.302   7.141
12137WAT    EPW49256   0.362   7.249   7.198
12138WAT      O49257   0.369   6.946   7.202
12138WAT     H149258   0.323   6.906   7.139
12138WAT     H249259   0.446   6.961   7.164
12138WAT    EPW49260   0.373   6.942   7.187
12139WAT      O49261   0.228   7.182   7.654
12139WAT     H149262   0.236   7.239   7.588
12139WAT     H249263   0.240   7.232   7.725
12139WAT    EPW49264   0.231   7.198   7.655
12140WAT      O49265   0.733   6.794   7.526
12140WAT     H149266   0.738   6.762   7.607
12140WAT     H249267   0.765   6.729   7.477
12140WAT    EPW49268   0.739   6.780   7.531
12141WAT      O49269   0.792   7.569   7.034
12141WAT     H149270   0.770   7.642   6.992
12141WAT     H249271   0.747   7.574   7.109
12141WAT    EPW49272   0.782   7.580   7.039
12142WAT      O49273   1.211   7.055   6.980
12142WAT     H149274   1.145   6.998   6.982
12142WAT     H249275   1.192   7.106   6.912
12142WAT    EPW49276   1.198   7.054   6.970
12143WAT      O49277   1.011   7.011   7.207
12143WAT     H149278   1.086   6.970   7.227
12143WAT     H249279   1.037   7.082   7.165
12143WAT    EPW49280   1.026   7.015   7.204
12144WAT      O49281   0.657   7.240   7.715
12144WAT     H149282   0.691   7.255   7.793
12144WAT     H249283   0.611   7.166   7.726
12144WAT    EPW49284   0.655   7.231   7.728
12145WAT      O49285   0.608   7.170   7.321
12145WAT     H149286   0.657   7.241   7.314
12145WAT     H249287   0.529   7.196   7.295
12145WAT    EPW49288   0.604   7.184   7.316
12146WAT      O49289   0.485   7.634   7.121
12146WAT     H149290   0.484   7.706   7.072
12146WAT     H249291   0.421   7.647   7.179
12146WAT    EPW49292   0.476   7.646   7.122
12147WAT      O49293   0.326   7.633   7.354
12147WAT     H149294   0.331   7.698   7.412
12147WAT     H249295   0.307   7.563   7.403
12147WAT    EPW49296   0.324   7.632   7.370
12148WAT      O49297   0.248   7.837   7.797
12148WAT     H149298   0.163   7.818   7.805
12148WAT     H249299   0.280   7.821   7.876
12148WAT    EPW49300   0.240   7.832   7.810
12149WAT      O49301   1.067   7.767   7.797
12149WAT     H149302   1.038   7.807   7.869
12149WAT     H249303   1.153   7.761   7.809
12149WAT    EPW49304   1.075   7.772   7.809
12150WAT      O49305   0.889   7.374   7.614
12150WAT     H149306   0.814   7.342   7.645
12150WAT     H249307   0.889   7.457   7.642
12150WAT    EPW49308   0.878   7.381   7.622
12151WAT      O49309   1.050   7.430   7.012
12151WAT     H149310   1.088   7.498   6.972
12151WAT     H249311   0.966   7.453   7.015
12151WAT    EPW49312   1.044   7.444   7.007
12152WAT      O49313   0.820   7.390   7.350
12152WAT     H149314   0.841   7.370   7.432
12152WAT     H249315   0.896   7.417   7.316
12152WAT    EPW49316   0.834   7.391   7.357
12153WAT      O49317   0.922   6.999   7.497
12153WAT     H149318   0.851   6.952   7.514
12153WAT     H249319   0.906   7.033   7.419
12153WAT    EPW49320   0.909   6.997   7.488
12154WAT      O49321   0.966   7.793   7.335
12154WAT     H149322   1.014   7.720   7.330
12154WAT     H249323   0.884   7.764   7.328
12154WAT    EPW49324   0.961   7.778   7.333
12155WAT      O49325   1.043   7.504   7.279
12155WAT     H149326   1.054   7.499   7.193
12155WAT     H249327   1.118   7.471   7.311
12155WAT    EPW49328   1.056   7.499   7.271
12156WAT      O49329   0.441   7.018   7.679
12156WAT     H149330   0.371   7.070   7.673
12156WAT     H249331   0.445   6.980   7.600
12156WAT    EPW49332   0.431   7.020   7.666
12157WAT      O49333   0.831   7.598   7.808
12157WAT     H149334   0.898   7.652   7.824
12157WAT     H249335   0.797   7.629   7.734
12157WAT    EPW49336   0.836   7.610   7.799
12158WAT      O49337   0.509   7.465   7.653
12158WAT     H149338   0.564   7.404   7.683
12158WAT     H249339   0.466   7.491   7.725
12158WAT    EPW49340   0.511   7.459   7.668
12159WAT      O49341   0.706   7.648   7.309
12159WAT     H149342   0.713   7.563   7.327
12159WAT     H249343   0.624   7.656   7.282
12159WAT    EPW49344   0.695   7.636   7.308
12160WAT      O49345   0.451   6.855   5.550
12160WAT     H149346   0.426   6.903   5.482
12160WAT     H249347   0.537   6.847   5.540
12160WAT    EPW49348   0.460   6.861   5.539
12161WAT      O49349   0.432   7.546   6.017
12161WAT     H149350   0.379   7.606   6.054
12161WAT     H249351   0.471   7.509   6.086
12161WAT    EPW49352   0.430   7.550   6.033
12162WAT      O49353   0.699   7.653   5.685
12162WAT     H149354   0.707   7.653   5.598
12162WAT     H249355   0.640   7.590   5.700
12162WAT    EPW49356   0.691   7.644   5.674
12163WAT      O49357   0.380   7.452   6.627
12163WAT     H149358   0.295   7.442   6.609
12163WAT     H249359   0.383   7.526   6.672
12163WAT    EPW49360   0.368   7.461   6.631
12164WAT      O49361   0.836   6.748   6.538
12164WAT     H149362   0.820   6.825   6.500
12164WAT     H249363   0.759   6.726   6.573
12164WAT    EPW49364   0.822   6.756   6.538
12165WAT      O49365   0.582   7.212   4.990
12165WAT     H149366   0.537   7.280   5.020
12165WAT     H249367   0.594   7.162   5.060
12165WAT    EPW49368   0.577   7.215   5.005
12166WAT      O49369   1.122   7.209   5.619
12166WAT     H149370   1.087   7.277   5.662
12166WAT     H249371   1.058   7.149   5.621
12166WAT    EPW49372   1.107   7.210   5.626
12167WAT      O49373   0.275   6.881   6.704
12167WAT     H149374   0.292   6.800   6.676
12167WAT     H249375   0.260   6.925   6.630
12167WAT    EPW49376   0.275   6.875   6.689
12168WAT      O49377   0.334   7.373   5.581
12168WAT     H149378   0.363   7.350   5.502
12168WAT     H249379   0.407   7.381   5.628
12168WAT    EPW49380   0.349   7.371   5.577
12169WAT      O49381   0.406   7.407   5.093
12169WAT     H149382   0.434   7.486   5.118
12169WAT     H249383   0.329   7.424   5.057
12169WAT    EPW49384   0.399   7.421   5.092
12170WAT      O49385   1.089   7.042   6.156
12170WAT     H149386   1.165   7.049   6.113
12170WAT     H249387   1.095   6.964   6.196
12170WAT    EPW49388   1.101   7.031   6.156
12171WAT      O49389   0.643   7.014   5.180
12171WAT     H149390   0.697   6.946   5.188
12171WAT     H249391   0.649   7.054   5.258
12171WAT    EPW49392   0.652   7.010   5.193
12172WAT      O49393   0.369   7.252   5.312
12172WAT     H149394   0.318   7.185   5.286
12172WAT     H249395   0.374   7.302   5.241
12172WAT    EPW49396   0.362   7.249   5.298
12173WAT      O49397   0.369   6.946   5.301
12173WAT     H149398   0.323   6.906   5.238
12173WAT     H249399   0.446   6.961   5.263
12173WAT    EPW49400   0.373   6.942   5.286
12174WAT      O49401   0.228   7.182   5.753
12174WAT     H149402   0.236   7.239   5.687
12174WAT     H249403   0.240   7.232   5.824
12174WAT    EPW49404   0.231   7.198   5.754
12175WAT      O49405   0.608   7.199   6.342
12175WAT     H149406   0.598   7.231   6.422
12175WAT     H249407   0.548   7.136   6.338
12175WAT    EPW49408   0.597   7.195   6.353
12176WAT      O49409   0.733   6.794   5.625
12176WAT     H149410   0.738   6.762   5.707
12176WAT     H249411   0.765   6.729   5.576
12176WAT    EPW49412   0.739   6.780   5.630
12177WAT      O49413   0.980   7.217   6.456
12177WAT     H149414   1.057   7.195   6.490
12177WAT     H249415   0.932   7.239   6.526
12177WAT    EPW49416   0.984   7.217   6.472
12178WAT      O49417   0.792   7.569   5.134
12178WAT     H149418   0.770   7.642   5.091
12178WAT     H249419   0.747   7.574   5.208
12178WAT    EPW49420   0.782   7.580   5.138
12179WAT      O49421   1.211   7.055   5.079
12179WAT     H149422   1.145   6.998   5.081
12179WAT     H249423   1.192   7.106   5.011
12179WAT    EPW49424   1.198   7.054   5.069
12180WAT      O49425   1.243   7.493   6.334
12180WAT     H149426   1.265   7.413   6.307
12180WAT     H249427   1.158   7.499   6.316
12180WAT    EPW49428   1.234   7.482   6.328
12181WAT      O49429   1.011   7.011   5.307
12181WAT     H149430   1.086   6.970   5.327
12181WAT     H249431   1.037   7.082   5.264
12181WAT    EPW49432   1.026   7.015   5.303
12182WAT      O49433   0.657   7.240   5.814
12182WAT     H149434   0.691   7.255   5.893
12182WAT     H249435   0.611   7.166   5.825
12182WAT    EPW49436   0.655   7.231   5.827
12183WAT      O49437   0.789   7.373   6.069
12183WAT     H149438   0.722   7.406   6.116
12183WAT     H249439   0.807   7.436   6.013
12183WAT    EPW49440   0.782   7.387   6.068
12184WAT      O49441   0.453   6.963   6.412
12184WAT     H149442   0.468   6.881   6.388
12184WAT     H249443   0.491   6.969   6.491
12184WAT    EPW49444   0.461   6.952   6.420
12185WAT      O49445   0.608   7.170   5.421
12185WAT     H149446   0.657   7.241   5.413
12185WAT     H249447   0.529   7.196   5.394
12185WAT    EPW49448   0.604   7.184   5.416
12186WAT      O49449   0.266   7.317   5.993
12186WAT     H149450   0.314   7.387   6.014
12186WAT     H249451   0.303   7.252   6.038
12186WAT    EPW49452   0.279   7.318   6.003
12187WAT      O49453   0.485   7.634   5.220
12187WAT     H149454   0.484   7.706   5.171
12187WAT     H249455   0.421   7.647   5.278
12187WAT    EPW49456   0.476   7.646   5.222
12188WAT      O49457   0.914   7.812   6.428
12188WAT     H149458   0.920   7.825   6.341
12188WAT     H249459   0.989   7.844   6.458
12188WAT    EPW49460   0.926   7.819   6.419
12189WAT      O49461   1.017   6.842   6.726
12189WAT     H149462   0.954   6.802   6.682
12189WAT     H249463   1.020   6.799   6.802
12189WAT    EPW49464   1.008   6.830   6.731
12190WAT      O49465   0.487   7.793   6.388
12190WAT     H149466   0.472   7.854   6.448
12190WAT     H249467   0.541   7.737   6.428
12190WAT    EPW49468   0.493   7.794   6.402
12191WAT      O49469   0.326   7.633   5.453
12191WAT     H149470   0.331   7.698   5.511
12191WAT     H249471   0.307   7.563   5.502
12191WAT    EPW49472   0.324   7.632   5.469
12192WAT      O49473   0.248   7.837   5.896
12192WAT     H149474   0.163   7.818   5.905
12192WAT     H249475   0.280   7.821   5.976
12192WAT    EPW49476   0.240   7.832   5.909
12193WAT      O49477   0.941   7.760   6.152
12193WAT     H149478   0.941   7.682   6.192
12193WAT     H249479   0.857   7.783   6.151
12193WAT    EPW49480   0.929   7.752   6.158
12194WAT      O49481   1.067   7.767   5.896
12194WAT     H149482   1.038   7.807   5.968
12194WAT     H249483   1.153   7.761   5.909
12194WAT    EPW49484   1.075   7.772   5.908
12195WAT      O49485   0.833   7.159   6.750
12195WAT     H149486   0.781   7.205   6.802
12195WAT     H249487   0.797   7.080   6.749
12195WAT    EPW49488   0.820   7.154   6.757
12196WAT      O49489   0.682   7.516   6.757
12196WAT     H149490   0.690   7.527   6.844
12196WAT     H249491   0.619   7.572   6.735
12196WAT    EPW49492   0.674   7.526   6.767
12197WAT      O49493   0.909   7.548   6.594
12197WAT     H149494   0.941   7.627   6.614
12197WAT     H249495   0.872   7.521   6.668
12197WAT    EPW49496   0.908   7.556   6.608
12198WAT      O49497   0.889   7.374   5.713
12198WAT     H149498   0.814   7.342   5.745
12198WAT     H249499   0.889   7.457   5.741
12198WAT    EPW49500   0.878   7.381   5.722
12199WAT      O49501   1.179   7.602   6.867
12199WAT     H149502   1.174   7.568   6.787
12199WAT     H249503   1.253   7.649   6.865
12199WAT    EPW49504   1.189   7.604   6.855
12200WAT      O49505   0.780   7.007   6.459
12200WAT     H149506   0.854   7.052   6.453
12200WAT     H249507   0.723   7.054   6.412
12200WAT    EPW49508   0.783   7.021   6.451
12201WAT      O49509   0.298   7.735   6.167
12201WAT     H149510   0.345   7.773   6.230
12201WAT     H249511   0.215   7.749   6.193
12201WAT    EPW49512   0.293   7.743   6.180
12202WAT      O49513   0.908   6.805   6.226
12202WAT     H149514   0.880   6.887   6.222
12202WAT     H249515   0.980   6.810   6.276
12202WAT    EPW49516   0.915   6.818   6.233
12203WAT      O49517   1.050   7.430   5.112
12203WAT     H149518   1.088   7.498   5.072
12203WAT     H249519   0.966   7.453   5.115
12203WAT    EPW49520   1.044   7.444   5.106
12204WAT      O49521   0.596   7.292   6.594
12204WAT     H149522   0.532   7.339   6.629
12204WAT     H249523   0.653   7.283   6.660
12204WAT    EPW49524   0.595   7.298   6.609
12205WAT      O49525   0.565   7.446   6.224
12205WAT     H149526   0.595   7.488   6.294
12205WAT     H249527   0.569   7.362   6.247
12205WAT    EPW49528   0.570   7.439   6.238
12206WAT      O49529   0.820   7.390   5.449
12206WAT     H149530   0.841   7.370   5.532
12206WAT     H249531   0.896   7.417   5.415
12206WAT    EPW49532   0.834   7.391   5.456
12207WAT      O49533   0.922   6.999   5.597
12207WAT     H149534   0.851   6.952   5.614
12207WAT     H249535   0.906   7.033   5.518
12207WAT    EPW49536   0.909   6.997   5.587
12208WAT      O49537   0.966   7.793   5.435
12208WAT     H149538   1.014   7.720   5.430
12208WAT     H249539   0.884   7.764   5.427
12208WAT    EPW49540   0.961   7.778   5.433
12209WAT      O49541   1.180   7.510   6.610
12209WAT     H149542   1.095   7.498   6.623
12209WAT     H249543   1.195   7.470   6.534
12209WAT    EPW49544   1.170   7.502   6.601
12210WAT      O49545   0.631   7.576   6.468
12210WAT     H149546   0.606   7.504   6.510
12210WAT     H249547   0.713   7.588   6.495
12210WAT    EPW49548   0.640   7.567   6.478
12211WAT      O49549   0.425   7.695   6.787
12211WAT     H149550   0.457   7.764   6.743
12211WAT     H249551   0.354   7.728   6.827
12211WAT    EPW49552   0.419   7.710   6.786
12212WAT      O49553   1.043   7.504   5.379
12212WAT     H149554   1.054   7.499   5.292
12212WAT     H249555   1.118   7.471   5.411
12212WAT    EPW49556   1.056   7.499   5.371
12213WAT      O49557   0.954   7.519   6.314
12213WAT     H149558   0.953   7.433   6.327
12213WAT     H249559   0.960   7.551   6.395
12213WAT    EPW49560   0.955   7.511   6.328
12214WAT      O49561   0.542   6.999   6.693
12214WAT     H149562   0.551   7.070   6.742
12214WAT     H249563   0.478   6.954   6.732
12214WAT    EPW49564   0.533   7.003   6.706
12215WAT      O49565   0.441   7.018   5.778
12215WAT     H149566   0.371   7.070   5.772
12215WAT     H249567   0.445   6.980   5.700
12215WAT    EPW49568   0.431   7.020   5.766
12216WAT      O49569   0.801   7.070   6.058
12216WAT     H149570   0.886   7.079   6.072
12216WAT     H249571   0.764   7.125   6.114
12216WAT    EPW49572   0.808   7.079   6.068
12217WAT      O49573   0.831   7.598   5.907
12217WAT     H149574   0.898   7.652   5.923
12217WAT     H249575   0.797   7.629   5.833
12217WAT    EPW49576   0.836   7.610   5.899
12218WAT      O49577   1.148   6.853   6.374
12218WAT     H149578   1.143   6.849   6.461
12218WAT     H249579   1.217   6.803   6.355
12218WAT    EPW49580   1.158   6.845   6.384
12219WAT      O49581   0.357   7.065   6.078
12219WAT     H149582   0.283   7.019   6.089
12219WAT     H249583   0.414   7.024   6.130
12219WAT    EPW49584   0.354   7.052   6.087
12220WAT      O49585   0.573   6.884   6.003
12220WAT     H149586   0.640   6.938   6.016
12220WAT     H249587   0.523   6.926   5.946
12220WAT    EPW49588   0.576   6.898   5.997
12221WAT      O49589   0.509   7.465   5.752
12221WAT     H149590   0.564   7.404   5.782
12221WAT     H249591   0.466   7.491   5.824
12221WAT    EPW49592   0.511   7.459   5.767
12222WAT      O49593   0.706   7.648   5.409
12222WAT     H149594   0.713   7.563   5.427
12222WAT     H249595   0.624   7.656   5.381
12222WAT    EPW49596   0.695   7.636   5.407
12223WAT      O49597   1.033   7.785   6.724
12223WAT     H149598   1.097   7.768   6.781
12223WAT     H249599   1.075   7.825   6.659
12223WAT    EPW49600   1.049   7.788   6.723
12224WAT      O49601   1.096   7.241   6.798
12224WAT     H149602   1.076   7.306   6.853
12224WAT     H249603   1.024   7.192   6.797
12224WAT    EPW49604   1.082   7.244   6.806
12225WAT      O49605   1.086   7.335   6.095
12225WAT     H149606   1.002   7.360   6.087
12225WAT     H249607   1.080   7.251   6.118
12225WAT    EPW49608   1.073   7.327   6.097
12226WAT      O49609   0.774   7.796   6.859
12226WAT     H149610   0.862   7.792   6.856
12226WAT     H249611   0.753   7.838   6.786
12226WAT    EPW49612   0.784   7.802   6.848
12227WAT      O49613   0.451   6.855   3.650
12227WAT     H149614   0.426   6.903   3.582
12227WAT     H249615   0.537   6.847   3.640
12227WAT    EPW49616   0.460   6.861   3.638
12228WAT      O49617   0.432   7.546   4.117
12228WAT     H149618   0.379   7.606   4.153
12228WAT     H249619   0.471   7.509   4.185
12228WAT    EPW49620   0.430   7.550   4.132
12229WAT      O49621   0.699   7.653   3.784
12229WAT     H149622   0.707   7.653   3.697
12229WAT     H249623   0.640   7.590   3.799
12229WAT    EPW49624   0.691   7.644   3.774
12230WAT      O49625   0.380   7.452   4.726
12230WAT     H149626   0.295   7.442   4.708
12230WAT     H249627   0.383   7.526   4.772
12230WAT    EPW49628   0.368   7.461   4.730
12231WAT      O49629   0.836   6.748   4.638
12231WAT     H149630   0.820   6.825   4.599
12231WAT     H249631   0.759   6.726   4.672
12231WAT    EPW49632   0.822   6.756   4.637
12232WAT      O49633   0.582   7.212   3.089
12232WAT     H149634   0.537   7.280   3.120
12232WAT     H249635   0.594   7.162   3.159
12232WAT    EPW49636   0.577   7.215   3.104
12233WAT      O49637   1.122   7.209   3.719
12233WAT     H149638   1.087   7.277   3.761
12233WAT     H249639   1.058   7.149   3.720
12233WAT    EPW49640   1.107   7.210   3.725
12234WAT      O49641   0.275   6.881   4.803
12234WAT     H149642   0.292   6.800   4.776
12234WAT     H249643   0.260   6.925   4.729
12234WAT    EPW49644   0.275   6.875   4.788
12235WAT      O49645   0.334   7.373   3.681
12235WAT     H149646   0.363   7.350   3.602
12235WAT     H249647   0.407   7.381   3.728
12235WAT    EPW49648   0.349   7.371   3.676
12236WAT      O49649   0.406   7.407   3.193
12236WAT     H149650   0.434   7.486   3.218
12236WAT     H249651   0.329   7.424   3.156
12236WAT    EPW49652   0.399   7.421   3.191
12237WAT      O49653   1.089   7.042   4.255
12237WAT     H149654   1.165   7.049   4.213
12237WAT     H249655   1.095   6.964   4.295
12237WAT    EPW49656   1.101   7.031   4.255
12238WAT      O49657   0.643   7.014   3.280
12238WAT     H149658   0.697   6.946   3.287
12238WAT     H249659   0.649   7.054   3.357
12238WAT    EPW49660   0.652   7.010   3.292
12239WAT      O49661   0.369   7.252   3.411
12239WAT     H149662   0.318   7.185   3.386
12239WAT     H249663   0.374   7.302   3.340
12239WAT    EPW49664   0.362   7.249   3.397
12240WAT      O49665   0.369   6.946   3.400
12240WAT     H149666   0.323   6.906   3.338
12240WAT     H249667   0.446   6.961   3.363
12240WAT    EPW49668   0.373   6.942   3.385
12241WAT      O49669   0.228   7.182   3.852
12241WAT     H149670   0.236   7.239   3.787
12241WAT     H249671   0.240   7.232   3.923
12241WAT    EPW49672   0.231   7.198   3.853
12242WAT      O49673   0.608   7.199   4.441
12242WAT     H149674   0.598   7.231   4.522
12242WAT     H249675   0.548   7.136   4.437
12242WAT    EPW49676   0.597   7.195   4.453
12243WAT      O49677   0.733   6.794   3.725
12243WAT     H149678   0.738   6.762   3.806
12243WAT     H249679   0.765   6.729   3.676
12243WAT    EPW49680   0.739   6.780   3.730
12244WAT      O49681   0.980   7.217   4.556
12244WAT     H149682   1.057   7.195   4.589
12244WAT     H249683   0.932   7.239   4.626
12244WAT    EPW49684   0.984   7.217   4.571
12245WAT      O49685   0.792   7.569   3.233
12245WAT     H149686   0.770   7.642   3.191
12245WAT     H249687   0.747   7.574   3.308
12245WAT    EPW49688   0.782   7.580   3.238
12246WAT      O49689   1.211   7.055   3.178
12246WAT     H149690   1.145   6.998   3.181
12246WAT     H249691   1.192   7.106   3.110
12246WAT    EPW49692   1.198   7.054   3.169
12247WAT      O49693   1.243   7.493   4.434
12247WAT     H149694   1.265   7.413   4.406
12247WAT     H249695   1.158   7.499   4.415
12247WAT    EPW49696   1.234   7.482   4.427
12248WAT      O49697   1.011   7.011   3.406
12248WAT     H149698   1.086   6.970   3.426
12248WAT     H249699   1.037   7.082   3.364
12248WAT    EPW49700   1.026   7.015   3.403
12249WAT      O49701   0.657   7.240   3.913
12249WAT     H149702   0.691   7.255   3.992
12249WAT     H249703   0.611   7.166   3.925
12249WAT    EPW49704   0.655   7.231   3.927
12250WAT      O49705   0.789   7.373   4.169
12250WAT     H149706   0.722   7.406   4.215
12250WAT     H249707   0.807   7.436   4.112
12250WAT    EPW49708   0.782   7.387   4.167
12251WAT      O49709   0.453   6.963   4.512
12251WAT     H149710   0.468   6.881   4.487
12251WAT     H249711   0.491   6.969   4.590
12251WAT    EPW49712   0.461   6.952   4.520
12252WAT      O49713   0.608   7.170   3.520
12252WAT     H149714   0.657   7.241   3.512
12252WAT     H249715   0.529   7.196   3.494
12252WAT    EPW49716   0.604   7.184   3.515
12253WAT      O49717   0.266   7.317   4.092
12253WAT     H149718   0.314   7.387   4.113
12253WAT     H249719   0.303   7.252   4.138
12253WAT    EPW49720   0.279   7.318   4.102
12254WAT      O49721   0.485   7.634   3.320
12254WAT     H149722   0.484   7.706   3.271
12254WAT     H249723   0.421   7.647   3.378
12254WAT    EPW49724   0.476   7.646   3.321
12255WAT      O49725   0.914   7.812   4.527
12255WAT     H149726   0.920   7.825   4.441
12255WAT     H249727   0.989   7.844   4.557
12255WAT    EPW49728   0.926   7.819   4.519
12256WAT      O49729   1.017   6.842   4.826
12256WAT     H149730   0.954   6.802   4.781
12256WAT     H249731   1.020   6.799   4.901
12256WAT    EPW49732   1.008   6.830   4.830
12257WAT      O49733   0.487   7.793   4.487
12257WAT     H149734   0.472   7.854   4.547
12257WAT     H249735   0.541   7.737   4.528
12257WAT    EPW49736   0.493   7.794   4.502
12258WAT      O49737   0.326   7.633   3.553
12258WAT     H149738   0.331   7.698   3.611
12258WAT     H249739   0.307   7.563   3.602
12258WAT    EPW49740   0.324   7.632   3.569
12259WAT      O49741   0.248   7.837   3.996
12259WAT     H149742   0.163   7.818   4.004
12259WAT     H249743   0.280   7.821   4.075
12259WAT    EPW49744   0.240   7.832   4.009
12260WAT      O49745   0.941   7.760   4.252
12260WAT     H149746   0.941   7.682   4.291
12260WAT     H249747   0.857   7.783   4.251
12260WAT    EPW49748   0.929   7.752   4.257
12261WAT      O49749   1.067   7.767   3.995
12261WAT     H149750   1.038   7.807   4.067
12261WAT     H249751   1.153   7.761   4.008
12261WAT    EPW49752   1.075   7.772   4.008
12262WAT      O49753   0.833   7.159   4.849
12262WAT     H149754   0.781   7.205   4.902
12262WAT     H249755   0.797   7.080   4.849
12262WAT    EPW49756   0.820   7.154   4.857
12263WAT      O49757   0.682   7.516   4.857
12263WAT     H149758   0.690   7.527   4.943
12263WAT     H249759   0.619   7.572   4.835
12263WAT    EPW49760   0.674   7.526   4.866
12264WAT      O49761   0.909   7.548   4.693
12264WAT     H149762   0.941   7.627   4.714
12264WAT     H249763   0.872   7.521   4.768
12264WAT    EPW49764   0.908   7.556   4.707
12265WAT      O49765   0.889   7.374   3.812
12265WAT     H149766   0.814   7.342   3.844
12265WAT     H249767   0.889   7.457   3.840
12265WAT    EPW49768   0.878   7.381   3.821
12266WAT      O49769   1.179   7.602   4.967
12266WAT     H149770   1.174   7.568   4.887
12266WAT     H249771   1.253   7.649   4.965
12266WAT    EPW49772   1.189   7.604   4.955
12267WAT      O49773   0.780   7.007   4.558
12267WAT     H149774   0.854   7.052   4.552
12267WAT     H249775   0.723   7.054   4.511
12267WAT    EPW49776   0.783   7.021   4.551
12268WAT      O49777   0.298   7.735   4.266
12268WAT     H149778   0.345   7.773   4.329
12268WAT     H249779   0.215   7.749   4.292
12268WAT    EPW49780   0.293   7.743   4.279
12269WAT      O49781   0.908   6.805   4.325
12269WAT     H149782   0.880   6.887   4.321
12269WAT     H249783   0.980   6.810   4.375
12269WAT    EPW49784   0.915   6.818   4.332
12270WAT      O49785   1.050   7.430   3.211
12270WAT     H149786   1.088   7.498   3.171
12270WAT     H249787   0.966   7.453   3.214
12270WAT    EPW49788   1.044   7.444   3.206
12271WAT      O49789   0.596   7.292   4.694
12271WAT     H149790   0.532   7.339   4.728
12271WAT     H249791   0.653   7.283   4.759
12271WAT    EPW49792   0.595   7.298   4.708
12272WAT      O49793   0.565   7.446   4.323
12272WAT     H149794   0.595   7.488   4.394
12272WAT     H249795   0.569   7.362   4.347
12272WAT    EPW49796   0.570   7.439   4.337
12273WAT      O49797   0.820   7.390   3.549
12273WAT     H149798   0.841   7.370   3.631
12273WAT     H249799   0.896   7.417   3.514
12273WAT    EPW49800   0.834   7.391   3.556
12274WAT      O49801   0.922   6.999   3.696
12274WAT     H149802   0.851   6.952   3.713
12274WAT     H249803   0.906   7.033   3.617
12274WAT    EPW49804   0.909   6.997   3.687
12275WAT      O49805   0.966   7.793   3.534
12275WAT     H149806   1.014   7.720   3.529
12275WAT     H249807   0.884   7.764   3.526
12275WAT    EPW49808   0.961   7.778   3.532
12276WAT      O49809   1.180   7.510   4.710
12276WAT     H149810   1.095   7.498   4.722
12276WAT     H249811   1.195   7.470   4.633
12276WAT    EPW49812   1.170   7.502   4.700
12277WAT      O49813   0.631   7.576   4.567
12277WAT     H149814   0.606   7.504   4.610
12277WAT     H249815   0.713   7.588   4.594
12277WAT    EPW49816   0.640   7.567   4.578
12278WAT      O49817   0.425   7.695   4.886
12278WAT     H149818   0.457   7.764   4.843
12278WAT     H249819   0.354   7.728   4.926
12278WAT    EPW49820   0.419   7.710   4.886
12279WAT      O49821   1.043   7.504   3.478
12279WAT     H149822   1.054   7.499   3.392
12279WAT     H249823   1.118   7.471   3.510
12279WAT    EPW49824   1.056   7.499   3.470
12280WAT      O49825   0.954   7.519   4.414
12280WAT     H149826   0.953   7.433   4.426
12280WAT     H249827   0.960   7.551   4.494
12280WAT    EPW49828   0.955   7.511   4.427
12281WAT      O49829   0.542   6.999   4.792
12281WAT     H149830   0.551   7.070   4.841
12281WAT     H249831   0.478   6.954   4.832
12281WAT    EPW49832   0.533   7.003   4.805
12282WAT      O49833   0.441   7.018   3.877
12282WAT     H149834   0.371   7.070   3.872
12282WAT     H249835   0.445   6.980   3.799
12282WAT    EPW49836   0.431   7.020   3.865
12283WAT      O49837   0.801   7.070   4.157
12283WAT     H149838   0.886   7.079   4.172
12283WAT     H249839   0.764   7.125   4.214
12283WAT    EPW49840   0.808   7.079   4.168
12284WAT      O49841   0.831   7.598   4.006
12284WAT     H149842   0.898   7.652   4.022
12284WAT     H249843   0.797   7.629   3.933
12284WAT    EPW49844   0.836   7.610   3.998
12285WAT      O49845   1.148   6.853   4.473
12285WAT     H149846   1.143   6.849   4.560
12285WAT     H249847   1.217   6.803   4.454
12285WAT    EPW49848   1.158   6.845   4.483
12286WAT      O49849   0.357   7.065   4.177
12286WAT     H149850   0.283   7.019   4.189
12286WAT     H249851   0.414   7.024   4.230
12286WAT    EPW49852   0.354   7.052   4.187
12287WAT      O49853   0.573   6.884   4.103
12287WAT     H149854   0.640   6.938   4.115
12287WAT     H249855   0.523   6.926   4.045
12287WAT    EPW49856   0.576   6.898   4.096
12288WAT      O49857   0.509   7.465   3.852
12288WAT     H149858   0.564   7.404   3.882
12288WAT     H249859   0.466   7.491   3.923
12288WAT    EPW49860   0.511   7.459   3.867
12289WAT      O49861   0.706   7.648   3.508
12289WAT     H149862   0.713   7.563   3.526
12289WAT     H249863   0.624   7.656   3.480
12289WAT    EPW49864   0.695   7.636   3.507
12290WAT      O49865   1.033   7.785   4.823
12290WAT     H149866   1.097   7.768   4.881
12290WAT     H249867   1.075   7.825   4.758
12290WAT    EPW49868   1.049   7.788   4.822
12291WAT      O49869   1.096   7.241   4.897
12291WAT     H149870   1.076   7.306   4.952
12291WAT     H249871   1.024   7.192   4.896
12291WAT    EPW49872   1.082   7.244   4.905
12292WAT      O49873   1.086   7.335   4.194
12292WAT     H149874   1.002   7.360   4.187
12292WAT     H249875   1.080   7.251   4.217
12292WAT    EPW49876   1.073   7.327   4.196
12293WAT      O49877   0.774   7.796   4.959
12293WAT     H149878   0.862   7.792   4.955
12293WAT     H249879   0.753   7.838   4.885
12293WAT    EPW49880   0.784   7.802   4.947
12294WAT      O49881   0.451   6.855   1.749
12294WAT     H149882   0.426   6.903   1.681
12294WAT     H249883   0.537   6.847   1.739
12294WAT    EPW49884   0.460   6.861   1.737
12295WAT      O49885   0.432   7.546   2.216
12295WAT     H149886   0.379   7.606   2.252
12295WAT     H249887   0.471   7.509   2.284
12295WAT    EPW49888   0.430   7.550   2.232
12296WAT      O49889   0.699   7.653   1.884
12296WAT     H149890   0.707   7.653   1.797
12296WAT     H249891   0.640   7.590   1.899
12296WAT    EPW49892   0.691   7.644   1.873
12297WAT      O49893   0.380   7.452   2.826
12297WAT     H149894   0.295   7.442   2.808
12297WAT     H249895   0.383   7.526   2.871
12297WAT    EPW49896   0.368   7.461   2.830
12298WAT      O49897   0.836   6.748   2.737
12298WAT     H149898   0.820   6.825   2.699
12298WAT     H249899   0.759   6.726   2.771
12298WAT    EPW49900   0.822   6.756   2.737
12299WAT      O49901   0.582   7.212   1.188
12299WAT     H149902   0.537   7.280   1.219
12299WAT     H249903   0.594   7.162   1.259
12299WAT    EPW49904   0.577   7.215   1.203
12300WAT      O49905   1.122   7.209   1.818
12300WAT     H149906   1.087   7.277   1.861
12300WAT     H249907   1.058   7.149   1.820
12300WAT    EPW49908   1.107   7.210   1.824
12301WAT      O49909   0.275   6.881   2.903
12301WAT     H149910   0.292   6.800   2.875
12301WAT     H249911   0.260   6.925   2.829
12301WAT    EPW49912   0.275   6.875   2.888
12302WAT      O49913   0.334   7.373   1.780
12302WAT     H149914   0.363   7.350   1.701
12302WAT     H249915   0.407   7.381   1.827
12302WAT    EPW49916   0.349   7.371   1.775
12303WAT      O49917   0.406   7.407   1.292
12303WAT     H149918   0.434   7.486   1.317
12303WAT     H249919   0.329   7.424   1.256
12303WAT    EPW49920   0.399   7.421   1.290
12304WAT      O49921   1.089   7.042   2.355
12304WAT     H149922   1.165   7.049   2.312
12304WAT     H249923   1.095   6.964   2.395
12304WAT    EPW49924   1.101   7.031   2.354
12305WAT      O49925   0.643   7.014   1.379
12305WAT     H149926   0.697   6.946   1.387
12305WAT     H249927   0.649   7.054   1.457
12305WAT    EPW49928   0.652   7.010   1.392
12306WAT      O49929   0.369   7.252   1.511
12306WAT     H149930   0.318   7.185   1.485
12306WAT     H249931   0.374   7.302   1.440
12306WAT    EPW49932   0.362   7.249   1.496
12307WAT      O49933   0.369   6.946   1.500
12307WAT     H149934   0.323   6.906   1.437
12307WAT     H249935   0.446   6.961   1.462
12307WAT    EPW49936   0.373   6.942   1.485
12308WAT      O49937   0.228   7.182   1.952
12308WAT     H149938   0.236   7.239   1.886
12308WAT     H249939   0.240   7.232   2.023
12308WAT    EPW49940   0.231   7.198   1.953
12309WAT      O49941   0.608   7.199   2.541
12309WAT     H149942   0.598   7.231   2.621
12309WAT     H249943   0.548   7.136   2.537
12309WAT    EPW49944   0.597   7.195   2.552
12310WAT      O49945   0.733   6.794   1.824
12310WAT     H149946   0.738   6.762   1.905
12310WAT     H249947   0.765   6.729   1.775
12310WAT    EPW49948   0.739   6.780   1.829
12311WAT      O49949   0.980   7.217   2.655
12311WAT     H149950   1.057   7.195   2.689
12311WAT     H249951   0.932   7.239   2.725
12311WAT    EPW49952   0.984   7.217   2.670
12312WAT      O49953   0.792   7.569   1.332
12312WAT     H149954   0.770   7.642   1.290
12312WAT     H249955   0.747   7.574   1.407
12312WAT    EPW49956   0.782   7.580   1.337
12313WAT      O49957   1.211   7.055   1.278
12313WAT     H149958   1.145   6.998   1.280
12313WAT     H249959   1.192   7.106   1.210
12313WAT    EPW49960   1.198   7.054   1.268
12314WAT      O49961   1.243   7.493   2.533
12314WAT     H149962   1.265   7.413   2.506
12314WAT     H249963   1.158   7.499   2.514
12314WAT    EPW49964   1.234   7.482   2.526
12315WAT      O49965   1.011   7.011   1.506
12315WAT     H149966   1.086   6.970   1.525
12315WAT     H249967   1.037   7.082   1.463
12315WAT    EPW49968   1.026   7.015   1.502
12316WAT      O49969   0.657   7.240   2.013
12316WAT     H149970   0.691   7.255   2.092
12316WAT     H249971   0.611   7.166   2.024
12316WAT    EPW49972   0.655   7.231   2.026
12317WAT      O49973   0.789   7.373   2.268
12317WAT     H149974   0.722   7.406   2.315
12317WAT     H249975   0.807   7.436   2.211
12317WAT    EPW49976   0.782   7.387   2.267
12318WAT      O49977   0.453   6.963   2.611
12318WAT     H149978   0.468   6.881   2.587
12318WAT     H249979   0.491   6.969   2.690
12318WAT    EPW49980   0.461   6.952   2.619
12319WAT      O49981   0.608   7.170   1.619
12319WAT     H149982   0.657   7.241   1.612
12319WAT     H249983   0.529   7.196   1.593
12319WAT    EPW49984   0.604   7.184   1.614
12320WAT      O49985   0.266   7.317   2.192
12320WAT     H149986   0.314   7.387   2.213
12320WAT     H249987   0.303   7.252   2.237
12320WAT    EPW49988   0.279   7.318   2.202
12321WAT      O49989   0.485   7.634   1.419
12321WAT     H149990   0.484   7.706   1.370
12321WAT     H249991   0.421   7.647   1.477
12321WAT    EPW49992   0.476   7.646   1.421
12322WAT      O49993   0.914   7.812   2.626
12322WAT     H149994   0.920   7.825   2.540
12322WAT     H249995   0.989   7.844   2.657
12322WAT    EPW49996   0.926   7.819   2.618
12323WAT      O49997   1.017   6.842   2.925
12323WAT     H149998   0.954   6.802   2.881
12323WAT     H249999   1.020   6.799   3.001
12323WAT    EPW50000   1.008   6.830   2.930
12324WAT      O50001   0.487   7.793   2.586
12324WAT     H150002   0.472   7.854   2.647
12324WAT     H250003   0.541   7.737   2.627
12324WAT    EPW50004   0.493   7.794   2.601
12325WAT      O50005   0.326   7.633   1.652
12325WAT     H150006   0.331   7.698   1.710
12325WAT     H250007   0.307   7.563   1.701
12325WAT    EPW50008   0.324   7.632   1.668
12326WAT      O50009   0.248   7.837   2.095
12326WAT     H150010   0.163   7.818   2.103
12326WAT     H250011   0.280   7.821   2.175
12326WAT    EPW50012   0.240   7.832   2.108
12327WAT      O50013   0.941   7.760   2.351
12327WAT     H150014   0.941   7.682   2.391
12327WAT     H250015   0.857   7.783   2.350
12327WAT    EPW50016   0.929   7.752   2.357
12328WAT      O50017   1.067   7.767   2.095
12328WAT     H150018   1.038   7.807   2.167
12328WAT     H250019   1.153   7.761   2.107
12328WAT    EPW50020   1.075   7.772   2.107
12329WAT      O50021   0.833   7.159   2.949
12329WAT     H150022   0.781   7.205   3.001
12329WAT     H250023   0.797   7.080   2.948
12329WAT    EPW50024   0.820   7.154   2.956
12330WAT      O50025   0.682   7.516   2.956
12330WAT     H150026   0.690   7.527   3.043
12330WAT     H250027   0.619   7.572   2.934
12330WAT    EPW50028   0.674   7.526   2.966
12331WAT      O50029   0.909   7.548   2.793
12331WAT     H150030   0.941   7.627   2.813
12331WAT     H250031   0.872   7.521   2.867
12331WAT    EPW50032   0.908   7.556   2.807
12332WAT      O50033   0.889   7.374   1.912
12332WAT     H150034   0.814   7.342   1.943
12332WAT     H250035   0.889   7.457   1.940
12332WAT    EPW50036   0.878   7.381   1.920
12333WAT      O50037   1.179   7.602   3.066
12333WAT     H150038   1.174   7.568   2.986
12333WAT     H250039   1.253   7.649   3.064
12333WAT    EPW50040   1.189   7.604   3.054
12334WAT      O50041   0.780   7.007   2.658
12334WAT     H150042   0.854   7.052   2.651
12334WAT     H250043   0.723   7.054   2.611
12334WAT    EPW50044   0.783   7.021   2.650
12335WAT      O50045   0.298   7.735   2.366
12335WAT     H150046   0.345   7.773   2.428
12335WAT     H250047   0.215   7.749   2.391
12335WAT    EPW50048   0.293   7.743   2.379
12336WAT      O50049   0.908   6.805   2.425
12336WAT     H150050   0.880   6.887   2.420
12336WAT     H250051   0.980   6.810   2.474
12336WAT    EPW50052   0.915   6.818   2.431
12337WAT      O50053   1.050   7.430   1.310
12337WAT     H150054   1.088   7.498   1.270
12337WAT     H250055   0.966   7.453   1.314
12337WAT    EPW50056   1.044   7.444   1.305
12338WAT      O50057   0.596   7.292   2.793
12338WAT     H150058   0.532   7.339   2.828
12338WAT     H250059   0.653   7.283   2.859
12338WAT    EPW50060   0.595   7.298   2.808
12339WAT      O50061   0.565   7.446   2.423
12339WAT     H150062   0.595   7.488   2.493
12339WAT     H250063   0.569   7.362   2.446
12339WAT    EPW50064   0.570   7.439   2.437
12340WAT      O50065   0.820   7.390   1.648
12340WAT     H150066   0.841   7.370   1.730
12340WAT     H250067   0.896   7.417   1.614
12340WAT    EPW50068   0.834   7.391   1.655
12341WAT      O50069   0.922   6.999   1.795
12341WAT     H150070   0.851   6.952   1.812
12341WAT     H250071   0.906   7.033   1.717
12341WAT    EPW50072   0.909   6.997   1.786
12342WAT      O50073   0.966   7.793   1.633
12342WAT     H150074   1.014   7.720   1.629
12342WAT     H250075   0.884   7.764   1.626
12342WAT    EPW50076   0.961   7.778   1.631
12343WAT      O50077   1.180   7.510   2.809
12343WAT     H150078   1.095   7.498   2.822
12343WAT     H250079   1.195   7.470   2.733
12343WAT    EPW50080   1.170   7.502   2.800
12344WAT      O50081   0.631   7.576   2.667
12344WAT     H150082   0.606   7.504   2.709
12344WAT     H250083   0.713   7.588   2.694
12344WAT    EPW50084   0.640   7.567   2.677
12345WAT      O50085   0.425   7.695   2.985
12345WAT     H150086   0.457   7.764   2.942
12345WAT     H250087   0.354   7.728   3.026
12345WAT    EPW50088   0.419   7.710   2.985
12346WAT      O50089   1.043   7.504   1.578
12346WAT     H150090   1.054   7.499   1.491
12346WAT     H250091   1.118   7.471   1.609
12346WAT    EPW50092   1.056   7.499   1.569
12347WAT      O50093   0.954   7.519   2.513
12347WAT     H150094   0.953   7.433   2.526
12347WAT     H250095   0.960   7.551   2.594
12347WAT    EPW50096   0.955   7.511   2.527
12348WAT      O50097   0.542   6.999   2.891
12348WAT     H150098   0.551   7.070   2.941
12348WAT     H250099   0.478   6.954   2.931
12348WAT    EPW50100   0.533   7.003   2.905
12349WAT      O50101   0.441   7.018   1.977
12349WAT     H150102   0.371   7.070   1.971
12349WAT     H250103   0.445   6.980   1.898
12349WAT    EPW50104   0.431   7.020   1.964
12350WAT      O50105   0.801   7.070   2.257
12350WAT     H150106   0.886   7.079   2.271
12350WAT     H250107   0.764   7.125   2.313
12350WAT    EPW50108   0.808   7.079   2.267
12351WAT      O50109   0.831   7.598   2.106
12351WAT     H150110   0.898   7.652   2.122
12351WAT     H250111   0.797   7.629   2.032
12351WAT    EPW50112   0.836   7.610   2.097
12352WAT      O50113   1.148   6.853   2.572
12352WAT     H150114   1.143   6.849   2.659
12352WAT     H250115   1.217   6.803   2.553
12352WAT    EPW50116   1.158   6.845   2.582
12353WAT      O50117   0.357   7.065   2.277
12353WAT     H150118   0.283   7.019   2.288
12353WAT     H250119   0.414   7.024   2.329
12353WAT    EPW50120   0.354   7.052   2.286
12354WAT      O50121   0.573   6.884   2.202
12354WAT     H150122   0.640   6.938   2.215
12354WAT     H250123   0.523   6.926   2.145
12354WAT    EPW50124   0.576   6.898   2.195
12355WAT      O50125   0.509   7.465   1.951
12355WAT     H150126   0.564   7.404   1.981
12355WAT     H250127   0.466   7.491   2.023
12355WAT    EPW50128   0.511   7.459   1.966
12356WAT      O50129   0.706   7.648   1.607
12356WAT     H150130   0.713   7.563   1.626
12356WAT     H250131   0.624   7.656   1.580
12356WAT    EPW50132   0.695   7.636   1.606
12357WAT      O50133   1.033   7.785   2.923
12357WAT     H150134   1.097   7.768   2.980
12357WAT     H250135   1.075   7.825   2.857
12357WAT    EPW50136   1.049   7.788   2.921
12358WAT      O50137   1.096   7.241   2.996
12358WAT     H150138   1.076   7.306   3.052
12358WAT     H250139   1.024   7.192   2.996
12358WAT    EPW50140   1.082   7.244   3.004
12359WAT      O50141   1.086   7.335   2.293
12359WAT     H150142   1.002   7.360   2.286
12359WAT     H250143   1.080   7.251   2.316
12359WAT    EPW50144   1.073   7.327   2.296
12360WAT      O50145   0.774   7.796   3.058
12360WAT     H150146   0.862   7.792   3.054
12360WAT     H250147   0.753   7.838   2.985
12360WAT    EPW50148   0.784   7.802   3.047
12361WAT      O50149   0.432   7.546   0.315
12361WAT     H150150   0.379   7.606   0.352
12361WAT     H250151   0.471   7.509   0.384
12361WAT    EPW50152   0.430   7.550   0.331
12362WAT      O50153   0.380   7.452   0.925
12362WAT     H150154   0.295   7.442   0.907
12362WAT     H250155   0.383   7.526   0.970
12362WAT    EPW50156   0.368   7.461   0.929
12363WAT      O50157   0.836   6.748   0.836
12363WAT     H150158   0.820   6.825   0.798
12363WAT     H250159   0.759   6.726   0.871
12363WAT    EPW50160   0.822   6.756   0.836
12364WAT      O50161   0.275   6.881   1.002
12364WAT     H150162   0.292   6.800   0.975
12364WAT     H250163   0.260   6.925   0.928
12364WAT    EPW50164   0.275   6.875   0.987
12365WAT      O50165   1.089   7.042   0.454
12365WAT     H150166   1.165   7.049   0.411
12365WAT     H250167   1.095   6.964   0.494
12365WAT    EPW50168   1.101   7.031   0.454
12366WAT      O50169   0.608   7.199   0.640
12366WAT     H150170   0.598   7.231   0.721
12366WAT     H250171   0.548   7.136   0.636
12366WAT    EPW50172   0.597   7.195   0.651
12367WAT      O50173   0.980   7.217   0.754
12367WAT     H150174   1.057   7.195   0.788
12367WAT     H250175   0.932   7.239   0.824
12367WAT    EPW50176   0.984   7.217   0.770
12368WAT      O50177   1.243   7.493   0.633
12368WAT     H150178   1.265   7.413   0.605
12368WAT     H250179   1.158   7.499   0.614
12368WAT    EPW50180   1.234   7.482   0.626
12369WAT      O50181   0.789   7.373   0.368
12369WAT     H150182   0.722   7.406   0.414
12369WAT     H250183   0.807   7.436   0.311
12369WAT    EPW50184   0.782   7.387   0.366
12370WAT      O50185   0.453   6.963   0.711
12370WAT     H150186   0.468   6.881   0.686
12370WAT     H250187   0.491   6.969   0.789
12370WAT    EPW50188   0.461   6.952   0.719
12371WAT      O50189   0.266   7.317   0.291
12371WAT     H150190   0.314   7.387   0.312
12371WAT     H250191   0.303   7.252   0.336
12371WAT    EPW50192   0.279   7.318   0.301
12372WAT      O50193   0.914   7.812   0.726
12372WAT     H150194   0.920   7.825   0.640
12372WAT     H250195   0.989   7.844   0.756
12372WAT    EPW50196   0.926   7.819   0.717
12373WAT      O50197   1.017   6.842   1.024
12373WAT     H150198   0.954   6.802   0.980
12373WAT     H250199   1.020   6.799   1.100
12373WAT    EPW50200   1.008   6.830   1.029
12374WAT      O50201   0.487   7.793   0.686
12374WAT     H150202   0.472   7.854   0.746
12374WAT     H250203   0.541   7.737   0.726
12374WAT    EPW50204   0.493   7.794   0.701
12375WAT      O50205   0.248   7.837   0.195
12375WAT     H150206   0.163   7.818   0.203
12375WAT     H250207   0.280   7.821   0.274
12375WAT    EPW50208   0.240   7.832   0.208
12376WAT      O50209   0.941   7.760   0.450
12376WAT     H150210   0.941   7.682   0.490
12376WAT     H250211   0.857   7.783   0.450
12376WAT    EPW50212   0.929   7.752   0.456
12377WAT      O50213   1.067   7.767   0.194
12377WAT     H150214   1.038   7.807   0.266
12377WAT     H250215   1.153   7.761   0.207
12377WAT    EPW50216   1.075   7.772   0.207
12378WAT      O50217   0.833   7.159   1.048
12378WAT     H150218   0.781   7.205   1.100
12378WAT     H250219   0.797   7.080   1.047
12378WAT    EPW50220   0.820   7.154   1.056
12379WAT      O50221   0.682   7.516   1.056
12379WAT     H150222   0.690   7.527   1.142
12379WAT     H250223   0.619   7.572   1.034
12379WAT    EPW50224   0.674   7.526   1.065
12380WAT      O50225   0.909   7.548   0.892
12380WAT     H150226   0.941   7.627   0.912
12380WAT     H250227   0.872   7.521   0.966
12380WAT    EPW50228   0.908   7.556   0.906
12381WAT      O50229   1.179   7.602   1.166
12381WAT     H150230   1.174   7.568   1.086
12381WAT     H250231   1.253   7.649   1.163
12381WAT    EPW50232   1.189   7.604   1.153
12382WAT      O50233   0.780   7.007   0.757
12382WAT     H150234   0.854   7.052   0.751
12382WAT     H250235   0.723   7.054   0.710
12382WAT    EPW50236   0.783   7.021   0.749
12383WAT      O50237   0.298   7.735   0.465
12383WAT     H150238   0.345   7.773   0.528
12383WAT     H250239   0.215   7.749   0.491
12383WAT    EPW50240   0.293   7.743   0.478
12384WAT      O50241   0.908   6.805   0.524
12384WAT     H150242   0.880   6.887   0.520
12384WAT     H250243   0.980   6.810   0.574
12384WAT    EPW50244   0.915   6.818   0.531
12385WAT      O50245   0.596   7.292   0.892
12385WAT     H150246   0.532   7.339   0.927
12385WAT     H250247   0.653   7.283   0.958
12385WAT    EPW50248   0.595   7.298   0.907
12386WAT      O50249   0.565   7.446   0.522
12386WAT     H150250   0.595   7.488   0.592
12386WAT     H250251   0.569   7.362   0.545
12386WAT    EPW50252   0.570   7.439   0.536
12387WAT      O50253   1.180   7.510   0.909
12387WAT     H150254   1.095   7.498   0.921
12387WAT     H250255   1.195   7.470   0.832
12387WAT    EPW50256   1.170   7.502   0.899
12388WAT      O50257   0.631   7.576   0.766
12388WAT     H150258   0.606   7.504   0.808
12388WAT     H250259   0.713   7.588   0.793
12388WAT    EPW50260   0.640   7.567   0.776
12389WAT      O50261   0.425   7.695   1.085
12389WAT     H150262   0.457   7.764   1.042
12389WAT     H250263   0.354   7.728   1.125
12389WAT    EPW50264   0.419   7.710   1.084
12390WAT      O50265   0.954   7.519   0.613
12390WAT     H150266   0.953   7.433   0.625
12390WAT     H250267   0.960   7.551   0.693
12390WAT    EPW50268   0.955   7.511   0.626
12391WAT      O50269   0.542   6.999   0.991
12391WAT     H150270   0.551   7.070   1.040
12391WAT     H250271   0.478   6.954   1.030
12391WAT    EPW50272   0.533   7.003   1.004
12392WAT      O50273   0.801   7.070   0.356
12392WAT     H150274   0.886   7.079   0.371
12392WAT     H250275   0.764   7.125   0.413
12392WAT    EPW50276   0.808   7.079   0.367
12393WAT      O50277   1.148   6.853   0.672
12393WAT     H150278   1.143   6.849   0.759
12393WAT     H250279   1.217   6.803   0.653
12393WAT    EPW50280   1.158   6.845   0.682
12394WAT      O50281   0.357   7.065   0.376
12394WAT     H150282   0.283   7.019   0.388
12394WAT     H250283   0.414   7.024   0.429
12394WAT    EPW50284   0.354   7.052   0.386
12395WAT      O50285   0.573   6.884   0.301
12395WAT     H150286   0.640   6.938   0.314
12395WAT     H250287   0.523   6.926   0.244
12395WAT    EPW50288   0.576   6.898   0.295
12396WAT      O50289   1.033   7.785   1.022
12396WAT     H150290   1.097   7.768   1.079
12396WAT     H250291   1.075   7.825   0.957
12396WAT    EPW50292   1.049   7.788   1.021
12397WAT      O50293   1.096   7.241   1.096
12397WAT     H150294   1.076   7.306   1.151
12397WAT     H250295   1.024   7.192   1.095
12397WAT    EPW50296   1.082   7.244   1.104
12398WAT      O50297   1.086   7.335   0.393
12398WAT     H150298   1.002   7.360   0.386
12398WAT     H250299   1.080   7.251   0.416
12398WAT    EPW50300   1.073   7.327   0.395
12399WAT      O50301   0.774   7.796   1.157
12399WAT     H150302   0.862   7.792   1.154
12399WAT     H250303   0.753   7.838   1.084
12399WAT    EPW50304   0.784   7.802   1.146
12400WAT      O50305   0.451   5.007   7.451
12400WAT     H150306   0.426   5.056   7.383
12400WAT     H250307   0.537   4.999   7.441
12400WAT    EPW50308   0.460   5.013   7.439
12401WAT      O50309   1.046   6.442   7.215
12401WAT     H150310   1.116   6.391   7.215
12401WAT     H250311   0.987   6.398   7.168
12401WAT    EPW50312   1.048   6.428   7.208
12402WAT      O50313   0.699   5.805   7.586
12402WAT     H150314   0.707   5.805   7.499
12402WAT     H250315   0.640   5.742   7.600
12402WAT    EPW50316   0.691   5.796   7.575
12403WAT      O50317   0.178   6.246   7.773
12403WAT     H150318   0.213   6.166   7.776
12403WAT     H250319   0.244   6.296   7.747
12403WAT    EPW50320   0.193   6.242   7.769
12404WAT      O50321   0.183   6.191   7.394
12404WAT     H150322   0.217   6.127   7.442
12404WAT     H250323   0.207   6.170   7.313
12404WAT    EPW50324   0.192   6.178   7.389
12405WAT      O50325   0.582   5.364   6.890
12405WAT     H150326   0.537   5.432   6.921
12405WAT     H250327   0.594   5.314   6.961
12405WAT    EPW50328   0.577   5.367   6.905
12406WAT      O50329   0.592   6.598   7.101
12406WAT     H150330   0.665   6.645   7.111
12406WAT     H250331   0.615   6.519   7.129
12406WAT    EPW50332   0.606   6.594   7.106
12407WAT      O50333   0.409   6.637   7.300
12407WAT     H150334   0.430   6.690   7.366
12407WAT     H250335   0.486   6.620   7.262
12407WAT    EPW50336   0.423   6.643   7.304
12408WAT      O50337   1.122   5.361   7.520
12408WAT     H150338   1.087   5.429   7.562
12408WAT     H250339   1.058   5.302   7.521
12408WAT    EPW50340   1.107   5.363   7.526
12409WAT      O50341   0.334   5.526   7.482
12409WAT     H150342   0.363   5.502   7.403
12409WAT     H250343   0.407   5.534   7.529
12409WAT    EPW50344   0.349   5.523   7.477
12410WAT      O50345   0.406   5.560   6.994
12410WAT     H150346   0.434   5.638   7.019
12410WAT     H250347   0.329   5.576   6.958
12410WAT    EPW50348   0.399   5.574   6.992
12411WAT      O50349   0.810   6.757   7.141
12411WAT     H150350   0.877   6.742   7.086
12411WAT     H250351   0.846   6.749   7.220
12411WAT    EPW50352   0.825   6.754   7.144
12412WAT      O50353   0.292   6.377   6.976
12412WAT     H150354   0.274   6.431   7.041
12412WAT     H250355   0.369   6.406   6.946
12412WAT    EPW50356   0.301   6.389   6.981
12413WAT      O50357   0.643   5.166   7.081
12413WAT     H150358   0.697   5.098   7.089
12413WAT     H250359   0.649   5.206   7.158
12413WAT    EPW50360   0.652   5.162   7.094
12414WAT      O50361   0.369   5.404   7.212
12414WAT     H150362   0.318   5.338   7.187
12414WAT     H250363   0.374   5.454   7.141
12414WAT    EPW50364   0.362   5.402   7.198
12415WAT      O50365   0.369   5.098   7.202
12415WAT     H150366   0.323   5.058   7.139
12415WAT     H250367   0.446   5.113   7.164
12415WAT    EPW50368   0.373   5.094   7.187
12416WAT      O50369   1.051   6.734   7.541
12416WAT     H150370   1.006   6.805   7.561
12416WAT     H250371   0.990   6.677   7.516
12416WAT    EPW50372   1.035   6.736   7.540
12417WAT      O50373   0.228   5.335   7.654
12417WAT     H150374   0.236   5.391   7.588
12417WAT     H250375   0.240   5.384   7.725
12417WAT    EPW50376   0.231   5.350   7.655
12418WAT      O50377   0.751   6.318   7.495
12418WAT     H150378   0.821   6.270   7.514
12418WAT     H250379   0.685   6.261   7.499
12418WAT    EPW50380   0.751   6.303   7.498
12419WAT      O50381   0.733   4.946   7.526
12419WAT     H150382   0.738   4.914   7.607
12419WAT     H250383   0.765   4.882   7.477
12419WAT    EPW50384   0.739   4.932   7.531
12420WAT      O50385   1.003   6.067   7.076
12420WAT     H150386   1.015   6.039   7.157
12420WAT     H250387   1.083   6.070   7.043
12420WAT    EPW50388   1.016   6.064   7.083
12421WAT      O50389   0.792   5.721   7.034
12421WAT     H150390   0.770   5.794   6.992
12421WAT     H250391   0.747   5.726   7.109
12421WAT    EPW50392   0.782   5.733   7.039
12422WAT      O50393   1.211   5.207   6.980
12422WAT     H150394   1.145   5.150   6.982
12422WAT     H250395   1.192   5.258   6.912
12422WAT    EPW50396   1.198   5.206   6.970
12423WAT      O50397   1.011   5.163   7.207
12423WAT     H150398   1.086   5.122   7.227
12423WAT     H250399   1.037   5.235   7.165
12423WAT    EPW50400   1.026   5.168   7.204
12424WAT      O50401   0.405   6.412   7.665
12424WAT     H150402   0.353   6.475   7.636
12424WAT     H250403   0.436   6.375   7.592
12424WAT    EPW50404   0.402   6.416   7.650
12425WAT      O50405   0.657   5.392   7.715
12425WAT     H150406   0.691   5.407   7.793
12425WAT     H250407   0.611   5.318   7.726
12425WAT    EPW50408   0.655   5.383   7.728
12426WAT      O50409   0.608   5.322   7.321
12426WAT     H150410   0.657   5.394   7.314
12426WAT     H250411   0.529   5.348   7.295
12426WAT    EPW50412   0.604   5.336   7.316
12427WAT      O50413   0.485   5.786   7.121
12427WAT     H150414   0.484   5.858   7.072
12427WAT     H250415   0.421   5.799   7.179
12427WAT    EPW50416   0.476   5.799   7.122
12428WAT      O50417   0.982   6.173   7.519
12428WAT     H150418   1.018   6.138   7.591
12428WAT     H250419   0.981   6.107   7.462
12428WAT    EPW50420   0.987   6.158   7.521
12429WAT      O50421   0.588   6.165   7.844
12429WAT     H150422   0.508   6.187   7.871
12429WAT     H250423   0.614   6.105   7.902
12429WAT    EPW50424   0.580   6.159   7.856
12430WAT      O50425   0.206   6.597   7.129
12430WAT     H150426   0.269   6.614   7.188
12430WAT     H250427   0.210   6.666   7.075
12430WAT    EPW50428   0.216   6.610   7.130
12431WAT      O50429   0.326   5.785   7.354
12431WAT     H150430   0.331   5.850   7.412
12431WAT     H250431   0.307   5.715   7.403
12431WAT    EPW50432   0.324   5.784   7.370
12432WAT      O50433   0.248   5.990   7.797
12432WAT     H150434   0.163   5.970   7.805
12432WAT     H250435   0.280   5.973   7.876
12432WAT    EPW50436   0.240   5.984   7.810
12433WAT      O50437   1.217   6.634   7.135
12433WAT     H150438   1.287   6.588   7.110
12433WAT     H250439   1.163   6.575   7.169
12433WAT    EPW50440   1.220   6.619   7.136
12434WAT      O50441   1.067   5.919   7.797
12434WAT     H150442   1.038   5.959   7.869
12434WAT     H250443   1.153   5.913   7.809
12434WAT    EPW50444   1.075   5.924   7.809
12435WAT      O50445   1.180   6.482   7.849
12435WAT     H150446   1.209   6.508   7.771
12435WAT     H250447   1.249   6.492   7.901
12435WAT    EPW50448   1.195   6.488   7.846
12436WAT      O50449   0.840   6.343   7.048
12436WAT     H150450   0.874   6.262   7.051
12436WAT     H250451   0.765   6.336   7.091
12436WAT    EPW50452   0.834   6.330   7.055
12437WAT      O50453   0.889   5.526   7.614
12437WAT     H150454   0.814   5.494   7.645
12437WAT     H250455   0.889   5.609   7.642
12437WAT    EPW50456   0.878   5.534   7.622
12438WAT      O50457   0.578   6.130   6.988
12438WAT     H150458   0.646   6.079   6.971
12438WAT     H250459   0.536   6.135   6.911
12438WAT    EPW50460   0.582   6.123   6.974
12439WAT      O50461   0.224   6.627   7.590
12439WAT     H150462   0.279   6.695   7.596
12439WAT     H250463   0.189   6.635   7.511
12439WAT    EPW50464   0.227   6.638   7.579
12440WAT      O50465   1.050   5.583   7.012
12440WAT     H150466   1.088   5.650   6.972
12440WAT     H250467   0.966   5.605   7.015
12440WAT    EPW50468   1.044   5.596   7.007
12441WAT      O50469   0.820   5.543   7.350
12441WAT     H150470   0.841   5.522   7.432
12441WAT     H250471   0.896   5.569   7.316
12441WAT    EPW50472   0.834   5.544   7.357
12442WAT      O50473   0.922   5.151   7.497
12442WAT     H150474   0.851   5.104   7.514
12442WAT     H250475   0.906   5.185   7.419
12442WAT    EPW50476   0.909   5.149   7.488
12443WAT      O50477   0.966   5.945   7.335
12443WAT     H150478   1.014   5.872   7.330
12443WAT     H250479   0.884   5.917   7.328
12443WAT    EPW50480   0.961   5.930   7.333
12444WAT      O50481   0.588   6.062   7.571
12444WAT     H150482   0.596   6.096   7.651
12444WAT     H250483   0.605   5.977   7.583
12444WAT    EPW50484   0.592   6.054   7.584
12445WAT      O50485   0.340   5.989   7.527
12445WAT     H150486   0.310   5.958   7.603
12445WAT     H250487   0.410   6.037   7.551
12445WAT    EPW50488   0.346   5.992   7.542
12446WAT      O50489   0.733   6.685   7.780
12446WAT     H150490   0.688   6.749   7.818
12446WAT     H250491   0.804   6.677   7.831
12446WAT    EPW50492   0.737   6.693   7.793
12447WAT      O50493   1.043   5.657   7.279
12447WAT     H150494   1.054   5.651   7.193
12447WAT     H250495   1.118   5.623   7.311
12447WAT    EPW50496   1.056   5.651   7.271
12448WAT      O50497   0.435   6.353   7.390
12448WAT     H150498   0.415   6.436   7.374
12448WAT     H250499   0.358   6.315   7.402
12448WAT    EPW50500   0.421   6.360   7.390
12449WAT      O50501   0.441   5.170   7.679
12449WAT     H150502   0.371   5.222   7.673
12449WAT     H250503   0.445   5.132   7.600
12449WAT    EPW50504   0.431   5.172   7.666
12450WAT      O50505   0.831   5.750   7.808
12450WAT     H150506   0.898   5.804   7.824
12450WAT     H250507   0.797   5.781   7.734
12450WAT    EPW50508   0.836   5.762   7.799
12451WAT      O50509   0.862   6.556   7.388
12451WAT     H150510   0.845   6.491   7.443
12451WAT     H250511   0.934   6.529   7.346
12451WAT    EPW50512   0.870   6.543   7.390
12452WAT      O50513   0.509   5.617   7.653
12452WAT     H150514   0.564   5.556   7.683
12452WAT     H250515   0.466   5.643   7.725
12452WAT    EPW50516   0.511   5.612   7.668
12453WAT      O50517   0.706   5.800   7.309
12453WAT     H150518   0.713   5.715   7.327
12453WAT     H250519   0.624   5.808   7.282
12453WAT    EPW50520   0.695   5.789   7.308
12454WAT      O50521   1.014   6.695   6.951
12454WAT     H150522   1.078   6.682   7.009
12454WAT     H250523   0.980   6.616   6.939
12454WAT    EPW50524   1.018   6.682   6.958
12455WAT      O50525   0.621   6.322   7.183
12455WAT     H150526   0.596   6.309   7.266
12455WAT     H250527   0.590   6.252   7.141
12455WAT    EPW50528   0.613   6.310   7.189
12456WAT      O50529   0.310   6.143   7.126
12456WAT     H150530   0.382   6.108   7.091
12456WAT     H250531   0.307   6.223   7.092
12456WAT    EPW50532   0.320   6.149   7.116
12457WAT      O50533   0.451   5.007   5.550
12457WAT     H150534   0.426   5.056   5.482
12457WAT     H250535   0.537   4.999   5.540
12457WAT    EPW50536   0.460   5.013   5.539
12458WAT      O50537   0.432   5.698   6.017
12458WAT     H150538   0.379   5.758   6.054
12458WAT     H250539   0.471   5.662   6.086
12458WAT    EPW50540   0.430   5.702   6.033
12459WAT      O50541   1.046   6.442   5.314
12459WAT     H150542   1.116   6.391   5.314
12459WAT     H250543   0.987   6.398   5.267
12459WAT    EPW50544   1.048   6.428   5.307
12460WAT      O50545   0.699   5.805   5.685
12460WAT     H150546   0.707   5.805   5.598
12460WAT     H250547   0.640   5.742   5.700
12460WAT    EPW50548   0.691   5.796   5.674
12461WAT      O50549   0.178   6.246   5.872
12461WAT     H150550   0.213   6.166   5.875
12461WAT     H250551   0.244   6.296   5.846
12461WAT    EPW50552   0.193   6.242   5.869
12462WAT      O50553   0.183   6.191   5.493
12462WAT     H150554   0.217   6.127   5.542
12462WAT     H250555   0.207   6.170   5.412
12462WAT    EPW50556   0.192   6.178   5.488
12463WAT      O50557   0.380   5.604   6.627
12463WAT     H150558   0.295   5.594   6.609
12463WAT     H250559   0.383   5.679   6.672
12463WAT    EPW50560   0.368   5.614   6.631
12464WAT      O50561   0.836   4.900   6.538
12464WAT     H150562   0.820   4.977   6.500
12464WAT     H250563   0.759   4.878   6.573
12464WAT    EPW50564   0.822   4.908   6.538
12465WAT      O50565   0.582   5.364   4.990
12465WAT     H150566   0.537   5.432   5.020
12465WAT     H250567   0.594   5.314   5.060
12465WAT    EPW50568   0.577   5.367   5.005
12466WAT      O50569   0.592   6.598   5.200
12466WAT     H150570   0.665   6.645   5.210
12466WAT     H250571   0.615   6.519   5.228
12466WAT    EPW50572   0.606   6.594   5.206
12467WAT      O50573   0.409   6.637   5.399
12467WAT     H150574   0.430   6.690   5.465
12467WAT     H250575   0.486   6.620   5.361
12467WAT    EPW50576   0.423   6.643   5.403
12468WAT      O50577   1.122   5.361   5.619
12468WAT     H150578   1.087   5.429   5.662
12468WAT     H250579   1.058   5.302   5.621
12468WAT    EPW50580   1.107   5.363   5.626
12469WAT      O50581   0.653   6.638   6.230
12469WAT     H150582   0.727   6.684   6.229
12469WAT     H250583   0.641   6.617   6.146
12469WAT    EPW50584   0.662   6.642   6.217
12470WAT      O50585   0.275   5.033   6.704
12470WAT     H150586   0.292   4.952   6.676
12470WAT     H250587   0.260   5.077   6.630
12470WAT    EPW50588   0.275   5.028   6.689
12471WAT      O50589   0.334   5.526   5.581
12471WAT     H150590   0.363   5.502   5.502
12471WAT     H250591   0.407   5.534   5.628
12471WAT    EPW50592   0.349   5.523   5.577
12472WAT      O50593   0.406   5.560   5.093
12472WAT     H150594   0.434   5.638   5.118
12472WAT     H250595   0.329   5.576   5.057
12472WAT    EPW50596   0.399   5.574   5.092
12473WAT      O50597   0.810   6.757   5.240
12473WAT     H150598   0.877   6.742   5.186
12473WAT     H250599   0.846   6.749   5.319
12473WAT    EPW50600   0.825   6.754   5.244
12474WAT      O50601   1.089   5.194   6.156
12474WAT     H150602   1.165   5.201   6.113
12474WAT     H250603   1.095   5.116   6.196
12474WAT    EPW50604   1.101   5.183   6.156
12475WAT      O50605   0.578   6.357   6.600
12475WAT     H150606   0.575   6.395   6.678
12475WAT     H250607   0.664   6.353   6.583
12475WAT    EPW50608   0.590   6.362   6.609
12476WAT      O50609   0.292   6.377   5.075
12476WAT     H150610   0.274   6.431   5.141
12476WAT     H250611   0.369   6.406   5.045
12476WAT    EPW50612   0.301   6.389   5.080
12477WAT      O50613   0.643   5.166   5.180
12477WAT     H150614   0.697   5.098   5.188
12477WAT     H250615   0.649   5.206   5.258
12477WAT    EPW50616   0.652   5.162   5.193
12478WAT      O50617   0.369   5.404   5.312
12478WAT     H150618   0.318   5.338   5.286
12478WAT     H250619   0.374   5.454   5.241
12478WAT    EPW50620   0.362   5.402   5.298
12479WAT      O50621   0.423   6.673   6.350
12479WAT     H150622   0.500   6.665   6.309
12479WAT     H250623   0.365   6.661   6.286
12479WAT    EPW50624   0.426   6.670   6.334
12480WAT      O50625   0.369   5.098   5.301
12480WAT     H150626   0.323   5.058   5.238
12480WAT     H250627   0.446   5.113   5.263
12480WAT    EPW50628   0.373   5.094   5.286
12481WAT      O50629   1.051   6.734   5.640
12481WAT     H150630   1.006   6.805   5.660
12481WAT     H250631   0.990   6.677   5.616
12481WAT    EPW50632   1.035   6.736   5.639
12482WAT      O50633   0.228   5.335   5.753
12482WAT     H150634   0.236   5.391   5.687
12482WAT     H250635   0.240   5.384   5.824
12482WAT    EPW50636   0.231   5.350   5.754
12483WAT      O50637   0.751   6.318   5.594
12483WAT     H150638   0.821   6.270   5.613
12483WAT     H250639   0.685   6.261   5.599
12483WAT    EPW50640   0.751   6.303   5.598
12484WAT      O50641   0.608   5.352   6.342
12484WAT     H150642   0.598   5.384   6.422
12484WAT     H250643   0.548   5.288   6.338
12484WAT    EPW50644   0.597   5.347   6.353
12485WAT      O50645   0.677   6.024   6.162
12485WAT     H150646   0.626   5.982   6.219
12485WAT     H250647   0.665   6.108   6.180
12485WAT    EPW50648   0.668   6.030   6.173
12486WAT      O50649   0.733   4.946   5.625
12486WAT     H150650   0.738   4.914   5.707
12486WAT     H250651   0.765   4.882   5.576
12486WAT    EPW50652   0.739   4.932   5.630
12487WAT      O50653   0.980   5.370   6.456
12487WAT     H150654   1.057   5.347   6.490
12487WAT     H250655   0.932   5.391   6.526
12487WAT    EPW50656   0.984   5.370   6.472
12488WAT      O50657   1.003   6.067   5.175
12488WAT     H150658   1.015   6.039   5.257
12488WAT     H250659   1.083   6.070   5.142
12488WAT    EPW50660   1.016   6.064   5.182
12489WAT      O50661   1.226   6.518   6.600
12489WAT     H150662   1.158   6.549   6.556
12489WAT     H250663   1.189   6.473   6.665
12489WAT    EPW50664   1.211   6.516   6.603
12490WAT      O50665   0.792   5.721   5.134
12490WAT     H150666   0.770   5.794   5.091
12490WAT     H250667   0.747   5.726   5.208
12490WAT    EPW50668   0.782   5.733   5.138
12491WAT      O50669   1.211   5.207   5.079
12491WAT     H150670   1.145   5.150   5.081
12491WAT     H250671   1.192   5.258   5.011
12491WAT    EPW50672   1.198   5.206   5.069
12492WAT      O50673   1.243   5.645   6.334
12492WAT     H150674   1.265   5.565   6.307
12492WAT     H250675   1.158   5.651   6.316
12492WAT    EPW50676   1.234   5.634   6.328
12493WAT      O50677   1.011   5.163   5.307
12493WAT     H150678   1.086   5.122   5.327
12493WAT     H250679   1.037   5.235   5.264
12493WAT    EPW50680   1.026   5.168   5.303
12494WAT      O50681   0.405   6.412   5.764
12494WAT     H150682   0.353   6.475   5.735
12494WAT     H250683   0.436   6.375   5.691
12494WAT    EPW50684   0.402   6.416   5.749
12495WAT      O50685   0.657   5.392   5.814
12495WAT     H150686   0.691   5.407   5.893
12495WAT     H250687   0.611   5.318   5.825
12495WAT    EPW50688   0.655   5.383   5.827
12496WAT      O50689   1.010   6.557   6.409
12496WAT     H150690   0.942   6.608   6.431
12496WAT     H250691   1.016   6.567   6.323
12496WAT    EPW50692   1.001   6.566   6.400
12497WAT      O50693   0.789   5.525   6.069
12497WAT     H150694   0.722   5.558   6.116
12497WAT     H250695   0.807   5.588   6.013
12497WAT    EPW50696   0.782   5.539   6.068
12498WAT      O50697   0.209   6.631   6.169
12498WAT     H150698   0.181   6.567   6.117
12498WAT     H250699   0.188   6.704   6.125
12498WAT    EPW50700   0.202   6.633   6.155
12499WAT      O50701   0.453   5.116   6.412
12499WAT     H150702   0.468   5.033   6.388
12499WAT     H250703   0.491   5.121   6.491
12499WAT    EPW50704   0.461   5.104   6.420
12500WAT      O50705   0.608   5.322   5.421
12500WAT     H150706   0.657   5.394   5.413
12500WAT     H250707   0.529   5.348   5.394
12500WAT    EPW50708   0.604   5.336   5.416
12501WAT      O50709   0.739   6.110   6.612
12501WAT     H150710   0.788   6.182   6.621
12501WAT     H250711   0.779   6.067   6.546
12501WAT    EPW50712   0.752   6.114   6.603
12502WAT      O50713   0.266   5.469   5.993
12502WAT     H150714   0.314   5.539   6.014
12502WAT     H250715   0.303   5.404   6.038
12502WAT    EPW50716   0.279   5.470   6.003
12503WAT      O50717   0.485   5.786   5.220
12503WAT     H150718   0.484   5.858   5.171
12503WAT     H250719   0.421   5.799   5.278
12503WAT    EPW50720   0.476   5.799   5.222
12504WAT      O50721   0.982   6.173   5.619
12504WAT     H150722   1.018   6.138   5.690
12504WAT     H250723   0.981   6.107   5.562
12504WAT    EPW50724   0.987   6.158   5.621
12505WAT      O50725   0.587   6.479   6.003
12505WAT     H150726   0.526   6.450   5.947
12505WAT     H250727   0.641   6.525   5.952
12505WAT    EPW50728   0.586   6.482   5.987
12506WAT      O50729   0.588   6.165   5.943
12506WAT     H150730   0.508   6.187   5.970
12506WAT     H250731   0.614   6.105   6.001
12506WAT    EPW50732   0.580   6.159   5.956
12507WAT      O50733   0.206   6.597   5.228
12507WAT     H150734   0.269   6.614   5.287
12507WAT     H250735   0.210   6.666   5.175
12507WAT    EPW50736   0.216   6.610   5.229
12508WAT      O50737   0.914   5.964   6.428
12508WAT     H150738   0.920   5.977   6.341
12508WAT     H250739   0.989   5.996   6.458
12508WAT    EPW50740   0.926   5.971   6.419
12509WAT      O50741   0.533   6.499   6.855
12509WAT     H150742   0.550   6.528   6.936
12509WAT     H250743   0.559   6.565   6.805
12509WAT    EPW50744   0.539   6.513   6.860
12510WAT      O50745   1.017   4.994   6.726
12510WAT     H150746   0.954   4.954   6.682
12510WAT     H250747   1.020   4.951   6.802
12510WAT    EPW50748   1.008   4.982   6.731
12511WAT      O50749   0.487   5.945   6.388
12511WAT     H150750   0.472   6.006   6.448
12511WAT     H250751   0.541   5.889   6.428
12511WAT    EPW50752   0.493   5.946   6.402
12512WAT      O50753   0.326   5.785   5.453
12512WAT     H150754   0.331   5.850   5.511
12512WAT     H250755   0.307   5.715   5.502
12512WAT    EPW50756   0.324   5.784   5.469
12513WAT      O50757   0.848   6.218   6.040
12513WAT     H150758   0.800   6.248   5.974
12513WAT     H250759   0.813   6.140   6.058
12513WAT    EPW50760   0.836   6.211   6.033
12514WAT      O50761   0.248   5.990   5.896
12514WAT     H150762   0.163   5.970   5.905
12514WAT     H250763   0.280   5.973   5.976
12514WAT    EPW50764   0.240   5.984   5.909
12515WAT      O50765   1.217   6.634   5.234
12515WAT     H150766   1.287   6.588   5.209
12515WAT     H250767   1.163   6.575   5.268
12515WAT    EPW50768   1.220   6.619   5.236
12516WAT      O50769   0.941   5.912   6.152
12516WAT     H150770   0.941   5.834   6.192
12516WAT     H250771   0.857   5.935   6.151
12516WAT    EPW50772   0.929   5.904   6.158
12517WAT      O50773   1.067   5.919   5.896
12517WAT     H150774   1.038   5.959   5.968
12517WAT     H250775   1.153   5.913   5.909
12517WAT    EPW50776   1.075   5.924   5.908
12518WAT      O50777   0.833   5.312   6.750
12518WAT     H150778   0.781   5.357   6.802
12518WAT     H250779   0.797   5.232   6.749
12518WAT    EPW50780   0.820   5.307   6.757
12519WAT      O50781   1.180   6.482   5.949
12519WAT     H150782   1.209   6.508   5.871
12519WAT     H250783   1.249   6.492   6.001
12519WAT    EPW50784   1.195   6.488   5.945
12520WAT      O50785   0.682   5.668   6.757
12520WAT     H150786   0.690   5.679   6.844
12520WAT     H250787   0.619   5.724   6.735
12520WAT    EPW50788   0.674   5.678   6.767
12521WAT      O50789   0.909   5.700   6.594
12521WAT     H150790   0.941   5.779   6.614
12521WAT     H250791   0.872   5.673   6.668
12521WAT    EPW50792   0.908   5.708   6.608
12522WAT      O50793   0.840   6.343   5.147
12522WAT     H150794   0.874   6.262   5.150
12522WAT     H250795   0.765   6.336   5.190
12522WAT    EPW50796   0.834   6.330   5.154
12523WAT      O50797   0.889   5.526   5.713
12523WAT     H150798   0.814   5.494   5.745
12523WAT     H250799   0.889   5.609   5.741
12523WAT    EPW50800   0.878   5.534   5.722
12524WAT      O50801   1.179   5.755   6.867
12524WAT     H150802   1.174   5.720   6.787
12524WAT     H250803   1.253   5.801   6.865
12524WAT    EPW50804   1.189   5.756   6.855
12525WAT      O50805   1.133   6.122   6.488
12525WAT     H150806   1.195   6.067   6.462
12525WAT     H250807   1.127   6.179   6.422
12525WAT    EPW50808   1.141   6.122   6.474
12526WAT      O50809   0.578   6.130   5.087
12526WAT     H150810   0.646   6.079   5.070
12526WAT     H250811   0.536   6.135   5.011
12526WAT    EPW50812   0.582   6.123   5.073
12527WAT      O50813   0.780   5.159   6.459
12527WAT     H150814   0.854   5.204   6.453
12527WAT     H250815   0.723   5.206   6.412
12527WAT    EPW50816   0.783   5.173   6.451
12528WAT      O50817   0.298   5.888   6.167
12528WAT     H150818   0.345   5.925   6.230
12528WAT     H250819   0.215   5.901   6.193
12528WAT    EPW50820   0.293   5.895   6.180
12529WAT      O50821   0.224   6.627   5.690
12529WAT     H150822   0.279   6.695   5.695
12529WAT     H250823   0.189   6.635   5.610
12529WAT    EPW50824   0.227   6.638   5.679
12530WAT      O50825   0.908   4.957   6.226
12530WAT     H150826   0.880   5.040   6.222
12530WAT     H250827   0.980   4.962   6.276
12530WAT    EPW50828   0.915   4.970   6.233
12531WAT      O50829   0.473   6.113   6.727
12531WAT     H150830   0.549   6.142   6.695
12531WAT     H250831   0.419   6.118   6.660
12531WAT    EPW50832   0.476   6.118   6.712
12532WAT      O50833   0.864   6.368   6.578
12532WAT     H150834   0.899   6.395   6.653
12532WAT     H250835   0.894   6.426   6.520
12532WAT    EPW50836   0.874   6.381   6.580
12533WAT      O50837   1.050   5.583   5.112
12533WAT     H150838   1.088   5.650   5.072
12533WAT     H250839   0.966   5.605   5.115
12533WAT    EPW50840   1.044   5.596   5.106
12534WAT      O50841   0.596   5.444   6.594
12534WAT     H150842   0.532   5.491   6.629
12534WAT     H250843   0.653   5.435   6.660
12534WAT    EPW50844   0.595   5.450   6.609
12535WAT      O50845   0.565   5.598   6.224
12535WAT     H150846   0.595   5.640   6.294
12535WAT     H250847   0.569   5.514   6.247
12535WAT    EPW50848   0.570   5.592   6.238
12536WAT      O50849   0.308   6.615   6.616
12536WAT     H150850   0.355   6.555   6.575
12536WAT     H250851   0.273   6.570   6.683
12536WAT    EPW50852   0.310   6.599   6.620
12537WAT      O50853   0.820   5.543   5.449
12537WAT     H150854   0.841   5.522   5.532
12537WAT     H250855   0.896   5.569   5.415
12537WAT    EPW50856   0.834   5.544   5.456
12538WAT      O50857   0.922   5.151   5.597
12538WAT     H150858   0.851   5.104   5.614
12538WAT     H250859   0.906   5.185   5.518
12538WAT    EPW50860   0.909   5.149   5.587
12539WAT      O50861   0.966   5.945   5.435
12539WAT     H150862   1.014   5.872   5.430
12539WAT     H250863   0.884   5.917   5.427
12539WAT    EPW50864   0.961   5.930   5.433
12540WAT      O50865   0.314   6.136   6.518
12540WAT     H150866   0.234   6.130   6.554
12540WAT     H250867   0.321   6.221   6.499
12540WAT    EPW50868   0.303   6.148   6.521
12541WAT      O50869   0.588   6.062   5.670
12541WAT     H150870   0.596   6.096   5.750
12541WAT     H250871   0.605   5.977   5.682
12541WAT    EPW50872   0.592   6.054   5.684
12542WAT      O50873   0.340   5.989   5.627
12542WAT     H150874   0.310   5.958   5.702
12542WAT     H250875   0.410   6.037   5.650
12542WAT    EPW50876   0.346   5.992   5.641
12543WAT      O50877   0.362   6.401   6.429
12543WAT     H150878   0.431   6.390   6.482
12543WAT     H250879   0.376   6.480   6.395
12543WAT    EPW50880   0.375   6.411   6.432
12544WAT      O50881   1.180   5.662   6.610
12544WAT     H150882   1.095   5.650   6.623
12544WAT     H250883   1.195   5.623   6.534
12544WAT    EPW50884   1.170   5.654   6.601
12545WAT      O50885   0.631   5.729   6.468
12545WAT     H150886   0.606   5.657   6.510
12545WAT     H250887   0.713   5.740   6.495
12545WAT    EPW50888   0.640   5.720   6.478
12546WAT      O50889   0.425   5.848   6.787
12546WAT     H150890   0.457   5.916   6.743
12546WAT     H250891   0.354   5.880   6.827
12546WAT    EPW50892   0.419   5.862   6.786
12547WAT      O50893   0.733   6.685   5.880
12547WAT     H150894   0.688   6.749   5.917
12547WAT     H250895   0.804   6.677   5.930
12547WAT    EPW50896   0.737   6.693   5.893
12548WAT      O50897   0.403   6.194   6.173
12548WAT     H150898   0.334   6.234   6.207
12548WAT     H250899   0.471   6.237   6.206
12548WAT    EPW50900   0.403   6.206   6.183
12549WAT      O50901   0.941   6.453   6.831
12549WAT     H150902   1.019   6.414   6.839
12549WAT     H250903   0.894   6.420   6.896
12549WAT    EPW50904   0.945   6.443   6.841
12550WAT      O50905   1.043   5.657   5.379
12550WAT     H150906   1.054   5.651   5.292
12550WAT     H250907   1.118   5.623   5.411
12550WAT    EPW50908   1.056   5.651   5.371
12551WAT      O50909   0.435   6.353   5.489
12551WAT     H150910   0.415   6.436   5.474
12551WAT     H250911   0.358   6.315   5.502
12551WAT    EPW50912   0.421   6.360   5.489
12552WAT      O50913   0.954   5.671   6.314
12552WAT     H150914   0.953   5.585   6.327
12552WAT     H250915   0.960   5.704   6.395
12552WAT    EPW50916   0.955   5.663   6.328
12553WAT      O50917   0.542   5.151   6.693
12553WAT     H150918   0.551   5.222   6.742
12553WAT     H250919   0.478   5.107   6.732
12553WAT    EPW50920   0.533   5.155   6.706
12554WAT      O50921   0.441   5.170   5.778
12554WAT     H150922   0.371   5.222   5.772
12554WAT     H250923   0.445   5.132   5.700
12554WAT    EPW50924   0.431   5.172   5.766
12555WAT      O50925   0.801   5.222   6.058
12555WAT     H150926   0.886   5.232   6.072
12555WAT     H250927   0.764   5.277   6.114
12555WAT    EPW50928   0.808   5.231   6.068
12556WAT      O50929   0.831   5.750   5.907
12556WAT     H150930   0.898   5.804   5.923
12556WAT     H250931   0.797   5.781   5.833
12556WAT    EPW50932   0.836   5.762   5.899
12557WAT      O50933   0.862   6.556   5.488
12557WAT     H150934   0.845   6.491   5.543
12557WAT     H250935   0.934   6.529   5.445
12557WAT    EPW50936   0.870   6.543   5.490
12558WAT      O50937   1.148   5.006   6.374
12558WAT     H150938   1.143   5.001   6.461
12558WAT     H250939   1.217   4.955   6.355
12558WAT    EPW50940   1.158   4.998   6.384
12559WAT      O50941   0.357   5.217   6.078
12559WAT     H150942   0.283   5.171   6.089
12559WAT     H250943   0.414   5.177   6.130
12559WAT    EPW50944   0.354   5.204   6.087
12560WAT      O50945   0.630   6.302   6.257
12560WAT     H150946   0.651   6.332   6.336
12560WAT     H250947   0.624   6.374   6.208
12560WAT    EPW50948   0.632   6.317   6.261
12561WAT      O50949   0.583   6.723   6.681
12561WAT     H150950   0.508   6.721   6.637
12561WAT     H250951   0.600   6.808   6.690
12561WAT    EPW50952   0.575   6.735   6.676
12562WAT      O50953   1.111   6.166   6.203
12562WAT     H150954   1.108   6.079   6.189
12562WAT     H250955   1.042   6.196   6.159
12562WAT    EPW50956   1.100   6.157   6.194
12563WAT      O50957   0.922   6.492   6.082
12563WAT     H150958   0.974   6.483   6.013
12563WAT     H250959   0.883   6.414   6.088
12563WAT    EPW50960   0.924   6.479   6.073
12564WAT      O50961   0.573   5.036   6.003
12564WAT     H150962   0.640   5.090   6.016
12564WAT     H250963   0.523   5.078   5.946
12564WAT    EPW50964   0.576   5.050   5.997
12565WAT      O50965   0.509   5.617   5.752
12565WAT     H150966   0.564   5.556   5.782
12565WAT     H250967   0.466   5.643   5.824
12565WAT    EPW50968   0.511   5.612   5.767
12566WAT      O50969   0.706   5.800   5.409
12566WAT     H150970   0.713   5.715   5.427
12566WAT     H250971   0.624   5.808   5.381
12566WAT    EPW50972   0.695   5.789   5.407
12567WAT      O50973   1.014   6.695   5.050
12567WAT     H150974   1.078   6.682   5.109
12567WAT     H250975   0.980   6.616   5.039
12567WAT    EPW50976   1.018   6.682   5.057
12568WAT      O50977   1.033   5.937   6.724
12568WAT     H150978   1.097   5.920   6.781
12568WAT     H250979   1.075   5.977   6.659
12568WAT    EPW50980   1.049   5.941   6.723
12569WAT      O50981   0.621   6.322   5.283
12569WAT     H150982   0.596   6.309   5.365
12569WAT     H250983   0.590   6.252   5.241
12569WAT    EPW50984   0.613   6.310   5.289
12570WAT      O50985   1.096   5.394   6.798
12570WAT     H150986   1.076   5.458   6.853
12570WAT     H250987   1.024   5.345   6.797
12570WAT    EPW50988   1.082   5.396   6.806
12571WAT      O50989   1.086   5.488   6.095
12571WAT     H150990   1.002   5.513   6.087
12571WAT     H250991   1.080   5.404   6.118
12571WAT    EPW50992   1.073   5.479   6.097
12572WAT      O50993   0.774   5.948   6.859
12572WAT     H150994   0.862   5.945   6.856
12572WAT     H250995   0.753   5.990   6.786
12572WAT    EPW50996   0.784   5.954   6.848
12573WAT      O50997   0.310   6.143   5.226
12573WAT     H150998   0.382   6.108   5.190
12573WAT     H250999   0.307   6.223   5.191
12573WAT    EPW51000   0.320   6.149   5.215
12574WAT      O51001   0.451   5.007   3.650
12574WAT     H151002   0.426   5.056   3.582
12574WAT     H251003   0.537   4.999   3.640
12574WAT    EPW51004   0.460   5.013   3.638
12575WAT      O51005   0.432   5.698   4.117
12575WAT     H151006   0.379   5.758   4.153
12575WAT     H251007   0.471   5.662   4.185
12575WAT    EPW51008   0.430   5.702   4.132
12576WAT      O51009   1.046   6.442   3.414
12576WAT     H151010   1.116   6.391   3.413
12576WAT     H251011   0.987   6.398   3.367
12576WAT    EPW51012   1.048   6.428   3.407
12577WAT      O51013   0.699   5.805   3.784
12577WAT     H151014   0.707   5.805   3.697
12577WAT     H251015   0.640   5.742   3.799
12577WAT    EPW51016   0.691   5.796   3.774
12578WAT      O51017   0.178   6.246   3.971
12578WAT     H151018   0.213   6.166   3.974
12578WAT     H251019   0.244   6.296   3.946
12578WAT    EPW51020   0.193   6.242   3.968
12579WAT      O51021   0.183   6.191   3.592
12579WAT     H151022   0.217   6.127   3.641
12579WAT     H251023   0.207   6.170   3.511
12579WAT    EPW51024   0.192   6.178   3.588
12580WAT      O51025   0.380   5.604   4.726
12580WAT     H151026   0.295   5.594   4.708
12580WAT     H251027   0.383   5.679   4.772
12580WAT    EPW51028   0.368   5.614   4.730
12581WAT      O51029   0.836   4.900   4.638
12581WAT     H151030   0.820   4.977   4.599
12581WAT     H251031   0.759   4.878   4.672
12581WAT    EPW51032   0.822   4.908   4.637
12582WAT      O51033   0.582   5.364   3.089
12582WAT     H151034   0.537   5.432   3.120
12582WAT     H251035   0.594   5.314   3.159
12582WAT    EPW51036   0.577   5.367   3.104
12583WAT      O51037   0.592   6.598   3.299
12583WAT     H151038   0.665   6.645   3.310
12583WAT     H251039   0.615   6.519   3.327
12583WAT    EPW51040   0.606   6.594   3.305
12584WAT      O51041   0.409   6.637   3.498
12584WAT     H151042   0.430   6.690   3.565
12584WAT     H251043   0.486   6.620   3.461
12584WAT    EPW51044   0.423   6.643   3.503
12585WAT      O51045   1.122   5.361   3.719
12585WAT     H151046   1.087   5.429   3.761
12585WAT     H251047   1.058   5.302   3.720
12585WAT    EPW51048   1.107   5.363   3.725
12586WAT      O51049   0.653   6.638   4.329
12586WAT     H151050   0.727   6.684   4.328
12586WAT     H251051   0.641   6.617   4.245
12586WAT    EPW51052   0.662   6.642   4.316
12587WAT      O51053   0.275   5.033   4.803
12587WAT     H151054   0.292   4.952   4.776
12587WAT     H251055   0.260   5.077   4.729
12587WAT    EPW51056   0.275   5.028   4.788
12588WAT      O51057   0.334   5.526   3.681
12588WAT     H151058   0.363   5.502   3.602
12588WAT     H251059   0.407   5.534   3.728
12588WAT    EPW51060   0.349   5.523   3.676
12589WAT      O51061   0.406   5.560   3.193
12589WAT     H151062   0.434   5.638   3.218
12589WAT     H251063   0.329   5.576   3.156
12589WAT    EPW51064   0.399   5.574   3.191
12590WAT      O51065   0.810   6.757   3.339
12590WAT     H151066   0.877   6.742   3.285
12590WAT     H251067   0.846   6.749   3.418
12590WAT    EPW51068   0.825   6.754   3.343
12591WAT      O51069   1.089   5.194   4.255
12591WAT     H151070   1.165   5.201   4.213
12591WAT     H251071   1.095   5.116   4.295
12591WAT    EPW51072   1.101   5.183   4.255
12592WAT      O51073   0.578   6.357   4.699
12592WAT     H151074   0.575   6.395   4.778
12592WAT     H251075   0.664   6.353   4.682
12592WAT    EPW51076   0.590   6.362   4.708
12593WAT      O51077   0.292   6.377   3.174
12593WAT     H151078   0.274   6.431   3.240
12593WAT     H251079   0.369   6.406   3.144
12593WAT    EPW51080   0.301   6.389   3.180
12594WAT      O51081   0.643   5.166   3.280
12594WAT     H151082   0.697   5.098   3.287
12594WAT     H251083   0.649   5.206   3.357
12594WAT    EPW51084   0.652   5.162   3.292
12595WAT      O51085   0.369   5.404   3.411
12595WAT     H151086   0.318   5.338   3.386
12595WAT     H251087   0.374   5.454   3.340
12595WAT    EPW51088   0.362   5.402   3.397
12596WAT      O51089   0.423   6.673   4.449
12596WAT     H151090   0.500   6.665   4.409
12596WAT     H251091   0.365   6.661   4.385
12596WAT    EPW51092   0.426   6.670   4.434
12597WAT      O51093   0.369   5.098   3.400
12597WAT     H151094   0.323   5.058   3.338
12597WAT     H251095   0.446   5.113   3.363
12597WAT    EPW51096   0.373   5.094   3.385
12598WAT      O51097   1.051   6.734   3.739
12598WAT     H151098   1.006   6.805   3.759
12598WAT     H251099   0.990   6.677   3.715
12598WAT    EPW51100   1.035   6.736   3.739
12599WAT      O51101   0.228   5.335   3.852
12599WAT     H151102   0.236   5.391   3.787
12599WAT     H251103   0.240   5.384   3.923
12599WAT    EPW51104   0.231   5.350   3.853
12600WAT      O51105   0.751   6.318   3.694
12600WAT     H151106   0.821   6.270   3.713
12600WAT     H251107   0.685   6.261   3.698
12600WAT    EPW51108   0.751   6.303   3.697
12601WAT      O51109   0.608   5.352   4.441
12601WAT     H151110   0.598   5.384   4.522
12601WAT     H251111   0.548   5.288   4.437
12601WAT    EPW51112   0.597   5.347   4.453
12602WAT      O51113   0.677   6.024   4.262
12602WAT     H151114   0.626   5.982   4.319
12602WAT     H251115   0.665   6.108   4.280
12602WAT    EPW51116   0.668   6.030   4.273
12603WAT      O51117   0.733   4.946   3.725
12603WAT     H151118   0.738   4.914   3.806
12603WAT     H251119   0.765   4.882   3.676
12603WAT    EPW51120   0.739   4.932   3.730
12604WAT      O51121   0.980   5.370   4.556
12604WAT     H151122   1.057   5.347   4.589
12604WAT     H251123   0.932   5.391   4.626
12604WAT    EPW51124   0.984   5.370   4.571
12605WAT      O51125   1.003   6.067   3.274
12605WAT     H151126   1.015   6.039   3.356
12605WAT     H251127   1.083   6.070   3.241
12605WAT    EPW51128   1.016   6.064   3.282
12606WAT      O51129   1.226   6.518   4.700
12606WAT     H151130   1.158   6.549   4.655
12606WAT     H251131   1.189   6.473   4.764
12606WAT    EPW51132   1.211   6.516   4.703
12607WAT      O51133   0.792   5.721   3.233
12607WAT     H151134   0.770   5.794   3.191
12607WAT     H251135   0.747   5.726   3.308
12607WAT    EPW51136   0.782   5.733   3.238
12608WAT      O51137   1.211   5.207   3.178
12608WAT     H151138   1.145   5.150   3.181
12608WAT     H251139   1.192   5.258   3.110
12608WAT    EPW51140   1.198   5.206   3.169
12609WAT      O51141   1.243   5.645   4.434
12609WAT     H151142   1.265   5.565   4.406
12609WAT     H251143   1.158   5.651   4.415
12609WAT    EPW51144   1.234   5.634   4.427
12610WAT      O51145   1.011   5.163   3.406
12610WAT     H151146   1.086   5.122   3.426
12610WAT     H251147   1.037   5.235   3.364
12610WAT    EPW51148   1.026   5.168   3.403
12611WAT      O51149   0.405   6.412   3.864
12611WAT     H151150   0.353   6.475   3.834
12611WAT     H251151   0.436   6.375   3.791
12611WAT    EPW51152   0.402   6.416   3.849
12612WAT      O51153   0.657   5.392   3.913
12612WAT     H151154   0.691   5.407   3.992
12612WAT     H251155   0.611   5.318   3.925
12612WAT    EPW51156   0.655   5.383   3.927
12613WAT      O51157   1.010   6.557   4.509
12613WAT     H151158   0.942   6.608   4.531
12613WAT     H251159   1.016   6.567   4.422
12613WAT    EPW51160   1.001   6.566   4.499
12614WAT      O51161   0.789   5.525   4.169
12614WAT     H151162   0.722   5.558   4.215
12614WAT     H251163   0.807   5.588   4.112
12614WAT    EPW51164   0.782   5.539   4.167
12615WAT      O51165   0.209   6.631   4.268
12615WAT     H151166   0.181   6.567   4.216
12615WAT     H251167   0.188   6.704   4.225
12615WAT    EPW51168   0.202   6.633   4.254
12616WAT      O51169   0.453   5.116   4.512
12616WAT     H151170   0.468   5.033   4.487
12616WAT     H251171   0.491   5.121   4.590
12616WAT    EPW51172   0.461   5.104   4.520
12617WAT      O51173   0.608   5.322   3.520
12617WAT     H151174   0.657   5.394   3.512
12617WAT     H251175   0.529   5.348   3.494
12617WAT    EPW51176   0.604   5.336   3.515
12618WAT      O51177   0.739   6.110   4.711
12618WAT     H151178   0.788   6.182   4.721
12618WAT     H251179   0.779   6.067   4.646
12618WAT    EPW51180   0.752   6.114   4.703
12619WAT      O51181   0.266   5.469   4.092
12619WAT     H151182   0.314   5.539   4.113
12619WAT     H251183   0.303   5.404   4.138
12619WAT    EPW51184   0.279   5.470   4.102
12620WAT      O51185   0.485   5.786   3.320
12620WAT     H151186   0.484   5.858   3.271
12620WAT     H251187   0.421   5.799   3.378
12620WAT    EPW51188   0.476   5.799   3.321
12621WAT      O51189   0.982   6.173   3.718
12621WAT     H151190   1.018   6.138   3.789
12621WAT     H251191   0.981   6.107   3.661
12621WAT    EPW51192   0.987   6.158   3.720
12622WAT      O51193   0.587   6.479   4.102
12622WAT     H151194   0.526   6.450   4.047
12622WAT     H251195   0.641   6.525   4.051
12622WAT    EPW51196   0.586   6.482   4.087
12623WAT      O51197   0.588   6.165   4.042
12623WAT     H151198   0.508   6.187   4.070
12623WAT     H251199   0.614   6.105   4.101
12623WAT    EPW51200   0.580   6.159   4.055
12624WAT      O51201   0.206   6.597   3.327
12624WAT     H151202   0.269   6.614   3.386
12624WAT     H251203   0.210   6.666   3.274
12624WAT    EPW51204   0.216   6.610   3.328
12625WAT      O51205   0.914   5.964   4.527
12625WAT     H151206   0.920   5.977   4.441
12625WAT     H251207   0.989   5.996   4.557
12625WAT    EPW51208   0.926   5.971   4.519
12626WAT      O51209   0.533   6.499   4.955
12626WAT     H151210   0.550   6.528   5.036
12626WAT     H251211   0.559   6.565   4.904
12626WAT    EPW51212   0.539   6.513   4.959
12627WAT      O51213   1.017   4.994   4.826
12627WAT     H151214   0.954   4.954   4.781
12627WAT     H251215   1.020   4.951   4.901
12627WAT    EPW51216   1.008   4.982   4.830
12628WAT      O51217   0.487   5.945   4.487
12628WAT     H151218   0.472   6.006   4.547
12628WAT     H251219   0.541   5.889   4.528
12628WAT    EPW51220   0.493   5.946   4.502
12629WAT      O51221   0.326   5.785   3.553
12629WAT     H151222   0.331   5.850   3.611
12629WAT     H251223   0.307   5.715   3.602
12629WAT    EPW51224   0.324   5.784   3.569
12630WAT      O51225   0.848   6.218   4.140
12630WAT     H151226   0.800   6.248   4.073
12630WAT     H251227   0.813   6.140   4.157
12630WAT    EPW51228   0.836   6.211   4.132
12631WAT      O51229   0.248   5.990   3.996
12631WAT     H151230   0.163   5.970   4.004
12631WAT     H251231   0.280   5.973   4.075
12631WAT    EPW51232   0.240   5.984   4.009
12632WAT      O51233   1.217   6.634   3.334
12632WAT     H151234   1.287   6.588   3.309
12632WAT     H251235   1.163   6.575   3.367
12632WAT    EPW51236   1.220   6.619   3.335
12633WAT      O51237   0.941   5.912   4.252
12633WAT     H151238   0.941   5.834   4.291
12633WAT     H251239   0.857   5.935   4.251
12633WAT    EPW51240   0.929   5.904   4.257
12634WAT      O51241   1.067   5.919   3.995
12634WAT     H151242   1.038   5.959   4.067
12634WAT     H251243   1.153   5.913   4.008
12634WAT    EPW51244   1.075   5.924   4.008
12635WAT      O51245   0.833   5.312   4.849
12635WAT     H151246   0.781   5.357   4.902
12635WAT     H251247   0.797   5.232   4.849
12635WAT    EPW51248   0.820   5.307   4.857
12636WAT      O51249   1.180   6.482   4.048
12636WAT     H151250   1.209   6.508   3.970
12636WAT     H251251   1.249   6.492   4.100
12636WAT    EPW51252   1.195   6.488   4.044
12637WAT      O51253   0.682   5.668   4.857
12637WAT     H151254   0.690   5.679   4.943
12637WAT     H251255   0.619   5.724   4.835
12637WAT    EPW51256   0.674   5.678   4.866
12638WAT      O51257   0.909   5.700   4.693
12638WAT     H151258   0.941   5.779   4.714
12638WAT     H251259   0.872   5.673   4.768
12638WAT    EPW51260   0.908   5.708   4.707
12639WAT      O51261   0.840   6.343   3.246
12639WAT     H151262   0.874   6.262   3.250
12639WAT     H251263   0.765   6.336   3.289
12639WAT    EPW51264   0.834   6.330   3.253
12640WAT      O51265   0.889   5.526   3.812
12640WAT     H151266   0.814   5.494   3.844
12640WAT     H251267   0.889   5.609   3.840
12640WAT    EPW51268   0.878   5.534   3.821
12641WAT      O51269   1.179   5.755   4.967
12641WAT     H151270   1.174   5.720   4.887
12641WAT     H251271   1.253   5.801   4.965
12641WAT    EPW51272   1.189   5.756   4.955
12642WAT      O51273   1.133   6.122   4.587
12642WAT     H151274   1.195   6.067   4.562
12642WAT     H251275   1.127   6.179   4.521
12642WAT    EPW51276   1.141   6.122   4.574
12643WAT      O51277   0.578   6.130   3.187
12643WAT     H151278   0.646   6.079   3.170
12643WAT     H251279   0.536   6.135   3.110
12643WAT    EPW51280   0.582   6.123   3.173
12644WAT      O51281   0.780   5.159   4.558
12644WAT     H151282   0.854   5.204   4.552
12644WAT     H251283   0.723   5.206   4.511
12644WAT    EPW51284   0.783   5.173   4.551
12645WAT      O51285   0.298   5.888   4.266
12645WAT     H151286   0.345   5.925   4.329
12645WAT     H251287   0.215   5.901   4.292
12645WAT    EPW51288   0.293   5.895   4.279
12646WAT      O51289   0.224   6.627   3.789
12646WAT     H151290   0.279   6.695   3.794
12646WAT     H251291   0.189   6.635   3.709
12646WAT    EPW51292   0.227   6.638   3.778
12647WAT      O51293   0.908   4.957   4.325
12647WAT     H151294   0.880   5.040   4.321
12647WAT     H251295   0.980   4.962   4.375
12647WAT    EPW51296   0.915   4.970   4.332
12648WAT      O51297   0.473   6.113   4.827
12648WAT     H151298   0.549   6.142   4.794
12648WAT     H251299   0.419   6.118   4.759
12648WAT    EPW51300   0.476   6.118   4.812
12649WAT      O51301   0.864   6.368   4.677
12649WAT     H151302   0.899   6.395   4.753
12649WAT     H251303   0.894   6.426   4.619
12649WAT    EPW51304   0.874   6.381   4.680
12650WAT      O51305   1.050   5.583   3.211
12650WAT     H151306   1.088   5.650   3.171
12650WAT     H251307   0.966   5.605   3.214
12650WAT    EPW51308   1.044   5.596   3.206
12651WAT      O51309   0.596   5.444   4.694
12651WAT     H151310   0.532   5.491   4.728
12651WAT     H251311   0.653   5.435   4.759
12651WAT    EPW51312   0.595   5.450   4.708
12652WAT      O51313   0.565   5.598   4.323
12652WAT     H151314   0.595   5.640   4.394
12652WAT     H251315   0.569   5.514   4.347
12652WAT    EPW51316   0.570   5.592   4.337
12653WAT      O51317   0.308   6.615   4.716
12653WAT     H151318   0.355   6.555   4.674
12653WAT     H251319   0.273   6.570   4.782
12653WAT    EPW51320   0.310   6.599   4.720
12654WAT      O51321   0.820   5.543   3.549
12654WAT     H151322   0.841   5.522   3.631
12654WAT     H251323   0.896   5.569   3.514
12654WAT    EPW51324   0.834   5.544   3.556
12655WAT      O51325   0.922   5.151   3.696
12655WAT     H151326   0.851   5.104   3.713
12655WAT     H251327   0.906   5.185   3.617
12655WAT    EPW51328   0.909   5.149   3.687
12656WAT      O51329   0.966   5.945   3.534
12656WAT     H151330   1.014   5.872   3.529
12656WAT     H251331   0.884   5.917   3.526
12656WAT    EPW51332   0.961   5.930   3.532
12657WAT      O51333   0.314   6.136   4.618
12657WAT     H151334   0.234   6.130   4.653
12657WAT     H251335   0.321   6.221   4.598
12657WAT    EPW51336   0.303   6.148   4.620
12658WAT      O51337   0.588   6.062   3.769
12658WAT     H151338   0.596   6.096   3.849
12658WAT     H251339   0.605   5.977   3.782
12658WAT    EPW51340   0.592   6.054   3.783
12659WAT      O51341   0.340   5.989   3.726
12659WAT     H151342   0.310   5.958   3.802
12659WAT     H251343   0.410   6.037   3.749
12659WAT    EPW51344   0.346   5.992   3.741
12660WAT      O51345   0.362   6.401   4.529
12660WAT     H151346   0.431   6.390   4.581
12660WAT     H251347   0.376   6.480   4.494
12660WAT    EPW51348   0.375   6.411   4.531
12661WAT      O51349   1.180   5.662   4.710
12661WAT     H151350   1.095   5.650   4.722
12661WAT     H251351   1.195   5.623   4.633
12661WAT    EPW51352   1.170   5.654   4.700
12662WAT      O51353   0.631   5.729   4.567
12662WAT     H151354   0.606   5.657   4.610
12662WAT     H251355   0.713   5.740   4.594
12662WAT    EPW51356   0.640   5.720   4.578
12663WAT      O51357   0.425   5.848   4.886
12663WAT     H151358   0.457   5.916   4.843
12663WAT     H251359   0.354   5.880   4.926
12663WAT    EPW51360   0.419   5.862   4.886
12664WAT      O51361   0.733   6.685   3.979
12664WAT     H151362   0.688   6.749   4.017
12664WAT     H251363   0.804   6.677   4.029
12664WAT    EPW51364   0.737   6.693   3.992
12665WAT      O51365   0.403   6.194   4.272
12665WAT     H151366   0.334   6.234   4.306
12665WAT     H251367   0.471   6.237   4.306
12665WAT    EPW51368   0.403   6.206   4.282
12666WAT      O51369   0.941   6.453   4.930
12666WAT     H151370   1.019   6.414   4.938
12666WAT     H251371   0.894   6.420   4.995
12666WAT    EPW51372   0.945   6.443   4.941
12667WAT      O51373   1.043   5.657   3.478
12667WAT     H151374   1.054   5.651   3.392
12667WAT     H251375   1.118   5.623   3.510
12667WAT    EPW51376   1.056   5.651   3.470
12668WAT      O51377   0.435   6.353   3.589
12668WAT     H151378   0.415   6.436   3.573
12668WAT     H251379   0.358   6.315   3.601
12668WAT    EPW51380   0.421   6.360   3.588
12669WAT      O51381   0.954   5.671   4.414
12669WAT     H151382   0.953   5.585   4.426
12669WAT     H251383   0.960   5.704   4.494
12669WAT    EPW51384   0.955   5.663   4.427
12670WAT      O51385   0.542   5.151   4.792
12670WAT     H151386   0.551   5.222   4.841
12670WAT     H251387   0.478   5.107   4.832
12670WAT    EPW51388   0.533   5.155   4.805
12671WAT      O51389   0.441   5.170   3.877
12671WAT     H151390   0.371   5.222   3.872
12671WAT     H251391   0.445   5.132   3.799
12671WAT    EPW51392   0.431   5.172   3.865
12672WAT      O51393   0.801   5.222   4.157
12672WAT     H151394   0.886   5.232   4.172
12672WAT     H251395   0.764   5.277   4.214
12672WAT    EPW51396   0.808   5.231   4.168
12673WAT      O51397   0.831   5.750   4.006
12673WAT     H151398   0.898   5.804   4.022
12673WAT     H251399   0.797   5.781   3.933
12673WAT    EPW51400   0.836   5.762   3.998
12674WAT      O51401   0.862   6.556   3.587
12674WAT     H151402   0.845   6.491   3.642
12674WAT     H251403   0.934   6.529   3.545
12674WAT    EPW51404   0.870   6.543   3.589
12675WAT      O51405   1.148   5.006   4.473
12675WAT     H151406   1.143   5.001   4.560
12675WAT     H251407   1.217   4.955   4.454
12675WAT    EPW51408   1.158   4.998   4.483
12676WAT      O51409   0.357   5.217   4.177
12676WAT     H151410   0.283   5.171   4.189
12676WAT     H251411   0.414   5.177   4.230
12676WAT    EPW51412   0.354   5.204   4.187
12677WAT      O51413   0.630   6.302   4.356
12677WAT     H151414   0.651   6.332   4.435
12677WAT     H251415   0.624   6.374   4.308
12677WAT    EPW51416   0.632   6.317   4.361
12678WAT      O51417   0.583   6.723   4.781
12678WAT     H151418   0.508   6.721   4.737
12678WAT     H251419   0.600   6.808   4.789
12678WAT    EPW51420   0.575   6.735   4.776
12679WAT      O51421   1.111   6.166   4.302
12679WAT     H151422   1.108   6.079   4.289
12679WAT     H251423   1.042   6.196   4.259
12679WAT    EPW51424   1.100   6.157   4.294
12680WAT      O51425   0.922   6.492   4.182
12680WAT     H151426   0.974   6.483   4.113
12680WAT     H251427   0.883   6.414   4.187
12680WAT    EPW51428   0.924   6.479   4.172
12681WAT      O51429   0.573   5.036   4.103
12681WAT     H151430   0.640   5.090   4.115
12681WAT     H251431   0.523   5.078   4.045
12681WAT    EPW51432   0.576   5.050   4.096
12682WAT      O51433   0.509   5.617   3.852
12682WAT     H151434   0.564   5.556   3.882
12682WAT     H251435   0.466   5.643   3.923
12682WAT    EPW51436   0.511   5.612   3.867
12683WAT      O51437   0.706   5.800   3.508
12683WAT     H151438   0.713   5.715   3.526
12683WAT     H251439   0.624   5.808   3.480
12683WAT    EPW51440   0.695   5.789   3.507
12684WAT      O51441   1.014   6.695   3.150
12684WAT     H151442   1.078   6.682   3.208
12684WAT     H251443   0.980   6.616   3.138
12684WAT    EPW51444   1.018   6.682   3.157
12685WAT      O51445   1.033   5.937   4.823
12685WAT     H151446   1.097   5.920   4.881
12685WAT     H251447   1.075   5.977   4.758
12685WAT    EPW51448   1.049   5.941   4.822
12686WAT      O51449   0.621   6.322   3.382
12686WAT     H151450   0.596   6.309   3.465
12686WAT     H251451   0.590   6.252   3.340
12686WAT    EPW51452   0.613   6.310   3.388
12687WAT      O51453   1.096   5.394   4.897
12687WAT     H151454   1.076   5.458   4.952
12687WAT     H251455   1.024   5.345   4.896
12687WAT    EPW51456   1.082   5.396   4.905
12688WAT      O51457   1.086   5.488   4.194
12688WAT     H151458   1.002   5.513   4.187
12688WAT     H251459   1.080   5.404   4.217
12688WAT    EPW51460   1.073   5.479   4.196
12689WAT      O51461   0.774   5.948   4.959
12689WAT     H151462   0.862   5.945   4.955
12689WAT     H251463   0.753   5.990   4.885
12689WAT    EPW51464   0.784   5.954   4.947
12690WAT      O51465   0.310   6.143   3.325
12690WAT     H151466   0.382   6.108   3.289
12690WAT     H251467   0.307   6.223   3.290
12690WAT    EPW51468   0.320   6.149   3.315
12691WAT      O51469   0.451   5.007   1.749
12691WAT     H151470   0.426   5.056   1.681
12691WAT     H251471   0.537   4.999   1.739
12691WAT    EPW51472   0.460   5.013   1.737
12692WAT      O51473   0.432   5.698   2.216
12692WAT     H151474   0.379   5.758   2.252
12692WAT     H251475   0.471   5.662   2.284
12692WAT    EPW51476   0.430   5.702   2.232
12693WAT      O51477   1.046   6.442   1.513
12693WAT     H151478   1.116   6.391   1.513
12693WAT     H251479   0.987   6.398   1.466
12693WAT    EPW51480   1.048   6.428   1.506
12694WAT      O51481   0.699   5.805   1.884
12694WAT     H151482   0.707   5.805   1.797
12694WAT     H251483   0.640   5.742   1.899
12694WAT    EPW51484   0.691   5.796   1.873
12695WAT      O51485   0.178   6.246   2.071
12695WAT     H151486   0.213   6.166   2.074
12695WAT     H251487   0.244   6.296   2.045
12695WAT    EPW51488   0.193   6.242   2.067
12696WAT      O51489   0.183   6.191   1.692
12696WAT     H151490   0.217   6.127   1.740
12696WAT     H251491   0.207   6.170   1.611
12696WAT    EPW51492   0.192   6.178   1.687
12697WAT      O51493   0.380   5.604   2.826
12697WAT     H151494   0.295   5.594   2.808
12697WAT     H251495   0.383   5.679   2.871
12697WAT    EPW51496   0.368   5.614   2.830
12698WAT      O51497   0.836   4.900   2.737
12698WAT     H151498   0.820   4.977   2.699
12698WAT     H251499   0.759   4.878   2.771
12698WAT    EPW51500   0.822   4.908   2.737
12699WAT      O51501   0.582   5.364   1.188
12699WAT     H151502   0.537   5.432   1.219
12699WAT     H251503   0.594   5.314   1.259
12699WAT    EPW51504   0.577   5.367   1.203
12700WAT      O51505   0.592   6.598   1.399
12700WAT     H151506   0.665   6.645   1.409
12700WAT     H251507   0.615   6.519   1.427
12700WAT    EPW51508   0.606   6.594   1.405
12701WAT      O51509   0.409   6.637   1.598
12701WAT     H151510   0.430   6.690   1.664
12701WAT     H251511   0.486   6.620   1.560
12701WAT    EPW51512   0.423   6.643   1.602
12702WAT      O51513   1.122   5.361   1.818
12702WAT     H151514   1.087   5.429   1.861
12702WAT     H251515   1.058   5.302   1.820
12702WAT    EPW51516   1.107   5.363   1.824
12703WAT      O51517   0.653   6.638   2.428
12703WAT     H151518   0.727   6.684   2.427
12703WAT     H251519   0.641   6.617   2.345
12703WAT    EPW51520   0.662   6.642   2.416
12704WAT      O51521   0.275   5.033   2.903
12704WAT     H151522   0.292   4.952   2.875
12704WAT     H251523   0.260   5.077   2.829
12704WAT    EPW51524   0.275   5.028   2.888
12705WAT      O51525   0.334   5.526   1.780
12705WAT     H151526   0.363   5.502   1.701
12705WAT     H251527   0.407   5.534   1.827
12705WAT    EPW51528   0.349   5.523   1.775
12706WAT      O51529   0.406   5.560   1.292
12706WAT     H151530   0.434   5.638   1.317
12706WAT     H251531   0.329   5.576   1.256
12706WAT    EPW51532   0.399   5.574   1.290
12707WAT      O51533   0.810   6.757   1.439
12707WAT     H151534   0.877   6.742   1.384
12707WAT     H251535   0.846   6.749   1.518
12707WAT    EPW51536   0.825   6.754   1.442
12708WAT      O51537   1.089   5.194   2.355
12708WAT     H151538   1.165   5.201   2.312
12708WAT     H251539   1.095   5.116   2.395
12708WAT    EPW51540   1.101   5.183   2.354
12709WAT      O51541   0.578   6.357   2.799
12709WAT     H151542   0.575   6.395   2.877
12709WAT     H251543   0.664   6.353   2.782
12709WAT    EPW51544   0.590   6.362   2.808
12710WAT      O51545   0.292   6.377   1.274
12710WAT     H151546   0.274   6.431   1.339
12710WAT     H251547   0.369   6.406   1.244
12710WAT    EPW51548   0.301   6.389   1.279
12711WAT      O51549   0.643   5.166   1.379
12711WAT     H151550   0.697   5.098   1.387
12711WAT     H251551   0.649   5.206   1.457
12711WAT    EPW51552   0.652   5.162   1.392
12712WAT      O51553   0.369   5.404   1.511
12712WAT     H151554   0.318   5.338   1.485
12712WAT     H251555   0.374   5.454   1.440
12712WAT    EPW51556   0.362   5.402   1.496
12713WAT      O51557   0.423   6.673   2.549
12713WAT     H151558   0.500   6.665   2.508
12713WAT     H251559   0.365   6.661   2.485
12713WAT    EPW51560   0.426   6.670   2.533
12714WAT      O51561   0.369   5.098   1.500
12714WAT     H151562   0.323   5.058   1.437
12714WAT     H251563   0.446   5.113   1.462
12714WAT    EPW51564   0.373   5.094   1.485
12715WAT      O51565   1.051   6.734   1.839
12715WAT     H151566   1.006   6.805   1.859
12715WAT     H251567   0.990   6.677   1.814
12715WAT    EPW51568   1.035   6.736   1.838
12716WAT      O51569   0.228   5.335   1.952
12716WAT     H151570   0.236   5.391   1.886
12716WAT     H251571   0.240   5.384   2.023
12716WAT    EPW51572   0.231   5.350   1.953
12717WAT      O51573   0.751   6.318   1.793
12717WAT     H151574   0.821   6.270   1.812
12717WAT     H251575   0.685   6.261   1.798
12717WAT    EPW51576   0.751   6.303   1.796
12718WAT      O51577   0.608   5.352   2.541
12718WAT     H151578   0.598   5.384   2.621
12718WAT     H251579   0.548   5.288   2.537
12718WAT    EPW51580   0.597   5.347   2.552
12719WAT      O51581   0.677   6.024   2.361
12719WAT     H151582   0.626   5.982   2.418
12719WAT     H251583   0.665   6.108   2.379
12719WAT    EPW51584   0.668   6.030   2.372
12720WAT      O51585   0.733   4.946   1.824
12720WAT     H151586   0.738   4.914   1.905
12720WAT     H251587   0.765   4.882   1.775
12720WAT    EPW51588   0.739   4.932   1.829
12721WAT      O51589   0.980   5.370   2.655
12721WAT     H151590   1.057   5.347   2.689
12721WAT     H251591   0.932   5.391   2.725
12721WAT    EPW51592   0.984   5.370   2.670
12722WAT      O51593   1.003   6.067   1.374
12722WAT     H151594   1.015   6.039   1.455
12722WAT     H251595   1.083   6.070   1.341
12722WAT    EPW51596   1.016   6.064   1.381
12723WAT      O51597   1.226   6.518   2.799
12723WAT     H151598   1.158   6.549   2.755
12723WAT     H251599   1.189   6.473   2.864
12723WAT    EPW51600   1.211   6.516   2.802
12724WAT      O51601   0.792   5.721   1.332
12724WAT     H151602   0.770   5.794   1.290
12724WAT     H251603   0.747   5.726   1.407
12724WAT    EPW51604   0.782   5.733   1.337
12725WAT      O51605   1.211   5.207   1.278
12725WAT     H151606   1.145   5.150   1.280
12725WAT     H251607   1.192   5.258   1.210
12725WAT    EPW51608   1.198   5.206   1.268
12726WAT      O51609   1.243   5.645   2.533
12726WAT     H151610   1.265   5.565   2.506
12726WAT     H251611   1.158   5.651   2.514
12726WAT    EPW51612   1.234   5.634   2.526
12727WAT      O51613   1.011   5.163   1.506
12727WAT     H151614   1.086   5.122   1.525
12727WAT     H251615   1.037   5.235   1.463
12727WAT    EPW51616   1.026   5.168   1.502
12728WAT      O51617   0.405   6.412   1.963
12728WAT     H151618   0.353   6.475   1.934
12728WAT     H251619   0.436   6.375   1.890
12728WAT    EPW51620   0.402   6.416   1.948
12729WAT      O51621   0.657   5.392   2.013
12729WAT     H151622   0.691   5.407   2.092
12729WAT     H251623   0.611   5.318   2.024
12729WAT    EPW51624   0.655   5.383   2.026
12730WAT      O51625   1.010   6.557   2.608
12730WAT     H151626   0.942   6.608   2.630
12730WAT     H251627   1.016   6.567   2.522
12730WAT    EPW51628   1.001   6.566   2.599
12731WAT      O51629   0.789   5.525   2.268
12731WAT     H151630   0.722   5.558   2.315
12731WAT     H251631   0.807   5.588   2.211
12731WAT    EPW51632   0.782   5.539   2.267
12732WAT      O51633   0.209   6.631   2.368
12732WAT     H151634   0.181   6.567   2.316
12732WAT     H251635   0.188   6.704   2.324
12732WAT    EPW51636   0.202   6.633   2.354
12733WAT      O51637   0.453   5.116   2.611
12733WAT     H151638   0.468   5.033   2.587
12733WAT     H251639   0.491   5.121   2.690
12733WAT    EPW51640   0.461   5.104   2.619
12734WAT      O51641   0.608   5.322   1.619
12734WAT     H151642   0.657   5.394   1.612
12734WAT     H251643   0.529   5.348   1.593
12734WAT    EPW51644   0.604   5.336   1.614
12735WAT      O51645   0.739   6.110   2.810
12735WAT     H151646   0.788   6.182   2.820
12735WAT     H251647   0.779   6.067   2.745
12735WAT    EPW51648   0.752   6.114   2.802
12736WAT      O51649   0.266   5.469   2.192
12736WAT     H151650   0.314   5.539   2.213
12736WAT     H251651   0.303   5.404   2.237
12736WAT    EPW51652   0.279   5.470   2.202
12737WAT      O51653   0.485   5.786   1.419
12737WAT     H151654   0.484   5.858   1.370
12737WAT     H251655   0.421   5.799   1.477
12737WAT    EPW51656   0.476   5.799   1.421
12738WAT      O51657   0.982   6.173   1.817
12738WAT     H151658   1.018   6.138   1.889
12738WAT     H251659   0.981   6.107   1.760
12738WAT    EPW51660   0.987   6.158   1.819
12739WAT      O51661   0.587   6.479   2.202
12739WAT     H151662   0.526   6.450   2.146
12739WAT     H251663   0.641   6.525   2.151
12739WAT    EPW51664   0.586   6.482   2.186
12740WAT      O51665   0.588   6.165   2.142
12740WAT     H151666   0.508   6.187   2.169
12740WAT     H251667   0.614   6.105   2.200
12740WAT    EPW51668   0.580   6.159   2.154
12741WAT      O51669   0.206   6.597   1.427
12741WAT     H151670   0.269   6.614   1.486
12741WAT     H251671   0.210   6.666   1.374
12741WAT    EPW51672   0.216   6.610   1.428
12742WAT      O51673   0.914   5.964   2.626
12742WAT     H151674   0.920   5.977   2.540
12742WAT     H251675   0.989   5.996   2.657
12742WAT    EPW51676   0.926   5.971   2.618
12743WAT      O51677   0.533   6.499   3.054
12743WAT     H151678   0.550   6.528   3.135
12743WAT     H251679   0.559   6.565   3.004
12743WAT    EPW51680   0.539   6.513   3.059
12744WAT      O51681   1.017   4.994   2.925
12744WAT     H151682   0.954   4.954   2.881
12744WAT     H251683   1.020   4.951   3.001
12744WAT    EPW51684   1.008   4.982   2.930
12745WAT      O51685   0.487   5.945   2.586
12745WAT     H151686   0.472   6.006   2.647
12745WAT     H251687   0.541   5.889   2.627
12745WAT    EPW51688   0.493   5.946   2.601
12746WAT      O51689   0.326   5.785   1.652
12746WAT     H151690   0.331   5.850   1.710
12746WAT     H251691   0.307   5.715   1.701
12746WAT    EPW51692   0.324   5.784   1.668
12747WAT      O51693   0.848   6.218   2.239
12747WAT     H151694   0.800   6.248   2.172
12747WAT     H251695   0.813   6.140   2.257
12747WAT    EPW51696   0.836   6.211   2.232
12748WAT      O51697   0.248   5.990   2.095
12748WAT     H151698   0.163   5.970   2.103
12748WAT     H251699   0.280   5.973   2.175
12748WAT    EPW51700   0.240   5.984   2.108
12749WAT      O51701   1.217   6.634   1.433
12749WAT     H151702   1.287   6.588   1.408
12749WAT     H251703   1.163   6.575   1.467
12749WAT    EPW51704   1.220   6.619   1.434
12750WAT      O51705   0.941   5.912   2.351
12750WAT     H151706   0.941   5.834   2.391
12750WAT     H251707   0.857   5.935   2.350
12750WAT    EPW51708   0.929   5.904   2.357
12751WAT      O51709   1.067   5.919   2.095
12751WAT     H151710   1.038   5.959   2.167
12751WAT     H251711   1.153   5.913   2.107
12751WAT    EPW51712   1.075   5.924   2.107
12752WAT      O51713   0.833   5.312   2.949
12752WAT     H151714   0.781   5.357   3.001
12752WAT     H251715   0.797   5.232   2.948
12752WAT    EPW51716   0.820   5.307   2.956
12753WAT      O51717   1.180   6.482   2.148
12753WAT     H151718   1.209   6.508   2.069
12753WAT     H251719   1.249   6.492   2.199
12753WAT    EPW51720   1.195   6.488   2.144
12754WAT      O51721   0.682   5.668   2.956
12754WAT     H151722   0.690   5.679   3.043
12754WAT     H251723   0.619   5.724   2.934
12754WAT    EPW51724   0.674   5.678   2.966
12755WAT      O51725   0.909   5.700   2.793
12755WAT     H151726   0.941   5.779   2.813
12755WAT     H251727   0.872   5.673   2.867
12755WAT    EPW51728   0.908   5.708   2.807
12756WAT      O51729   0.840   6.343   1.346
12756WAT     H151730   0.874   6.262   1.349
12756WAT     H251731   0.765   6.336   1.389
12756WAT    EPW51732   0.834   6.330   1.353
12757WAT      O51733   0.889   5.526   1.912
12757WAT     H151734   0.814   5.494   1.943
12757WAT     H251735   0.889   5.609   1.940
12757WAT    EPW51736   0.878   5.534   1.920
12758WAT      O51737   1.179   5.755   3.066
12758WAT     H151738   1.174   5.720   2.986
12758WAT     H251739   1.253   5.801   3.064
12758WAT    EPW51740   1.189   5.756   3.054
12759WAT      O51741   1.133   6.122   2.687
12759WAT     H151742   1.195   6.067   2.661
12759WAT     H251743   1.127   6.179   2.621
12759WAT    EPW51744   1.141   6.122   2.673
12760WAT      O51745   0.578   6.130   1.286
12760WAT     H151746   0.646   6.079   1.269
12760WAT     H251747   0.536   6.135   1.210
12760WAT    EPW51748   0.582   6.123   1.272
12761WAT      O51749   0.780   5.159   2.658
12761WAT     H151750   0.854   5.204   2.651
12761WAT     H251751   0.723   5.206   2.611
12761WAT    EPW51752   0.783   5.173   2.650
12762WAT      O51753   0.298   5.888   2.366
12762WAT     H151754   0.345   5.925   2.428
12762WAT     H251755   0.215   5.901   2.391
12762WAT    EPW51756   0.293   5.895   2.379
12763WAT      O51757   0.224   6.627   1.888
12763WAT     H151758   0.279   6.695   1.894
12763WAT     H251759   0.189   6.635   1.809
12763WAT    EPW51760   0.227   6.638   1.877
12764WAT      O51761   0.908   4.957   2.425
12764WAT     H151762   0.880   5.040   2.420
12764WAT     H251763   0.980   4.962   2.474
12764WAT    EPW51764   0.915   4.970   2.431
12765WAT      O51765   0.473   6.113   2.926
12765WAT     H151766   0.549   6.142   2.894
12765WAT     H251767   0.419   6.118   2.858
12765WAT    EPW51768   0.476   6.118   2.911
12766WAT      O51769   0.864   6.368   2.777
12766WAT     H151770   0.899   6.395   2.852
12766WAT     H251771   0.894   6.426   2.719
12766WAT    EPW51772   0.874   6.381   2.779
12767WAT      O51773   1.050   5.583   1.310
12767WAT     H151774   1.088   5.650   1.270
12767WAT     H251775   0.966   5.605   1.314
12767WAT    EPW51776   1.044   5.596   1.305
12768WAT      O51777   0.596   5.444   2.793
12768WAT     H151778   0.532   5.491   2.828
12768WAT     H251779   0.653   5.435   2.859
12768WAT    EPW51780   0.595   5.450   2.808
12769WAT      O51781   0.565   5.598   2.423
12769WAT     H151782   0.595   5.640   2.493
12769WAT     H251783   0.569   5.514   2.446
12769WAT    EPW51784   0.570   5.592   2.437
12770WAT      O51785   0.308   6.615   2.815
12770WAT     H151786   0.355   6.555   2.774
12770WAT     H251787   0.273   6.570   2.882
12770WAT    EPW51788   0.310   6.599   2.819
12771WAT      O51789   0.820   5.543   1.648
12771WAT     H151790   0.841   5.522   1.730
12771WAT     H251791   0.896   5.569   1.614
12771WAT    EPW51792   0.834   5.544   1.655
12772WAT      O51793   0.922   5.151   1.795
12772WAT     H151794   0.851   5.104   1.812
12772WAT     H251795   0.906   5.185   1.717
12772WAT    EPW51796   0.909   5.149   1.786
12773WAT      O51797   0.966   5.945   1.633
12773WAT     H151798   1.014   5.872   1.629
12773WAT     H251799   0.884   5.917   1.626
12773WAT    EPW51800   0.961   5.930   1.631
12774WAT      O51801   0.314   6.136   2.717
12774WAT     H151802   0.234   6.130   2.752
12774WAT     H251803   0.321   6.221   2.698
12774WAT    EPW51804   0.303   6.148   2.720
12775WAT      O51805   0.588   6.062   1.869
12775WAT     H151806   0.596   6.096   1.949
12775WAT     H251807   0.605   5.977   1.881
12775WAT    EPW51808   0.592   6.054   1.882
12776WAT      O51809   0.340   5.989   1.825
12776WAT     H151810   0.310   5.958   1.901
12776WAT     H251811   0.410   6.037   1.849
12776WAT    EPW51812   0.346   5.992   1.840
12777WAT      O51813   0.362   6.401   2.628
12777WAT     H151814   0.431   6.390   2.681
12777WAT     H251815   0.376   6.480   2.594
12777WAT    EPW51816   0.375   6.411   2.631
12778WAT      O51817   1.180   5.662   2.809
12778WAT     H151818   1.095   5.650   2.822
12778WAT     H251819   1.195   5.623   2.733
12778WAT    EPW51820   1.170   5.654   2.800
12779WAT      O51821   0.631   5.729   2.667
12779WAT     H151822   0.606   5.657   2.709
12779WAT     H251823   0.713   5.740   2.694
12779WAT    EPW51824   0.640   5.720   2.677
12780WAT      O51825   0.425   5.848   2.985
12780WAT     H151826   0.457   5.916   2.942
12780WAT     H251827   0.354   5.880   3.026
12780WAT    EPW51828   0.419   5.862   2.985
12781WAT      O51829   0.733   6.685   2.078
12781WAT     H151830   0.688   6.749   2.116
12781WAT     H251831   0.804   6.677   2.129
12781WAT    EPW51832   0.737   6.693   2.091
12782WAT      O51833   0.403   6.194   2.371
12782WAT     H151834   0.334   6.234   2.406
12782WAT     H251835   0.471   6.237   2.405
12782WAT    EPW51836   0.403   6.206   2.381
12783WAT      O51837   0.941   6.453   3.029
12783WAT     H151838   1.019   6.414   3.038
12783WAT     H251839   0.894   6.420   3.095
12783WAT    EPW51840   0.945   6.443   3.040
12784WAT      O51841   1.043   5.657   1.578
12784WAT     H151842   1.054   5.651   1.491
12784WAT     H251843   1.118   5.623   1.609
12784WAT    EPW51844   1.056   5.651   1.569
12785WAT      O51845   0.435   6.353   1.688
12785WAT     H151846   0.415   6.436   1.672
12785WAT     H251847   0.358   6.315   1.700
12785WAT    EPW51848   0.421   6.360   1.688
12786WAT      O51849   0.954   5.671   2.513
12786WAT     H151850   0.953   5.585   2.526
12786WAT     H251851   0.960   5.704   2.594
12786WAT    EPW51852   0.955   5.663   2.527
12787WAT      O51853   0.542   5.151   2.891
12787WAT     H151854   0.551   5.222   2.941
12787WAT     H251855   0.478   5.107   2.931
12787WAT    EPW51856   0.533   5.155   2.905
12788WAT      O51857   0.441   5.170   1.977
12788WAT     H151858   0.371   5.222   1.971
12788WAT     H251859   0.445   5.132   1.898
12788WAT    EPW51860   0.431   5.172   1.964
12789WAT      O51861   0.801   5.222   2.257
12789WAT     H151862   0.886   5.232   2.271
12789WAT     H251863   0.764   5.277   2.313
12789WAT    EPW51864   0.808   5.231   2.267
12790WAT      O51865   0.831   5.750   2.106
12790WAT     H151866   0.898   5.804   2.122
12790WAT     H251867   0.797   5.781   2.032
12790WAT    EPW51868   0.836   5.762   2.097
12791WAT      O51869   0.862   6.556   1.687
12791WAT     H151870   0.845   6.491   1.742
12791WAT     H251871   0.934   6.529   1.644
12791WAT    EPW51872   0.870   6.543   1.688
12792WAT      O51873   1.148   5.006   2.572
12792WAT     H151874   1.143   5.001   2.659
12792WAT     H251875   1.217   4.955   2.553
12792WAT    EPW51876   1.158   4.998   2.582
12793WAT      O51877   0.357   5.217   2.277
12793WAT     H151878   0.283   5.171   2.288
12793WAT     H251879   0.414   5.177   2.329
12793WAT    EPW51880   0.354   5.204   2.286
12794WAT      O51881   0.630   6.302   2.456
12794WAT     H151882   0.651   6.332   2.535
12794WAT     H251883   0.624   6.374   2.407
12794WAT    EPW51884   0.632   6.317   2.460
12795WAT      O51885   0.583   6.723   2.880
12795WAT     H151886   0.508   6.721   2.836
12795WAT     H251887   0.600   6.808   2.889
12795WAT    EPW51888   0.575   6.735   2.875
12796WAT      O51889   1.111   6.166   2.401
12796WAT     H151890   1.108   6.079   2.388
12796WAT     H251891   1.042   6.196   2.358
12796WAT    EPW51892   1.100   6.157   2.393
12797WAT      O51893   0.922   6.492   2.281
12797WAT     H151894   0.974   6.483   2.212
12797WAT     H251895   0.883   6.414   2.287
12797WAT    EPW51896   0.924   6.479   2.272
12798WAT      O51897   0.573   5.036   2.202
12798WAT     H151898   0.640   5.090   2.215
12798WAT     H251899   0.523   5.078   2.145
12798WAT    EPW51900   0.576   5.050   2.195
12799WAT      O51901   0.509   5.617   1.951
12799WAT     H151902   0.564   5.556   1.981
12799WAT     H251903   0.466   5.643   2.023
12799WAT    EPW51904   0.511   5.612   1.966
12800WAT      O51905   0.706   5.800   1.607
12800WAT     H151906   0.713   5.715   1.626
12800WAT     H251907   0.624   5.808   1.580
12800WAT    EPW51908   0.695   5.789   1.606
12801WAT      O51909   1.014   6.695   1.249
12801WAT     H151910   1.078   6.682   1.307
12801WAT     H251911   0.980   6.616   1.238
12801WAT    EPW51912   1.018   6.682   1.256
12802WAT      O51913   1.033   5.937   2.923
12802WAT     H151914   1.097   5.920   2.980
12802WAT     H251915   1.075   5.977   2.857
12802WAT    EPW51916   1.049   5.941   2.921
12803WAT      O51917   0.621   6.322   1.481
12803WAT     H151918   0.596   6.309   1.564
12803WAT     H251919   0.590   6.252   1.439
12803WAT    EPW51920   0.613   6.310   1.487
12804WAT      O51921   1.096   5.394   2.996
12804WAT     H151922   1.076   5.458   3.052
12804WAT     H251923   1.024   5.345   2.996
12804WAT    EPW51924   1.082   5.396   3.004
12805WAT      O51925   1.086   5.488   2.293
12805WAT     H151926   1.002   5.513   2.286
12805WAT     H251927   1.080   5.404   2.316
12805WAT    EPW51928   1.073   5.479   2.296
12806WAT      O51929   0.774   5.948   3.058
12806WAT     H151930   0.862   5.945   3.054
12806WAT     H251931   0.753   5.990   2.985
12806WAT    EPW51932   0.784   5.954   3.047
12807WAT      O51933   0.310   6.143   1.424
12807WAT     H151934   0.382   6.108   1.389
12807WAT     H251935   0.307   6.223   1.390
12807WAT    EPW51936   0.320   6.149   1.414
12808WAT      O51937   0.432   5.698   0.315
12808WAT     H151938   0.379   5.758   0.352
12808WAT     H251939   0.471   5.662   0.384
12808WAT    EPW51940   0.430   5.702   0.331
12809WAT      O51941   0.380   5.604   0.925
12809WAT     H151942   0.295   5.594   0.907
12809WAT     H251943   0.383   5.679   0.970
12809WAT    EPW51944   0.368   5.614   0.929
12810WAT      O51945   0.836   4.900   0.836
12810WAT     H151946   0.820   4.977   0.798
12810WAT     H251947   0.759   4.878   0.871
12810WAT    EPW51948   0.822   4.908   0.836
12811WAT      O51949   0.653   6.638   0.528
12811WAT     H151950   0.727   6.684   0.527
12811WAT     H251951   0.641   6.617   0.444
12811WAT    EPW51952   0.662   6.642   0.515
12812WAT      O51953   0.275   5.033   1.002
12812WAT     H151954   0.292   4.952   0.975
12812WAT     H251955   0.260   5.077   0.928
12812WAT    EPW51956   0.275   5.028   0.987
12813WAT      O51957   1.089   5.194   0.454
12813WAT     H151958   1.165   5.201   0.411
12813WAT     H251959   1.095   5.116   0.494
12813WAT    EPW51960   1.101   5.183   0.454
12814WAT      O51961   0.578   6.357   0.898
12814WAT     H151962   0.575   6.395   0.977
12814WAT     H251963   0.664   6.353   0.881
12814WAT    EPW51964   0.590   6.362   0.907
12815WAT      O51965   0.423   6.673   0.648
12815WAT     H151966   0.500   6.665   0.607
12815WAT     H251967   0.365   6.661   0.584
12815WAT    EPW51968   0.426   6.670   0.633
12816WAT      O51969   0.608   5.352   0.640
12816WAT     H151970   0.598   5.384   0.721
12816WAT     H251971   0.548   5.288   0.636
12816WAT    EPW51972   0.597   5.347   0.651
12817WAT      O51973   0.677   6.024   0.461
12817WAT     H151974   0.626   5.982   0.518
12817WAT     H251975   0.665   6.108   0.479
12817WAT    EPW51976   0.668   6.030   0.472
12818WAT      O51977   0.980   5.370   0.754
12818WAT     H151978   1.057   5.347   0.788
12818WAT     H251979   0.932   5.391   0.824
12818WAT    EPW51980   0.984   5.370   0.770
12819WAT      O51981   1.226   6.518   0.899
12819WAT     H151982   1.158   6.549   0.854
12819WAT     H251983   1.189   6.473   0.963
12819WAT    EPW51984   1.211   6.516   0.902
12820WAT      O51985   1.243   5.645   0.633
12820WAT     H151986   1.265   5.565   0.605
12820WAT     H251987   1.158   5.651   0.614
12820WAT    EPW51988   1.234   5.634   0.626
12821WAT      O51989   1.010   6.557   0.708
12821WAT     H151990   0.942   6.608   0.729
12821WAT     H251991   1.016   6.567   0.621
12821WAT    EPW51992   1.001   6.566   0.698
12822WAT      O51993   0.789   5.525   0.368
12822WAT     H151994   0.722   5.558   0.414
12822WAT     H251995   0.807   5.588   0.311
12822WAT    EPW51996   0.782   5.539   0.366
12823WAT      O51997   0.209   6.631   0.467
12823WAT     H151998   0.181   6.567   0.415
12823WAT     H251999   0.188   6.704   0.423
12823WAT    EPW52000   0.202   6.633   0.453
12824WAT      O52001   0.453   5.116   0.711
12824WAT     H152002   0.468   5.033   0.686
12824WAT     H252003   0.491   5.121   0.789
12824WAT    EPW52004   0.461   5.104   0.719
12825WAT      O52005   0.739   6.110   0.910
12825WAT     H152006   0.788   6.182   0.920
12825WAT     H252007   0.779   6.067   0.845
12825WAT    EPW52008   0.752   6.114   0.902
12826WAT      O52009   0.266   5.469   0.291
12826WAT     H152010   0.314   5.539   0.312
12826WAT     H252011   0.303   5.404   0.336
12826WAT    EPW52012   0.279   5.470   0.301
12827WAT      O52013   0.587   6.479   0.301
12827WAT     H152014   0.526   6.450   0.245
12827WAT     H252015   0.641   6.525   0.250
12827WAT    EPW52016   0.586   6.482   0.285
12828WAT      O52017   0.588   6.165   0.241
12828WAT     H152018   0.508   6.187   0.269
12828WAT     H252019   0.614   6.105   0.300
12828WAT    EPW52020   0.580   6.159   0.254
12829WAT      O52021   0.914   5.964   0.726
12829WAT     H152022   0.920   5.977   0.640
12829WAT     H252023   0.989   5.996   0.756
12829WAT    EPW52024   0.926   5.971   0.717
12830WAT      O52025   0.533   6.499   1.153
12830WAT     H152026   0.550   6.528   1.234
12830WAT     H252027   0.559   6.565   1.103
12830WAT    EPW52028   0.539   6.513   1.158
12831WAT      O52029   1.017   4.994   1.024
12831WAT     H152030   0.954   4.954   0.980
12831WAT     H252031   1.020   4.951   1.100
12831WAT    EPW52032   1.008   4.982   1.029
12832WAT      O52033   0.487   5.945   0.686
12832WAT     H152034   0.472   6.006   0.746
12832WAT     H252035   0.541   5.889   0.726
12832WAT    EPW52036   0.493   5.946   0.701
12833WAT      O52037   0.848   6.218   0.338
12833WAT     H152038   0.800   6.248   0.272
12833WAT     H252039   0.813   6.140   0.356
12833WAT    EPW52040   0.836   6.211   0.331
12834WAT      O52041   0.248   5.990   0.195
12834WAT     H152042   0.163   5.970   0.203
12834WAT     H252043   0.280   5.973   0.274
12834WAT    EPW52044   0.240   5.984   0.208
12835WAT      O52045   0.941   5.912   0.450
12835WAT     H152046   0.941   5.834   0.490
12835WAT     H252047   0.857   5.935   0.450
12835WAT    EPW52048   0.929   5.904   0.456
12836WAT      O52049   1.067   5.919   0.194
12836WAT     H152050   1.038   5.959   0.266
12836WAT     H252051   1.153   5.913   0.207
12836WAT    EPW52052   1.075   5.924   0.207
12837WAT      O52053   0.833   5.312   1.048
12837WAT     H152054   0.781   5.357   1.100
12837WAT     H252055   0.797   5.232   1.047
12837WAT    EPW52056   0.820   5.307   1.056
12838WAT      O52057   1.180   6.482   0.247
12838WAT     H152058   1.209   6.508   0.169
12838WAT     H252059   1.249   6.492   0.299
12838WAT    EPW52060   1.195   6.488   0.243
12839WAT      O52061   0.682   5.668   1.056
12839WAT     H152062   0.690   5.679   1.142
12839WAT     H252063   0.619   5.724   1.034
12839WAT    EPW52064   0.674   5.678   1.065
12840WAT      O52065   0.909   5.700   0.892
12840WAT     H152066   0.941   5.779   0.912
12840WAT     H252067   0.872   5.673   0.966
12840WAT    EPW52068   0.908   5.708   0.906
12841WAT      O52069   1.179   5.755   1.166
12841WAT     H152070   1.174   5.720   1.086
12841WAT     H252071   1.253   5.801   1.163
12841WAT    EPW52072   1.189   5.756   1.153
12842WAT      O52073   1.133   6.122   0.786
12842WAT     H152074   1.195   6.067   0.761
12842WAT     H252075   1.127   6.179   0.720
12842WAT    EPW52076   1.141   6.122   0.773
12843WAT      O52077   0.780   5.159   0.757
12843WAT     H152078   0.854   5.204   0.751
12843WAT     H252079   0.723   5.206   0.710
12843WAT    EPW52080   0.783   5.173   0.749
12844WAT      O52081   0.298   5.888   0.465
12844WAT     H152082   0.345   5.925   0.528
12844WAT     H252083   0.215   5.901   0.491
12844WAT    EPW52084   0.293   5.895   0.478
12845WAT      O52085   0.908   4.957   0.524
12845WAT     H152086   0.880   5.040   0.520
12845WAT     H252087   0.980   4.962   0.574
12845WAT    EPW52088   0.915   4.970   0.531
12846WAT      O52089   0.473   6.113   1.026
12846WAT     H152090   0.549   6.142   0.993
12846WAT     H252091   0.419   6.118   0.958
12846WAT    EPW52092   0.476   6.118   1.011
12847WAT      O52093   0.864   6.368   0.876
12847WAT     H152094   0.899   6.395   0.951
12847WAT     H252095   0.894   6.426   0.818
12847WAT    EPW52096   0.874   6.381   0.879
12848WAT      O52097   0.596   5.444   0.892
12848WAT     H152098   0.532   5.491   0.927
12848WAT     H252099   0.653   5.435   0.958
12848WAT    EPW52100   0.595   5.450   0.907
12849WAT      O52101   0.565   5.598   0.522
12849WAT     H152102   0.595   5.640   0.592
12849WAT     H252103   0.569   5.514   0.545
12849WAT    EPW52104   0.570   5.592   0.536
12850WAT      O52105   0.308   6.615   0.915
12850WAT     H152106   0.355   6.555   0.873
12850WAT     H252107   0.273   6.570   0.981
12850WAT    EPW52108   0.310   6.599   0.918
12851WAT      O52109   0.314   6.136   0.817
12851WAT     H152110   0.234   6.130   0.852
12851WAT     H252111   0.321   6.221   0.797
12851WAT    EPW52112   0.303   6.148   0.819
12852WAT      O52113   0.362   6.401   0.727
12852WAT     H152114   0.431   6.390   0.780
12852WAT     H252115   0.376   6.480   0.693
12852WAT    EPW52116   0.375   6.411   0.730
12853WAT      O52117   1.180   5.662   0.909
12853WAT     H152118   1.095   5.650   0.921
12853WAT     H252119   1.195   5.623   0.832
12853WAT    EPW52120   1.170   5.654   0.899
12854WAT      O52121   0.631   5.729   0.766
12854WAT     H152122   0.606   5.657   0.808
12854WAT     H252123   0.713   5.740   0.793
12854WAT    EPW52124   0.640   5.720   0.776
12855WAT      O52125   0.425   5.848   1.085
12855WAT     H152126   0.457   5.916   1.042
12855WAT     H252127   0.354   5.880   1.125
12855WAT    EPW52128   0.419   5.862   1.084
12856WAT      O52129   0.733   6.685   0.178
12856WAT     H152130   0.688   6.749   0.216
12856WAT     H252131   0.804   6.677   0.228
12856WAT    EPW52132   0.737   6.693   0.191
12857WAT      O52133   0.403   6.194   0.471
12857WAT     H152134   0.334   6.234   0.505
12857WAT     H252135   0.471   6.237   0.505
12857WAT    EPW52136   0.403   6.206   0.481
12858WAT      O52137   0.941   6.453   1.129
12858WAT     H152138   1.019   6.414   1.137
12858WAT     H252139   0.894   6.420   1.194
12858WAT    EPW52140   0.945   6.443   1.140
12859WAT      O52141   0.954   5.671   0.613
12859WAT     H152142   0.953   5.585   0.625
12859WAT     H252143   0.960   5.704   0.693
12859WAT    EPW52144   0.955   5.663   0.626
12860WAT      O52145   0.542   5.151   0.991
12860WAT     H152146   0.551   5.222   1.040
12860WAT     H252147   0.478   5.107   1.030
12860WAT    EPW52148   0.533   5.155   1.004
12861WAT      O52149   0.801   5.222   0.356
12861WAT     H152150   0.886   5.232   0.371
12861WAT     H252151   0.764   5.277   0.413
12861WAT    EPW52152   0.808   5.231   0.367
12862WAT      O52153   1.148   5.006   0.672
12862WAT     H152154   1.143   5.001   0.759
12862WAT     H252155   1.217   4.955   0.653
12862WAT    EPW52156   1.158   4.998   0.682
12863WAT      O52157   0.357   5.217   0.376
12863WAT     H152158   0.283   5.171   0.388
12863WAT     H252159   0.414   5.177   0.429
12863WAT    EPW52160   0.354   5.204   0.386
12864WAT      O52161   0.630   6.302   0.555
12864WAT     H152162   0.651   6.332   0.634
12864WAT     H252163   0.624   6.374   0.507
12864WAT    EPW52164   0.632   6.317   0.560
12865WAT      O52165   0.583   6.723   0.980
12865WAT     H152166   0.508   6.721   0.936
12865WAT     H252167   0.600   6.808   0.988
12865WAT    EPW52168   0.575   6.735   0.974
12866WAT      O52169   1.111   6.166   0.501
12866WAT     H152170   1.108   6.079   0.487
12866WAT     H252171   1.042   6.196   0.457
12866WAT    EPW52172   1.100   6.157   0.492
12867WAT      O52173   0.922   6.492   0.381
12867WAT     H152174   0.974   6.483   0.311
12867WAT     H252175   0.883   6.414   0.386
12867WAT    EPW52176   0.924   6.479   0.371
12868WAT      O52177   0.573   5.036   0.301
12868WAT     H152178   0.640   5.090   0.314
12868WAT     H252179   0.523   5.078   0.244
12868WAT    EPW52180   0.576   5.050   0.295
12869WAT      O52181   1.033   5.937   1.022
12869WAT     H152182   1.097   5.920   1.079
12869WAT     H252183   1.075   5.977   0.957
12869WAT    EPW52184   1.049   5.941   1.021
12870WAT      O52185   1.096   5.394   1.096
12870WAT     H152186   1.076   5.458   1.151
12870WAT     H252187   1.024   5.345   1.095
12870WAT    EPW52188   1.082   5.396   1.104
12871WAT      O52189   1.086   5.488   0.393
12871WAT     H152190   1.002   5.513   0.386
12871WAT     H252191   1.080   5.404   0.416
12871WAT    EPW52192   1.073   5.479   0.395
12872WAT      O52193   0.774   5.948   1.157
12872WAT     H152194   0.862   5.945   1.154
12872WAT     H252195   0.753   5.990   1.084
12872WAT    EPW52196   0.784   5.954   1.146
12873WAT      O52197   0.451   3.159   7.451
12873WAT     H152198   0.426   3.208   7.383
12873WAT     H252199   0.537   3.152   7.441
12873WAT    EPW52200   0.460   3.165   7.439
12874WAT      O52201   1.046   4.595   7.215
12874WAT     H152202   1.116   4.543   7.215
12874WAT     H252203   0.987   4.550   7.168
12874WAT    EPW52204   1.048   4.580   7.208
12875WAT      O52205   0.699   3.957   7.586
12875WAT     H152206   0.707   3.958   7.499
12875WAT     H252207   0.640   3.894   7.600
12875WAT    EPW52208   0.691   3.948   7.575
12876WAT      O52209   0.178   4.398   7.773
12876WAT     H152210   0.213   4.318   7.776
12876WAT     H252211   0.244   4.449   7.747
12876WAT    EPW52212   0.193   4.394   7.769
12877WAT      O52213   0.183   4.343   7.394
12877WAT     H152214   0.217   4.279   7.442
12877WAT     H252215   0.207   4.322   7.313
12877WAT    EPW52216   0.192   4.331   7.389
12878WAT      O52217   0.582   3.516   6.890
12878WAT     H152218   0.537   3.584   6.921
12878WAT     H252219   0.594   3.466   6.961
12878WAT    EPW52220   0.577   3.519   6.905
12879WAT      O52221   0.592   4.750   7.101
12879WAT     H152222   0.665   4.798   7.111
12879WAT     H252223   0.615   4.671   7.129
12879WAT    EPW52224   0.606   4.746   7.106
12880WAT      O52225   0.409   4.790   7.300
12880WAT     H152226   0.430   4.842   7.366
12880WAT     H252227   0.486   4.772   7.262
12880WAT    EPW52228   0.423   4.795   7.304
12881WAT      O52229   1.122   3.514   7.520
12881WAT     H152230   1.087   3.581   7.562
12881WAT     H252231   1.058   3.454   7.521
12881WAT    EPW52232   1.107   3.515   7.526
12882WAT      O52233   0.334   3.678   7.482
12882WAT     H152234   0.363   3.655   7.403
12882WAT     H252235   0.407   3.686   7.529
12882WAT    EPW52236   0.349   3.676   7.477
12883WAT      O52237   0.406   3.712   6.994
12883WAT     H152238   0.434   3.791   7.019
12883WAT     H252239   0.329   3.728   6.958
12883WAT    EPW52240   0.399   3.726   6.992
12884WAT      O52241   0.810   4.909   7.141
12884WAT     H152242   0.877   4.894   7.086
12884WAT     H252243   0.846   4.901   7.220
12884WAT    EPW52244   0.825   4.906   7.144
12885WAT      O52245   0.292   4.529   6.976
12885WAT     H152246   0.274   4.583   7.041
12885WAT     H252247   0.369   4.558   6.946
12885WAT    EPW52248   0.301   4.541   6.981
12886WAT      O52249   0.643   3.318   7.081
12886WAT     H152250   0.697   3.250   7.089
12886WAT     H252251   0.649   3.358   7.158
12886WAT    EPW52252   0.652   3.314   7.094
12887WAT      O52253   0.369   3.556   7.212
12887WAT     H152254   0.318   3.490   7.187
12887WAT     H252255   0.374   3.606   7.141
12887WAT    EPW52256   0.362   3.554   7.198
12888WAT      O52257   0.369   3.250   7.202
12888WAT     H152258   0.323   3.210   7.139
12888WAT     H252259   0.446   3.266   7.164
12888WAT    EPW52260   0.373   3.247   7.187
12889WAT      O52261   1.051   4.886   7.541
12889WAT     H152262   1.006   4.958   7.561
12889WAT     H252263   0.990   4.829   7.516
12889WAT    EPW52264   1.035   4.888   7.540
12890WAT      O52265   0.228   3.487   7.654
12890WAT     H152266   0.236   3.544   7.588
12890WAT     H252267   0.240   3.536   7.725
12890WAT    EPW52268   0.231   3.503   7.655
12891WAT      O52269   0.751   4.470   7.495
12891WAT     H152270   0.821   4.422   7.514
12891WAT     H252271   0.685   4.413   7.499
12891WAT    EPW52272   0.751   4.455   7.498
12892WAT      O52273   0.733   3.098   7.526
12892WAT     H152274   0.738   3.066   7.607
12892WAT     H252275   0.765   3.034   7.477
12892WAT    EPW52276   0.739   3.084   7.531
12893WAT      O52277   1.003   4.220   7.076
12893WAT     H152278   1.015   4.191   7.157
12893WAT     H252279   1.083   4.222   7.043
12893WAT    EPW52280   1.016   4.216   7.083
12894WAT      O52281   0.792   3.873   7.034
12894WAT     H152282   0.770   3.946   6.992
12894WAT     H252283   0.747   3.878   7.109
12894WAT    EPW52284   0.782   3.885   7.039
12895WAT      O52285   1.211   3.359   6.980
12895WAT     H152286   1.145   3.303   6.982
12895WAT     H252287   1.192   3.411   6.912
12895WAT    EPW52288   1.198   3.359   6.970
12896WAT      O52289   1.011   3.315   7.207
12896WAT     H152290   1.086   3.275   7.227
12896WAT     H252291   1.037   3.387   7.165
12896WAT    EPW52292   1.026   3.320   7.204
12897WAT      O52293   0.405   4.564   7.665
12897WAT     H152294   0.353   4.627   7.636
12897WAT     H252295   0.436   4.527   7.592
12897WAT    EPW52296   0.402   4.568   7.650
12898WAT      O52297   0.657   3.544   7.715
12898WAT     H152298   0.691   3.559   7.793
12898WAT     H252299   0.611   3.470   7.726
12898WAT    EPW52300   0.655   3.535   7.728
12899WAT      O52301   0.608   3.474   7.321
12899WAT     H152302   0.657   3.546   7.314
12899WAT     H252303   0.529   3.500   7.295
12899WAT    EPW52304   0.604   3.489   7.316
12900WAT      O52305   0.485   3.938   7.121
12900WAT     H152306   0.484   4.010   7.072
12900WAT     H252307   0.421   3.952   7.179
12900WAT    EPW52308   0.476   3.951   7.122
12901WAT      O52309   0.982   4.325   7.519
12901WAT     H152310   1.018   4.290   7.591
12901WAT     H252311   0.981   4.259   7.462
12901WAT    EPW52312   0.987   4.310   7.521
12902WAT      O52313   0.588   4.317   7.844
12902WAT     H152314   0.508   4.339   7.871
12902WAT     H252315   0.614   4.257   7.902
12902WAT    EPW52316   0.580   4.311   7.856
12903WAT      O52317   0.206   4.750   7.129
12903WAT     H152318   0.269   4.766   7.188
12903WAT     H252319   0.210   4.819   7.075
12903WAT    EPW52320   0.216   4.762   7.130
12904WAT      O52321   0.326   3.937   7.354
12904WAT     H152322   0.331   4.002   7.412
12904WAT     H252323   0.307   3.868   7.403
12904WAT    EPW52324   0.324   3.936   7.370
12905WAT      O52325   0.248   4.142   7.797
12905WAT     H152326   0.163   4.122   7.805
12905WAT     H252327   0.280   4.125   7.876
12905WAT    EPW52328   0.240   4.137   7.810
12906WAT      O52329   1.217   4.787   7.135
12906WAT     H152330   1.287   4.740   7.110
12906WAT     H252331   1.163   4.727   7.169
12906WAT    EPW52332   1.220   4.771   7.136
12907WAT      O52333   1.067   4.071   7.797
12907WAT     H152334   1.038   4.111   7.869
12907WAT     H252335   1.153   4.065   7.809
12907WAT    EPW52336   1.075   4.076   7.809
12908WAT      O52337   1.180   4.635   7.849
12908WAT     H152338   1.209   4.660   7.771
12908WAT     H252339   1.249   4.644   7.901
12908WAT    EPW52340   1.195   4.640   7.846
12909WAT      O52341   0.840   4.495   7.048
12909WAT     H152342   0.874   4.414   7.051
12909WAT     H252343   0.765   4.488   7.091
12909WAT    EPW52344   0.834   4.482   7.055
12910WAT      O52345   0.889   3.678   7.614
12910WAT     H152346   0.814   3.646   7.645
12910WAT     H252347   0.889   3.761   7.642
12910WAT    EPW52348   0.878   3.686   7.622
12911WAT      O52349   0.578   4.282   6.988
12911WAT     H152350   0.646   4.231   6.971
12911WAT     H252351   0.536   4.287   6.911
12911WAT    EPW52352   0.582   4.276   6.974
12912WAT      O52353   0.224   4.779   7.590
12912WAT     H152354   0.279   4.847   7.596
12912WAT     H252355   0.189   4.787   7.511
12912WAT    EPW52356   0.227   4.790   7.579
12913WAT      O52357   1.050   3.735   7.012
12913WAT     H152358   1.088   3.803   6.972
12913WAT     H252359   0.966   3.757   7.015
12913WAT    EPW52360   1.044   3.748   7.007
12914WAT      O52361   0.820   3.695   7.350
12914WAT     H152362   0.841   3.675   7.432
12914WAT     H252363   0.896   3.722   7.316
12914WAT    EPW52364   0.834   3.696   7.357
12915WAT      O52365   0.922   3.303   7.497
12915WAT     H152366   0.851   3.256   7.514
12915WAT     H252367   0.906   3.337   7.419
12915WAT    EPW52368   0.909   3.301   7.488
12916WAT      O52369   0.966   4.097   7.335
12916WAT     H152370   1.014   4.025   7.330
12916WAT     H252371   0.884   4.069   7.328
12916WAT    EPW52372   0.961   4.082   7.333
12917WAT      O52373   0.588   4.214   7.571
12917WAT     H152374   0.596   4.248   7.651
12917WAT     H252375   0.605   4.129   7.583
12917WAT    EPW52376   0.592   4.207   7.584
12918WAT      O52377   0.340   4.142   7.527
12918WAT     H152378   0.310   4.110   7.603
12918WAT     H252379   0.410   4.189   7.551
12918WAT    EPW52380   0.346   4.144   7.542
12919WAT      O52381   0.733   4.837   7.780
12919WAT     H152382   0.688   4.901   7.818
12919WAT     H252383   0.804   4.829   7.831
12919WAT    EPW52384   0.737   4.845   7.793
12920WAT      O52385   1.043   3.809   7.279
12920WAT     H152386   1.054   3.803   7.193
12920WAT     H252387   1.118   3.776   7.311
12920WAT    EPW52388   1.056   3.803   7.271
12921WAT      O52389   0.435   4.505   7.390
12921WAT     H152390   0.415   4.589   7.374
12921WAT     H252391   0.358   4.467   7.402
12921WAT    EPW52392   0.421   4.512   7.390
12922WAT      O52393   0.441   3.322   7.679
12922WAT     H152394   0.371   3.374   7.673
12922WAT     H252395   0.445   3.284   7.600
12922WAT    EPW52396   0.431   3.324   7.666
12923WAT      O52397   0.831   3.902   7.808
12923WAT     H152398   0.898   3.956   7.824
12923WAT     H252399   0.797   3.933   7.734
12923WAT    EPW52400   0.836   3.915   7.799
12924WAT      O52401   0.862   4.709   7.388
12924WAT     H152402   0.845   4.643   7.443
12924WAT     H252403   0.934   4.681   7.346
12924WAT    EPW52404   0.870   4.695   7.390
12925WAT      O52405   0.509   3.769   7.653
12925WAT     H152406   0.564   3.708   7.683
12925WAT     H252407   0.466   3.795   7.725
12925WAT    EPW52408   0.511   3.764   7.668
12926WAT      O52409   0.706   3.952   7.309
12926WAT     H152410   0.713   3.867   7.327
12926WAT     H252411   0.624   3.961   7.282
12926WAT    EPW52412   0.695   3.941   7.308
12927WAT      O52413   1.014   4.848   6.951
12927WAT     H152414   1.078   4.834   7.009
12927WAT     H252415   0.980   4.768   6.939
12927WAT    EPW52416   1.018   4.834   6.958
12928WAT      O52417   0.621   4.474   7.183
12928WAT     H152418   0.596   4.461   7.266
12928WAT     H252419   0.590   4.405   7.141
12928WAT    EPW52420   0.613   4.462   7.189
12929WAT      O52421   0.310   4.295   7.126
12929WAT     H152422   0.382   4.260   7.091
12929WAT     H252423   0.307   4.375   7.092
12929WAT    EPW52424   0.320   4.302   7.116
12930WAT      O52425   0.451   3.159   5.550
12930WAT     H152426   0.426   3.208   5.482
12930WAT     H252427   0.537   3.152   5.540
12930WAT    EPW52428   0.460   3.165   5.539
12931WAT      O52429   0.432   3.851   6.017
12931WAT     H152430   0.379   3.910   6.054
12931WAT     H252431   0.471   3.814   6.086
12931WAT    EPW52432   0.430   3.854   6.033
12932WAT      O52433   1.046   4.595   5.314
12932WAT     H152434   1.116   4.543   5.314
12932WAT     H252435   0.987   4.550   5.267
12932WAT    EPW52436   1.048   4.580   5.307
12933WAT      O52437   0.699   3.957   5.685
12933WAT     H152438   0.707   3.958   5.598
12933WAT     H252439   0.640   3.894   5.700
12933WAT    EPW52440   0.691   3.948   5.674
12934WAT      O52441   0.178   4.398   5.872
12934WAT     H152442   0.213   4.318   5.875
12934WAT     H252443   0.244   4.449   5.846
12934WAT    EPW52444   0.193   4.394   5.869
12935WAT      O52445   0.183   4.343   5.493
12935WAT     H152446   0.217   4.279   5.542
12935WAT     H252447   0.207   4.322   5.412
12935WAT    EPW52448   0.192   4.331   5.488
12936WAT      O52449   0.380   3.756   6.627
12936WAT     H152450   0.295   3.746   6.609
12936WAT     H252451   0.383   3.831   6.672
12936WAT    EPW52452   0.368   3.766   6.631
12937WAT      O52453   0.836   3.052   6.538
12937WAT     H152454   0.820   3.129   6.500
12937WAT     H252455   0.759   3.030   6.573
12937WAT    EPW52456   0.822   3.060   6.538
12938WAT      O52457   0.582   3.516   4.990
12938WAT     H152458   0.537   3.584   5.020
12938WAT     H252459   0.594   3.466   5.060
12938WAT    EPW52460   0.577   3.519   5.005
12939WAT      O52461   0.592   4.750   5.200
12939WAT     H152462   0.665   4.798   5.210
12939WAT     H252463   0.615   4.671   5.228
12939WAT    EPW52464   0.606   4.746   5.206
12940WAT      O52465   0.409   4.790   5.399
12940WAT     H152466   0.430   4.842   5.465
12940WAT     H252467   0.486   4.772   5.361
12940WAT    EPW52468   0.423   4.795   5.403
12941WAT      O52469   1.122   3.514   5.619
12941WAT     H152470   1.087   3.581   5.662
12941WAT     H252471   1.058   3.454   5.621
12941WAT    EPW52472   1.107   3.515   5.626
12942WAT      O52473   0.653   4.791   6.230
12942WAT     H152474   0.727   4.836   6.229
12942WAT     H252475   0.641   4.769   6.146
12942WAT    EPW52476   0.662   4.794   6.217
12943WAT      O52477   0.275   3.185   6.704
12943WAT     H152478   0.292   3.104   6.676
12943WAT     H252479   0.260   3.229   6.630
12943WAT    EPW52480   0.275   3.180   6.689
12944WAT      O52481   0.334   3.678   5.581
12944WAT     H152482   0.363   3.655   5.502
12944WAT     H252483   0.407   3.686   5.628
12944WAT    EPW52484   0.349   3.676   5.577
12945WAT      O52485   0.406   3.712   5.093
12945WAT     H152486   0.434   3.791   5.118
12945WAT     H252487   0.329   3.728   5.057
12945WAT    EPW52488   0.399   3.726   5.092
12946WAT      O52489   0.810   4.909   5.240
12946WAT     H152490   0.877   4.894   5.186
12946WAT     H252491   0.846   4.901   5.319
12946WAT    EPW52492   0.825   4.906   5.244
12947WAT      O52493   1.089   3.346   6.156
12947WAT     H152494   1.165   3.353   6.113
12947WAT     H252495   1.095   3.269   6.196
12947WAT    EPW52496   1.101   3.336   6.156
12948WAT      O52497   0.578   4.509   6.600
12948WAT     H152498   0.575   4.547   6.678
12948WAT     H252499   0.664   4.505   6.583
12948WAT    EPW52500   0.590   4.514   6.609
12949WAT      O52501   0.292   4.529   5.075
12949WAT     H152502   0.274   4.583   5.141
12949WAT     H252503   0.369   4.558   5.045
12949WAT    EPW52504   0.301   4.541   5.080
12950WAT      O52505   0.643   3.318   5.180
12950WAT     H152506   0.697   3.250   5.188
12950WAT     H252507   0.649   3.358   5.258
12950WAT    EPW52508   0.652   3.314   5.193
12951WAT      O52509   0.369   3.556   5.312
12951WAT     H152510   0.318   3.490   5.286
12951WAT     H252511   0.374   3.606   5.241
12951WAT    EPW52512   0.362   3.554   5.298
12952WAT      O52513   0.423   4.826   6.350
12952WAT     H152514   0.500   4.818   6.309
12952WAT     H252515   0.365   4.813   6.286
12952WAT    EPW52516   0.426   4.823   6.334
12953WAT      O52517   0.369   3.250   5.301
12953WAT     H152518   0.323   3.210   5.238
12953WAT     H252519   0.446   3.266   5.263
12953WAT    EPW52520   0.373   3.247   5.286
12954WAT      O52521   1.051   4.886   5.640
12954WAT     H152522   1.006   4.958   5.660
12954WAT     H252523   0.990   4.829   5.616
12954WAT    EPW52524   1.035   4.888   5.639
12955WAT      O52525   0.228   3.487   5.753
12955WAT     H152526   0.236   3.544   5.687
12955WAT     H252527   0.240   3.536   5.824
12955WAT    EPW52528   0.231   3.503   5.754
12956WAT      O52529   0.751   4.470   5.594
12956WAT     H152530   0.821   4.422   5.613
12956WAT     H252531   0.685   4.413   5.599
12956WAT    EPW52532   0.751   4.455   5.598
12957WAT      O52533   0.608   3.504   6.342
12957WAT     H152534   0.598   3.536   6.422
12957WAT     H252535   0.548   3.440   6.338
12957WAT    EPW52536   0.597   3.499   6.353
12958WAT      O52537   0.677   4.176   6.162
12958WAT     H152538   0.626   4.135   6.219
12958WAT     H252539   0.665   4.260   6.180
12958WAT    EPW52540   0.668   4.182   6.173
12959WAT      O52541   0.733   3.098   5.625
12959WAT     H152542   0.738   3.066   5.707
12959WAT     H252543   0.765   3.034   5.576
12959WAT    EPW52544   0.739   3.084   5.630
12960WAT      O52545   0.980   3.522   6.456
12960WAT     H152546   1.057   3.499   6.490
12960WAT     H252547   0.932   3.544   6.526
12960WAT    EPW52548   0.984   3.522   6.472
12961WAT      O52549   1.003   4.220   5.175
12961WAT     H152550   1.015   4.191   5.257
12961WAT     H252551   1.083   4.222   5.142
12961WAT    EPW52552   1.016   4.216   5.182
12962WAT      O52553   1.226   4.671   6.600
12962WAT     H152554   1.158   4.702   6.556
12962WAT     H252555   1.189   4.625   6.665
12962WAT    EPW52556   1.211   4.668   6.603
12963WAT      O52557   0.792   3.873   5.134
12963WAT     H152558   0.770   3.946   5.091
12963WAT     H252559   0.747   3.878   5.208
12963WAT    EPW52560   0.782   3.885   5.138
12964WAT      O52561   1.211   3.359   5.079
12964WAT     H152562   1.145   3.303   5.081
12964WAT     H252563   1.192   3.411   5.011
12964WAT    EPW52564   1.198   3.359   5.069
12965WAT      O52565   1.243   3.797   6.334
12965WAT     H152566   1.265   3.717   6.307
12965WAT     H252567   1.158   3.803   6.316
12965WAT    EPW52568   1.234   3.786   6.328
12966WAT      O52569   1.011   3.315   5.307
12966WAT     H152570   1.086   3.275   5.327
12966WAT     H252571   1.037   3.387   5.264
12966WAT    EPW52572   1.026   3.320   5.303
12967WAT      O52573   0.405   4.564   5.764
12967WAT     H152574   0.353   4.627   5.735
12967WAT     H252575   0.436   4.527   5.691
12967WAT    EPW52576   0.402   4.568   5.749
12968WAT      O52577   0.657   3.544   5.814
12968WAT     H152578   0.691   3.559   5.893
12968WAT     H252579   0.611   3.470   5.825
12968WAT    EPW52580   0.655   3.535   5.827
12969WAT      O52581   1.010   4.709   6.409
12969WAT     H152582   0.942   4.760   6.431
12969WAT     H252583   1.016   4.719   6.323
12969WAT    EPW52584   1.001   4.718   6.400
12970WAT      O52585   0.789   3.677   6.069
12970WAT     H152586   0.722   3.710   6.116
12970WAT     H252587   0.807   3.741   6.013
12970WAT    EPW52588   0.782   3.691   6.068
12971WAT      O52589   0.209   4.784   6.169
12971WAT     H152590   0.181   4.720   6.117
12971WAT     H252591   0.188   4.856   6.125
12971WAT    EPW52592   0.202   4.785   6.155
12972WAT      O52593   0.453   3.268   6.412
12972WAT     H152594   0.468   3.185   6.388
12972WAT     H252595   0.491   3.273   6.491
12972WAT    EPW52596   0.461   3.256   6.420
12973WAT      O52597   0.608   3.474   5.421
12973WAT     H152598   0.657   3.546   5.413
12973WAT     H252599   0.529   3.500   5.394
12973WAT    EPW52600   0.604   3.489   5.416
12974WAT      O52601   0.739   4.262   6.612
12974WAT     H152602   0.788   4.334   6.621
12974WAT     H252603   0.779   4.219   6.546
12974WAT    EPW52604   0.752   4.266   6.603
12975WAT      O52605   0.266   3.621   5.993
12975WAT     H152606   0.314   3.691   6.014
12975WAT     H252607   0.303   3.556   6.038
12975WAT    EPW52608   0.279   3.622   6.003
12976WAT      O52609   0.485   3.938   5.220
12976WAT     H152610   0.484   4.010   5.171
12976WAT     H252611   0.421   3.952   5.278
12976WAT    EPW52612   0.476   3.951   5.222
12977WAT      O52613   0.982   4.325   5.619
12977WAT     H152614   1.018   4.290   5.690
12977WAT     H252615   0.981   4.259   5.562
12977WAT    EPW52616   0.987   4.310   5.621
12978WAT      O52617   0.587   4.632   6.003
12978WAT     H152618   0.526   4.602   5.947
12978WAT     H252619   0.641   4.677   5.952
12978WAT    EPW52620   0.586   4.634   5.987
12979WAT      O52621   0.588   4.317   5.943
12979WAT     H152622   0.508   4.339   5.970
12979WAT     H252623   0.614   4.257   6.001
12979WAT    EPW52624   0.580   4.311   5.956
12980WAT      O52625   0.206   4.750   5.228
12980WAT     H152626   0.269   4.766   5.287
12980WAT     H252627   0.210   4.819   5.175
12980WAT    EPW52628   0.216   4.762   5.229
12981WAT      O52629   0.914   4.117   6.428
12981WAT     H152630   0.920   4.129   6.341
12981WAT     H252631   0.989   4.149   6.458
12981WAT    EPW52632   0.926   4.123   6.419
12982WAT      O52633   0.533   4.651   6.855
12982WAT     H152634   0.550   4.680   6.936
12982WAT     H252635   0.559   4.718   6.805
12982WAT    EPW52636   0.539   4.665   6.860
12983WAT      O52637   1.017   3.146   6.726
12983WAT     H152638   0.954   3.106   6.682
12983WAT     H252639   1.020   3.103   6.802
12983WAT    EPW52640   1.008   3.134   6.731
12984WAT      O52641   0.487   4.097   6.388
12984WAT     H152642   0.472   4.158   6.448
12984WAT     H252643   0.541   4.041   6.428
12984WAT    EPW52644   0.493   4.098   6.402
12985WAT      O52645   0.326   3.937   5.453
12985WAT     H152646   0.331   4.002   5.511
12985WAT     H252647   0.307   3.868   5.502
12985WAT    EPW52648   0.324   3.936   5.469
12986WAT      O52649   0.848   4.370   6.040
12986WAT     H152650   0.800   4.400   5.974
12986WAT     H252651   0.813   4.292   6.058
12986WAT    EPW52652   0.836   4.363   6.033
12987WAT      O52653   0.248   4.142   5.896
12987WAT     H152654   0.163   4.122   5.905
12987WAT     H252655   0.280   4.125   5.976
12987WAT    EPW52656   0.240   4.137   5.909
12988WAT      O52657   1.217   4.787   5.234
12988WAT     H152658   1.287   4.740   5.209
12988WAT     H252659   1.163   4.727   5.268
12988WAT    EPW52660   1.220   4.771   5.236
12989WAT      O52661   0.941   4.064   6.152
12989WAT     H152662   0.941   3.987   6.192
12989WAT     H252663   0.857   4.088   6.151
12989WAT    EPW52664   0.929   4.056   6.158
12990WAT      O52665   1.067   4.071   5.896
12990WAT     H152666   1.038   4.111   5.968
12990WAT     H252667   1.153   4.065   5.909
12990WAT    EPW52668   1.075   4.076   5.908
12991WAT      O52669   0.833   3.464   6.750
12991WAT     H152670   0.781   3.510   6.802
12991WAT     H252671   0.797   3.384   6.749
12991WAT    EPW52672   0.820   3.459   6.757
12992WAT      O52673   1.180   4.635   5.949
12992WAT     H152674   1.209   4.660   5.871
12992WAT     H252675   1.249   4.644   6.001
12992WAT    EPW52676   1.195   4.640   5.945
12993WAT      O52677   0.682   3.821   6.757
12993WAT     H152678   0.690   3.831   6.844
12993WAT     H252679   0.619   3.876   6.735
12993WAT    EPW52680   0.674   3.830   6.767
12994WAT      O52681   0.909   3.853   6.594
12994WAT     H152682   0.941   3.931   6.614
12994WAT     H252683   0.872   3.826   6.668
12994WAT    EPW52684   0.908   3.860   6.608
12995WAT      O52685   0.840   4.495   5.147
12995WAT     H152686   0.874   4.414   5.150
12995WAT     H252687   0.765   4.488   5.190
12995WAT    EPW52688   0.834   4.482   5.154
12996WAT      O52689   0.889   3.678   5.713
12996WAT     H152690   0.814   3.646   5.745
12996WAT     H252691   0.889   3.761   5.741
12996WAT    EPW52692   0.878   3.686   5.722
12997WAT      O52693   1.179   3.907   6.867
12997WAT     H152694   1.174   3.873   6.787
12997WAT     H252695   1.253   3.953   6.865
12997WAT    EPW52696   1.189   3.909   6.855
12998WAT      O52697   1.133   4.274   6.488
12998WAT     H152698   1.195   4.219   6.462
12998WAT     H252699   1.127   4.331   6.422
12998WAT    EPW52700   1.141   4.275   6.474
12999WAT      O52701   0.578   4.282   5.087
12999WAT     H152702   0.646   4.231   5.070
12999WAT     H252703   0.536   4.287   5.011
12999WAT    EPW52704   0.582   4.276   5.073
13000WAT      O52705   0.780   3.311   6.459
13000WAT     H152706   0.854   3.357   6.453
13000WAT     H252707   0.723   3.358   6.412
13000WAT    EPW52708   0.783   3.325   6.451
13001WAT      O52709   0.298   4.040   6.167
13001WAT     H152710   0.345   4.077   6.230
13001WAT     H252711   0.215   4.053   6.193
13001WAT    EPW52712   0.293   4.047   6.180
13002WAT      O52713   0.224   4.779   5.690
13002WAT     H152714   0.279   4.847   5.695
13002WAT     H252715   0.189   4.787   5.610
13002WAT    EPW52716   0.227   4.790   5.679
13003WAT      O52717   0.908   3.109   6.226
13003WAT     H152718   0.880   3.192   6.222
13003WAT     H252719   0.980   3.115   6.276
13003WAT    EPW52720   0.915   3.122   6.233
13004WAT      O52721   0.473   4.265   6.727
13004WAT     H152722   0.549   4.294   6.695
13004WAT     H252723   0.419   4.270   6.660
13004WAT    EPW52724   0.476   4.270   6.712
13005WAT      O52725   0.864   4.520   6.578
13005WAT     H152726   0.899   4.547   6.653
13005WAT     H252727   0.894   4.578   6.520
13005WAT    EPW52728   0.874   4.533   6.580
13006WAT      O52729   1.050   3.735   5.112
13006WAT     H152730   1.088   3.803   5.072
13006WAT     H252731   0.966   3.757   5.115
13006WAT    EPW52732   1.044   3.748   5.106
13007WAT      O52733   0.596   3.596   6.594
13007WAT     H152734   0.532   3.643   6.629
13007WAT     H252735   0.653   3.587   6.660
13007WAT    EPW52736   0.595   3.602   6.609
13008WAT      O52737   0.565   3.750   6.224
13008WAT     H152738   0.595   3.792   6.294
13008WAT     H252739   0.569   3.666   6.247
13008WAT    EPW52740   0.570   3.744   6.238
13009WAT      O52741   0.308   4.767   6.616
13009WAT     H152742   0.355   4.707   6.575
13009WAT     H252743   0.273   4.722   6.683
13009WAT    EPW52744   0.310   4.751   6.620
13010WAT      O52745   0.820   3.695   5.449
13010WAT     H152746   0.841   3.675   5.532
13010WAT     H252747   0.896   3.722   5.415
13010WAT    EPW52748   0.834   3.696   5.456
13011WAT      O52749   0.922   3.303   5.597
13011WAT     H152750   0.851   3.256   5.614
13011WAT     H252751   0.906   3.337   5.518
13011WAT    EPW52752   0.909   3.301   5.587
13012WAT      O52753   0.966   4.097   5.435
13012WAT     H152754   1.014   4.025   5.430
13012WAT     H252755   0.884   4.069   5.427
13012WAT    EPW52756   0.961   4.082   5.433
13013WAT      O52757   0.314   4.289   6.518
13013WAT     H152758   0.234   4.282   6.554
13013WAT     H252759   0.321   4.373   6.499
13013WAT    EPW52760   0.303   4.300   6.521
13014WAT      O52761   0.588   4.214   5.670
13014WAT     H152762   0.596   4.248   5.750
13014WAT     H252763   0.605   4.129   5.682
13014WAT    EPW52764   0.592   4.207   5.684
13015WAT      O52765   0.340   4.142   5.627
13015WAT     H152766   0.310   4.110   5.702
13015WAT     H252767   0.410   4.189   5.650
13015WAT    EPW52768   0.346   4.144   5.641
13016WAT      O52769   0.362   4.553   6.429
13016WAT     H152770   0.431   4.542   6.482
13016WAT     H252771   0.376   4.632   6.395
13016WAT    EPW52772   0.375   4.563   6.432
13017WAT      O52773   1.180   3.814   6.610
13017WAT     H152774   1.095   3.802   6.623
13017WAT     H252775   1.195   3.775   6.534
13017WAT    EPW52776   1.170   3.807   6.601
13018WAT      O52777   0.631   3.881   6.468
13018WAT     H152778   0.606   3.809   6.510
13018WAT     H252779   0.713   3.892   6.495
13018WAT    EPW52780   0.640   3.872   6.478
13019WAT      O52781   0.425   4.000   6.787
13019WAT     H152782   0.457   4.068   6.743
13019WAT     H252783   0.354   4.032   6.827
13019WAT    EPW52784   0.419   4.015   6.786
13020WAT      O52785   0.733   4.837   5.880
13020WAT     H152786   0.688   4.901   5.917
13020WAT     H252787   0.804   4.829   5.930
13020WAT    EPW52788   0.737   4.845   5.893
13021WAT      O52789   0.403   4.346   6.173
13021WAT     H152790   0.334   4.386   6.207
13021WAT     H252791   0.471   4.389   6.206
13021WAT    EPW52792   0.403   4.358   6.183
13022WAT      O52793   0.941   4.605   6.831
13022WAT     H152794   1.019   4.566   6.839
13022WAT     H252795   0.894   4.572   6.896
13022WAT    EPW52796   0.945   4.595   6.841
13023WAT      O52797   1.043   3.809   5.379
13023WAT     H152798   1.054   3.803   5.292
13023WAT     H252799   1.118   3.776   5.411
13023WAT    EPW52800   1.056   3.803   5.371
13024WAT      O52801   0.435   4.505   5.489
13024WAT     H152802   0.415   4.589   5.474
13024WAT     H252803   0.358   4.467   5.502
13024WAT    EPW52804   0.421   4.512   5.489
13025WAT      O52805   0.954   3.823   6.314
13025WAT     H152806   0.953   3.737   6.327
13025WAT     H252807   0.960   3.856   6.395
13025WAT    EPW52808   0.955   3.815   6.328
13026WAT      O52809   0.542   3.303   6.693
13026WAT     H152810   0.551   3.375   6.742
13026WAT     H252811   0.478   3.259   6.732
13026WAT    EPW52812   0.533   3.307   6.706
13027WAT      O52813   0.441   3.322   5.778
13027WAT     H152814   0.371   3.374   5.772
13027WAT     H252815   0.445   3.284   5.700
13027WAT    EPW52816   0.431   3.324   5.766
13028WAT      O52817   0.801   3.374   6.058
13028WAT     H152818   0.886   3.384   6.072
13028WAT     H252819   0.764   3.429   6.114
13028WAT    EPW52820   0.808   3.384   6.068
13029WAT      O52821   0.831   3.902   5.907
13029WAT     H152822   0.898   3.956   5.923
13029WAT     H252823   0.797   3.933   5.833
13029WAT    EPW52824   0.836   3.915   5.899
13030WAT      O52825   0.862   4.709   5.488
13030WAT     H152826   0.845   4.643   5.543
13030WAT     H252827   0.934   4.681   5.445
13030WAT    EPW52828   0.870   4.695   5.490
13031WAT      O52829   1.148   3.158   6.374
13031WAT     H152830   1.143   3.153   6.461
13031WAT     H252831   1.217   3.107   6.355
13031WAT    EPW52832   1.158   3.150   6.384
13032WAT      O52833   0.357   3.369   6.078
13032WAT     H152834   0.283   3.324   6.089
13032WAT     H252835   0.414   3.329   6.130
13032WAT    EPW52836   0.354   3.356   6.087
13033WAT      O52837   0.630   4.454   6.257
13033WAT     H152838   0.651   4.484   6.336
13033WAT     H252839   0.624   4.526   6.208
13033WAT    EPW52840   0.632   4.469   6.261
13034WAT      O52841   0.583   4.875   6.681
13034WAT     H152842   0.508   4.873   6.637
13034WAT     H252843   0.600   4.960   6.690
13034WAT    EPW52844   0.575   4.888   6.676
13035WAT      O52845   1.111   4.318   6.203
13035WAT     H152846   1.108   4.232   6.189
13035WAT     H252847   1.042   4.348   6.159
13035WAT    EPW52848   1.100   4.309   6.194
13036WAT      O52849   0.922   4.644   6.082
13036WAT     H152850   0.974   4.635   6.013
13036WAT     H252851   0.883   4.566   6.088
13036WAT    EPW52852   0.924   4.631   6.073
13037WAT      O52853   0.573   3.188   6.003
13037WAT     H152854   0.640   3.243   6.016
13037WAT     H252855   0.523   3.231   5.946
13037WAT    EPW52856   0.576   3.202   5.997
13038WAT      O52857   0.509   3.769   5.752
13038WAT     H152858   0.564   3.708   5.782
13038WAT     H252859   0.466   3.795   5.824
13038WAT    EPW52860   0.511   3.764   5.767
13039WAT      O52861   0.706   3.952   5.409
13039WAT     H152862   0.713   3.867   5.427
13039WAT     H252863   0.624   3.961   5.381
13039WAT    EPW52864   0.695   3.941   5.407
13040WAT      O52865   1.014   4.848   5.050
13040WAT     H152866   1.078   4.834   5.109
13040WAT     H252867   0.980   4.768   5.039
13040WAT    EPW52868   1.018   4.834   5.057
13041WAT      O52869   1.033   4.089   6.724
13041WAT     H152870   1.097   4.072   6.781
13041WAT     H252871   1.075   4.130   6.659
13041WAT    EPW52872   1.049   4.093   6.723
13042WAT      O52873   0.621   4.474   5.283
13042WAT     H152874   0.596   4.461   5.365
13042WAT     H252875   0.590   4.405   5.241
13042WAT    EPW52876   0.613   4.462   5.289
13043WAT      O52877   1.096   3.546   6.798
13043WAT     H152878   1.076   3.610   6.853
13043WAT     H252879   1.024   3.497   6.797
13043WAT    EPW52880   1.082   3.548   6.806
13044WAT      O52881   1.086   3.640   6.095
13044WAT     H152882   1.002   3.665   6.087
13044WAT     H252883   1.080   3.556   6.118
13044WAT    EPW52884   1.073   3.631   6.097
13045WAT      O52885   0.774   4.100   6.859
13045WAT     H152886   0.862   4.097   6.856
13045WAT     H252887   0.753   4.142   6.786
13045WAT    EPW52888   0.784   4.106   6.848
13046WAT      O52889   0.310   4.295   5.226
13046WAT     H152890   0.382   4.260   5.190
13046WAT     H252891   0.307   4.375   5.191
13046WAT    EPW52892   0.320   4.302   5.215
13047WAT      O52893   0.451   3.159   3.650
13047WAT     H152894   0.426   3.208   3.582
13047WAT     H252895   0.537   3.152   3.640
13047WAT    EPW52896   0.460   3.165   3.638
13048WAT      O52897   0.432   3.851   4.117
13048WAT     H152898   0.379   3.910   4.153
13048WAT     H252899   0.471   3.814   4.185
13048WAT    EPW52900   0.430   3.854   4.132
13049WAT      O52901   1.046   4.595   3.414
13049WAT     H152902   1.116   4.543   3.413
13049WAT     H252903   0.987   4.550   3.367
13049WAT    EPW52904   1.048   4.580   3.407
13050WAT      O52905   0.699   3.957   3.784
13050WAT     H152906   0.707   3.958   3.697
13050WAT     H252907   0.640   3.894   3.799
13050WAT    EPW52908   0.691   3.948   3.774
13051WAT      O52909   0.178   4.398   3.971
13051WAT     H152910   0.213   4.318   3.974
13051WAT     H252911   0.244   4.449   3.946
13051WAT    EPW52912   0.193   4.394   3.968
13052WAT      O52913   0.183   4.343   3.592
13052WAT     H152914   0.217   4.279   3.641
13052WAT     H252915   0.207   4.322   3.511
13052WAT    EPW52916   0.192   4.331   3.588
13053WAT      O52917   0.380   3.756   4.726
13053WAT     H152918   0.295   3.746   4.708
13053WAT     H252919   0.383   3.831   4.772
13053WAT    EPW52920   0.368   3.766   4.730
13054WAT      O52921   0.836   3.052   4.638
13054WAT     H152922   0.820   3.129   4.599
13054WAT     H252923   0.759   3.030   4.672
13054WAT    EPW52924   0.822   3.060   4.637
13055WAT      O52925   0.582   3.516   3.089
13055WAT     H152926   0.537   3.584   3.120
13055WAT     H252927   0.594   3.466   3.159
13055WAT    EPW52928   0.577   3.519   3.104
13056WAT      O52929   0.592   4.750   3.299
13056WAT     H152930   0.665   4.798   3.310
13056WAT     H252931   0.615   4.671   3.327
13056WAT    EPW52932   0.606   4.746   3.305
13057WAT      O52933   0.409   4.790   3.498
13057WAT     H152934   0.430   4.842   3.565
13057WAT     H252935   0.486   4.772   3.461
13057WAT    EPW52936   0.423   4.795   3.503
13058WAT      O52937   1.122   3.514   3.719
13058WAT     H152938   1.087   3.581   3.761
13058WAT     H252939   1.058   3.454   3.720
13058WAT    EPW52940   1.107   3.515   3.725
13059WAT      O52941   0.653   4.791   4.329
13059WAT     H152942   0.727   4.836   4.328
13059WAT     H252943   0.641   4.769   4.245
13059WAT    EPW52944   0.662   4.794   4.316
13060WAT      O52945   0.275   3.185   4.803
13060WAT     H152946   0.292   3.104   4.776
13060WAT     H252947   0.260   3.229   4.729
13060WAT    EPW52948   0.275   3.180   4.788
13061WAT      O52949   0.334   3.678   3.681
13061WAT     H152950   0.363   3.655   3.602
13061WAT     H252951   0.407   3.686   3.728
13061WAT    EPW52952   0.349   3.676   3.676
13062WAT      O52953   0.406   3.712   3.193
13062WAT     H152954   0.434   3.791   3.218
13062WAT     H252955   0.329   3.728   3.156
13062WAT    EPW52956   0.399   3.726   3.191
13063WAT      O52957   0.810   4.909   3.339
13063WAT     H152958   0.877   4.894   3.285
13063WAT     H252959   0.846   4.901   3.418
13063WAT    EPW52960   0.825   4.906   3.343
13064WAT      O52961   1.089   3.346   4.255
13064WAT     H152962   1.165   3.353   4.213
13064WAT     H252963   1.095   3.269   4.295
13064WAT    EPW52964   1.101   3.336   4.255
13065WAT      O52965   0.578   4.509   4.699
13065WAT     H152966   0.575   4.547   4.778
13065WAT     H252967   0.664   4.505   4.682
13065WAT    EPW52968   0.590   4.514   4.708
13066WAT      O52969   0.292   4.529   3.174
13066WAT     H152970   0.274   4.583   3.240
13066WAT     H252971   0.369   4.558   3.144
13066WAT    EPW52972   0.301   4.541   3.180
13067WAT      O52973   0.643   3.318   3.280
13067WAT     H152974   0.697   3.250   3.287
13067WAT     H252975   0.649   3.358   3.357
13067WAT    EPW52976   0.652   3.314   3.292
13068WAT      O52977   0.369   3.556   3.411
13068WAT     H152978   0.318   3.490   3.386
13068WAT     H252979   0.374   3.606   3.340
13068WAT    EPW52980   0.362   3.554   3.397
13069WAT      O52981   0.423   4.826   4.449
13069WAT     H152982   0.500   4.818   4.409
13069WAT     H252983   0.365   4.813   4.385
13069WAT    EPW52984   0.426   4.823   4.434
13070WAT      O52985   0.369   3.250   3.400
13070WAT     H152986   0.323   3.210   3.338
13070WAT     H252987   0.446   3.266   3.363
13070WAT    EPW52988   0.373   3.247   3.385
13071WAT      O52989   1.051   4.886   3.739
13071WAT     H152990   1.006   4.958   3.759
13071WAT     H252991   0.990   4.829   3.715
13071WAT    EPW52992   1.035   4.888   3.739
13072WAT      O52993   0.228   3.487   3.852
13072WAT     H152994   0.236   3.544   3.787
13072WAT     H252995   0.240   3.536   3.923
13072WAT    EPW52996   0.231   3.503   3.853
13073WAT      O52997   0.751   4.470   3.694
13073WAT     H152998   0.821   4.422   3.713
13073WAT     H252999   0.685   4.413   3.698
13073WAT    EPW53000   0.751   4.455   3.697
13074WAT      O53001   0.608   3.504   4.441
13074WAT     H153002   0.598   3.536   4.522
13074WAT     H253003   0.548   3.440   4.437
13074WAT    EPW53004   0.597   3.499   4.453
13075WAT      O53005   0.677   4.176   4.262
13075WAT     H153006   0.626   4.135   4.319
13075WAT     H253007   0.665   4.260   4.280
13075WAT    EPW53008   0.668   4.182   4.273
13076WAT      O53009   0.733   3.098   3.725
13076WAT     H153010   0.738   3.066   3.806
13076WAT     H253011   0.765   3.034   3.676
13076WAT    EPW53012   0.739   3.084   3.730
13077WAT      O53013   0.980   3.522   4.556
13077WAT     H153014   1.057   3.499   4.589
13077WAT     H253015   0.932   3.544   4.626
13077WAT    EPW53016   0.984   3.522   4.571
13078WAT      O53017   1.003   4.220   3.274
13078WAT     H153018   1.015   4.191   3.356
13078WAT     H253019   1.083   4.222   3.241
13078WAT    EPW53020   1.016   4.216   3.282
13079WAT      O53021   1.226   4.671   4.700
13079WAT     H153022   1.158   4.702   4.655
13079WAT     H253023   1.189   4.625   4.764
13079WAT    EPW53024   1.211   4.668   4.703
13080WAT      O53025   0.792   3.873   3.233
13080WAT     H153026   0.770   3.946   3.191
13080WAT     H253027   0.747   3.878   3.308
13080WAT    EPW53028   0.782   3.885   3.238
13081WAT      O53029   1.211   3.359   3.178
13081WAT     H153030   1.145   3.303   3.181
13081WAT     H253031   1.192   3.411   3.110
13081WAT    EPW53032   1.198   3.359   3.169
13082WAT      O53033   1.243   3.797   4.434
13082WAT     H153034   1.265   3.717   4.406
13082WAT     H253035   1.158   3.803   4.415
13082WAT    EPW53036   1.234   3.786   4.427
13083WAT      O53037   1.011   3.315   3.406
13083WAT     H153038   1.086   3.275   3.426
13083WAT     H253039   1.037   3.387   3.364
13083WAT    EPW53040   1.026   3.320   3.403
13084WAT      O53041   0.405   4.564   3.864
13084WAT     H153042   0.353   4.627   3.834
13084WAT     H253043   0.436   4.527   3.791
13084WAT    EPW53044   0.402   4.568   3.849
13085WAT      O53045   0.657   3.544   3.913
13085WAT     H153046   0.691   3.559   3.992
13085WAT     H253047   0.611   3.470   3.925
13085WAT    EPW53048   0.655   3.535   3.927
13086WAT      O53049   1.010   4.709   4.509
13086WAT     H153050   0.942   4.760   4.531
13086WAT     H253051   1.016   4.719   4.422
13086WAT    EPW53052   1.001   4.718   4.499
13087WAT      O53053   0.789   3.677   4.169
13087WAT     H153054   0.722   3.710   4.215
13087WAT     H253055   0.807   3.741   4.112
13087WAT    EPW53056   0.782   3.691   4.167
13088WAT      O53057   0.209   4.784   4.268
13088WAT     H153058   0.181   4.720   4.216
13088WAT     H253059   0.188   4.856   4.225
13088WAT    EPW53060   0.202   4.785   4.254
13089WAT      O53061   0.453   3.268   4.512
13089WAT     H153062   0.468   3.185   4.487
13089WAT     H253063   0.491   3.273   4.590
13089WAT    EPW53064   0.461   3.256   4.520
13090WAT      O53065   0.608   3.474   3.520
13090WAT     H153066   0.657   3.546   3.512
13090WAT     H253067   0.529   3.500   3.494
13090WAT    EPW53068   0.604   3.489   3.515
13091WAT      O53069   0.739   4.262   4.711
13091WAT     H153070   0.788   4.334   4.721
13091WAT     H253071   0.779   4.219   4.646
13091WAT    EPW53072   0.752   4.266   4.703
13092WAT      O53073   0.266   3.621   4.092
13092WAT     H153074   0.314   3.691   4.113
13092WAT     H253075   0.303   3.556   4.138
13092WAT    EPW53076   0.279   3.622   4.102
13093WAT      O53077   0.485   3.938   3.320
13093WAT     H153078   0.484   4.010   3.271
13093WAT     H253079   0.421   3.952   3.378
13093WAT    EPW53080   0.476   3.951   3.321
13094WAT      O53081   0.982   4.325   3.718
13094WAT     H153082   1.018   4.290   3.789
13094WAT     H253083   0.981   4.259   3.661
13094WAT    EPW53084   0.987   4.310   3.720
13095WAT      O53085   0.587   4.632   4.102
13095WAT     H153086   0.526   4.602   4.047
13095WAT     H253087   0.641   4.677   4.051
13095WAT    EPW53088   0.586   4.634   4.087
13096WAT      O53089   0.588   4.317   4.042
13096WAT     H153090   0.508   4.339   4.070
13096WAT     H253091   0.614   4.257   4.101
13096WAT    EPW53092   0.580   4.311   4.055
13097WAT      O53093   0.206   4.750   3.327
13097WAT     H153094   0.269   4.766   3.386
13097WAT     H253095   0.210   4.819   3.274
13097WAT    EPW53096   0.216   4.762   3.328
13098WAT      O53097   0.914   4.117   4.527
13098WAT     H153098   0.920   4.129   4.441
13098WAT     H253099   0.989   4.149   4.557
13098WAT    EPW53100   0.926   4.123   4.519
13099WAT      O53101   0.533   4.651   4.955
13099WAT     H153102   0.550   4.680   5.036
13099WAT     H253103   0.559   4.718   4.904
13099WAT    EPW53104   0.539   4.665   4.959
13100WAT      O53105   1.017   3.146   4.826
13100WAT     H153106   0.954   3.106   4.781
13100WAT     H253107   1.020   3.103   4.901
13100WAT    EPW53108   1.008   3.134   4.830
13101WAT      O53109   0.487   4.097   4.487
13101WAT     H153110   0.472   4.158   4.547
13101WAT     H253111   0.541   4.041   4.528
13101WAT    EPW53112   0.493   4.098   4.502
13102WAT      O53113   0.326   3.937   3.553
13102WAT     H153114   0.331   4.002   3.611
13102WAT     H253115   0.307   3.868   3.602
13102WAT    EPW53116   0.324   3.936   3.569
13103WAT      O53117   0.848   4.370   4.140
13103WAT     H153118   0.800   4.400   4.073
13103WAT     H253119   0.813   4.292   4.157
13103WAT    EPW53120   0.836   4.363   4.132
13104WAT      O53121   0.248   4.142   3.996
13104WAT     H153122   0.163   4.122   4.004
13104WAT     H253123   0.280   4.125   4.075
13104WAT    EPW53124   0.240   4.137   4.009
13105WAT      O53125   1.217   4.787   3.334
13105WAT     H153126   1.287   4.740   3.309
13105WAT     H253127   1.163   4.727   3.367
13105WAT    EPW53128   1.220   4.771   3.335
13106WAT      O53129   0.941   4.064   4.252
13106WAT     H153130   0.941   3.987   4.291
13106WAT     H253131   0.857   4.088   4.251
13106WAT    EPW53132   0.929   4.056   4.257
13107WAT      O53133   1.067   4.071   3.995
13107WAT     H153134   1.038   4.111   4.067
13107WAT     H253135   1.153   4.065   4.008
13107WAT    EPW53136   1.075   4.076   4.008
13108WAT      O53137   0.833   3.464   4.849
13108WAT     H153138   0.781   3.510   4.902
13108WAT     H253139   0.797   3.384   4.849
13108WAT    EPW53140   0.820   3.459   4.857
13109WAT      O53141   1.180   4.635   4.048
13109WAT     H153142   1.209   4.660   3.970
13109WAT     H253143   1.249   4.644   4.100
13109WAT    EPW53144   1.195   4.640   4.044
13110WAT      O53145   0.682   3.821   4.857
13110WAT     H153146   0.690   3.831   4.943
13110WAT     H253147   0.619   3.876   4.835
13110WAT    EPW53148   0.674   3.830   4.866
13111WAT      O53149   0.909   3.853   4.693
13111WAT     H153150   0.941   3.931   4.714
13111WAT     H253151   0.872   3.826   4.768
13111WAT    EPW53152   0.908   3.860   4.707
13112WAT      O53153   0.840   4.495   3.246
13112WAT     H153154   0.874   4.414   3.250
13112WAT     H253155   0.765   4.488   3.289
13112WAT    EPW53156   0.834   4.482   3.253
13113WAT      O53157   0.889   3.678   3.812
13113WAT     H153158   0.814   3.646   3.844
13113WAT     H253159   0.889   3.761   3.840
13113WAT    EPW53160   0.878   3.686   3.821
13114WAT      O53161   1.179   3.907   4.967
13114WAT     H153162   1.174   3.873   4.887
13114WAT     H253163   1.253   3.953   4.965
13114WAT    EPW53164   1.189   3.909   4.955
13115WAT      O53165   1.133   4.274   4.587
13115WAT     H153166   1.195   4.219   4.562
13115WAT     H253167   1.127   4.331   4.521
13115WAT    EPW53168   1.141   4.275   4.574
13116WAT      O53169   0.578   4.282   3.187
13116WAT     H153170   0.646   4.231   3.170
13116WAT     H253171   0.536   4.287   3.110
13116WAT    EPW53172   0.582   4.276   3.173
13117WAT      O53173   0.780   3.311   4.558
13117WAT     H153174   0.854   3.357   4.552
13117WAT     H253175   0.723   3.358   4.511
13117WAT    EPW53176   0.783   3.325   4.551
13118WAT      O53177   0.298   4.040   4.266
13118WAT     H153178   0.345   4.077   4.329
13118WAT     H253179   0.215   4.053   4.292
13118WAT    EPW53180   0.293   4.047   4.279
13119WAT      O53181   0.224   4.779   3.789
13119WAT     H153182   0.279   4.847   3.794
13119WAT     H253183   0.189   4.787   3.709
13119WAT    EPW53184   0.227   4.790   3.778
13120WAT      O53185   0.908   3.109   4.325
13120WAT     H153186   0.880   3.192   4.321
13120WAT     H253187   0.980   3.115   4.375
13120WAT    EPW53188   0.915   3.122   4.332
13121WAT      O53189   0.473   4.265   4.827
13121WAT     H153190   0.549   4.294   4.794
13121WAT     H253191   0.419   4.270   4.759
13121WAT    EPW53192   0.476   4.270   4.812
13122WAT      O53193   0.864   4.520   4.677
13122WAT     H153194   0.899   4.547   4.753
13122WAT     H253195   0.894   4.578   4.619
13122WAT    EPW53196   0.874   4.533   4.680
13123WAT      O53197   1.050   3.735   3.211
13123WAT     H153198   1.088   3.803   3.171
13123WAT     H253199   0.966   3.757   3.214
13123WAT    EPW53200   1.044   3.748   3.206
13124WAT      O53201   0.596   3.596   4.694
13124WAT     H153202   0.532   3.643   4.728
13124WAT     H253203   0.653   3.587   4.759
13124WAT    EPW53204   0.595   3.602   4.708
13125WAT      O53205   0.565   3.750   4.323
13125WAT     H153206   0.595   3.792   4.394
13125WAT     H253207   0.569   3.666   4.347
13125WAT    EPW53208   0.570   3.744   4.337
13126WAT      O53209   0.308   4.767   4.716
13126WAT     H153210   0.355   4.707   4.674
13126WAT     H253211   0.273   4.722   4.782
13126WAT    EPW53212   0.310   4.751   4.720
13127WAT      O53213   0.820   3.695   3.549
13127WAT     H153214   0.841   3.675   3.631
13127WAT     H253215   0.896   3.722   3.514
13127WAT    EPW53216   0.834   3.696   3.556
13128WAT      O53217   0.922   3.303   3.696
13128WAT     H153218   0.851   3.256   3.713
13128WAT     H253219   0.906   3.337   3.617
13128WAT    EPW53220   0.909   3.301   3.687
13129WAT      O53221   0.966   4.097   3.534
13129WAT     H153222   1.014   4.025   3.529
13129WAT     H253223   0.884   4.069   3.526
13129WAT    EPW53224   0.961   4.082   3.532
13130WAT      O53225   0.314   4.289   4.618
13130WAT     H153226   0.234   4.282   4.653
13130WAT     H253227   0.321   4.373   4.598
13130WAT    EPW53228   0.303   4.300   4.620
13131WAT      O53229   0.588   4.214   3.769
13131WAT     H153230   0.596   4.248   3.849
13131WAT     H253231   0.605   4.129   3.782
13131WAT    EPW53232   0.592   4.207   3.783
13132WAT      O53233   0.340   4.142   3.726
13132WAT     H153234   0.310   4.110   3.802
13132WAT     H253235   0.410   4.189   3.749
13132WAT    EPW53236   0.346   4.144   3.741
13133WAT      O53237   0.362   4.553   4.529
13133WAT     H153238   0.431   4.542   4.581
13133WAT     H253239   0.376   4.632   4.494
13133WAT    EPW53240   0.375   4.563   4.531
13134WAT      O53241   1.180   3.814   4.710
13134WAT     H153242   1.095   3.802   4.722
13134WAT     H253243   1.195   3.775   4.633
13134WAT    EPW53244   1.170   3.807   4.700
13135WAT      O53245   0.631   3.881   4.567
13135WAT     H153246   0.606   3.809   4.610
13135WAT     H253247   0.713   3.892   4.594
13135WAT    EPW53248   0.640   3.872   4.578
13136WAT      O53249   0.425   4.000   4.886
13136WAT     H153250   0.457   4.068   4.843
13136WAT     H253251   0.354   4.032   4.926
13136WAT    EPW53252   0.419   4.015   4.886
13137WAT      O53253   0.733   4.837   3.979
13137WAT     H153254   0.688   4.901   4.017
13137WAT     H253255   0.804   4.829   4.029
13137WAT    EPW53256   0.737   4.845   3.992
13138WAT      O53257   0.403   4.346   4.272
13138WAT     H153258   0.334   4.386   4.306
13138WAT     H253259   0.471   4.389   4.306
13138WAT    EPW53260   0.403   4.358   4.282
13139WAT      O53261   0.941   4.605   4.930
13139WAT     H153262   1.019   4.566   4.938
13139WAT     H253263   0.894   4.572   4.995
13139WAT    EPW53264   0.945   4.595   4.941
13140WAT      O53265   1.043   3.809   3.478
13140WAT     H153266   1.054   3.803   3.392
13140WAT     H253267   1.118   3.776   3.510
13140WAT    EPW53268   1.056   3.803   3.470
13141WAT      O53269   0.435   4.505   3.589
13141WAT     H153270   0.415   4.589   3.573
13141WAT     H253271   0.358   4.467   3.601
13141WAT    EPW53272   0.421   4.512   3.588
13142WAT      O53273   0.954   3.823   4.414
13142WAT     H153274   0.953   3.737   4.426
13142WAT     H253275   0.960   3.856   4.494
13142WAT    EPW53276   0.955   3.815   4.427
13143WAT      O53277   0.542   3.303   4.792
13143WAT     H153278   0.551   3.375   4.841
13143WAT     H253279   0.478   3.259   4.832
13143WAT    EPW53280   0.533   3.307   4.805
13144WAT      O53281   0.441   3.322   3.877
13144WAT     H153282   0.371   3.374   3.872
13144WAT     H253283   0.445   3.284   3.799
13144WAT    EPW53284   0.431   3.324   3.865
13145WAT      O53285   0.801   3.374   4.157
13145WAT     H153286   0.886   3.384   4.172
13145WAT     H253287   0.764   3.429   4.214
13145WAT    EPW53288   0.808   3.384   4.168
13146WAT      O53289   0.831   3.902   4.006
13146WAT     H153290   0.898   3.956   4.022
13146WAT     H253291   0.797   3.933   3.933
13146WAT    EPW53292   0.836   3.915   3.998
13147WAT      O53293   0.862   4.709   3.587
13147WAT     H153294   0.845   4.643   3.642
13147WAT     H253295   0.934   4.681   3.545
13147WAT    EPW53296   0.870   4.695   3.589
13148WAT      O53297   1.148   3.158   4.473
13148WAT     H153298   1.143   3.153   4.560
13148WAT     H253299   1.217   3.107   4.454
13148WAT    EPW53300   1.158   3.150   4.483
13149WAT      O53301   0.357   3.369   4.177
13149WAT     H153302   0.283   3.324   4.189
13149WAT     H253303   0.414   3.329   4.230
13149WAT    EPW53304   0.354   3.356   4.187
13150WAT      O53305   0.630   4.454   4.356
13150WAT     H153306   0.651   4.484   4.435
13150WAT     H253307   0.624   4.526   4.308
13150WAT    EPW53308   0.632   4.469   4.361
13151WAT      O53309   0.583   4.875   4.781
13151WAT     H153310   0.508   4.873   4.737
13151WAT     H253311   0.600   4.960   4.789
13151WAT    EPW53312   0.575   4.888   4.776
13152WAT      O53313   1.111   4.318   4.302
13152WAT     H153314   1.108   4.232   4.289
13152WAT     H253315   1.042   4.348   4.259
13152WAT    EPW53316   1.100   4.309   4.294
13153WAT      O53317   0.922   4.644   4.182
13153WAT     H153318   0.974   4.635   4.113
13153WAT     H253319   0.883   4.566   4.187
13153WAT    EPW53320   0.924   4.631   4.172
13154WAT      O53321   0.573   3.188   4.103
13154WAT     H153322   0.640   3.243   4.115
13154WAT     H253323   0.523   3.231   4.045
13154WAT    EPW53324   0.576   3.202   4.096
13155WAT      O53325   0.509   3.769   3.852
13155WAT     H153326   0.564   3.708   3.882
13155WAT     H253327   0.466   3.795   3.923
13155WAT    EPW53328   0.511   3.764   3.867
13156WAT      O53329   0.706   3.952   3.508
13156WAT     H153330   0.713   3.867   3.526
13156WAT     H253331   0.624   3.961   3.480
13156WAT    EPW53332   0.695   3.941   3.507
13157WAT      O53333   1.014   4.848   3.150
13157WAT     H153334   1.078   4.834   3.208
13157WAT     H253335   0.980   4.768   3.138
13157WAT    EPW53336   1.018   4.834   3.157
13158WAT      O53337   1.033   4.089   4.823
13158WAT     H153338   1.097   4.072   4.881
13158WAT     H253339   1.075   4.130   4.758
13158WAT    EPW53340   1.049   4.093   4.822
13159WAT      O53341   0.621   4.474   3.382
13159WAT     H153342   0.596   4.461   3.465
13159WAT     H253343   0.590   4.405   3.340
13159WAT    EPW53344   0.613   4.462   3.388
13160WAT      O53345   1.096   3.546   4.897
13160WAT     H153346   1.076   3.610   4.952
13160WAT     H253347   1.024   3.497   4.896
13160WAT    EPW53348   1.082   3.548   4.905
13161WAT      O53349   1.086   3.640   4.194
13161WAT     H153350   1.002   3.665   4.187
13161WAT     H253351   1.080   3.556   4.217
13161WAT    EPW53352   1.073   3.631   4.196
13162WAT      O53353   0.774   4.100   4.959
13162WAT     H153354   0.862   4.097   4.955
13162WAT     H253355   0.753   4.142   4.885
13162WAT    EPW53356   0.784   4.106   4.947
13163WAT      O53357   0.310   4.295   3.325
13163WAT     H153358   0.382   4.260   3.289
13163WAT     H253359   0.307   4.375   3.290
13163WAT    EPW53360   0.320   4.302   3.315
13164WAT      O53361   0.451   3.159   1.749
13164WAT     H153362   0.426   3.208   1.681
13164WAT     H253363   0.537   3.152   1.739
13164WAT    EPW53364   0.460   3.165   1.737
13165WAT      O53365   0.432   3.851   2.216
13165WAT     H153366   0.379   3.910   2.252
13165WAT     H253367   0.471   3.814   2.284
13165WAT    EPW53368   0.430   3.854   2.232
13166WAT      O53369   1.046   4.595   1.513
13166WAT     H153370   1.116   4.543   1.513
13166WAT     H253371   0.987   4.550   1.466
13166WAT    EPW53372   1.048   4.580   1.506
13167WAT      O53373   0.699   3.957   1.884
13167WAT     H153374   0.707   3.958   1.797
13167WAT     H253375   0.640   3.894   1.899
13167WAT    EPW53376   0.691   3.948   1.873
13168WAT      O53377   0.178   4.398   2.071
13168WAT     H153378   0.213   4.318   2.074
13168WAT     H253379   0.244   4.449   2.045
13168WAT    EPW53380   0.193   4.394   2.067
13169WAT      O53381   0.183   4.343   1.692
13169WAT     H153382   0.217   4.279   1.740
13169WAT     H253383   0.207   4.322   1.611
13169WAT    EPW53384   0.192   4.331   1.687
13170WAT      O53385   0.380   3.756   2.826
13170WAT     H153386   0.295   3.746   2.808
13170WAT     H253387   0.383   3.831   2.871
13170WAT    EPW53388   0.368   3.766   2.830
13171WAT      O53389   0.836   3.052   2.737
13171WAT     H153390   0.820   3.129   2.699
13171WAT     H253391   0.759   3.030   2.771
13171WAT    EPW53392   0.822   3.060   2.737
13172WAT      O53393   0.582   3.516   1.188
13172WAT     H153394   0.537   3.584   1.219
13172WAT     H253395   0.594   3.466   1.259
13172WAT    EPW53396   0.577   3.519   1.203
13173WAT      O53397   0.592   4.750   1.399
13173WAT     H153398   0.665   4.798   1.409
13173WAT     H253399   0.615   4.671   1.427
13173WAT    EPW53400   0.606   4.746   1.405
13174WAT      O53401   0.409   4.790   1.598
13174WAT     H153402   0.430   4.842   1.664
13174WAT     H253403   0.486   4.772   1.560
13174WAT    EPW53404   0.423   4.795   1.602
13175WAT      O53405   1.122   3.514   1.818
13175WAT     H153406   1.087   3.581   1.861
13175WAT     H253407   1.058   3.454   1.820
13175WAT    EPW53408   1.107   3.515   1.824
13176WAT      O53409   0.653   4.791   2.428
13176WAT     H153410   0.727   4.836   2.427
13176WAT     H253411   0.641   4.769   2.345
13176WAT    EPW53412   0.662   4.794   2.416
13177WAT      O53413   0.275   3.185   2.903
13177WAT     H153414   0.292   3.104   2.875
13177WAT     H253415   0.260   3.229   2.829
13177WAT    EPW53416   0.275   3.180   2.888
13178WAT      O53417   0.334   3.678   1.780
13178WAT     H153418   0.363   3.655   1.701
13178WAT     H253419   0.407   3.686   1.827
13178WAT    EPW53420   0.349   3.676   1.775
13179WAT      O53421   0.406   3.712   1.292
13179WAT     H153422   0.434   3.791   1.317
13179WAT     H253423   0.329   3.728   1.256
13179WAT    EPW53424   0.399   3.726   1.290
13180WAT      O53425   0.810   4.909   1.439
13180WAT     H153426   0.877   4.894   1.384
13180WAT     H253427   0.846   4.901   1.518
13180WAT    EPW53428   0.825   4.906   1.442
13181WAT      O53429   1.089   3.346   2.355
13181WAT     H153430   1.165   3.353   2.312
13181WAT     H253431   1.095   3.269   2.395
13181WAT    EPW53432   1.101   3.336   2.354
13182WAT      O53433   0.578   4.509   2.799
13182WAT     H153434   0.575   4.547   2.877
13182WAT     H253435   0.664   4.505   2.782
13182WAT    EPW53436   0.590   4.514   2.808
13183WAT      O53437   0.292   4.529   1.274
13183WAT     H153438   0.274   4.583   1.339
13183WAT     H253439   0.369   4.558   1.244
13183WAT    EPW53440   0.301   4.541   1.279
13184WAT      O53441   0.643   3.318   1.379
13184WAT     H153442   0.697   3.250   1.387
13184WAT     H253443   0.649   3.358   1.457
13184WAT    EPW53444   0.652   3.314   1.392
13185WAT      O53445   0.369   3.556   1.511
13185WAT     H153446   0.318   3.490   1.485
13185WAT     H253447   0.374   3.606   1.440
13185WAT    EPW53448   0.362   3.554   1.496
13186WAT      O53449   0.423   4.826   2.549
13186WAT     H153450   0.500   4.818   2.508
13186WAT     H253451   0.365   4.813   2.485
13186WAT    EPW53452   0.426   4.823   2.533
13187WAT      O53453   0.369   3.250   1.500
13187WAT     H153454   0.323   3.210   1.437
13187WAT     H253455   0.446   3.266   1.462
13187WAT    EPW53456   0.373   3.247   1.485
13188WAT      O53457   1.051   4.886   1.839
13188WAT     H153458   1.006   4.958   1.859
13188WAT     H253459   0.990   4.829   1.814
13188WAT    EPW53460   1.035   4.888   1.838
13189WAT      O53461   0.228   3.487   1.952
13189WAT     H153462   0.236   3.544   1.886
13189WAT     H253463   0.240   3.536   2.023
13189WAT    EPW53464   0.231   3.503   1.953
13190WAT      O53465   0.751   4.470   1.793
13190WAT     H153466   0.821   4.422   1.812
13190WAT     H253467   0.685   4.413   1.798
13190WAT    EPW53468   0.751   4.455   1.796
13191WAT      O53469   0.608   3.504   2.541
13191WAT     H153470   0.598   3.536   2.621
13191WAT     H253471   0.548   3.440   2.537
13191WAT    EPW53472   0.597   3.499   2.552
13192WAT      O53473   0.677   4.176   2.361
13192WAT     H153474   0.626   4.135   2.418
13192WAT     H253475   0.665   4.260   2.379
13192WAT    EPW53476   0.668   4.182   2.372
13193WAT      O53477   0.733   3.098   1.824
13193WAT     H153478   0.738   3.066   1.905
13193WAT     H253479   0.765   3.034   1.775
13193WAT    EPW53480   0.739   3.084   1.829
13194WAT      O53481   0.980   3.522   2.655
13194WAT     H153482   1.057   3.499   2.689
13194WAT     H253483   0.932   3.544   2.725
13194WAT    EPW53484   0.984   3.522   2.670
13195WAT      O53485   1.003   4.220   1.374
13195WAT     H153486   1.015   4.191   1.455
13195WAT     H253487   1.083   4.222   1.341
13195WAT    EPW53488   1.016   4.216   1.381
13196WAT      O53489   1.226   4.671   2.799
13196WAT     H153490   1.158   4.702   2.755
13196WAT     H253491   1.189   4.625   2.864
13196WAT    EPW53492   1.211   4.668   2.802
13197WAT      O53493   0.792   3.873   1.332
13197WAT     H153494   0.770   3.946   1.290
13197WAT     H253495   0.747   3.878   1.407
13197WAT    EPW53496   0.782   3.885   1.337
13198WAT      O53497   1.211   3.359   1.278
13198WAT     H153498   1.145   3.303   1.280
13198WAT     H253499   1.192   3.411   1.210
13198WAT    EPW53500   1.198   3.359   1.268
13199WAT      O53501   1.243   3.797   2.533
13199WAT     H153502   1.265   3.717   2.506
13199WAT     H253503   1.158   3.803   2.514
13199WAT    EPW53504   1.234   3.786   2.526
13200WAT      O53505   1.011   3.315   1.506
13200WAT     H153506   1.086   3.275   1.525
13200WAT     H253507   1.037   3.387   1.463
13200WAT    EPW53508   1.026   3.320   1.502
13201WAT      O53509   0.405   4.564   1.963
13201WAT     H153510   0.353   4.627   1.934
13201WAT     H253511   0.436   4.527   1.890
13201WAT    EPW53512   0.402   4.568   1.948
13202WAT      O53513   0.657   3.544   2.013
13202WAT     H153514   0.691   3.559   2.092
13202WAT     H253515   0.611   3.470   2.024
13202WAT    EPW53516   0.655   3.535   2.026
13203WAT      O53517   1.010   4.709   2.608
13203WAT     H153518   0.942   4.760   2.630
13203WAT     H253519   1.016   4.719   2.522
13203WAT    EPW53520   1.001   4.718   2.599
13204WAT      O53521   0.789   3.677   2.268
13204WAT     H153522   0.722   3.710   2.315
13204WAT     H253523   0.807   3.741   2.211
13204WAT    EPW53524   0.782   3.691   2.267
13205WAT      O53525   0.209   4.784   2.368
13205WAT     H153526   0.181   4.720   2.316
13205WAT     H253527   0.188   4.856   2.324
13205WAT    EPW53528   0.202   4.785   2.354
13206WAT      O53529   0.453   3.268   2.611
13206WAT     H153530   0.468   3.185   2.587
13206WAT     H253531   0.491   3.273   2.690
13206WAT    EPW53532   0.461   3.256   2.619
13207WAT      O53533   0.608   3.474   1.619
13207WAT     H153534   0.657   3.546   1.612
13207WAT     H253535   0.529   3.500   1.593
13207WAT    EPW53536   0.604   3.489   1.614
13208WAT      O53537   0.739   4.262   2.810
13208WAT     H153538   0.788   4.334   2.820
13208WAT     H253539   0.779   4.219   2.745
13208WAT    EPW53540   0.752   4.266   2.802
13209WAT      O53541   0.266   3.621   2.192
13209WAT     H153542   0.314   3.691   2.213
13209WAT     H253543   0.303   3.556   2.237
13209WAT    EPW53544   0.279   3.622   2.202
13210WAT      O53545   0.485   3.938   1.419
13210WAT     H153546   0.484   4.010   1.370
13210WAT     H253547   0.421   3.952   1.477
13210WAT    EPW53548   0.476   3.951   1.421
13211WAT      O53549   0.982   4.325   1.817
13211WAT     H153550   1.018   4.290   1.889
13211WAT     H253551   0.981   4.259   1.760
13211WAT    EPW53552   0.987   4.310   1.819
13212WAT      O53553   0.587   4.632   2.202
13212WAT     H153554   0.526   4.602   2.146
13212WAT     H253555   0.641   4.677   2.151
13212WAT    EPW53556   0.586   4.634   2.186
13213WAT      O53557   0.588   4.317   2.142
13213WAT     H153558   0.508   4.339   2.169
13213WAT     H253559   0.614   4.257   2.200
13213WAT    EPW53560   0.580   4.311   2.154
13214WAT      O53561   0.206   4.750   1.427
13214WAT     H153562   0.269   4.766   1.486
13214WAT     H253563   0.210   4.819   1.374
13214WAT    EPW53564   0.216   4.762   1.428
13215WAT      O53565   0.914   4.117   2.626
13215WAT     H153566   0.920   4.129   2.540
13215WAT     H253567   0.989   4.149   2.657
13215WAT    EPW53568   0.926   4.123   2.618
13216WAT      O53569   0.533   4.651   3.054
13216WAT     H153570   0.550   4.680   3.135
13216WAT     H253571   0.559   4.718   3.004
13216WAT    EPW53572   0.539   4.665   3.059
13217WAT      O53573   1.017   3.146   2.925
13217WAT     H153574   0.954   3.106   2.881
13217WAT     H253575   1.020   3.103   3.001
13217WAT    EPW53576   1.008   3.134   2.930
13218WAT      O53577   0.487   4.097   2.586
13218WAT     H153578   0.472   4.158   2.647
13218WAT     H253579   0.541   4.041   2.627
13218WAT    EPW53580   0.493   4.098   2.601
13219WAT      O53581   0.326   3.937   1.652
13219WAT     H153582   0.331   4.002   1.710
13219WAT     H253583   0.307   3.868   1.701
13219WAT    EPW53584   0.324   3.936   1.668
13220WAT      O53585   0.848   4.370   2.239
13220WAT     H153586   0.800   4.400   2.172
13220WAT     H253587   0.813   4.292   2.257
13220WAT    EPW53588   0.836   4.363   2.232
13221WAT      O53589   0.248   4.142   2.095
13221WAT     H153590   0.163   4.122   2.103
13221WAT     H253591   0.280   4.125   2.175
13221WAT    EPW53592   0.240   4.137   2.108
13222WAT      O53593   1.217   4.787   1.433
13222WAT     H153594   1.287   4.740   1.408
13222WAT     H253595   1.163   4.727   1.467
13222WAT    EPW53596   1.220   4.771   1.434
13223WAT      O53597   0.941   4.064   2.351
13223WAT     H153598   0.941   3.987   2.391
13223WAT     H253599   0.857   4.088   2.350
13223WAT    EPW53600   0.929   4.056   2.357
13224WAT      O53601   1.067   4.071   2.095
13224WAT     H153602   1.038   4.111   2.167
13224WAT     H253603   1.153   4.065   2.107
13224WAT    EPW53604   1.075   4.076   2.107
13225WAT      O53605   0.833   3.464   2.949
13225WAT     H153606   0.781   3.510   3.001
13225WAT     H253607   0.797   3.384   2.948
13225WAT    EPW53608   0.820   3.459   2.956
13226WAT      O53609   1.180   4.635   2.148
13226WAT     H153610   1.209   4.660   2.069
13226WAT     H253611   1.249   4.644   2.199
13226WAT    EPW53612   1.195   4.640   2.144
13227WAT      O53613   0.682   3.821   2.956
13227WAT     H153614   0.690   3.831   3.043
13227WAT     H253615   0.619   3.876   2.934
13227WAT    EPW53616   0.674   3.830   2.966
13228WAT      O53617   0.909   3.853   2.793
13228WAT     H153618   0.941   3.931   2.813
13228WAT     H253619   0.872   3.826   2.867
13228WAT    EPW53620   0.908   3.860   2.807
13229WAT      O53621   0.840   4.495   1.346
13229WAT     H153622   0.874   4.414   1.349
13229WAT     H253623   0.765   4.488   1.389
13229WAT    EPW53624   0.834   4.482   1.353
13230WAT      O53625   0.889   3.678   1.912
13230WAT     H153626   0.814   3.646   1.943
13230WAT     H253627   0.889   3.761   1.940
13230WAT    EPW53628   0.878   3.686   1.920
13231WAT      O53629   1.179   3.907   3.066
13231WAT     H153630   1.174   3.873   2.986
13231WAT     H253631   1.253   3.953   3.064
13231WAT    EPW53632   1.189   3.909   3.054
13232WAT      O53633   1.133   4.274   2.687
13232WAT     H153634   1.195   4.219   2.661
13232WAT     H253635   1.127   4.331   2.621
13232WAT    EPW53636   1.141   4.275   2.673
13233WAT      O53637   0.578   4.282   1.286
13233WAT     H153638   0.646   4.231   1.269
13233WAT     H253639   0.536   4.287   1.210
13233WAT    EPW53640   0.582   4.276   1.272
13234WAT      O53641   0.780   3.311   2.658
13234WAT     H153642   0.854   3.357   2.651
13234WAT     H253643   0.723   3.358   2.611
13234WAT    EPW53644   0.783   3.325   2.650
13235WAT      O53645   0.298   4.040   2.366
13235WAT     H153646   0.345   4.077   2.428
13235WAT     H253647   0.215   4.053   2.391
13235WAT    EPW53648   0.293   4.047   2.379
13236WAT      O53649   0.224   4.779   1.888
13236WAT     H153650   0.279   4.847   1.894
13236WAT     H253651   0.189   4.787   1.809
13236WAT    EPW53652   0.227   4.790   1.877
13237WAT      O53653   0.908   3.109   2.425
13237WAT     H153654   0.880   3.192   2.420
13237WAT     H253655   0.980   3.115   2.474
13237WAT    EPW53656   0.915   3.122   2.431
13238WAT      O53657   0.473   4.265   2.926
13238WAT     H153658   0.549   4.294   2.894
13238WAT     H253659   0.419   4.270   2.858
13238WAT    EPW53660   0.476   4.270   2.911
13239WAT      O53661   0.864   4.520   2.777
13239WAT     H153662   0.899   4.547   2.852
13239WAT     H253663   0.894   4.578   2.719
13239WAT    EPW53664   0.874   4.533   2.779
13240WAT      O53665   1.050   3.735   1.310
13240WAT     H153666   1.088   3.803   1.270
13240WAT     H253667   0.966   3.757   1.314
13240WAT    EPW53668   1.044   3.748   1.305
13241WAT      O53669   0.596   3.596   2.793
13241WAT     H153670   0.532   3.643   2.828
13241WAT     H253671   0.653   3.587   2.859
13241WAT    EPW53672   0.595   3.602   2.808
13242WAT      O53673   0.565   3.750   2.423
13242WAT     H153674   0.595   3.792   2.493
13242WAT     H253675   0.569   3.666   2.446
13242WAT    EPW53676   0.570   3.744   2.437
13243WAT      O53677   0.308   4.767   2.815
13243WAT     H153678   0.355   4.707   2.774
13243WAT     H253679   0.273   4.722   2.882
13243WAT    EPW53680   0.310   4.751   2.819
13244WAT      O53681   0.820   3.695   1.648
13244WAT     H153682   0.841   3.675   1.730
13244WAT     H253683   0.896   3.722   1.614
13244WAT    EPW53684   0.834   3.696   1.655
13245WAT      O53685   0.922   3.303   1.795
13245WAT     H153686   0.851   3.256   1.812
13245WAT     H253687   0.906   3.337   1.717
13245WAT    EPW53688   0.909   3.301   1.786
13246WAT      O53689   0.966   4.097   1.633
13246WAT     H153690   1.014   4.025   1.629
13246WAT     H253691   0.884   4.069   1.626
13246WAT    EPW53692   0.961   4.082   1.631
13247WAT      O53693   0.314   4.289   2.717
13247WAT     H153694   0.234   4.282   2.752
13247WAT     H253695   0.321   4.373   2.698
13247WAT    EPW53696   0.303   4.300   2.720
13248WAT      O53697   0.588   4.214   1.869
13248WAT     H153698   0.596   4.248   1.949
13248WAT     H253699   0.605   4.129   1.881
13248WAT    EPW53700   0.592   4.207   1.882
13249WAT      O53701   0.340   4.142   1.825
13249WAT     H153702   0.310   4.110   1.901
13249WAT     H253703   0.410   4.189   1.849
13249WAT    EPW53704   0.346   4.144   1.840
13250WAT      O53705   0.362   4.553   2.628
13250WAT     H153706   0.431   4.542   2.681
13250WAT     H253707   0.376   4.632   2.594
13250WAT    EPW53708   0.375   4.563   2.631
13251WAT      O53709   1.180   3.814   2.809
13251WAT     H153710   1.095   3.802   2.822
13251WAT     H253711   1.195   3.775   2.733
13251WAT    EPW53712   1.170   3.807   2.800
13252WAT      O53713   0.631   3.881   2.667
13252WAT     H153714   0.606   3.809   2.709
13252WAT     H253715   0.713   3.892   2.694
13252WAT    EPW53716   0.640   3.872   2.677
13253WAT      O53717   0.425   4.000   2.985
13253WAT     H153718   0.457   4.068   2.942
13253WAT     H253719   0.354   4.032   3.026
13253WAT    EPW53720   0.419   4.015   2.985
13254WAT      O53721   0.733   4.837   2.078
13254WAT     H153722   0.688   4.901   2.116
13254WAT     H253723   0.804   4.829   2.129
13254WAT    EPW53724   0.737   4.845   2.091
13255WAT      O53725   0.403   4.346   2.371
13255WAT     H153726   0.334   4.386   2.406
13255WAT     H253727   0.471   4.389   2.405
13255WAT    EPW53728   0.403   4.358   2.381
13256WAT      O53729   0.941   4.605   3.029
13256WAT     H153730   1.019   4.566   3.038
13256WAT     H253731   0.894   4.572   3.095
13256WAT    EPW53732   0.945   4.595   3.040
13257WAT      O53733   1.043   3.809   1.578
13257WAT     H153734   1.054   3.803   1.491
13257WAT     H253735   1.118   3.776   1.609
13257WAT    EPW53736   1.056   3.803   1.569
13258WAT      O53737   0.435   4.505   1.688
13258WAT     H153738   0.415   4.589   1.672
13258WAT     H253739   0.358   4.467   1.700
13258WAT    EPW53740   0.421   4.512   1.688
13259WAT      O53741   0.954   3.823   2.513
13259WAT     H153742   0.953   3.737   2.526
13259WAT     H253743   0.960   3.856   2.594
13259WAT    EPW53744   0.955   3.815   2.527
13260WAT      O53745   0.542   3.303   2.891
13260WAT     H153746   0.551   3.375   2.941
13260WAT     H253747   0.478   3.259   2.931
13260WAT    EPW53748   0.533   3.307   2.905
13261WAT      O53749   0.441   3.322   1.977
13261WAT     H153750   0.371   3.374   1.971
13261WAT     H253751   0.445   3.284   1.898
13261WAT    EPW53752   0.431   3.324   1.964
13262WAT      O53753   0.801   3.374   2.257
13262WAT     H153754   0.886   3.384   2.271
13262WAT     H253755   0.764   3.429   2.313
13262WAT    EPW53756   0.808   3.384   2.267
13263WAT      O53757   0.831   3.902   2.106
13263WAT     H153758   0.898   3.956   2.122
13263WAT     H253759   0.797   3.933   2.032
13263WAT    EPW53760   0.836   3.915   2.097
13264WAT      O53761   0.862   4.709   1.687
13264WAT     H153762   0.845   4.643   1.742
13264WAT     H253763   0.934   4.681   1.644
13264WAT    EPW53764   0.870   4.695   1.688
13265WAT      O53765   1.148   3.158   2.572
13265WAT     H153766   1.143   3.153   2.659
13265WAT     H253767   1.217   3.107   2.553
13265WAT    EPW53768   1.158   3.150   2.582
13266WAT      O53769   0.357   3.369   2.277
13266WAT     H153770   0.283   3.324   2.288
13266WAT     H253771   0.414   3.329   2.329
13266WAT    EPW53772   0.354   3.356   2.286
13267WAT      O53773   0.630   4.454   2.456
13267WAT     H153774   0.651   4.484   2.535
13267WAT     H253775   0.624   4.526   2.407
13267WAT    EPW53776   0.632   4.469   2.460
13268WAT      O53777   0.583   4.875   2.880
13268WAT     H153778   0.508   4.873   2.836
13268WAT     H253779   0.600   4.960   2.889
13268WAT    EPW53780   0.575   4.888   2.875
13269WAT      O53781   1.111   4.318   2.401
13269WAT     H153782   1.108   4.232   2.388
13269WAT     H253783   1.042   4.348   2.358
13269WAT    EPW53784   1.100   4.309   2.393
13270WAT      O53785   0.922   4.644   2.281
13270WAT     H153786   0.974   4.635   2.212
13270WAT     H253787   0.883   4.566   2.287
13270WAT    EPW53788   0.924   4.631   2.272
13271WAT      O53789   0.573   3.188   2.202
13271WAT     H153790   0.640   3.243   2.215
13271WAT     H253791   0.523   3.231   2.145
13271WAT    EPW53792   0.576   3.202   2.195
13272WAT      O53793   0.509   3.769   1.951
13272WAT     H153794   0.564   3.708   1.981
13272WAT     H253795   0.466   3.795   2.023
13272WAT    EPW53796   0.511   3.764   1.966
13273WAT      O53797   0.706   3.952   1.607
13273WAT     H153798   0.713   3.867   1.626
13273WAT     H253799   0.624   3.961   1.580
13273WAT    EPW53800   0.695   3.941   1.606
13274WAT      O53801   1.014   4.848   1.249
13274WAT     H153802   1.078   4.834   1.307
13274WAT     H253803   0.980   4.768   1.238
13274WAT    EPW53804   1.018   4.834   1.256
13275WAT      O53805   1.033   4.089   2.923
13275WAT     H153806   1.097   4.072   2.980
13275WAT     H253807   1.075   4.130   2.857
13275WAT    EPW53808   1.049   4.093   2.921
13276WAT      O53809   0.621   4.474   1.481
13276WAT     H153810   0.596   4.461   1.564
13276WAT     H253811   0.590   4.405   1.439
13276WAT    EPW53812   0.613   4.462   1.487
13277WAT      O53813   1.096   3.546   2.996
13277WAT     H153814   1.076   3.610   3.052
13277WAT     H253815   1.024   3.497   2.996
13277WAT    EPW53816   1.082   3.548   3.004
13278WAT      O53817   1.086   3.640   2.293
13278WAT     H153818   1.002   3.665   2.286
13278WAT     H253819   1.080   3.556   2.316
13278WAT    EPW53820   1.073   3.631   2.296
13279WAT      O53821   0.774   4.100   3.058
13279WAT     H153822   0.862   4.097   3.054
13279WAT     H253823   0.753   4.142   2.985
13279WAT    EPW53824   0.784   4.106   3.047
13280WAT      O53825   0.310   4.295   1.424
13280WAT     H153826   0.382   4.260   1.389
13280WAT     H253827   0.307   4.375   1.390
13280WAT    EPW53828   0.320   4.302   1.414
13281WAT      O53829   0.432   3.851   0.315
13281WAT     H153830   0.379   3.910   0.352
13281WAT     H253831   0.471   3.814   0.384
13281WAT    EPW53832   0.430   3.854   0.331
13282WAT      O53833   0.380   3.756   0.925
13282WAT     H153834   0.295   3.746   0.907
13282WAT     H253835   0.383   3.831   0.970
13282WAT    EPW53836   0.368   3.766   0.929
13283WAT      O53837   0.836   3.052   0.836
13283WAT     H153838   0.820   3.129   0.798
13283WAT     H253839   0.759   3.030   0.871
13283WAT    EPW53840   0.822   3.060   0.836
13284WAT      O53841   0.653   4.791   0.528
13284WAT     H153842   0.727   4.836   0.527
13284WAT     H253843   0.641   4.769   0.444
13284WAT    EPW53844   0.662   4.794   0.515
13285WAT      O53845   0.275   3.185   1.002
13285WAT     H153846   0.292   3.104   0.975
13285WAT     H253847   0.260   3.229   0.928
13285WAT    EPW53848   0.275   3.180   0.987
13286WAT      O53849   1.089   3.346   0.454
13286WAT     H153850   1.165   3.353   0.411
13286WAT     H253851   1.095   3.269   0.494
13286WAT    EPW53852   1.101   3.336   0.454
13287WAT      O53853   0.578   4.509   0.898
13287WAT     H153854   0.575   4.547   0.977
13287WAT     H253855   0.664   4.505   0.881
13287WAT    EPW53856   0.590   4.514   0.907
13288WAT      O53857   0.423   4.826   0.648
13288WAT     H153858   0.500   4.818   0.607
13288WAT     H253859   0.365   4.813   0.584
13288WAT    EPW53860   0.426   4.823   0.633
13289WAT      O53861   0.608   3.504   0.640
13289WAT     H153862   0.598   3.536   0.721
13289WAT     H253863   0.548   3.440   0.636
13289WAT    EPW53864   0.597   3.499   0.651
13290WAT      O53865   0.677   4.176   0.461
13290WAT     H153866   0.626   4.135   0.518
13290WAT     H253867   0.665   4.260   0.479
13290WAT    EPW53868   0.668   4.182   0.472
13291WAT      O53869   0.980   3.522   0.754
13291WAT     H153870   1.057   3.499   0.788
13291WAT     H253871   0.932   3.544   0.824
13291WAT    EPW53872   0.984   3.522   0.770
13292WAT      O53873   1.226   4.671   0.899
13292WAT     H153874   1.158   4.702   0.854
13292WAT     H253875   1.189   4.625   0.963
13292WAT    EPW53876   1.211   4.668   0.902
13293WAT      O53877   1.243   3.797   0.633
13293WAT     H153878   1.265   3.717   0.605
13293WAT     H253879   1.158   3.803   0.614
13293WAT    EPW53880   1.234   3.786   0.626
13294WAT      O53881   1.010   4.709   0.708
13294WAT     H153882   0.942   4.760   0.729
13294WAT     H253883   1.016   4.719   0.621
13294WAT    EPW53884   1.001   4.718   0.698
13295WAT      O53885   0.789   3.677   0.368
13295WAT     H153886   0.722   3.710   0.414
13295WAT     H253887   0.807   3.741   0.311
13295WAT    EPW53888   0.782   3.691   0.366
13296WAT      O53889   0.209   4.784   0.467
13296WAT     H153890   0.181   4.720   0.415
13296WAT     H253891   0.188   4.856   0.423
13296WAT    EPW53892   0.202   4.785   0.453
13297WAT      O53893   0.453   3.268   0.711
13297WAT     H153894   0.468   3.185   0.686
13297WAT     H253895   0.491   3.273   0.789
13297WAT    EPW53896   0.461   3.256   0.719
13298WAT      O53897   0.739   4.262   0.910
13298WAT     H153898   0.788   4.334   0.920
13298WAT     H253899   0.779   4.219   0.845
13298WAT    EPW53900   0.752   4.266   0.902
13299WAT      O53901   0.266   3.621   0.291
13299WAT     H153902   0.314   3.691   0.312
13299WAT     H253903   0.303   3.556   0.336
13299WAT    EPW53904   0.279   3.622   0.301
13300WAT      O53905   0.587   4.632   0.301
13300WAT     H153906   0.526   4.602   0.245
13300WAT     H253907   0.641   4.677   0.250
13300WAT    EPW53908   0.586   4.634   0.285
13301WAT      O53909   0.588   4.317   0.241
13301WAT     H153910   0.508   4.339   0.269
13301WAT     H253911   0.614   4.257   0.300
13301WAT    EPW53912   0.580   4.311   0.254
13302WAT      O53913   0.914   4.117   0.726
13302WAT     H153914   0.920   4.129   0.640
13302WAT     H253915   0.989   4.149   0.756
13302WAT    EPW53916   0.926   4.123   0.717
13303WAT      O53917   0.533   4.651   1.153
13303WAT     H153918   0.550   4.680   1.234
13303WAT     H253919   0.559   4.718   1.103
13303WAT    EPW53920   0.539   4.665   1.158
13304WAT      O53921   1.017   3.146   1.024
13304WAT     H153922   0.954   3.106   0.980
13304WAT     H253923   1.020   3.103   1.100
13304WAT    EPW53924   1.008   3.134   1.029
13305WAT      O53925   0.487   4.097   0.686
13305WAT     H153926   0.472   4.158   0.746
13305WAT     H253927   0.541   4.041   0.726
13305WAT    EPW53928   0.493   4.098   0.701
13306WAT      O53929   0.848   4.370   0.338
13306WAT     H153930   0.800   4.400   0.272
13306WAT     H253931   0.813   4.292   0.356
13306WAT    EPW53932   0.836   4.363   0.331
13307WAT      O53933   0.248   4.142   0.195
13307WAT     H153934   0.163   4.122   0.203
13307WAT     H253935   0.280   4.125   0.274
13307WAT    EPW53936   0.240   4.137   0.208
13308WAT      O53937   0.941   4.064   0.450
13308WAT     H153938   0.941   3.987   0.490
13308WAT     H253939   0.857   4.088   0.450
13308WAT    EPW53940   0.929   4.056   0.456
13309WAT      O53941   1.067   4.071   0.194
13309WAT     H153942   1.038   4.111   0.266
13309WAT     H253943   1.153   4.065   0.207
13309WAT    EPW53944   1.075   4.076   0.207
13310WAT      O53945   0.833   3.464   1.048
13310WAT     H153946   0.781   3.510   1.100
13310WAT     H253947   0.797   3.384   1.047
13310WAT    EPW53948   0.820   3.459   1.056
13311WAT      O53949   1.180   4.635   0.247
13311WAT     H153950   1.209   4.660   0.169
13311WAT     H253951   1.249   4.644   0.299
13311WAT    EPW53952   1.195   4.640   0.243
13312WAT      O53953   0.682   3.821   1.056
13312WAT     H153954   0.690   3.831   1.142
13312WAT     H253955   0.619   3.876   1.034
13312WAT    EPW53956   0.674   3.830   1.065
13313WAT      O53957   0.909   3.853   0.892
13313WAT     H153958   0.941   3.931   0.912
13313WAT     H253959   0.872   3.826   0.966
13313WAT    EPW53960   0.908   3.860   0.906
13314WAT      O53961   1.179   3.907   1.166
13314WAT     H153962   1.174   3.873   1.086
13314WAT     H253963   1.253   3.953   1.163
13314WAT    EPW53964   1.189   3.909   1.153
13315WAT      O53965   1.133   4.274   0.786
13315WAT     H153966   1.195   4.219   0.761
13315WAT     H253967   1.127   4.331   0.720
13315WAT    EPW53968   1.141   4.275   0.773
13316WAT      O53969   0.780   3.311   0.757
13316WAT     H153970   0.854   3.357   0.751
13316WAT     H253971   0.723   3.358   0.710
13316WAT    EPW53972   0.783   3.325   0.749
13317WAT      O53973   0.298   4.040   0.465
13317WAT     H153974   0.345   4.077   0.528
13317WAT     H253975   0.215   4.053   0.491
13317WAT    EPW53976   0.293   4.047   0.478
13318WAT      O53977   0.908   3.109   0.524
13318WAT     H153978   0.880   3.192   0.520
13318WAT     H253979   0.980   3.115   0.574
13318WAT    EPW53980   0.915   3.122   0.531
13319WAT      O53981   0.473   4.265   1.026
13319WAT     H153982   0.549   4.294   0.993
13319WAT     H253983   0.419   4.270   0.958
13319WAT    EPW53984   0.476   4.270   1.011
13320WAT      O53985   0.864   4.520   0.876
13320WAT     H153986   0.899   4.547   0.951
13320WAT     H253987   0.894   4.578   0.818
13320WAT    EPW53988   0.874   4.533   0.879
13321WAT      O53989   0.596   3.596   0.892
13321WAT     H153990   0.532   3.643   0.927
13321WAT     H253991   0.653   3.587   0.958
13321WAT    EPW53992   0.595   3.602   0.907
13322WAT      O53993   0.565   3.750   0.522
13322WAT     H153994   0.595   3.792   0.592
13322WAT     H253995   0.569   3.666   0.545
13322WAT    EPW53996   0.570   3.744   0.536
13323WAT      O53997   0.308   4.767   0.915
13323WAT     H153998   0.355   4.707   0.873
13323WAT     H253999   0.273   4.722   0.981
13323WAT    EPW54000   0.310   4.751   0.918
13324WAT      O54001   0.314   4.289   0.817
13324WAT     H154002   0.234   4.282   0.852
13324WAT     H254003   0.321   4.373   0.797
13324WAT    EPW54004   0.303   4.300   0.819
13325WAT      O54005   0.362   4.553   0.727
13325WAT     H154006   0.431   4.542   0.780
13325WAT     H254007   0.376   4.632   0.693
13325WAT    EPW54008   0.375   4.563   0.730
13326WAT      O54009   1.180   3.814   0.909
13326WAT     H154010   1.095   3.802   0.921
13326WAT     H254011   1.195   3.775   0.832
13326WAT    EPW54012   1.170   3.807   0.899
13327WAT      O54013   0.631   3.881   0.766
13327WAT     H154014   0.606   3.809   0.808
13327WAT     H254015   0.713   3.892   0.793
13327WAT    EPW54016   0.640   3.872   0.776
13328WAT      O54017   0.425   4.000   1.085
13328WAT     H154018   0.457   4.068   1.042
13328WAT     H254019   0.354   4.032   1.125
13328WAT    EPW54020   0.419   4.015   1.084
13329WAT      O54021   0.733   4.837   0.178
13329WAT     H154022   0.688   4.901   0.216
13329WAT     H254023   0.804   4.829   0.228
13329WAT    EPW54024   0.737   4.845   0.191
13330WAT      O54025   0.403   4.346   0.471
13330WAT     H154026   0.334   4.386   0.505
13330WAT     H254027   0.471   4.389   0.505
13330WAT    EPW54028   0.403   4.358   0.481
13331WAT      O54029   0.941   4.605   1.129
13331WAT     H154030   1.019   4.566   1.137
13331WAT     H254031   0.894   4.572   1.194
13331WAT    EPW54032   0.945   4.595   1.140
13332WAT      O54033   0.954   3.823   0.613
13332WAT     H154034   0.953   3.737   0.625
13332WAT     H254035   0.960   3.856   0.693
13332WAT    EPW54036   0.955   3.815   0.626
13333WAT      O54037   0.542   3.303   0.991
13333WAT     H154038   0.551   3.375   1.040
13333WAT     H254039   0.478   3.259   1.030
13333WAT    EPW54040   0.533   3.307   1.004
13334WAT      O54041   0.801   3.374   0.356
13334WAT     H154042   0.886   3.384   0.371
13334WAT     H254043   0.764   3.429   0.413
13334WAT    EPW54044   0.808   3.384   0.367
13335WAT      O54045   1.148   3.158   0.672
13335WAT     H154046   1.143   3.153   0.759
13335WAT     H254047   1.217   3.107   0.653
13335WAT    EPW54048   1.158   3.150   0.682
13336WAT      O54049   0.357   3.369   0.376
13336WAT     H154050   0.283   3.324   0.388
13336WAT     H254051   0.414   3.329   0.429
13336WAT    EPW54052   0.354   3.356   0.386
13337WAT      O54053   0.630   4.454   0.555
13337WAT     H154054   0.651   4.484   0.634
13337WAT     H254055   0.624   4.526   0.507
13337WAT    EPW54056   0.632   4.469   0.560
13338WAT      O54057   0.583   4.875   0.980
13338WAT     H154058   0.508   4.873   0.936
13338WAT     H254059   0.600   4.960   0.988
13338WAT    EPW54060   0.575   4.888   0.974
13339WAT      O54061   1.111   4.318   0.501
13339WAT     H154062   1.108   4.232   0.487
13339WAT     H254063   1.042   4.348   0.457
13339WAT    EPW54064   1.100   4.309   0.492
13340WAT      O54065   0.922   4.644   0.381
13340WAT     H154066   0.974   4.635   0.311
13340WAT     H254067   0.883   4.566   0.386
13340WAT    EPW54068   0.924   4.631   0.371
13341WAT      O54069   0.573   3.188   0.301
13341WAT     H154070   0.640   3.243   0.314
13341WAT     H254071   0.523   3.231   0.244
13341WAT    EPW54072   0.576   3.202   0.295
13342WAT      O54073   1.033   4.089   1.022
13342WAT     H154074   1.097   4.072   1.079
13342WAT     H254075   1.075   4.130   0.957
13342WAT    EPW54076   1.049   4.093   1.021
13343WAT      O54077   1.096   3.546   1.096
13343WAT     H154078   1.076   3.610   1.151
13343WAT     H254079   1.024   3.497   1.095
13343WAT    EPW54080   1.082   3.548   1.104
13344WAT      O54081   1.086   3.640   0.393
13344WAT     H154082   1.002   3.665   0.386
13344WAT     H254083   1.080   3.556   0.416
13344WAT    EPW54084   1.073   3.631   0.395
13345WAT      O54085   0.774   4.100   1.157
13345WAT     H154086   0.862   4.097   1.154
13345WAT     H254087   0.753   4.142   1.084
13345WAT    EPW54088   0.784   4.106   1.146
13346WAT      O54089   0.451   1.311   7.451
13346WAT     H154090   0.426   1.360   7.383
13346WAT     H254091   0.537   1.304   7.441
13346WAT    EPW54092   0.460   1.317   7.439
13347WAT      O54093   1.046   2.747   7.215
13347WAT     H154094   1.116   2.695   7.215
13347WAT     H254095   0.987   2.702   7.168
13347WAT    EPW54096   1.048   2.733   7.208
13348WAT      O54097   0.699   2.109   7.586
13348WAT     H154098   0.707   2.110   7.499
13348WAT     H254099   0.640   2.046   7.600
13348WAT    EPW54100   0.691   2.100   7.575
13349WAT      O54101   0.178   2.550   7.773
13349WAT     H154102   0.213   2.471   7.776
13349WAT     H254103   0.244   2.601   7.747
13349WAT    EPW54104   0.193   2.546   7.769
13350WAT      O54105   0.183   2.495   7.394
13350WAT     H154106   0.217   2.431   7.442
13350WAT     H254107   0.207   2.474   7.313
13350WAT    EPW54108   0.192   2.483   7.389
13351WAT      O54109   0.582   1.669   6.890
13351WAT     H154110   0.537   1.737   6.921
13351WAT     H254111   0.594   1.618   6.961
13351WAT    EPW54112   0.577   1.671   6.905
13352WAT      O54113   0.592   2.903   7.101
13352WAT     H154114   0.665   2.950   7.111
13352WAT     H254115   0.615   2.823   7.129
13352WAT    EPW54116   0.606   2.898   7.106
13353WAT      O54117   0.409   2.942   7.300
13353WAT     H154118   0.430   2.995   7.366
13353WAT     H254119   0.486   2.924   7.262
13353WAT    EPW54120   0.423   2.947   7.304
13354WAT      O54121   1.122   1.666   7.520
13354WAT     H154122   1.087   1.734   7.562
13354WAT     H254123   1.058   1.606   7.521
13354WAT    EPW54124   1.107   1.667   7.526
13355WAT      O54125   0.334   1.830   7.482
13355WAT     H154126   0.363   1.807   7.403
13355WAT     H254127   0.407   1.838   7.529
13355WAT    EPW54128   0.349   1.828   7.477
13356WAT      O54129   0.406   1.864   6.994
13356WAT     H154130   0.434   1.943   7.019
13356WAT     H254131   0.329   1.880   6.958
13356WAT    EPW54132   0.399   1.878   6.992
13357WAT      O54133   0.810   3.061   7.141
13357WAT     H154134   0.877   3.047   7.086
13357WAT     H254135   0.846   3.053   7.220
13357WAT    EPW54136   0.825   3.058   7.144
13358WAT      O54137   0.292   2.681   6.976
13358WAT     H154138   0.274   2.736   7.041
13358WAT     H254139   0.369   2.710   6.946
13358WAT    EPW54140   0.301   2.693   6.981
13359WAT      O54141   0.643   1.471   7.081
13359WAT     H154142   0.697   1.402   7.089
13359WAT     H254143   0.649   1.510   7.158
13359WAT    EPW54144   0.652   1.466   7.094
13360WAT      O54145   0.369   1.708   7.212
13360WAT     H154146   0.318   1.642   7.187
13360WAT     H254147   0.374   1.759   7.141
13360WAT    EPW54148   0.362   1.706   7.198
13361WAT      O54149   0.369   1.402   7.202
13361WAT     H154150   0.323   1.362   7.139
13361WAT     H254151   0.446   1.418   7.164
13361WAT    EPW54152   0.373   1.399   7.187
13362WAT      O54153   1.051   3.038   7.541
13362WAT     H154154   1.006   3.110   7.561
13362WAT     H254155   0.990   2.981   7.516
13362WAT    EPW54156   1.035   3.040   7.540
13363WAT      O54157   0.228   1.639   7.654
13363WAT     H154158   0.236   1.696   7.588
13363WAT     H254159   0.240   1.688   7.725
13363WAT    EPW54160   0.231   1.655   7.655
13364WAT      O54161   0.751   2.623   7.495
13364WAT     H154162   0.821   2.574   7.514
13364WAT     H254163   0.685   2.566   7.499
13364WAT    EPW54164   0.751   2.607   7.498
13365WAT      O54165   0.733   1.250   7.526
13365WAT     H154166   0.738   1.219   7.607
13365WAT     H254167   0.765   1.186   7.477
13365WAT    EPW54168   0.739   1.236   7.531
13366WAT      O54169   1.003   2.372   7.076
13366WAT     H154170   1.015   2.343   7.157
13366WAT     H254171   1.083   2.374   7.043
13366WAT    EPW54172   1.016   2.368   7.083
13367WAT      O54173   0.792   2.026   7.034
13367WAT     H154174   0.770   2.099   6.992
13367WAT     H254175   0.747   2.031   7.109
13367WAT    EPW54176   0.782   2.037   7.039
13368WAT      O54177   1.211   1.512   6.980
13368WAT     H154178   1.145   1.455   6.982
13368WAT     H254179   1.192   1.563   6.912
13368WAT    EPW54180   1.198   1.511   6.970
13369WAT      O54181   1.011   1.467   7.207
13369WAT     H154182   1.086   1.427   7.227
13369WAT     H254183   1.037   1.539   7.165
13369WAT    EPW54184   1.026   1.472   7.204
13370WAT      O54185   0.405   2.716   7.665
13370WAT     H154186   0.353   2.779   7.636
13370WAT     H254187   0.436   2.680   7.592
13370WAT    EPW54188   0.402   2.720   7.650
13371WAT      O54189   0.657   1.696   7.715
13371WAT     H154190   0.691   1.711   7.793
13371WAT     H254191   0.611   1.622   7.726
13371WAT    EPW54192   0.655   1.688   7.728
13372WAT      O54193   0.608   1.626   7.321
13372WAT     H154194   0.657   1.698   7.314
13372WAT     H254195   0.529   1.652   7.295
13372WAT    EPW54196   0.604   1.641   7.316
13373WAT      O54197   0.485   2.090   7.121
13373WAT     H154198   0.484   2.162   7.072
13373WAT     H254199   0.421   2.104   7.179
13373WAT    EPW54200   0.476   2.103   7.122
13374WAT      O54201   0.982   2.477   7.519
13374WAT     H154202   1.018   2.442   7.591
13374WAT     H254203   0.981   2.411   7.462
13374WAT    EPW54204   0.987   2.462   7.521
13375WAT      O54205   0.588   2.469   7.844
13375WAT     H154206   0.508   2.491   7.871
13375WAT     H254207   0.614   2.410   7.902
13375WAT    EPW54208   0.580   2.463   7.856
13376WAT      O54209   0.206   2.902   7.129
13376WAT     H154210   0.269   2.918   7.188
13376WAT     H254211   0.210   2.971   7.075
13376WAT    EPW54212   0.216   2.914   7.130
13377WAT      O54213   0.326   2.089   7.354
13377WAT     H154214   0.331   2.154   7.412
13377WAT     H254215   0.307   2.020   7.403
13377WAT    EPW54216   0.324   2.089   7.370
13378WAT      O54217   0.248   2.294   7.797
13378WAT     H154218   0.163   2.275   7.805
13378WAT     H254219   0.280   2.278   7.876
13378WAT    EPW54220   0.240   2.289   7.810
13379WAT      O54221   1.217   2.939   7.135
13379WAT     H154222   1.287   2.892   7.110
13379WAT     H254223   1.163   2.879   7.169
13379WAT    EPW54224   1.220   2.923   7.136
13380WAT      O54225   1.067   2.224   7.797
13380WAT     H154226   1.038   2.264   7.869
13380WAT     H254227   1.153   2.217   7.809
13380WAT    EPW54228   1.075   2.229   7.809
13381WAT      O54229   1.180   2.787   7.849
13381WAT     H154230   1.209   2.813   7.771
13381WAT     H254231   1.249   2.796   7.901
13381WAT    EPW54232   1.195   2.792   7.846
13382WAT      O54233   0.840   2.647   7.048
13382WAT     H154234   0.874   2.567   7.051
13382WAT     H254235   0.765   2.640   7.091
13382WAT    EPW54236   0.834   2.634   7.055
13383WAT      O54237   0.889   1.831   7.614
13383WAT     H154238   0.814   1.798   7.645
13383WAT     H254239   0.889   1.913   7.642
13383WAT    EPW54240   0.878   1.838   7.622
13384WAT      O54241   0.578   2.435   6.988
13384WAT     H154242   0.646   2.383   6.971
13384WAT     H254243   0.536   2.439   6.911
13384WAT    EPW54244   0.582   2.428   6.974
13385WAT      O54245   0.224   2.931   7.590
13385WAT     H154246   0.279   2.999   7.596
13385WAT     H254247   0.189   2.939   7.511
13385WAT    EPW54248   0.227   2.943   7.579
13386WAT      O54249   1.050   1.887   7.012
13386WAT     H154250   1.088   1.955   6.972
13386WAT     H254251   0.966   1.909   7.015
13386WAT    EPW54252   1.044   1.900   7.007
13387WAT      O54253   0.820   1.847   7.350
13387WAT     H154254   0.841   1.827   7.432
13387WAT     H254255   0.896   1.874   7.316
13387WAT    EPW54256   0.834   1.848   7.357
13388WAT      O54257   0.922   1.455   7.497
13388WAT     H154258   0.851   1.408   7.514
13388WAT     H254259   0.906   1.489   7.419
13388WAT    EPW54260   0.909   1.453   7.488
13389WAT      O54261   0.966   2.250   7.335
13389WAT     H154262   1.014   2.177   7.330
13389WAT     H254263   0.884   2.221   7.328
13389WAT    EPW54264   0.961   2.235   7.333
13390WAT      O54265   0.588   2.366   7.571
13390WAT     H154266   0.596   2.400   7.651
13390WAT     H254267   0.605   2.282   7.583
13390WAT    EPW54268   0.592   2.359   7.584
13391WAT      O54269   0.340   2.294   7.527
13391WAT     H154270   0.310   2.262   7.603
13391WAT     H254271   0.410   2.341   7.551
13391WAT    EPW54272   0.346   2.296   7.542
13392WAT      O54273   0.733   2.989   7.780
13392WAT     H154274   0.688   3.054   7.818
13392WAT     H254275   0.804   2.981   7.831
13392WAT    EPW54276   0.737   2.998   7.793
13393WAT      O54277   1.043   1.961   7.279
13393WAT     H154278   1.054   1.955   7.193
13393WAT     H254279   1.118   1.928   7.311
13393WAT    EPW54280   1.056   1.955   7.271
13394WAT      O54281   0.435   2.657   7.390
13394WAT     H154282   0.415   2.741   7.374
13394WAT     H254283   0.358   2.619   7.402
13394WAT    EPW54284   0.421   2.664   7.390
13395WAT      O54285   0.441   1.475   7.679
13395WAT     H154286   0.371   1.526   7.673
13395WAT     H254287   0.445   1.437   7.600
13395WAT    EPW54288   0.431   1.477   7.666
13396WAT      O54289   0.831   2.054   7.808
13396WAT     H154290   0.898   2.108   7.824
13396WAT     H254291   0.797   2.085   7.734
13396WAT    EPW54292   0.836   2.067   7.799
13397WAT      O54293   0.862   2.861   7.388
13397WAT     H154294   0.845   2.795   7.443
13397WAT     H254295   0.934   2.834   7.346
13397WAT    EPW54296   0.870   2.847   7.390
13398WAT      O54297   0.509   1.921   7.653
13398WAT     H154298   0.564   1.860   7.683
13398WAT     H254299   0.466   1.947   7.725
13398WAT    EPW54300   0.511   1.916   7.668
13399WAT      O54301   0.706   2.104   7.309
13399WAT     H154302   0.713   2.019   7.327
13399WAT     H254303   0.624   2.113   7.282
13399WAT    EPW54304   0.695   2.093   7.308
13400WAT      O54305   1.014   3.000   6.951
13400WAT     H154306   1.078   2.986   7.009
13400WAT     H254307   0.980   2.920   6.939
13400WAT    EPW54308   1.018   2.986   6.958
13401WAT      O54309   0.621   2.626   7.183
13401WAT     H154310   0.596   2.613   7.266
13401WAT     H254311   0.590   2.557   7.141
13401WAT    EPW54312   0.613   2.614   7.189
13402WAT      O54313   0.310   2.447   7.126
13402WAT     H154314   0.382   2.412   7.091
13402WAT     H254315   0.307   2.527   7.092
13402WAT    EPW54316   0.320   2.454   7.116
13403WAT      O54317   0.451   1.311   5.550
13403WAT     H154318   0.426   1.360   5.482
13403WAT     H254319   0.537   1.304   5.540
13403WAT    EPW54320   0.460   1.317   5.539
13404WAT      O54321   0.432   2.003   6.017
13404WAT     H154322   0.379   2.062   6.054
13404WAT     H254323   0.471   1.966   6.086
13404WAT    EPW54324   0.430   2.006   6.033
13405WAT      O54325   1.046   2.747   5.314
13405WAT     H154326   1.116   2.695   5.314
13405WAT     H254327   0.987   2.702   5.267
13405WAT    EPW54328   1.048   2.733   5.307
13406WAT      O54329   0.699   2.109   5.685
13406WAT     H154330   0.707   2.110   5.598
13406WAT     H254331   0.640   2.046   5.700
13406WAT    EPW54332   0.691   2.100   5.674
13407WAT      O54333   0.178   2.550   5.872
13407WAT     H154334   0.213   2.471   5.875
13407WAT     H254335   0.244   2.601   5.846
13407WAT    EPW54336   0.193   2.546   5.869
13408WAT      O54337   0.183   2.495   5.493
13408WAT     H154338   0.217   2.431   5.542
13408WAT     H254339   0.207   2.474   5.412
13408WAT    EPW54340   0.192   2.483   5.488
13409WAT      O54341   0.380   1.908   6.627
13409WAT     H154342   0.295   1.899   6.609
13409WAT     H254343   0.383   1.983   6.672
13409WAT    EPW54344   0.368   1.918   6.631
13410WAT      O54345   0.836   1.204   6.538
13410WAT     H154346   0.820   1.281   6.500
13410WAT     H254347   0.759   1.182   6.573
13410WAT    EPW54348   0.822   1.213   6.538
13411WAT      O54349   0.582   1.669   4.990
13411WAT     H154350   0.537   1.737   5.020
13411WAT     H254351   0.594   1.618   5.060
13411WAT    EPW54352   0.577   1.671   5.005
13412WAT      O54353   0.592   2.903   5.200
13412WAT     H154354   0.665   2.950   5.210
13412WAT     H254355   0.615   2.823   5.228
13412WAT    EPW54356   0.606   2.898   5.206
13413WAT      O54357   0.409   2.942   5.399
13413WAT     H154358   0.430   2.995   5.465
13413WAT     H254359   0.486   2.924   5.361
13413WAT    EPW54360   0.423   2.947   5.403
13414WAT      O54361   1.122   1.666   5.619
13414WAT     H154362   1.087   1.734   5.662
13414WAT     H254363   1.058   1.606   5.621
13414WAT    EPW54364   1.107   1.667   5.626
13415WAT      O54365   0.653   2.943   6.230
13415WAT     H154366   0.727   2.988   6.229
13415WAT     H254367   0.641   2.921   6.146
13415WAT    EPW54368   0.662   2.946   6.217
13416WAT      O54369   0.275   1.337   6.704
13416WAT     H154370   0.292   1.257   6.676
13416WAT     H254371   0.260   1.382   6.630
13416WAT    EPW54372   0.275   1.332   6.689
13417WAT      O54373   0.334   1.830   5.581
13417WAT     H154374   0.363   1.807   5.502
13417WAT     H254375   0.407   1.838   5.628
13417WAT    EPW54376   0.349   1.828   5.577
13418WAT      O54377   0.406   1.864   5.093
13418WAT     H154378   0.434   1.943   5.118
13418WAT     H254379   0.329   1.880   5.057
13418WAT    EPW54380   0.399   1.878   5.092
13419WAT      O54381   0.810   3.061   5.240
13419WAT     H154382   0.877   3.047   5.186
13419WAT     H254383   0.846   3.053   5.319
13419WAT    EPW54384   0.825   3.058   5.244
13420WAT      O54385   1.089   1.498   6.156
13420WAT     H154386   1.165   1.505   6.113
13420WAT     H254387   1.095   1.421   6.196
13420WAT    EPW54388   1.101   1.488   6.156
13421WAT      O54389   0.578   2.661   6.600
13421WAT     H154390   0.575   2.700   6.678
13421WAT     H254391   0.664   2.657   6.583
13421WAT    EPW54392   0.590   2.666   6.609
13422WAT      O54393   0.292   2.681   5.075
13422WAT     H154394   0.274   2.736   5.141
13422WAT     H254395   0.369   2.710   5.045
13422WAT    EPW54396   0.301   2.693   5.080
13423WAT      O54397   0.643   1.471   5.180
13423WAT     H154398   0.697   1.402   5.188
13423WAT     H254399   0.649   1.510   5.258
13423WAT    EPW54400   0.652   1.466   5.193
13424WAT      O54401   0.369   1.708   5.312
13424WAT     H154402   0.318   1.642   5.286
13424WAT     H254403   0.374   1.759   5.241
13424WAT    EPW54404   0.362   1.706   5.298
13425WAT      O54405   0.423   2.978   6.350
13425WAT     H154406   0.500   2.970   6.309
13425WAT     H254407   0.365   2.966   6.286
13425WAT    EPW54408   0.426   2.975   6.334
13426WAT      O54409   0.369   1.402   5.301
13426WAT     H154410   0.323   1.362   5.238
13426WAT     H254411   0.446   1.418   5.263
13426WAT    EPW54412   0.373   1.399   5.286
13427WAT      O54413   1.051   3.038   5.640
13427WAT     H154414   1.006   3.110   5.660
13427WAT     H254415   0.990   2.981   5.616
13427WAT    EPW54416   1.035   3.040   5.639
13428WAT      O54417   0.228   1.639   5.753
13428WAT     H154418   0.236   1.696   5.687
13428WAT     H254419   0.240   1.688   5.824
13428WAT    EPW54420   0.231   1.655   5.754
13429WAT      O54421   0.751   2.623   5.594
13429WAT     H154422   0.821   2.574   5.613
13429WAT     H254423   0.685   2.566   5.599
13429WAT    EPW54424   0.751   2.607   5.598
13430WAT      O54425   0.608   1.656   6.342
13430WAT     H154426   0.598   1.688   6.422
13430WAT     H254427   0.548   1.592   6.338
13430WAT    EPW54428   0.597   1.651   6.353
13431WAT      O54429   0.677   2.328   6.162
13431WAT     H154430   0.626   2.287   6.219
13431WAT     H254431   0.665   2.412   6.180
13431WAT    EPW54432   0.668   2.334   6.173
13432WAT      O54433   0.733   1.250   5.625
13432WAT     H154434   0.738   1.219   5.707
13432WAT     H254435   0.765   1.186   5.576
13432WAT    EPW54436   0.739   1.236   5.630
13433WAT      O54437   0.980   1.674   6.456
13433WAT     H154438   1.057   1.652   6.490
13433WAT     H254439   0.932   1.696   6.526
13433WAT    EPW54440   0.984   1.674   6.472
13434WAT      O54441   1.003   2.372   5.175
13434WAT     H154442   1.015   2.343   5.257
13434WAT     H254443   1.083   2.374   5.142
13434WAT    EPW54444   1.016   2.368   5.182
13435WAT      O54445   1.226   2.823   6.600
13435WAT     H154446   1.158   2.854   6.556
13435WAT     H254447   1.189   2.777   6.665
13435WAT    EPW54448   1.211   2.821   6.603
13436WAT      O54449   0.792   2.026   5.134
13436WAT     H154450   0.770   2.099   5.091
13436WAT     H254451   0.747   2.031   5.208
13436WAT    EPW54452   0.782   2.037   5.138
13437WAT      O54453   1.211   1.512   5.079
13437WAT     H154454   1.145   1.455   5.081
13437WAT     H254455   1.192   1.563   5.011
13437WAT    EPW54456   1.198   1.511   5.069
13438WAT      O54457   1.243   1.949   6.334
13438WAT     H154458   1.265   1.869   6.307
13438WAT     H254459   1.158   1.955   6.316
13438WAT    EPW54460   1.234   1.939   6.328
13439WAT      O54461   1.011   1.467   5.307
13439WAT     H154462   1.086   1.427   5.327
13439WAT     H254463   1.037   1.539   5.264
13439WAT    EPW54464   1.026   1.472   5.303
13440WAT      O54465   0.405   2.716   5.764
13440WAT     H154466   0.353   2.779   5.735
13440WAT     H254467   0.436   2.680   5.691
13440WAT    EPW54468   0.402   2.720   5.749
13441WAT      O54469   0.657   1.696   5.814
13441WAT     H154470   0.691   1.711   5.893
13441WAT     H254471   0.611   1.622   5.825
13441WAT    EPW54472   0.655   1.688   5.827
13442WAT      O54473   1.010   2.861   6.409
13442WAT     H154474   0.942   2.912   6.431
13442WAT     H254475   1.016   2.871   6.323
13442WAT    EPW54476   1.001   2.870   6.400
13443WAT      O54477   0.789   1.829   6.069
13443WAT     H154478   0.722   1.862   6.116
13443WAT     H254479   0.807   1.893   6.013
13443WAT    EPW54480   0.782   1.844   6.068
13444WAT      O54481   0.209   2.936   6.169
13444WAT     H154482   0.181   2.872   6.117
13444WAT     H254483   0.188   3.008   6.125
13444WAT    EPW54484   0.202   2.937   6.155
13445WAT      O54485   0.453   1.420   6.412
13445WAT     H154486   0.468   1.338   6.388
13445WAT     H254487   0.491   1.426   6.491
13445WAT    EPW54488   0.461   1.409   6.420
13446WAT      O54489   0.608   1.626   5.421
13446WAT     H154490   0.657   1.698   5.413
13446WAT     H254491   0.529   1.652   5.394
13446WAT    EPW54492   0.604   1.641   5.416
13447WAT      O54493   0.739   2.414   6.612
13447WAT     H154494   0.788   2.486   6.621
13447WAT     H254495   0.779   2.371   6.546
13447WAT    EPW54496   0.752   2.418   6.603
13448WAT      O54497   0.266   1.773   5.993
13448WAT     H154498   0.314   1.843   6.014
13448WAT     H254499   0.303   1.709   6.038
13448WAT    EPW54500   0.279   1.774   6.003
13449WAT      O54501   0.485   2.090   5.220
13449WAT     H154502   0.484   2.162   5.171
13449WAT     H254503   0.421   2.104   5.278
13449WAT    EPW54504   0.476   2.103   5.222
13450WAT      O54505   0.982   2.477   5.619
13450WAT     H154506   1.018   2.442   5.690
13450WAT     H254507   0.981   2.411   5.562
13450WAT    EPW54508   0.987   2.462   5.621
13451WAT      O54509   0.587   2.784   6.003
13451WAT     H154510   0.526   2.754   5.947
13451WAT     H254511   0.641   2.829   5.952
13451WAT    EPW54512   0.586   2.786   5.987
13452WAT      O54513   0.588   2.469   5.943
13452WAT     H154514   0.508   2.491   5.970
13452WAT     H254515   0.614   2.410   6.001
13452WAT    EPW54516   0.580   2.463   5.956
13453WAT      O54517   0.206   2.902   5.228
13453WAT     H154518   0.269   2.918   5.287
13453WAT     H254519   0.210   2.971   5.175
13453WAT    EPW54520   0.216   2.914   5.229
13454WAT      O54521   0.914   2.269   6.428
13454WAT     H154522   0.920   2.281   6.341
13454WAT     H254523   0.989   2.301   6.458
13454WAT    EPW54524   0.926   2.275   6.419
13455WAT      O54525   0.533   2.804   6.855
13455WAT     H154526   0.550   2.832   6.936
13455WAT     H254527   0.559   2.870   6.805
13455WAT    EPW54528   0.539   2.818   6.860
13456WAT      O54529   1.017   1.299   6.726
13456WAT     H154530   0.954   1.259   6.682
13456WAT     H254531   1.020   1.255   6.802
13456WAT    EPW54532   1.008   1.286   6.731
13457WAT      O54533   0.487   2.249   6.388
13457WAT     H154534   0.472   2.310   6.448
13457WAT     H254535   0.541   2.194   6.428
13457WAT    EPW54536   0.493   2.250   6.402
13458WAT      O54537   0.326   2.089   5.453
13458WAT     H154538   0.331   2.154   5.511
13458WAT     H254539   0.307   2.020   5.502
13458WAT    EPW54540   0.324   2.089   5.469
13459WAT      O54541   0.848   2.522   6.040
13459WAT     H154542   0.800   2.552   5.974
13459WAT     H254543   0.813   2.445   6.058
13459WAT    EPW54544   0.836   2.515   6.033
13460WAT      O54545   0.248   2.294   5.896
13460WAT     H154546   0.163   2.275   5.905
13460WAT     H254547   0.280   2.278   5.976
13460WAT    EPW54548   0.240   2.289   5.909
13461WAT      O54549   1.217   2.939   5.234
13461WAT     H154550   1.287   2.892   5.209
13461WAT     H254551   1.163   2.879   5.268
13461WAT    EPW54552   1.220   2.923   5.236
13462WAT      O54553   0.941   2.216   6.152
13462WAT     H154554   0.941   2.139   6.192
13462WAT     H254555   0.857   2.240   6.151
13462WAT    EPW54556   0.929   2.208   6.158
13463WAT      O54557   1.067   2.224   5.896
13463WAT     H154558   1.038   2.264   5.968
13463WAT     H254559   1.153   2.217   5.909
13463WAT    EPW54560   1.075   2.229   5.908
13464WAT      O54561   0.833   1.616   6.750
13464WAT     H154562   0.781   1.662   6.802
13464WAT     H254563   0.797   1.536   6.749
13464WAT    EPW54564   0.820   1.611   6.757
13465WAT      O54565   1.180   2.787   5.949
13465WAT     H154566   1.209   2.813   5.871
13465WAT     H254567   1.249   2.796   6.001
13465WAT    EPW54568   1.195   2.792   5.945
13466WAT      O54569   0.682   1.973   6.757
13466WAT     H154570   0.690   1.983   6.844
13466WAT     H254571   0.619   2.029   6.735
13466WAT    EPW54572   0.674   1.983   6.767
13467WAT      O54573   0.909   2.005   6.594
13467WAT     H154574   0.941   2.083   6.614
13467WAT     H254575   0.872   1.978   6.668
13467WAT    EPW54576   0.908   2.012   6.608
13468WAT      O54577   0.840   2.647   5.147
13468WAT     H154578   0.874   2.567   5.150
13468WAT     H254579   0.765   2.640   5.190
13468WAT    EPW54580   0.834   2.634   5.154
13469WAT      O54581   0.889   1.831   5.713
13469WAT     H154582   0.814   1.798   5.745
13469WAT     H254583   0.889   1.913   5.741
13469WAT    EPW54584   0.878   1.838   5.722
13470WAT      O54585   1.179   2.059   6.867
13470WAT     H154586   1.174   2.025   6.787
13470WAT     H254587   1.253   2.106   6.865
13470WAT    EPW54588   1.189   2.061   6.855
13471WAT      O54589   1.133   2.427   6.488
13471WAT     H154590   1.195   2.372   6.462
13471WAT     H254591   1.127   2.483   6.422
13471WAT    EPW54592   1.141   2.427   6.474
13472WAT      O54593   0.578   2.435   5.087
13472WAT     H154594   0.646   2.383   5.070
13472WAT     H254595   0.536   2.439   5.011
13472WAT    EPW54596   0.582   2.428   5.073
13473WAT      O54597   0.780   1.464   6.459
13473WAT     H154598   0.854   1.509   6.453
13473WAT     H254599   0.723   1.511   6.412
13473WAT    EPW54600   0.783   1.477   6.451
13474WAT      O54601   0.298   2.192   6.167
13474WAT     H154602   0.345   2.229   6.230
13474WAT     H254603   0.215   2.205   6.193
13474WAT    EPW54604   0.293   2.199   6.180
13475WAT      O54605   0.224   2.931   5.690
13475WAT     H154606   0.279   2.999   5.695
13475WAT     H254607   0.189   2.939   5.610
13475WAT    EPW54608   0.227   2.943   5.679
13476WAT      O54609   0.908   1.262   6.226
13476WAT     H154610   0.880   1.344   6.222
13476WAT     H254611   0.980   1.267   6.276
13476WAT    EPW54612   0.915   1.275   6.233
13477WAT      O54613   0.473   2.417   6.727
13477WAT     H154614   0.549   2.446   6.695
13477WAT     H254615   0.419   2.423   6.660
13477WAT    EPW54616   0.476   2.422   6.712
13478WAT      O54617   0.864   2.672   6.578
13478WAT     H154618   0.899   2.699   6.653
13478WAT     H254619   0.894   2.731   6.520
13478WAT    EPW54620   0.874   2.685   6.580
13479WAT      O54621   1.050   1.887   5.112
13479WAT     H154622   1.088   1.955   5.072
13479WAT     H254623   0.966   1.909   5.115
13479WAT    EPW54624   1.044   1.900   5.106
13480WAT      O54625   0.596   1.749   6.594
13480WAT     H154626   0.532   1.796   6.629
13480WAT     H254627   0.653   1.740   6.660
13480WAT    EPW54628   0.595   1.754   6.609
13481WAT      O54629   0.565   1.902   6.224
13481WAT     H154630   0.595   1.944   6.294
13481WAT     H254631   0.569   1.818   6.247
13481WAT    EPW54632   0.570   1.896   6.238
13482WAT      O54633   0.308   2.919   6.616
13482WAT     H154634   0.355   2.859   6.575
13482WAT     H254635   0.273   2.875   6.683
13482WAT    EPW54636   0.310   2.904   6.620
13483WAT      O54637   0.820   1.847   5.449
13483WAT     H154638   0.841   1.827   5.532
13483WAT     H254639   0.896   1.874   5.415
13483WAT    EPW54640   0.834   1.848   5.456
13484WAT      O54641   0.922   1.455   5.597
13484WAT     H154642   0.851   1.408   5.614
13484WAT     H254643   0.906   1.489   5.518
13484WAT    EPW54644   0.909   1.453   5.587
13485WAT      O54645   0.966   2.250   5.435
13485WAT     H154646   1.014   2.177   5.430
13485WAT     H254647   0.884   2.221   5.427
13485WAT    EPW54648   0.961   2.235   5.433
13486WAT      O54649   0.314   2.441   6.518
13486WAT     H154650   0.234   2.434   6.554
13486WAT     H254651   0.321   2.526   6.499
13486WAT    EPW54652   0.303   2.452   6.521
13487WAT      O54653   0.588   2.366   5.670
13487WAT     H154654   0.596   2.400   5.750
13487WAT     H254655   0.605   2.282   5.682
13487WAT    EPW54656   0.592   2.359   5.684
13488WAT      O54657   0.340   2.294   5.627
13488WAT     H154658   0.310   2.262   5.702
13488WAT     H254659   0.410   2.341   5.650
13488WAT    EPW54660   0.346   2.296   5.641
13489WAT      O54661   0.362   2.706   6.429
13489WAT     H154662   0.431   2.694   6.482
13489WAT     H254663   0.376   2.785   6.395
13489WAT    EPW54664   0.375   2.716   6.432
13490WAT      O54665   1.180   1.966   6.610
13490WAT     H154666   1.095   1.954   6.623
13490WAT     H254667   1.195   1.927   6.534
13490WAT    EPW54668   1.170   1.959   6.601
13491WAT      O54669   0.631   2.033   6.468
13491WAT     H154670   0.606   1.961   6.510
13491WAT     H254671   0.713   2.045   6.495
13491WAT    EPW54672   0.640   2.024   6.478
13492WAT      O54673   0.425   2.152   6.787
13492WAT     H154674   0.457   2.221   6.743
13492WAT     H254675   0.354   2.184   6.827
13492WAT    EPW54676   0.419   2.167   6.786
13493WAT      O54677   0.733   2.989   5.880
13493WAT     H154678   0.688   3.054   5.917
13493WAT     H254679   0.804   2.981   5.930
13493WAT    EPW54680   0.737   2.998   5.893
13494WAT      O54681   0.403   2.498   6.173
13494WAT     H154682   0.334   2.539   6.207
13494WAT     H254683   0.471   2.542   6.206
13494WAT    EPW54684   0.403   2.511   6.183
13495WAT      O54685   0.941   2.758   6.831
13495WAT     H154686   1.019   2.719   6.839
13495WAT     H254687   0.894   2.724   6.896
13495WAT    EPW54688   0.945   2.747   6.841
13496WAT      O54689   1.043   1.961   5.379
13496WAT     H154690   1.054   1.955   5.292
13496WAT     H254691   1.118   1.928   5.411
13496WAT    EPW54692   1.056   1.955   5.371
13497WAT      O54693   0.435   2.657   5.489
13497WAT     H154694   0.415   2.741   5.474
13497WAT     H254695   0.358   2.619   5.502
13497WAT    EPW54696   0.421   2.664   5.489
13498WAT      O54697   0.954   1.976   6.314
13498WAT     H154698   0.953   1.889   6.327
13498WAT     H254699   0.960   2.008   6.395
13498WAT    EPW54700   0.955   1.968   6.328
13499WAT      O54701   0.542   1.456   6.693
13499WAT     H154702   0.551   1.527   6.742
13499WAT     H254703   0.478   1.411   6.732
13499WAT    EPW54704   0.533   1.459   6.706
13500WAT      O54705   0.441   1.475   5.778
13500WAT     H154706   0.371   1.526   5.772
13500WAT     H254707   0.445   1.437   5.700
13500WAT    EPW54708   0.431   1.477   5.766
13501WAT      O54709   0.801   1.526   6.058
13501WAT     H154710   0.886   1.536   6.072
13501WAT     H254711   0.764   1.581   6.114
13501WAT    EPW54712   0.808   1.536   6.068
13502WAT      O54713   0.831   2.054   5.907
13502WAT     H154714   0.898   2.108   5.923
13502WAT     H254715   0.797   2.085   5.833
13502WAT    EPW54716   0.836   2.067   5.899
13503WAT      O54717   0.862   2.861   5.488
13503WAT     H154718   0.845   2.795   5.543
13503WAT     H254719   0.934   2.834   5.445
13503WAT    EPW54720   0.870   2.847   5.490
13504WAT      O54721   1.148   1.310   6.374
13504WAT     H154722   1.143   1.306   6.461
13504WAT     H254723   1.217   1.260   6.355
13504WAT    EPW54724   1.158   1.302   6.384
13505WAT      O54725   0.357   1.521   6.078
13505WAT     H154726   0.283   1.476   6.089
13505WAT     H254727   0.414   1.481   6.130
13505WAT    EPW54728   0.354   1.509   6.087
13506WAT      O54729   0.630   2.606   6.257
13506WAT     H154730   0.651   2.636   6.336
13506WAT     H254731   0.624   2.678   6.208
13506WAT    EPW54732   0.632   2.621   6.261
13507WAT      O54733   0.583   3.027   6.681
13507WAT     H154734   0.508   3.026   6.637
13507WAT     H254735   0.600   3.113   6.690
13507WAT    EPW54736   0.575   3.040   6.676
13508WAT      O54737   1.111   2.470   6.203
13508WAT     H154738   1.108   2.384   6.189
13508WAT     H254739   1.042   2.500   6.159
13508WAT    EPW54740   1.100   2.462   6.194
13509WAT      O54741   0.922   2.796   6.082
13509WAT     H154742   0.974   2.788   6.013
13509WAT     H254743   0.883   2.718   6.088
13509WAT    EPW54744   0.924   2.783   6.073
13510WAT      O54745   0.573   1.340   6.003
13510WAT     H154746   0.640   1.395   6.016
13510WAT     H254747   0.523   1.383   5.946
13510WAT    EPW54748   0.576   1.355   5.997
13511WAT      O54749   0.509   1.921   5.752
13511WAT     H154750   0.564   1.860   5.782
13511WAT     H254751   0.466   1.947   5.824
13511WAT    EPW54752   0.511   1.916   5.767
13512WAT      O54753   0.706   2.104   5.409
13512WAT     H154754   0.713   2.019   5.427
13512WAT     H254755   0.624   2.113   5.381
13512WAT    EPW54756   0.695   2.093   5.407
13513WAT      O54757   1.014   3.000   5.050
13513WAT     H154758   1.078   2.986   5.109
13513WAT     H254759   0.980   2.920   5.039
13513WAT    EPW54760   1.018   2.986   5.057
13514WAT      O54761   1.033   2.242   6.724
13514WAT     H154762   1.097   2.225   6.781
13514WAT     H254763   1.075   2.282   6.659
13514WAT    EPW54764   1.049   2.245   6.723
13515WAT      O54765   0.621   2.626   5.283
13515WAT     H154766   0.596   2.613   5.365
13515WAT     H254767   0.590   2.557   5.241
13515WAT    EPW54768   0.613   2.614   5.289
13516WAT      O54769   1.096   1.698   6.798
13516WAT     H154770   1.076   1.762   6.853
13516WAT     H254771   1.024   1.649   6.797
13516WAT    EPW54772   1.082   1.700   6.806
13517WAT      O54773   1.086   1.792   6.095
13517WAT     H154774   1.002   1.817   6.087
13517WAT     H254775   1.080   1.708   6.118
13517WAT    EPW54776   1.073   1.783   6.097
13518WAT      O54777   0.774   2.253   6.859
13518WAT     H154778   0.862   2.249   6.856
13518WAT     H254779   0.753   2.295   6.786
13518WAT    EPW54780   0.784   2.258   6.848
13519WAT      O54781   0.310   2.447   5.226
13519WAT     H154782   0.382   2.412   5.190
13519WAT     H254783   0.307   2.527   5.191
13519WAT    EPW54784   0.320   2.454   5.215
13520WAT      O54785   0.451   1.311   3.650
13520WAT     H154786   0.426   1.360   3.582
13520WAT     H254787   0.537   1.304   3.640
13520WAT    EPW54788   0.460   1.317   3.638
13521WAT      O54789   0.432   2.003   4.117
13521WAT     H154790   0.379   2.062   4.153
13521WAT     H254791   0.471   1.966   4.185
13521WAT    EPW54792   0.430   2.006   4.132
13522WAT      O54793   1.046   2.747   3.414
13522WAT     H154794   1.116   2.695   3.413
13522WAT     H254795   0.987   2.702   3.367
13522WAT    EPW54796   1.048   2.733   3.407
13523WAT      O54797   0.699   2.109   3.784
13523WAT     H154798   0.707   2.110   3.697
13523WAT     H254799   0.640   2.046   3.799
13523WAT    EPW54800   0.691   2.100   3.774
13524WAT      O54801   0.178   2.550   3.971
13524WAT     H154802   0.213   2.471   3.974
13524WAT     H254803   0.244   2.601   3.946
13524WAT    EPW54804   0.193   2.546   3.968
13525WAT      O54805   0.183   2.495   3.592
13525WAT     H154806   0.217   2.431   3.641
13525WAT     H254807   0.207   2.474   3.511
13525WAT    EPW54808   0.192   2.483   3.588
13526WAT      O54809   0.380   1.908   4.726
13526WAT     H154810   0.295   1.899   4.708
13526WAT     H254811   0.383   1.983   4.772
13526WAT    EPW54812   0.368   1.918   4.730
13527WAT      O54813   0.836   1.204   4.638
13527WAT     H154814   0.820   1.281   4.599
13527WAT     H254815   0.759   1.182   4.672
13527WAT    EPW54816   0.822   1.213   4.637
13528WAT      O54817   0.582   1.669   3.089
13528WAT     H154818   0.537   1.737   3.120
13528WAT     H254819   0.594   1.618   3.159
13528WAT    EPW54820   0.577   1.671   3.104
13529WAT      O54821   0.592   2.903   3.299
13529WAT     H154822   0.665   2.950   3.310
13529WAT     H254823   0.615   2.823   3.327
13529WAT    EPW54824   0.606   2.898   3.305
13530WAT      O54825   0.409   2.942   3.498
13530WAT     H154826   0.430   2.995   3.565
13530WAT     H254827   0.486   2.924   3.461
13530WAT    EPW54828   0.423   2.947   3.503
13531WAT      O54829   1.122   1.666   3.719
13531WAT     H154830   1.087   1.734   3.761
13531WAT     H254831   1.058   1.606   3.720
13531WAT    EPW54832   1.107   1.667   3.725
13532WAT      O54833   0.653   2.943   4.329
13532WAT     H154834   0.727   2.988   4.328
13532WAT     H254835   0.641   2.921   4.245
13532WAT    EPW54836   0.662   2.946   4.316
13533WAT      O54837   0.275   1.337   4.803
13533WAT     H154838   0.292   1.257   4.776
13533WAT     H254839   0.260   1.382   4.729
13533WAT    EPW54840   0.275   1.332   4.788
13534WAT      O54841   0.334   1.830   3.681
13534WAT     H154842   0.363   1.807   3.602
13534WAT     H254843   0.407   1.838   3.728
13534WAT    EPW54844   0.349   1.828   3.676
13535WAT      O54845   0.406   1.864   3.193
13535WAT     H154846   0.434   1.943   3.218
13535WAT     H254847   0.329   1.880   3.156
13535WAT    EPW54848   0.399   1.878   3.191
13536WAT      O54849   0.810   3.061   3.339
13536WAT     H154850   0.877   3.047   3.285
13536WAT     H254851   0.846   3.053   3.418
13536WAT    EPW54852   0.825   3.058   3.343
13537WAT      O54853   1.089   1.498   4.255
13537WAT     H154854   1.165   1.505   4.213
13537WAT     H254855   1.095   1.421   4.295
13537WAT    EPW54856   1.101   1.488   4.255
13538WAT      O54857   0.578   2.661   4.699
13538WAT     H154858   0.575   2.700   4.778
13538WAT     H254859   0.664   2.657   4.682
13538WAT    EPW54860   0.590   2.666   4.708
13539WAT      O54861   0.292   2.681   3.174
13539WAT     H154862   0.274   2.736   3.240
13539WAT     H254863   0.369   2.710   3.144
13539WAT    EPW54864   0.301   2.693   3.180
13540WAT      O54865   0.643   1.471   3.280
13540WAT     H154866   0.697   1.402   3.287
13540WAT     H254867   0.649   1.510   3.357
13540WAT    EPW54868   0.652   1.466   3.292
13541WAT      O54869   0.369   1.708   3.411
13541WAT     H154870   0.318   1.642   3.386
13541WAT     H254871   0.374   1.759   3.340
13541WAT    EPW54872   0.362   1.706   3.397
13542WAT      O54873   0.423   2.978   4.449
13542WAT     H154874   0.500   2.970   4.409
13542WAT     H254875   0.365   2.966   4.385
13542WAT    EPW54876   0.426   2.975   4.434
13543WAT      O54877   0.369   1.402   3.400
13543WAT     H154878   0.323   1.362   3.338
13543WAT     H254879   0.446   1.418   3.363
13543WAT    EPW54880   0.373   1.399   3.385
13544WAT      O54881   1.051   3.038   3.739
13544WAT     H154882   1.006   3.110   3.759
13544WAT     H254883   0.990   2.981   3.715
13544WAT    EPW54884   1.035   3.040   3.739
13545WAT      O54885   0.228   1.639   3.852
13545WAT     H154886   0.236   1.696   3.787
13545WAT     H254887   0.240   1.688   3.923
13545WAT    EPW54888   0.231   1.655   3.853
13546WAT      O54889   0.751   2.623   3.694
13546WAT     H154890   0.821   2.574   3.713
13546WAT     H254891   0.685   2.566   3.698
13546WAT    EPW54892   0.751   2.607   3.697
13547WAT      O54893   0.608   1.656   4.441
13547WAT     H154894   0.598   1.688   4.522
13547WAT     H254895   0.548   1.592   4.437
13547WAT    EPW54896   0.597   1.651   4.453
13548WAT      O54897   0.677   2.328   4.262
13548WAT     H154898   0.626   2.287   4.319
13548WAT     H254899   0.665   2.412   4.280
13548WAT    EPW54900   0.668   2.334   4.273
13549WAT      O54901   0.733   1.250   3.725
13549WAT     H154902   0.738   1.219   3.806
13549WAT     H254903   0.765   1.186   3.676
13549WAT    EPW54904   0.739   1.236   3.730
13550WAT      O54905   0.980   1.674   4.556
13550WAT     H154906   1.057   1.652   4.589
13550WAT     H254907   0.932   1.696   4.626
13550WAT    EPW54908   0.984   1.674   4.571
13551WAT      O54909   1.003   2.372   3.274
13551WAT     H154910   1.015   2.343   3.356
13551WAT     H254911   1.083   2.374   3.241
13551WAT    EPW54912   1.016   2.368   3.282
13552WAT      O54913   1.226   2.823   4.700
13552WAT     H154914   1.158   2.854   4.655
13552WAT     H254915   1.189   2.777   4.764
13552WAT    EPW54916   1.211   2.821   4.703
13553WAT      O54917   0.792   2.026   3.233
13553WAT     H154918   0.770   2.099   3.191
13553WAT     H254919   0.747   2.031   3.308
13553WAT    EPW54920   0.782   2.037   3.238
13554WAT      O54921   1.211   1.512   3.178
13554WAT     H154922   1.145   1.455   3.181
13554WAT     H254923   1.192   1.563   3.110
13554WAT    EPW54924   1.198   1.511   3.169
13555WAT      O54925   1.243   1.949   4.434
13555WAT     H154926   1.265   1.869   4.406
13555WAT     H254927   1.158   1.955   4.415
13555WAT    EPW54928   1.234   1.939   4.427
13556WAT      O54929   1.011   1.467   3.406
13556WAT     H154930   1.086   1.427   3.426
13556WAT     H254931   1.037   1.539   3.364
13556WAT    EPW54932   1.026   1.472   3.403
13557WAT      O54933   0.405   2.716   3.864
13557WAT     H154934   0.353   2.779   3.834
13557WAT     H254935   0.436   2.680   3.791
13557WAT    EPW54936   0.402   2.720   3.849
13558WAT      O54937   0.657   1.696   3.913
13558WAT     H154938   0.691   1.711   3.992
13558WAT     H254939   0.611   1.622   3.925
13558WAT    EPW54940   0.655   1.688   3.927
13559WAT      O54941   1.010   2.861   4.509
13559WAT     H154942   0.942   2.912   4.531
13559WAT     H254943   1.016   2.871   4.422
13559WAT    EPW54944   1.001   2.870   4.499
13560WAT      O54945   0.789   1.829   4.169
13560WAT     H154946   0.722   1.862   4.215
13560WAT     H254947   0.807   1.893   4.112
13560WAT    EPW54948   0.782   1.844   4.167
13561WAT      O54949   0.209   2.936   4.268
13561WAT     H154950   0.181   2.872   4.216
13561WAT     H254951   0.188   3.008   4.225
13561WAT    EPW54952   0.202   2.937   4.254
13562WAT      O54953   0.453   1.420   4.512
13562WAT     H154954   0.468   1.338   4.487
13562WAT     H254955   0.491   1.426   4.590
13562WAT    EPW54956   0.461   1.409   4.520
13563WAT      O54957   0.608   1.626   3.520
13563WAT     H154958   0.657   1.698   3.512
13563WAT     H254959   0.529   1.652   3.494
13563WAT    EPW54960   0.604   1.641   3.515
13564WAT      O54961   0.739   2.414   4.711
13564WAT     H154962   0.788   2.486   4.721
13564WAT     H254963   0.779   2.371   4.646
13564WAT    EPW54964   0.752   2.418   4.703
13565WAT      O54965   0.266   1.773   4.092
13565WAT     H154966   0.314   1.843   4.113
13565WAT     H254967   0.303   1.709   4.138
13565WAT    EPW54968   0.279   1.774   4.102
13566WAT      O54969   0.485   2.090   3.320
13566WAT     H154970   0.484   2.162   3.271
13566WAT     H254971   0.421   2.104   3.378
13566WAT    EPW54972   0.476   2.103   3.321
13567WAT      O54973   0.982   2.477   3.718
13567WAT     H154974   1.018   2.442   3.789
13567WAT     H254975   0.981   2.411   3.661
13567WAT    EPW54976   0.987   2.462   3.720
13568WAT      O54977   0.587   2.784   4.102
13568WAT     H154978   0.526   2.754   4.047
13568WAT     H254979   0.641   2.829   4.051
13568WAT    EPW54980   0.586   2.786   4.087
13569WAT      O54981   0.588   2.469   4.042
13569WAT     H154982   0.508   2.491   4.070
13569WAT     H254983   0.614   2.410   4.101
13569WAT    EPW54984   0.580   2.463   4.055
13570WAT      O54985   0.206   2.902   3.327
13570WAT     H154986   0.269   2.918   3.386
13570WAT     H254987   0.210   2.971   3.274
13570WAT    EPW54988   0.216   2.914   3.328
13571WAT      O54989   0.914   2.269   4.527
13571WAT     H154990   0.920   2.281   4.441
13571WAT     H254991   0.989   2.301   4.557
13571WAT    EPW54992   0.926   2.275   4.519
13572WAT      O54993   0.533   2.804   4.955
13572WAT     H154994   0.550   2.832   5.036
13572WAT     H254995   0.559   2.870   4.904
13572WAT    EPW54996   0.539   2.818   4.959
13573WAT      O54997   1.017   1.299   4.826
13573WAT     H154998   0.954   1.259   4.781
13573WAT     H254999   1.020   1.255   4.901
13573WAT    EPW55000   1.008   1.286   4.830
13574WAT      O55001   0.487   2.249   4.487
13574WAT     H155002   0.472   2.310   4.547
13574WAT     H255003   0.541   2.194   4.528
13574WAT    EPW55004   0.493   2.250   4.502
13575WAT      O55005   0.326   2.089   3.553
13575WAT     H155006   0.331   2.154   3.611
13575WAT     H255007   0.307   2.020   3.602
13575WAT    EPW55008   0.324   2.089   3.569
13576WAT      O55009   0.848   2.522   4.140
13576WAT     H155010   0.800   2.552   4.073
13576WAT     H255011   0.813   2.445   4.157
13576WAT    EPW55012   0.836   2.515   4.132
13577WAT      O55013   0.248   2.294   3.996
13577WAT     H155014   0.163   2.275   4.004
13577WAT     H255015   0.280   2.278   4.075
13577WAT    EPW55016   0.240   2.289   4.009
13578WAT      O55017   1.217   2.939   3.334
13578WAT     H155018   1.287   2.892   3.309
13578WAT     H255019   1.163   2.879   3.367
13578WAT    EPW55020   1.220   2.923   3.335
13579WAT      O55021   0.941   2.216   4.252
13579WAT     H155022   0.941   2.139   4.291
13579WAT     H255023   0.857   2.240   4.251
13579WAT    EPW55024   0.929   2.208   4.257
13580WAT      O55025   1.067   2.224   3.995
13580WAT     H155026   1.038   2.264   4.067
13580WAT     H255027   1.153   2.217   4.008
13580WAT    EPW55028   1.075   2.229   4.008
13581WAT      O55029   0.833   1.616   4.849
13581WAT     H155030   0.781   1.662   4.902
13581WAT     H255031   0.797   1.536   4.849
13581WAT    EPW55032   0.820   1.611   4.857
13582WAT      O55033   1.180   2.787   4.048
13582WAT     H155034   1.209   2.813   3.970
13582WAT     H255035   1.249   2.796   4.100
13582WAT    EPW55036   1.195   2.792   4.044
13583WAT      O55037   0.682   1.973   4.857
13583WAT     H155038   0.690   1.983   4.943
13583WAT     H255039   0.619   2.029   4.835
13583WAT    EPW55040   0.674   1.983   4.866
13584WAT      O55041   0.909   2.005   4.693
13584WAT     H155042   0.941   2.083   4.714
13584WAT     H255043   0.872   1.978   4.768
13584WAT    EPW55044   0.908   2.012   4.707
13585WAT      O55045   0.840   2.647   3.246
13585WAT     H155046   0.874   2.567   3.250
13585WAT     H255047   0.765   2.640   3.289
13585WAT    EPW55048   0.834   2.634   3.253
13586WAT      O55049   0.889   1.831   3.812
13586WAT     H155050   0.814   1.798   3.844
13586WAT     H255051   0.889   1.913   3.840
13586WAT    EPW55052   0.878   1.838   3.821
13587WAT      O55053   1.179   2.059   4.967
13587WAT     H155054   1.174   2.025   4.887
13587WAT     H255055   1.253   2.106   4.965
13587WAT    EPW55056   1.189   2.061   4.955
13588WAT      O55057   1.133   2.427   4.587
13588WAT     H155058   1.195   2.372   4.562
13588WAT     H255059   1.127   2.483   4.521
13588WAT    EPW55060   1.141   2.427   4.574
13589WAT      O55061   0.578   2.435   3.187
13589WAT     H155062   0.646   2.383   3.170
13589WAT     H255063   0.536   2.439   3.110
13589WAT    EPW55064   0.582   2.428   3.173
13590WAT      O55065   0.780   1.464   4.558
13590WAT     H155066   0.854   1.509   4.552
13590WAT     H255067   0.723   1.511   4.511
13590WAT    EPW55068   0.783   1.477   4.551
13591WAT      O55069   0.298   2.192   4.266
13591WAT     H155070   0.345   2.229   4.329
13591WAT     H255071   0.215   2.205   4.292
13591WAT    EPW55072   0.293   2.199   4.279
13592WAT      O55073   0.224   2.931   3.789
13592WAT     H155074   0.279   2.999   3.794
13592WAT     H255075   0.189   2.939   3.709
13592WAT    EPW55076   0.227   2.943   3.778
13593WAT      O55077   0.908   1.262   4.325
13593WAT     H155078   0.880   1.344   4.321
13593WAT     H255079   0.980   1.267   4.375
13593WAT    EPW55080   0.915   1.275   4.332
13594WAT      O55081   0.473   2.417   4.827
13594WAT     H155082   0.549   2.446   4.794
13594WAT     H255083   0.419   2.423   4.759
13594WAT    EPW55084   0.476   2.422   4.812
13595WAT      O55085   0.864   2.672   4.677
13595WAT     H155086   0.899   2.699   4.753
13595WAT     H255087   0.894   2.731   4.619
13595WAT    EPW55088   0.874   2.685   4.680
13596WAT      O55089   1.050   1.887   3.211
13596WAT     H155090   1.088   1.955   3.171
13596WAT     H255091   0.966   1.909   3.214
13596WAT    EPW55092   1.044   1.900   3.206
13597WAT      O55093   0.596   1.749   4.694
13597WAT     H155094   0.532   1.796   4.728
13597WAT     H255095   0.653   1.740   4.759
13597WAT    EPW55096   0.595   1.754   4.708
13598WAT      O55097   0.565   1.902   4.323
13598WAT     H155098   0.595   1.944   4.394
13598WAT     H255099   0.569   1.818   4.347
13598WAT    EPW55100   0.570   1.896   4.337
13599WAT      O55101   0.308   2.919   4.716
13599WAT     H155102   0.355   2.859   4.674
13599WAT     H255103   0.273   2.875   4.782
13599WAT    EPW55104   0.310   2.904   4.720
13600WAT      O55105   0.820   1.847   3.549
13600WAT     H155106   0.841   1.827   3.631
13600WAT     H255107   0.896   1.874   3.514
13600WAT    EPW55108   0.834   1.848   3.556
13601WAT      O55109   0.922   1.455   3.696
13601WAT     H155110   0.851   1.408   3.713
13601WAT     H255111   0.906   1.489   3.617
13601WAT    EPW55112   0.909   1.453   3.687
13602WAT      O55113   0.966   2.250   3.534
13602WAT     H155114   1.014   2.177   3.529
13602WAT     H255115   0.884   2.221   3.526
13602WAT    EPW55116   0.961   2.235   3.532
13603WAT      O55117   0.314   2.441   4.618
13603WAT     H155118   0.234   2.434   4.653
13603WAT     H255119   0.321   2.526   4.598
13603WAT    EPW55120   0.303   2.452   4.620
13604WAT      O55121   0.588   2.366   3.769
13604WAT     H155122   0.596   2.400   3.849
13604WAT     H255123   0.605   2.282   3.782
13604WAT    EPW55124   0.592   2.359   3.783
13605WAT      O55125   0.340   2.294   3.726
13605WAT     H155126   0.310   2.262   3.802
13605WAT     H255127   0.410   2.341   3.749
13605WAT    EPW55128   0.346   2.296   3.741
13606WAT      O55129   0.362   2.706   4.529
13606WAT     H155130   0.431   2.694   4.581
13606WAT     H255131   0.376   2.785   4.494
13606WAT    EPW55132   0.375   2.716   4.531
13607WAT      O55133   1.180   1.966   4.710
13607WAT     H155134   1.095   1.954   4.722
13607WAT     H255135   1.195   1.927   4.633
13607WAT    EPW55136   1.170   1.959   4.700
13608WAT      O55137   0.631   2.033   4.567
13608WAT     H155138   0.606   1.961   4.610
13608WAT     H255139   0.713   2.045   4.594
13608WAT    EPW55140   0.640   2.024   4.578
13609WAT      O55141   0.425   2.152   4.886
13609WAT     H155142   0.457   2.221   4.843
13609WAT     H255143   0.354   2.184   4.926
13609WAT    EPW55144   0.419   2.167   4.886
13610WAT      O55145   0.733   2.989   3.979
13610WAT     H155146   0.688   3.054   4.017
13610WAT     H255147   0.804   2.981   4.029
13610WAT    EPW55148   0.737   2.998   3.992
13611WAT      O55149   0.403   2.498   4.272
13611WAT     H155150   0.334   2.539   4.306
13611WAT     H255151   0.471   2.542   4.306
13611WAT    EPW55152   0.403   2.511   4.282
13612WAT      O55153   0.941   2.758   4.930
13612WAT     H155154   1.019   2.719   4.938
13612WAT     H255155   0.894   2.724   4.995
13612WAT    EPW55156   0.945   2.747   4.941
13613WAT      O55157   1.043   1.961   3.478
13613WAT     H155158   1.054   1.955   3.392
13613WAT     H255159   1.118   1.928   3.510
13613WAT    EPW55160   1.056   1.955   3.470
13614WAT      O55161   0.435   2.657   3.589
13614WAT     H155162   0.415   2.741   3.573
13614WAT     H255163   0.358   2.619   3.601
13614WAT    EPW55164   0.421   2.664   3.588
13615WAT      O55165   0.954   1.976   4.414
13615WAT     H155166   0.953   1.889   4.426
13615WAT     H255167   0.960   2.008   4.494
13615WAT    EPW55168   0.955   1.968   4.427
13616WAT      O55169   0.542   1.456   4.792
13616WAT     H155170   0.551   1.527   4.841
13616WAT     H255171   0.478   1.411   4.832
13616WAT    EPW55172   0.533   1.459   4.805
13617WAT      O55173   0.441   1.475   3.877
13617WAT     H155174   0.371   1.526   3.872
13617WAT     H255175   0.445   1.437   3.799
13617WAT    EPW55176   0.431   1.477   3.865
13618WAT      O55177   0.801   1.526   4.157
13618WAT     H155178   0.886   1.536   4.172
13618WAT     H255179   0.764   1.581   4.214
13618WAT    EPW55180   0.808   1.536   4.168
13619WAT      O55181   0.831   2.054   4.006
13619WAT     H155182   0.898   2.108   4.022
13619WAT     H255183   0.797   2.085   3.933
13619WAT    EPW55184   0.836   2.067   3.998
13620WAT      O55185   0.862   2.861   3.587
13620WAT     H155186   0.845   2.795   3.642
13620WAT     H255187   0.934   2.834   3.545
13620WAT    EPW55188   0.870   2.847   3.589
13621WAT      O55189   1.148   1.310   4.473
13621WAT     H155190   1.143   1.306   4.560
13621WAT     H255191   1.217   1.260   4.454
13621WAT    EPW55192   1.158   1.302   4.483
13622WAT      O55193   0.357   1.521   4.177
13622WAT     H155194   0.283   1.476   4.189
13622WAT     H255195   0.414   1.481   4.230
13622WAT    EPW55196   0.354   1.509   4.187
13623WAT      O55197   0.630   2.606   4.356
13623WAT     H155198   0.651   2.636   4.435
13623WAT     H255199   0.624   2.678   4.308
13623WAT    EPW55200   0.632   2.621   4.361
13624WAT      O55201   0.583   3.027   4.781
13624WAT     H155202   0.508   3.026   4.737
13624WAT     H255203   0.600   3.113   4.789
13624WAT    EPW55204   0.575   3.040   4.776
13625WAT      O55205   1.111   2.470   4.302
13625WAT     H155206   1.108   2.384   4.289
13625WAT     H255207   1.042   2.500   4.259
13625WAT    EPW55208   1.100   2.462   4.294
13626WAT      O55209   0.922   2.796   4.182
13626WAT     H155210   0.974   2.788   4.113
13626WAT     H255211   0.883   2.718   4.187
13626WAT    EPW55212   0.924   2.783   4.172
13627WAT      O55213   0.573   1.340   4.103
13627WAT     H155214   0.640   1.395   4.115
13627WAT     H255215   0.523   1.383   4.045
13627WAT    EPW55216   0.576   1.355   4.096
13628WAT      O55217   0.509   1.921   3.852
13628WAT     H155218   0.564   1.860   3.882
13628WAT     H255219   0.466   1.947   3.923
13628WAT    EPW55220   0.511   1.916   3.867
13629WAT      O55221   0.706   2.104   3.508
13629WAT     H155222   0.713   2.019   3.526
13629WAT     H255223   0.624   2.113   3.480
13629WAT    EPW55224   0.695   2.093   3.507
13630WAT      O55225   1.014   3.000   3.150
13630WAT     H155226   1.078   2.986   3.208
13630WAT     H255227   0.980   2.920   3.138
13630WAT    EPW55228   1.018   2.986   3.157
13631WAT      O55229   1.033   2.242   4.823
13631WAT     H155230   1.097   2.225   4.881
13631WAT     H255231   1.075   2.282   4.758
13631WAT    EPW55232   1.049   2.245   4.822
13632WAT      O55233   0.621   2.626   3.382
13632WAT     H155234   0.596   2.613   3.465
13632WAT     H255235   0.590   2.557   3.340
13632WAT    EPW55236   0.613   2.614   3.388
13633WAT      O55237   1.096   1.698   4.897
13633WAT     H155238   1.076   1.762   4.952
13633WAT     H255239   1.024   1.649   4.896
13633WAT    EPW55240   1.082   1.700   4.905
13634WAT      O55241   1.086   1.792   4.194
13634WAT     H155242   1.002   1.817   4.187
13634WAT     H255243   1.080   1.708   4.217
13634WAT    EPW55244   1.073   1.783   4.196
13635WAT      O55245   0.774   2.253   4.959
13635WAT     H155246   0.862   2.249   4.955
13635WAT     H255247   0.753   2.295   4.885
13635WAT    EPW55248   0.784   2.258   4.947
13636WAT      O55249   0.310   2.447   3.325
13636WAT     H155250   0.382   2.412   3.289
13636WAT     H255251   0.307   2.527   3.290
13636WAT    EPW55252   0.320   2.454   3.315
13637WAT      O55253   0.451   1.311   1.749
13637WAT     H155254   0.426   1.360   1.681
13637WAT     H255255   0.537   1.304   1.739
13637WAT    EPW55256   0.460   1.317   1.737
13638WAT      O55257   0.432   2.003   2.216
13638WAT     H155258   0.379   2.062   2.252
13638WAT     H255259   0.471   1.966   2.284
13638WAT    EPW55260   0.430   2.006   2.232
13639WAT      O55261   1.046   2.747   1.513
13639WAT     H155262   1.116   2.695   1.513
13639WAT     H255263   0.987   2.702   1.466
13639WAT    EPW55264   1.048   2.733   1.506
13640WAT      O55265   0.699   2.109   1.884
13640WAT     H155266   0.707   2.110   1.797
13640WAT     H255267   0.640   2.046   1.899
13640WAT    EPW55268   0.691   2.100   1.873
13641WAT      O55269   0.178   2.550   2.071
13641WAT     H155270   0.213   2.471   2.074
13641WAT     H255271   0.244   2.601   2.045
13641WAT    EPW55272   0.193   2.546   2.067
13642WAT      O55273   0.183   2.495   1.692
13642WAT     H155274   0.217   2.431   1.740
13642WAT     H255275   0.207   2.474   1.611
13642WAT    EPW55276   0.192   2.483   1.687
13643WAT      O55277   0.380   1.908   2.826
13643WAT     H155278   0.295   1.899   2.808
13643WAT     H255279   0.383   1.983   2.871
13643WAT    EPW55280   0.368   1.918   2.830
13644WAT      O55281   0.836   1.204   2.737
13644WAT     H155282   0.820   1.281   2.699
13644WAT     H255283   0.759   1.182   2.771
13644WAT    EPW55284   0.822   1.213   2.737
13645WAT      O55285   0.582   1.669   1.188
13645WAT     H155286   0.537   1.737   1.219
13645WAT     H255287   0.594   1.618   1.259
13645WAT    EPW55288   0.577   1.671   1.203
13646WAT      O55289   0.592   2.903   1.399
13646WAT     H155290   0.665   2.950   1.409
13646WAT     H255291   0.615   2.823   1.427
13646WAT    EPW55292   0.606   2.898   1.405
13647WAT      O55293   0.409   2.942   1.598
13647WAT     H155294   0.430   2.995   1.664
13647WAT     H255295   0.486   2.924   1.560
13647WAT    EPW55296   0.423   2.947   1.602
13648WAT      O55297   1.122   1.666   1.818
13648WAT     H155298   1.087   1.734   1.861
13648WAT     H255299   1.058   1.606   1.820
13648WAT    EPW55300   1.107   1.667   1.824
13649WAT      O55301   0.653   2.943   2.428
13649WAT     H155302   0.727   2.988   2.427
13649WAT     H255303   0.641   2.921   2.345
13649WAT    EPW55304   0.662   2.946   2.416
13650WAT      O55305   0.275   1.337   2.903
13650WAT     H155306   0.292   1.257   2.875
13650WAT     H255307   0.260   1.382   2.829
13650WAT    EPW55308   0.275   1.332   2.888
13651WAT      O55309   0.334   1.830   1.780
13651WAT     H155310   0.363   1.807   1.701
13651WAT     H255311   0.407   1.838   1.827
13651WAT    EPW55312   0.349   1.828   1.775
13652WAT      O55313   0.406   1.864   1.292
13652WAT     H155314   0.434   1.943   1.317
13652WAT     H255315   0.329   1.880   1.256
13652WAT    EPW55316   0.399   1.878   1.290
13653WAT      O55317   0.810   3.061   1.439
13653WAT     H155318   0.877   3.047   1.384
13653WAT     H255319   0.846   3.053   1.518
13653WAT    EPW55320   0.825   3.058   1.442
13654WAT      O55321   1.089   1.498   2.355
13654WAT     H155322   1.165   1.505   2.312
13654WAT     H255323   1.095   1.421   2.395
13654WAT    EPW55324   1.101   1.488   2.354
13655WAT      O55325   0.578   2.661   2.799
13655WAT     H155326   0.575   2.700   2.877
13655WAT     H255327   0.664   2.657   2.782
13655WAT    EPW55328   0.590   2.666   2.808
13656WAT      O55329   0.292   2.681   1.274
13656WAT     H155330   0.274   2.736   1.339
13656WAT     H255331   0.369   2.710   1.244
13656WAT    EPW55332   0.301   2.693   1.279
13657WAT      O55333   0.643   1.471   1.379
13657WAT     H155334   0.697   1.402   1.387
13657WAT     H255335   0.649   1.510   1.457
13657WAT    EPW55336   0.652   1.466   1.392
13658WAT      O55337   0.369   1.708   1.511
13658WAT     H155338   0.318   1.642   1.485
13658WAT     H255339   0.374   1.759   1.440
13658WAT    EPW55340   0.362   1.706   1.496
13659WAT      O55341   0.423   2.978   2.549
13659WAT     H155342   0.500   2.970   2.508
13659WAT     H255343   0.365   2.966   2.485
13659WAT    EPW55344   0.426   2.975   2.533
13660WAT      O55345   0.369   1.402   1.500
13660WAT     H155346   0.323   1.362   1.437
13660WAT     H255347   0.446   1.418   1.462
13660WAT    EPW55348   0.373   1.399   1.485
13661WAT      O55349   1.051   3.038   1.839
13661WAT     H155350   1.006   3.110   1.859
13661WAT     H255351   0.990   2.981   1.814
13661WAT    EPW55352   1.035   3.040   1.838
13662WAT      O55353   0.228   1.639   1.952
13662WAT     H155354   0.236   1.696   1.886
13662WAT     H255355   0.240   1.688   2.023
13662WAT    EPW55356   0.231   1.655   1.953
13663WAT      O55357   0.751   2.623   1.793
13663WAT     H155358   0.821   2.574   1.812
13663WAT     H255359   0.685   2.566   1.798
13663WAT    EPW55360   0.751   2.607   1.796
13664WAT      O55361   0.608   1.656   2.541
13664WAT     H155362   0.598   1.688   2.621
13664WAT     H255363   0.548   1.592   2.537
13664WAT    EPW55364   0.597   1.651   2.552
13665WAT      O55365   0.677   2.328   2.361
13665WAT     H155366   0.626   2.287   2.418
13665WAT     H255367   0.665   2.412   2.379
13665WAT    EPW55368   0.668   2.334   2.372
13666WAT      O55369   0.733   1.250   1.824
13666WAT     H155370   0.738   1.219   1.905
13666WAT     H255371   0.765   1.186   1.775
13666WAT    EPW55372   0.739   1.236   1.829
13667WAT      O55373   0.980   1.674   2.655
13667WAT     H155374   1.057   1.652   2.689
13667WAT     H255375   0.932   1.696   2.725
13667WAT    EPW55376   0.984   1.674   2.670
13668WAT      O55377   1.003   2.372   1.374
13668WAT     H155378   1.015   2.343   1.455
13668WAT     H255379   1.083   2.374   1.341
13668WAT    EPW55380   1.016   2.368   1.381
13669WAT      O55381   1.226   2.823   2.799
13669WAT     H155382   1.158   2.854   2.755
13669WAT     H255383   1.189   2.777   2.864
13669WAT    EPW55384   1.211   2.821   2.802
13670WAT      O55385   0.792   2.026   1.332
13670WAT     H155386   0.770   2.099   1.290
13670WAT     H255387   0.747   2.031   1.407
13670WAT    EPW55388   0.782   2.037   1.337
13671WAT      O55389   1.211   1.512   1.278
13671WAT     H155390   1.145   1.455   1.280
13671WAT     H255391   1.192   1.563   1.210
13671WAT    EPW55392   1.198   1.511   1.268
13672WAT      O55393   1.243   1.949   2.533
13672WAT     H155394   1.265   1.869   2.506
13672WAT     H255395   1.158   1.955   2.514
13672WAT    EPW55396   1.234   1.939   2.526
13673WAT      O55397   1.011   1.467   1.506
13673WAT     H155398   1.086   1.427   1.525
13673WAT     H255399   1.037   1.539   1.463
13673WAT    EPW55400   1.026   1.472   1.502
13674WAT      O55401   0.405   2.716   1.963
13674WAT     H155402   0.353   2.779   1.934
13674WAT     H255403   0.436   2.680   1.890
13674WAT    EPW55404   0.402   2.720   1.948
13675WAT      O55405   0.657   1.696   2.013
13675WAT     H155406   0.691   1.711   2.092
13675WAT     H255407   0.611   1.622   2.024
13675WAT    EPW55408   0.655   1.688   2.026
13676WAT      O55409   1.010   2.861   2.608
13676WAT     H155410   0.942   2.912   2.630
13676WAT     H255411   1.016   2.871   2.522
13676WAT    EPW55412   1.001   2.870   2.599
13677WAT      O55413   0.789   1.829   2.268
13677WAT     H155414   0.722   1.862   2.315
13677WAT     H255415   0.807   1.893   2.211
13677WAT    EPW55416   0.782   1.844   2.267
13678WAT      O55417   0.209   2.936   2.368
13678WAT     H155418   0.181   2.872   2.316
13678WAT     H255419   0.188   3.008   2.324
13678WAT    EPW55420   0.202   2.937   2.354
13679WAT      O55421   0.453   1.420   2.611
13679WAT     H155422   0.468   1.338   2.587
13679WAT     H255423   0.491   1.426   2.690
13679WAT    EPW55424   0.461   1.409   2.619
13680WAT      O55425   0.608   1.626   1.619
13680WAT     H155426   0.657   1.698   1.612
13680WAT     H255427   0.529   1.652   1.593
13680WAT    EPW55428   0.604   1.641   1.614
13681WAT      O55429   0.739   2.414   2.810
13681WAT     H155430   0.788   2.486   2.820
13681WAT     H255431   0.779   2.371   2.745
13681WAT    EPW55432   0.752   2.418   2.802
13682WAT      O55433   0.266   1.773   2.192
13682WAT     H155434   0.314   1.843   2.213
13682WAT     H255435   0.303   1.709   2.237
13682WAT    EPW55436   0.279   1.774   2.202
13683WAT      O55437   0.485   2.090   1.419
13683WAT     H155438   0.484   2.162   1.370
13683WAT     H255439   0.421   2.104   1.477
13683WAT    EPW55440   0.476   2.103   1.421
13684WAT      O55441   0.982   2.477   1.817
13684WAT     H155442   1.018   2.442   1.889
13684WAT     H255443   0.981   2.411   1.760
13684WAT    EPW55444   0.987   2.462   1.819
13685WAT      O55445   0.587   2.784   2.202
13685WAT     H155446   0.526   2.754   2.146
13685WAT     H255447   0.641   2.829   2.151
13685WAT    EPW55448   0.586   2.786   2.186
13686WAT      O55449   0.588   2.469   2.142
13686WAT     H155450   0.508   2.491   2.169
13686WAT     H255451   0.614   2.410   2.200
13686WAT    EPW55452   0.580   2.463   2.154
13687WAT      O55453   0.206   2.902   1.427
13687WAT     H155454   0.269   2.918   1.486
13687WAT     H255455   0.210   2.971   1.374
13687WAT    EPW55456   0.216   2.914   1.428
13688WAT      O55457   0.914   2.269   2.626
13688WAT     H155458   0.920   2.281   2.540
13688WAT     H255459   0.989   2.301   2.657
13688WAT    EPW55460   0.926   2.275   2.618
13689WAT      O55461   0.533   2.804   3.054
13689WAT     H155462   0.550   2.832   3.135
13689WAT     H255463   0.559   2.870   3.004
13689WAT    EPW55464   0.539   2.818   3.059
13690WAT      O55465   1.017   1.299   2.925
13690WAT     H155466   0.954   1.259   2.881
13690WAT     H255467   1.020   1.255   3.001
13690WAT    EPW55468   1.008   1.286   2.930
13691WAT      O55469   0.487   2.249   2.586
13691WAT     H155470   0.472   2.310   2.647
13691WAT     H255471   0.541   2.194   2.627
13691WAT    EPW55472   0.493   2.250   2.601
13692WAT      O55473   0.326   2.089   1.652
13692WAT     H155474   0.331   2.154   1.710
13692WAT     H255475   0.307   2.020   1.701
13692WAT    EPW55476   0.324   2.089   1.668
13693WAT      O55477   0.848   2.522   2.239
13693WAT     H155478   0.800   2.552   2.172
13693WAT     H255479   0.813   2.445   2.257
13693WAT    EPW55480   0.836   2.515   2.232
13694WAT      O55481   0.248   2.294   2.095
13694WAT     H155482   0.163   2.275   2.103
13694WAT     H255483   0.280   2.278   2.175
13694WAT    EPW55484   0.240   2.289   2.108
13695WAT      O55485   1.217   2.939   1.433
13695WAT     H155486   1.287   2.892   1.408
13695WAT     H255487   1.163   2.879   1.467
13695WAT    EPW55488   1.220   2.923   1.434
13696WAT      O55489   0.941   2.216   2.351
13696WAT     H155490   0.941   2.139   2.391
13696WAT     H255491   0.857   2.240   2.350
13696WAT    EPW55492   0.929   2.208   2.357
13697WAT      O55493   1.067   2.224   2.095
13697WAT     H155494   1.038   2.264   2.167
13697WAT     H255495   1.153   2.217   2.107
13697WAT    EPW55496   1.075   2.229   2.107
13698WAT      O55497   0.833   1.616   2.949
13698WAT     H155498   0.781   1.662   3.001
13698WAT     H255499   0.797   1.536   2.948
13698WAT    EPW55500   0.820   1.611   2.956
13699WAT      O55501   1.180   2.787   2.148
13699WAT     H155502   1.209   2.813   2.069
13699WAT     H255503   1.249   2.796   2.199
13699WAT    EPW55504   1.195   2.792   2.144
13700WAT      O55505   0.682   1.973   2.956
13700WAT     H155506   0.690   1.983   3.043
13700WAT     H255507   0.619   2.029   2.934
13700WAT    EPW55508   0.674   1.983   2.966
13701WAT      O55509   0.909   2.005   2.793
13701WAT     H155510   0.941   2.083   2.813
13701WAT     H255511   0.872   1.978   2.867
13701WAT    EPW55512   0.908   2.012   2.807
13702WAT      O55513   0.840   2.647   1.346
13702WAT     H155514   0.874   2.567   1.349
13702WAT     H255515   0.765   2.640   1.389
13702WAT    EPW55516   0.834   2.634   1.353
13703WAT      O55517   0.889   1.831   1.912
13703WAT     H155518   0.814   1.798   1.943
13703WAT     H255519   0.889   1.913   1.940
13703WAT    EPW55520   0.878   1.838   1.920
13704WAT      O55521   1.179   2.059   3.066
13704WAT     H155522   1.174   2.025   2.986
13704WAT     H255523   1.253   2.106   3.064
13704WAT    EPW55524   1.189   2.061   3.054
13705WAT      O55525   1.133   2.427   2.687
13705WAT     H155526   1.195   2.372   2.661
13705WAT     H255527   1.127   2.483   2.621
13705WAT    EPW55528   1.141   2.427   2.673
13706WAT      O55529   0.578   2.435   1.286
13706WAT     H155530   0.646   2.383   1.269
13706WAT     H255531   0.536   2.439   1.210
13706WAT    EPW55532   0.582   2.428   1.272
13707WAT      O55533   0.780   1.464   2.658
13707WAT     H155534   0.854   1.509   2.651
13707WAT     H255535   0.723   1.511   2.611
13707WAT    EPW55536   0.783   1.477   2.650
13708WAT      O55537   0.298   2.192   2.366
13708WAT     H155538   0.345   2.229   2.428
13708WAT     H255539   0.215   2.205   2.391
13708WAT    EPW55540   0.293   2.199   2.379
13709WAT      O55541   0.224   2.931   1.888
13709WAT     H155542   0.279   2.999   1.894
13709WAT     H255543   0.189   2.939   1.809
13709WAT    EPW55544   0.227   2.943   1.877
13710WAT      O55545   0.908   1.262   2.425
13710WAT     H155546   0.880   1.344   2.420
13710WAT     H255547   0.980   1.267   2.474
13710WAT    EPW55548   0.915   1.275   2.431
13711WAT      O55549   0.473   2.417   2.926
13711WAT     H155550   0.549   2.446   2.894
13711WAT     H255551   0.419   2.423   2.858
13711WAT    EPW55552   0.476   2.422   2.911
13712WAT      O55553   0.864   2.672   2.777
13712WAT     H155554   0.899   2.699   2.852
13712WAT     H255555   0.894   2.731   2.719
13712WAT    EPW55556   0.874   2.685   2.779
13713WAT      O55557   1.050   1.887   1.310
13713WAT     H155558   1.088   1.955   1.270
13713WAT     H255559   0.966   1.909   1.314
13713WAT    EPW55560   1.044   1.900   1.305
13714WAT      O55561   0.596   1.749   2.793
13714WAT     H155562   0.532   1.796   2.828
13714WAT     H255563   0.653   1.740   2.859
13714WAT    EPW55564   0.595   1.754   2.808
13715WAT      O55565   0.565   1.902   2.423
13715WAT     H155566   0.595   1.944   2.493
13715WAT     H255567   0.569   1.818   2.446
13715WAT    EPW55568   0.570   1.896   2.437
13716WAT      O55569   0.308   2.919   2.815
13716WAT     H155570   0.355   2.859   2.774
13716WAT     H255571   0.273   2.875   2.882
13716WAT    EPW55572   0.310   2.904   2.819
13717WAT      O55573   0.820   1.847   1.648
13717WAT     H155574   0.841   1.827   1.730
13717WAT     H255575   0.896   1.874   1.614
13717WAT    EPW55576   0.834   1.848   1.655
13718WAT      O55577   0.922   1.455   1.795
13718WAT     H155578   0.851   1.408   1.812
13718WAT     H255579   0.906   1.489   1.717
13718WAT    EPW55580   0.909   1.453   1.786
13719WAT      O55581   0.966   2.250   1.633
13719WAT     H155582   1.014   2.177   1.629
13719WAT     H255583   0.884   2.221   1.626
13719WAT    EPW55584   0.961   2.235   1.631
13720WAT      O55585   0.314   2.441   2.717
13720WAT     H155586   0.234   2.434   2.752
13720WAT     H255587   0.321   2.526   2.698
13720WAT    EPW55588   0.303   2.452   2.720
13721WAT      O55589   0.588   2.366   1.869
13721WAT     H155590   0.596   2.400   1.949
13721WAT     H255591   0.605   2.282   1.881
13721WAT    EPW55592   0.592   2.359   1.882
13722WAT      O55593   0.340   2.294   1.825
13722WAT     H155594   0.310   2.262   1.901
13722WAT     H255595   0.410   2.341   1.849
13722WAT    EPW55596   0.346   2.296   1.840
13723WAT      O55597   0.362   2.706   2.628
13723WAT     H155598   0.431   2.694   2.681
13723WAT     H255599   0.376   2.785   2.594
13723WAT    EPW55600   0.375   2.716   2.631
13724WAT      O55601   1.180   1.966   2.809
13724WAT     H155602   1.095   1.954   2.822
13724WAT     H255603   1.195   1.927   2.733
13724WAT    EPW55604   1.170   1.959   2.800
13725WAT      O55605   0.631   2.033   2.667
13725WAT     H155606   0.606   1.961   2.709
13725WAT     H255607   0.713   2.045   2.694
13725WAT    EPW55608   0.640   2.024   2.677
13726WAT      O55609   0.425   2.152   2.985
13726WAT     H155610   0.457   2.221   2.942
13726WAT     H255611   0.354   2.184   3.026
13726WAT    EPW55612   0.419   2.167   2.985
13727WAT      O55613   0.733   2.989   2.078
13727WAT     H155614   0.688   3.054   2.116
13727WAT     H255615   0.804   2.981   2.129
13727WAT    EPW55616   0.737   2.998   2.091
13728WAT      O55617   0.403   2.498   2.371
13728WAT     H155618   0.334   2.539   2.406
13728WAT     H255619   0.471   2.542   2.405
13728WAT    EPW55620   0.403   2.511   2.381
13729WAT      O55621   0.941   2.758   3.029
13729WAT     H155622   1.019   2.719   3.038
13729WAT     H255623   0.894   2.724   3.095
13729WAT    EPW55624   0.945   2.747   3.040
13730WAT      O55625   1.043   1.961   1.578
13730WAT     H155626   1.054   1.955   1.491
13730WAT     H255627   1.118   1.928   1.609
13730WAT    EPW55628   1.056   1.955   1.569
13731WAT      O55629   0.435   2.657   1.688
13731WAT     H155630   0.415   2.741   1.672
13731WAT     H255631   0.358   2.619   1.700
13731WAT    EPW55632   0.421   2.664   1.688
13732WAT      O55633   0.954   1.976   2.513
13732WAT     H155634   0.953   1.889   2.526
13732WAT     H255635   0.960   2.008   2.594
13732WAT    EPW55636   0.955   1.968   2.527
13733WAT      O55637   0.542   1.456   2.891
13733WAT     H155638   0.551   1.527   2.941
13733WAT     H255639   0.478   1.411   2.931
13733WAT    EPW55640   0.533   1.459   2.905
13734WAT      O55641   0.441   1.475   1.977
13734WAT     H155642   0.371   1.526   1.971
13734WAT     H255643   0.445   1.437   1.898
13734WAT    EPW55644   0.431   1.477   1.964
13735WAT      O55645   0.801   1.526   2.257
13735WAT     H155646   0.886   1.536   2.271
13735WAT     H255647   0.764   1.581   2.313
13735WAT    EPW55648   0.808   1.536   2.267
13736WAT      O55649   0.831   2.054   2.106
13736WAT     H155650   0.898   2.108   2.122
13736WAT     H255651   0.797   2.085   2.032
13736WAT    EPW55652   0.836   2.067   2.097
13737WAT      O55653   0.862   2.861   1.687
13737WAT     H155654   0.845   2.795   1.742
13737WAT     H255655   0.934   2.834   1.644
13737WAT    EPW55656   0.870   2.847   1.688
13738WAT      O55657   1.148   1.310   2.572
13738WAT     H155658   1.143   1.306   2.659
13738WAT     H255659   1.217   1.260   2.553
13738WAT    EPW55660   1.158   1.302   2.582
13739WAT      O55661   0.357   1.521   2.277
13739WAT     H155662   0.283   1.476   2.288
13739WAT     H255663   0.414   1.481   2.329
13739WAT    EPW55664   0.354   1.509   2.286
13740WAT      O55665   0.630   2.606   2.456
13740WAT     H155666   0.651   2.636   2.535
13740WAT     H255667   0.624   2.678   2.407
13740WAT    EPW55668   0.632   2.621   2.460
13741WAT      O55669   0.583   3.027   2.880
13741WAT     H155670   0.508   3.026   2.836
13741WAT     H255671   0.600   3.113   2.889
13741WAT    EPW55672   0.575   3.040   2.875
13742WAT      O55673   1.111   2.470   2.401
13742WAT     H155674   1.108   2.384   2.388
13742WAT     H255675   1.042   2.500   2.358
13742WAT    EPW55676   1.100   2.462   2.393
13743WAT      O55677   0.922   2.796   2.281
13743WAT     H155678   0.974   2.788   2.212
13743WAT     H255679   0.883   2.718   2.287
13743WAT    EPW55680   0.924   2.783   2.272
13744WAT      O55681   0.573   1.340   2.202
13744WAT     H155682   0.640   1.395   2.215
13744WAT     H255683   0.523   1.383   2.145
13744WAT    EPW55684   0.576   1.355   2.195
13745WAT      O55685   0.509   1.921   1.951
13745WAT     H155686   0.564   1.860   1.981
13745WAT     H255687   0.466   1.947   2.023
13745WAT    EPW55688   0.511   1.916   1.966
13746WAT      O55689   0.706   2.104   1.607
13746WAT     H155690   0.713   2.019   1.626
13746WAT     H255691   0.624   2.113   1.580
13746WAT    EPW55692   0.695   2.093   1.606
13747WAT      O55693   1.014   3.000   1.249
13747WAT     H155694   1.078   2.986   1.307
13747WAT     H255695   0.980   2.920   1.238
13747WAT    EPW55696   1.018   2.986   1.256
13748WAT      O55697   1.033   2.242   2.923
13748WAT     H155698   1.097   2.225   2.980
13748WAT     H255699   1.075   2.282   2.857
13748WAT    EPW55700   1.049   2.245   2.921
13749WAT      O55701   0.621   2.626   1.481
13749WAT     H155702   0.596   2.613   1.564
13749WAT     H255703   0.590   2.557   1.439
13749WAT    EPW55704   0.613   2.614   1.487
13750WAT      O55705   1.096   1.698   2.996
13750WAT     H155706   1.076   1.762   3.052
13750WAT     H255707   1.024   1.649   2.996
13750WAT    EPW55708   1.082   1.700   3.004
13751WAT      O55709   1.086   1.792   2.293
13751WAT     H155710   1.002   1.817   2.286
13751WAT     H255711   1.080   1.708   2.316
13751WAT    EPW55712   1.073   1.783   2.296
13752WAT      O55713   0.774   2.253   3.058
13752WAT     H155714   0.862   2.249   3.054
13752WAT     H255715   0.753   2.295   2.985
13752WAT    EPW55716   0.784   2.258   3.047
13753WAT      O55717   0.310   2.447   1.424
13753WAT     H155718   0.382   2.412   1.389
13753WAT     H255719   0.307   2.527   1.390
13753WAT    EPW55720   0.320   2.454   1.414
13754WAT      O55721   0.432   2.003   0.315
13754WAT     H155722   0.379   2.062   0.352
13754WAT     H255723   0.471   1.966   0.384
13754WAT    EPW55724   0.430   2.006   0.331
13755WAT      O55725   0.380   1.908   0.925
13755WAT     H155726   0.295   1.899   0.907
13755WAT     H255727   0.383   1.983   0.970
13755WAT    EPW55728   0.368   1.918   0.929
13756WAT      O55729   0.836   1.204   0.836
13756WAT     H155730   0.820   1.281   0.798
13756WAT     H255731   0.759   1.182   0.871
13756WAT    EPW55732   0.822   1.213   0.836
13757WAT      O55733   0.653   2.943   0.528
13757WAT     H155734   0.727   2.988   0.527
13757WAT     H255735   0.641   2.921   0.444
13757WAT    EPW55736   0.662   2.946   0.515
13758WAT      O55737   0.275   1.337   1.002
13758WAT     H155738   0.292   1.257   0.975
13758WAT     H255739   0.260   1.382   0.928
13758WAT    EPW55740   0.275   1.332   0.987
13759WAT      O55741   1.089   1.498   0.454
13759WAT     H155742   1.165   1.505   0.411
13759WAT     H255743   1.095   1.421   0.494
13759WAT    EPW55744   1.101   1.488   0.454
13760WAT      O55745   0.578   2.661   0.898
13760WAT     H155746   0.575   2.700   0.977
13760WAT     H255747   0.664   2.657   0.881
13760WAT    EPW55748   0.590   2.666   0.907
13761WAT      O55749   0.423   2.978   0.648
13761WAT     H155750   0.500   2.970   0.607
13761WAT     H255751   0.365   2.966   0.584
13761WAT    EPW55752   0.426   2.975   0.633
13762WAT      O55753   0.608   1.656   0.640
13762WAT     H155754   0.598   1.688   0.721
13762WAT     H255755   0.548   1.592   0.636
13762WAT    EPW55756   0.597   1.651   0.651
13763WAT      O55757   0.677   2.328   0.461
13763WAT     H155758   0.626   2.287   0.518
13763WAT     H255759   0.665   2.412   0.479
13763WAT    EPW55760   0.668   2.334   0.472
13764WAT      O55761   0.980   1.674   0.754
13764WAT     H155762   1.057   1.652   0.788
13764WAT     H255763   0.932   1.696   0.824
13764WAT    EPW55764   0.984   1.674   0.770
13765WAT      O55765   1.226   2.823   0.899
13765WAT     H155766   1.158   2.854   0.854
13765WAT     H255767   1.189   2.777   0.963
13765WAT    EPW55768   1.211   2.821   0.902
13766WAT      O55769   1.243   1.949   0.633
13766WAT     H155770   1.265   1.869   0.605
13766WAT     H255771   1.158   1.955   0.614
13766WAT    EPW55772   1.234   1.939   0.626
13767WAT      O55773   1.010   2.861   0.708
13767WAT     H155774   0.942   2.912   0.729
13767WAT     H255775   1.016   2.871   0.621
13767WAT    EPW55776   1.001   2.870   0.698
13768WAT      O55777   0.789   1.829   0.368
13768WAT     H155778   0.722   1.862   0.414
13768WAT     H255779   0.807   1.893   0.311
13768WAT    EPW55780   0.782   1.844   0.366
13769WAT      O55781   0.209   2.936   0.467
13769WAT     H155782   0.181   2.872   0.415
13769WAT     H255783   0.188   3.008   0.423
13769WAT    EPW55784   0.202   2.937   0.453
13770WAT      O55785   0.453   1.420   0.711
13770WAT     H155786   0.468   1.338   0.686
13770WAT     H255787   0.491   1.426   0.789
13770WAT    EPW55788   0.461   1.409   0.719
13771WAT      O55789   0.739   2.414   0.910
13771WAT     H155790   0.788   2.486   0.920
13771WAT     H255791   0.779   2.371   0.845
13771WAT    EPW55792   0.752   2.418   0.902
13772WAT      O55793   0.266   1.773   0.291
13772WAT     H155794   0.314   1.843   0.312
13772WAT     H255795   0.303   1.709   0.336
13772WAT    EPW55796   0.279   1.774   0.301
13773WAT      O55797   0.587   2.784   0.301
13773WAT     H155798   0.526   2.754   0.245
13773WAT     H255799   0.641   2.829   0.250
13773WAT    EPW55800   0.586   2.786   0.285
13774WAT      O55801   0.588   2.469   0.241
13774WAT     H155802   0.508   2.491   0.269
13774WAT     H255803   0.614   2.410   0.300
13774WAT    EPW55804   0.580   2.463   0.254
13775WAT      O55805   0.914   2.269   0.726
13775WAT     H155806   0.920   2.281   0.640
13775WAT     H255807   0.989   2.301   0.756
13775WAT    EPW55808   0.926   2.275   0.717
13776WAT      O55809   0.533   2.804   1.153
13776WAT     H155810   0.550   2.832   1.234
13776WAT     H255811   0.559   2.870   1.103
13776WAT    EPW55812   0.539   2.818   1.158
13777WAT      O55813   1.017   1.299   1.024
13777WAT     H155814   0.954   1.259   0.980
13777WAT     H255815   1.020   1.255   1.100
13777WAT    EPW55816   1.008   1.286   1.029
13778WAT      O55817   0.487   2.249   0.686
13778WAT     H155818   0.472   2.310   0.746
13778WAT     H255819   0.541   2.194   0.726
13778WAT    EPW55820   0.493   2.250   0.701
13779WAT      O55821   0.848   2.522   0.338
13779WAT     H155822   0.800   2.552   0.272
13779WAT     H255823   0.813   2.445   0.356
13779WAT    EPW55824   0.836   2.515   0.331
13780WAT      O55825   0.248   2.294   0.195
13780WAT     H155826   0.163   2.275   0.203
13780WAT     H255827   0.280   2.278   0.274
13780WAT    EPW55828   0.240   2.289   0.208
13781WAT      O55829   0.941   2.216   0.450
13781WAT     H155830   0.941   2.139   0.490
13781WAT     H255831   0.857   2.240   0.450
13781WAT    EPW55832   0.929   2.208   0.456
13782WAT      O55833   1.067   2.224   0.194
13782WAT     H155834   1.038   2.264   0.266
13782WAT     H255835   1.153   2.217   0.207
13782WAT    EPW55836   1.075   2.229   0.207
13783WAT      O55837   0.833   1.616   1.048
13783WAT     H155838   0.781   1.662   1.100
13783WAT     H255839   0.797   1.536   1.047
13783WAT    EPW55840   0.820   1.611   1.056
13784WAT      O55841   1.180   2.787   0.247
13784WAT     H155842   1.209   2.813   0.169
13784WAT     H255843   1.249   2.796   0.299
13784WAT    EPW55844   1.195   2.792   0.243
13785WAT      O55845   0.682   1.973   1.056
13785WAT     H155846   0.690   1.983   1.142
13785WAT     H255847   0.619   2.029   1.034
13785WAT    EPW55848   0.674   1.983   1.065
13786WAT      O55849   0.909   2.005   0.892
13786WAT     H155850   0.941   2.083   0.912
13786WAT     H255851   0.872   1.978   0.966
13786WAT    EPW55852   0.908   2.012   0.906
13787WAT      O55853   1.179   2.059   1.166
13787WAT     H155854   1.174   2.025   1.086
13787WAT     H255855   1.253   2.106   1.163
13787WAT    EPW55856   1.189   2.061   1.153
13788WAT      O55857   1.133   2.427   0.786
13788WAT     H155858   1.195   2.372   0.761
13788WAT     H255859   1.127   2.483   0.720
13788WAT    EPW55860   1.141   2.427   0.773
13789WAT      O55861   0.780   1.464   0.757
13789WAT     H155862   0.854   1.509   0.751
13789WAT     H255863   0.723   1.511   0.710
13789WAT    EPW55864   0.783   1.477   0.749
13790WAT      O55865   0.298   2.192   0.465
13790WAT     H155866   0.345   2.229   0.528
13790WAT     H255867   0.215   2.205   0.491
13790WAT    EPW55868   0.293   2.199   0.478
13791WAT      O55869   0.908   1.262   0.524
13791WAT     H155870   0.880   1.344   0.520
13791WAT     H255871   0.980   1.267   0.574
13791WAT    EPW55872   0.915   1.275   0.531
13792WAT      O55873   0.473   2.417   1.026
13792WAT     H155874   0.549   2.446   0.993
13792WAT     H255875   0.419   2.423   0.958
13792WAT    EPW55876   0.476   2.422   1.011
13793WAT      O55877   0.864   2.672   0.876
13793WAT     H155878   0.899   2.699   0.951
13793WAT     H255879   0.894   2.731   0.818
13793WAT    EPW55880   0.874   2.685   0.879
13794WAT      O55881   0.596   1.749   0.892
13794WAT     H155882   0.532   1.796   0.927
13794WAT     H255883   0.653   1.740   0.958
13794WAT    EPW55884   0.595   1.754   0.907
13795WAT      O55885   0.565   1.902   0.522
13795WAT     H155886   0.595   1.944   0.592
13795WAT     H255887   0.569   1.818   0.545
13795WAT    EPW55888   0.570   1.896   0.536
13796WAT      O55889   0.308   2.919   0.915
13796WAT     H155890   0.355   2.859   0.873
13796WAT     H255891   0.273   2.875   0.981
13796WAT    EPW55892   0.310   2.904   0.918
13797WAT      O55893   0.314   2.441   0.817
13797WAT     H155894   0.234   2.434   0.852
13797WAT     H255895   0.321   2.526   0.797
13797WAT    EPW55896   0.303   2.452   0.819
13798WAT      O55897   0.362   2.706   0.727
13798WAT     H155898   0.431   2.694   0.780
13798WAT     H255899   0.376   2.785   0.693
13798WAT    EPW55900   0.375   2.716   0.730
13799WAT      O55901   1.180   1.966   0.909
13799WAT     H155902   1.095   1.954   0.921
13799WAT     H255903   1.195   1.927   0.832
13799WAT    EPW55904   1.170   1.959   0.899
13800WAT      O55905   0.631   2.033   0.766
13800WAT     H155906   0.606   1.961   0.808
13800WAT     H255907   0.713   2.045   0.793
13800WAT    EPW55908   0.640   2.024   0.776
13801WAT      O55909   0.425   2.152   1.085
13801WAT     H155910   0.457   2.221   1.042
13801WAT     H255911   0.354   2.184   1.125
13801WAT    EPW55912   0.419   2.167   1.084
13802WAT      O55913   0.733   2.989   0.178
13802WAT     H155914   0.688   3.054   0.216
13802WAT     H255915   0.804   2.981   0.228
13802WAT    EPW55916   0.737   2.998   0.191
13803WAT      O55917   0.403   2.498   0.471
13803WAT     H155918   0.334   2.539   0.505
13803WAT     H255919   0.471   2.542   0.505
13803WAT    EPW55920   0.403   2.511   0.481
13804WAT      O55921   0.941   2.758   1.129
13804WAT     H155922   1.019   2.719   1.137
13804WAT     H255923   0.894   2.724   1.194
13804WAT    EPW55924   0.945   2.747   1.140
13805WAT      O55925   0.954   1.976   0.613
13805WAT     H155926   0.953   1.889   0.625
13805WAT     H255927   0.960   2.008   0.693
13805WAT    EPW55928   0.955   1.968   0.626
13806WAT      O55929   0.542   1.456   0.991
13806WAT     H155930   0.551   1.527   1.040
13806WAT     H255931   0.478   1.411   1.030
13806WAT    EPW55932   0.533   1.459   1.004
13807WAT      O55933   0.801   1.526   0.356
13807WAT     H155934   0.886   1.536   0.371
13807WAT     H255935   0.764   1.581   0.413
13807WAT    EPW55936   0.808   1.536   0.367
13808WAT      O55937   1.148   1.310   0.672
13808WAT     H155938   1.143   1.306   0.759
13808WAT     H255939   1.217   1.260   0.653
13808WAT    EPW55940   1.158   1.302   0.682
13809WAT      O55941   0.357   1.521   0.376
13809WAT     H155942   0.283   1.476   0.388
13809WAT     H255943   0.414   1.481   0.429
13809WAT    EPW55944   0.354   1.509   0.386
13810WAT      O55945   0.630   2.606   0.555
13810WAT     H155946   0.651   2.636   0.634
13810WAT     H255947   0.624   2.678   0.507
13810WAT    EPW55948   0.632   2.621   0.560
13811WAT      O55949   0.583   3.027   0.980
13811WAT     H155950   0.508   3.026   0.936
13811WAT     H255951   0.600   3.113   0.988
13811WAT    EPW55952   0.575   3.040   0.974
13812WAT      O55953   1.111   2.470   0.501
13812WAT     H155954   1.108   2.384   0.487
13812WAT     H255955   1.042   2.500   0.457
13812WAT    EPW55956   1.100   2.462   0.492
13813WAT      O55957   0.922   2.796   0.381
13813WAT     H155958   0.974   2.788   0.311
13813WAT     H255959   0.883   2.718   0.386
13813WAT    EPW55960   0.924   2.783   0.371
13814WAT      O55961   0.573   1.340   0.301
13814WAT     H155962   0.640   1.395   0.314
13814WAT     H255963   0.523   1.383   0.244
13814WAT    EPW55964   0.576   1.355   0.295
13815WAT      O55965   1.033   2.242   1.022
13815WAT     H155966   1.097   2.225   1.079
13815WAT     H255967   1.075   2.282   0.957
13815WAT    EPW55968   1.049   2.245   1.021
13816WAT      O55969   1.096   1.698   1.096
13816WAT     H155970   1.076   1.762   1.151
13816WAT     H255971   1.024   1.649   1.095
13816WAT    EPW55972   1.082   1.700   1.104
13817WAT      O55973   1.086   1.792   0.393
13817WAT     H155974   1.002   1.817   0.386
13817WAT     H255975   1.080   1.708   0.416
13817WAT    EPW55976   1.073   1.783   0.395
13818WAT      O55977   0.774   2.253   1.157
13818WAT     H155978   0.862   2.249   1.154
13818WAT     H255979   0.753   2.295   1.084
13818WAT    EPW55980   0.784   2.258   1.146
13819WAT      O55981   1.046   0.899   7.215
13819WAT     H155982   1.116   0.847   7.215
13819WAT     H255983   0.987   0.855   7.168
13819WAT    EPW55984   1.048   0.885   7.208
13820WAT      O55985   0.699   0.262   7.586
13820WAT     H155986   0.707   0.262   7.499
13820WAT     H255987   0.640   0.198   7.600
13820WAT    EPW55988   0.691   0.252   7.575
13821WAT      O55989   0.178   0.703   7.773
13821WAT     H155990   0.213   0.623   7.776
13821WAT     H255991   0.244   0.753   7.747
13821WAT    EPW55992   0.193   0.698   7.769
13822WAT      O55993   0.183   0.648   7.394
13822WAT     H155994   0.217   0.583   7.442
13822WAT     H255995   0.207   0.626   7.313
13822WAT    EPW55996   0.192   0.635   7.389
13823WAT      O55997   0.592   1.055   7.101
13823WAT     H155998   0.665   1.102   7.111
13823WAT     H255999   0.615   0.975   7.129
13823WAT    EPW56000   0.606   1.050   7.106
13824WAT      O56001   0.409   1.094   7.300
13824WAT     H156002   0.430   1.147   7.366
13824WAT     H256003   0.486   1.077   7.262
13824WAT    EPW56004   0.423   1.099   7.304
13825WAT      O56005   0.810   1.214   7.141
13825WAT     H156006   0.877   1.199   7.086
13825WAT     H256007   0.846   1.205   7.220
13825WAT    EPW56008   0.825   1.210   7.144
13826WAT      O56009   0.292   0.833   6.976
13826WAT     H156010   0.274   0.888   7.041
13826WAT     H256011   0.369   0.862   6.946
13826WAT    EPW56012   0.301   0.846   6.981
13827WAT      O56013   1.051   1.190   7.541
13827WAT     H156014   1.006   1.262   7.561
13827WAT     H256015   0.990   1.133   7.516
13827WAT    EPW56016   1.035   1.192   7.540
13828WAT      O56017   0.751   0.775   7.495
13828WAT     H156018   0.821   0.727   7.514
13828WAT     H256019   0.685   0.718   7.499
13828WAT    EPW56020   0.751   0.759   7.498
13829WAT      O56021   1.003   0.524   7.076
13829WAT     H156022   1.015   0.495   7.157
13829WAT     H256023   1.083   0.526   7.043
13829WAT    EPW56024   1.016   0.520   7.083
13830WAT      O56025   0.792   0.178   7.034
13830WAT     H156026   0.770   0.251   6.992
13830WAT     H256027   0.747   0.183   7.109
13830WAT    EPW56028   0.782   0.189   7.039
13831WAT      O56029   0.405   0.868   7.665
13831WAT     H156030   0.353   0.932   7.636
13831WAT     H256031   0.436   0.832   7.592
13831WAT    EPW56032   0.402   0.872   7.650
13832WAT      O56033   0.485   0.242   7.121
13832WAT     H156034   0.484   0.315   7.072
13832WAT     H256035   0.421   0.256   7.179
13832WAT    EPW56036   0.476   0.255   7.122
13833WAT      O56037   0.982   0.629   7.519
13833WAT     H156038   1.018   0.594   7.591
13833WAT     H256039   0.981   0.563   7.462
13833WAT    EPW56040   0.987   0.614   7.521
13834WAT      O56041   0.588   0.621   7.844
13834WAT     H156042   0.508   0.644   7.871
13834WAT     H256043   0.614   0.562   7.902
13834WAT    EPW56044   0.580   0.616   7.856
13835WAT      O56045   0.206   1.054   7.129
13835WAT     H156046   0.269   1.070   7.188
13835WAT     H256047   0.210   1.123   7.075
13835WAT    EPW56048   0.216   1.067   7.130
13836WAT      O56049   0.326   0.242   7.354
13836WAT     H156050   0.331   0.307   7.412
13836WAT     H256051   0.307   0.172   7.403
13836WAT    EPW56052   0.324   0.241   7.370
13837WAT      O56053   0.248   0.446   7.797
13837WAT     H156054   0.163   0.427   7.805
13837WAT     H256055   0.280   0.430   7.876
13837WAT    EPW56056   0.240   0.441   7.810
13838WAT      O56057   1.217   1.091   7.135
13838WAT     H156058   1.287   1.044   7.110
13838WAT     H256059   1.163   1.031   7.169
13838WAT    EPW56060   1.220   1.075   7.136
13839WAT      O56061   1.067   0.376   7.797
13839WAT     H156062   1.038   0.416   7.869
13839WAT     H256063   1.153   0.370   7.809
13839WAT    EPW56064   1.075   0.381   7.809
13840WAT      O56065   1.180   0.939   7.849
13840WAT     H156066   1.209   0.965   7.771
13840WAT     H256067   1.249   0.949   7.901
13840WAT    EPW56068   1.195   0.944   7.846
13841WAT      O56069   0.840   0.799   7.048
13841WAT     H156070   0.874   0.719   7.051
13841WAT     H256071   0.765   0.792   7.091
13841WAT    EPW56072   0.834   0.786   7.055
13842WAT      O56073   0.578   0.587   6.988
13842WAT     H156074   0.646   0.535   6.971
13842WAT     H256075   0.536   0.591   6.911
13842WAT    EPW56076   0.582   0.580   6.974
13843WAT      O56077   0.224   1.083   7.590
13843WAT     H156078   0.279   1.151   7.596
13843WAT     H256079   0.189   1.092   7.511
13843WAT    EPW56080   0.227   1.095   7.579
13844WAT      O56081   0.966   0.402   7.335
13844WAT     H156082   1.014   0.329   7.330
13844WAT     H256083   0.884   0.373   7.328
13844WAT    EPW56084   0.961   0.387   7.333
13845WAT      O56085   0.588   0.519   7.571
13845WAT     H156086   0.596   0.553   7.651
13845WAT     H256087   0.605   0.434   7.583
13845WAT    EPW56088   0.592   0.511   7.584
13846WAT      O56089   0.340   0.446   7.527
13846WAT     H156090   0.310   0.414   7.603
13846WAT     H256091   0.410   0.493   7.551
13846WAT    EPW56092   0.346   0.448   7.542
13847WAT      O56093   0.733   1.142   7.780
13847WAT     H156094   0.688   1.206   7.818
13847WAT     H256095   0.804   1.134   7.831
13847WAT    EPW56096   0.737   1.150   7.793
13848WAT      O56097   0.435   0.810   7.390
13848WAT     H156098   0.415   0.893   7.374
13848WAT     H256099   0.358   0.771   7.402
13848WAT    EPW56100   0.421   0.816   7.390
13849WAT      O56101   0.831   0.206   7.808
13849WAT     H156102   0.898   0.260   7.824
13849WAT     H256103   0.797   0.237   7.734
13849WAT    EPW56104   0.836   0.219   7.799
13850WAT      O56105   0.862   1.013   7.388
13850WAT     H156106   0.845   0.948   7.443
13850WAT     H256107   0.934   0.986   7.346
13850WAT    EPW56108   0.870   0.999   7.390
13851WAT      O56109   0.706   0.256   7.309
13851WAT     H156110   0.713   0.171   7.327
13851WAT     H256111   0.624   0.265   7.282
13851WAT    EPW56112   0.695   0.245   7.308
13852WAT      O56113   1.014   1.152   6.951
13852WAT     H156114   1.078   1.139   7.009
13852WAT     H256115   0.980   1.073   6.939
13852WAT    EPW56116   1.018   1.138   6.958
13853WAT      O56117   0.621   0.778   7.183
13853WAT     H156118   0.596   0.766   7.266
13853WAT     H256119   0.590   0.709   7.141
13853WAT    EPW56120   0.613   0.766   7.189
13854WAT      O56121   0.310   0.599   7.126
13854WAT     H156122   0.382   0.565   7.091
13854WAT     H256123   0.307   0.679   7.092
13854WAT    EPW56124   0.320   0.606   7.116
13855WAT      O56125   1.046   0.899   5.314
13855WAT     H156126   1.116   0.847   5.314
13855WAT     H256127   0.987   0.855   5.267
13855WAT    EPW56128   1.048   0.885   5.307
13856WAT      O56129   0.699   0.262   5.685
13856WAT     H156130   0.707   0.262   5.598
13856WAT     H256131   0.640   0.198   5.700
13856WAT    EPW56132   0.691   0.252   5.674
13857WAT      O56133   0.178   0.703   5.872
13857WAT     H156134   0.213   0.623   5.875
13857WAT     H256135   0.244   0.753   5.846
13857WAT    EPW56136   0.193   0.698   5.869
13858WAT      O56137   0.183   0.648   5.493
13858WAT     H156138   0.217   0.583   5.542
13858WAT     H256139   0.207   0.626   5.412
13858WAT    EPW56140   0.192   0.635   5.488
13859WAT      O56141   0.592   1.055   5.200
13859WAT     H156142   0.665   1.102   5.210
13859WAT     H256143   0.615   0.975   5.228
13859WAT    EPW56144   0.606   1.050   5.206
13860WAT      O56145   0.409   1.094   5.399
13860WAT     H156146   0.430   1.147   5.465
13860WAT     H256147   0.486   1.077   5.361
13860WAT    EPW56148   0.423   1.099   5.403
13861WAT      O56149   0.653   1.095   6.230
13861WAT     H156150   0.727   1.141   6.229
13861WAT     H256151   0.641   1.074   6.146
13861WAT    EPW56152   0.662   1.099   6.217
13862WAT      O56153   0.810   1.214   5.240
13862WAT     H156154   0.877   1.199   5.186
13862WAT     H256155   0.846   1.205   5.319
13862WAT    EPW56156   0.825   1.210   5.244
13863WAT      O56157   0.578   0.814   6.600
13863WAT     H156158   0.575   0.852   6.678
13863WAT     H256159   0.664   0.809   6.583
13863WAT    EPW56160   0.590   0.819   6.609
13864WAT      O56161   0.292   0.833   5.075
13864WAT     H156162   0.274   0.888   5.141
13864WAT     H256163   0.369   0.862   5.045
13864WAT    EPW56164   0.301   0.846   5.080
13865WAT      O56165   0.423   1.130   6.350
13865WAT     H156166   0.500   1.122   6.309
13865WAT     H256167   0.365   1.118   6.286
13865WAT    EPW56168   0.426   1.127   6.334
13866WAT      O56169   1.051   1.190   5.640
13866WAT     H156170   1.006   1.262   5.660
13866WAT     H256171   0.990   1.133   5.616
13866WAT    EPW56172   1.035   1.192   5.639
13867WAT      O56173   0.751   0.775   5.594
13867WAT     H156174   0.821   0.727   5.613
13867WAT     H256175   0.685   0.718   5.599
13867WAT    EPW56176   0.751   0.759   5.598
13868WAT      O56177   0.677   0.480   6.162
13868WAT     H156178   0.626   0.439   6.219
13868WAT     H256179   0.665   0.565   6.180
13868WAT    EPW56180   0.668   0.487   6.173
13869WAT      O56181   1.003   0.524   5.175
13869WAT     H156182   1.015   0.495   5.257
13869WAT     H256183   1.083   0.526   5.142
13869WAT    EPW56184   1.016   0.520   5.182
13870WAT      O56185   1.226   0.975   6.600
13870WAT     H156186   1.158   1.006   6.556
13870WAT     H256187   1.189   0.929   6.665
13870WAT    EPW56188   1.211   0.973   6.603
13871WAT      O56189   0.792   0.178   5.134
13871WAT     H156190   0.770   0.251   5.091
13871WAT     H256191   0.747   0.183   5.208
13871WAT    EPW56192   0.782   0.189   5.138
13872WAT      O56193   0.405   0.868   5.764
13872WAT     H156194   0.353   0.932   5.735
13872WAT     H256195   0.436   0.832   5.691
13872WAT    EPW56196   0.402   0.872   5.749
13873WAT      O56197   1.010   1.013   6.409
13873WAT     H156198   0.942   1.065   6.431
13873WAT     H256199   1.016   1.023   6.323
13873WAT    EPW56200   1.001   1.022   6.400
13874WAT      O56201   0.209   1.088   6.169
13874WAT     H156202   0.181   1.024   6.117
13874WAT     H256203   0.188   1.161   6.125
13874WAT    EPW56204   0.202   1.089   6.155
13875WAT      O56205   0.739   0.566   6.612
13875WAT     H156206   0.788   0.638   6.621
13875WAT     H256207   0.779   0.524   6.546
13875WAT    EPW56208   0.752   0.571   6.603
13876WAT      O56209   0.485   0.242   5.220
13876WAT     H156210   0.484   0.315   5.171
13876WAT     H256211   0.421   0.256   5.278
13876WAT    EPW56212   0.476   0.255   5.222
13877WAT      O56213   0.982   0.629   5.619
13877WAT     H156214   1.018   0.594   5.690
13877WAT     H256215   0.981   0.563   5.562
13877WAT    EPW56216   0.987   0.614   5.621
13878WAT      O56217   0.587   0.936   6.003
13878WAT     H156218   0.526   0.906   5.947
13878WAT     H256219   0.641   0.981   5.952
13878WAT    EPW56220   0.586   0.938   5.987
13879WAT      O56221   0.588   0.621   5.943
13879WAT     H156222   0.508   0.644   5.970
13879WAT     H256223   0.614   0.562   6.001
13879WAT    EPW56224   0.580   0.616   5.956
13880WAT      O56225   0.206   1.054   5.228
13880WAT     H156226   0.269   1.070   5.287
13880WAT     H256227   0.210   1.123   5.175
13880WAT    EPW56228   0.216   1.067   5.229
13881WAT      O56229   0.914   0.421   6.428
13881WAT     H156230   0.920   0.433   6.341
13881WAT     H256231   0.989   0.453   6.458
13881WAT    EPW56232   0.926   0.427   6.419
13882WAT      O56233   0.533   0.956   6.855
13882WAT     H156234   0.550   0.984   6.936
13882WAT     H256235   0.559   1.022   6.805
13882WAT    EPW56236   0.539   0.970   6.860
13883WAT      O56237   0.487   0.402   6.388
13883WAT     H156238   0.472   0.463   6.448
13883WAT     H256239   0.541   0.346   6.428
13883WAT    EPW56240   0.493   0.402   6.402
13884WAT      O56241   0.326   0.242   5.453
13884WAT     H156242   0.331   0.307   5.511
13884WAT     H256243   0.307   0.172   5.502
13884WAT    EPW56244   0.324   0.241   5.469
13885WAT      O56245   0.848   0.674   6.040
13885WAT     H156246   0.800   0.704   5.974
13885WAT     H256247   0.813   0.597   6.058
13885WAT    EPW56248   0.836   0.667   6.033
13886WAT      O56249   0.248   0.446   5.896
13886WAT     H156250   0.163   0.427   5.905
13886WAT     H256251   0.280   0.430   5.976
13886WAT    EPW56252   0.240   0.441   5.909
13887WAT      O56253   1.217   1.091   5.234
13887WAT     H156254   1.287   1.044   5.209
13887WAT     H256255   1.163   1.031   5.268
13887WAT    EPW56256   1.220   1.075   5.236
13888WAT      O56257   0.941   0.369   6.152
13888WAT     H156258   0.941   0.291   6.192
13888WAT     H256259   0.857   0.392   6.151
13888WAT    EPW56260   0.929   0.361   6.158
13889WAT      O56261   1.067   0.376   5.896
13889WAT     H156262   1.038   0.416   5.968
13889WAT     H256263   1.153   0.370   5.909
13889WAT    EPW56264   1.075   0.381   5.908
13890WAT      O56265   1.180   0.939   5.949
13890WAT     H156266   1.209   0.965   5.871
13890WAT     H256267   1.249   0.949   6.001
13890WAT    EPW56268   1.195   0.944   5.945
13891WAT      O56269   0.840   0.799   5.147
13891WAT     H156270   0.874   0.719   5.150
13891WAT     H256271   0.765   0.792   5.190
13891WAT    EPW56272   0.834   0.786   5.154
13892WAT      O56273   1.179   0.211   6.867
13892WAT     H156274   1.174   0.177   6.787
13892WAT     H256275   1.253   0.258   6.865
13892WAT    EPW56276   1.189   0.213   6.855
13893WAT      O56277   1.133   0.579   6.488
13893WAT     H156278   1.195   0.524   6.462
13893WAT     H256279   1.127   0.635   6.422
13893WAT    EPW56280   1.141   0.579   6.474
13894WAT      O56281   0.578   0.587   5.087
13894WAT     H156282   0.646   0.535   5.070
13894WAT     H256283   0.536   0.591   5.011
13894WAT    EPW56284   0.582   0.580   5.073
13895WAT      O56285   0.298   0.344   6.167
13895WAT     H156286   0.345   0.382   6.230
13895WAT     H256287   0.215   0.358   6.193
13895WAT    EPW56288   0.293   0.352   6.180
13896WAT      O56289   0.224   1.083   5.690
13896WAT     H156290   0.279   1.151   5.695
13896WAT     H256291   0.189   1.092   5.610
13896WAT    EPW56292   0.227   1.095   5.679
13897WAT      O56293   0.473   0.570   6.727
13897WAT     H156294   0.549   0.598   6.695
13897WAT     H256295   0.419   0.575   6.660
13897WAT    EPW56296   0.476   0.575   6.712
13898WAT      O56297   0.864   0.825   6.578
13898WAT     H156298   0.899   0.852   6.653
13898WAT     H256299   0.894   0.883   6.520
13898WAT    EPW56300   0.874   0.837   6.580
13899WAT      O56301   0.308   1.071   6.616
13899WAT     H156302   0.355   1.011   6.575
13899WAT     H256303   0.273   1.027   6.683
13899WAT    EPW56304   0.310   1.056   6.620
13900WAT      O56305   0.966   0.402   5.435
13900WAT     H156306   1.014   0.329   5.430
13900WAT     H256307   0.884   0.373   5.427
13900WAT    EPW56308   0.961   0.387   5.433
13901WAT      O56309   0.314   0.593   6.518
13901WAT     H156310   0.234   0.587   6.554
13901WAT     H256311   0.321   0.678   6.499
13901WAT    EPW56312   0.303   0.605   6.521
13902WAT      O56313   0.588   0.519   5.670
13902WAT     H156314   0.596   0.553   5.750
13902WAT     H256315   0.605   0.434   5.682
13902WAT    EPW56316   0.592   0.511   5.684
13903WAT      O56317   0.340   0.446   5.627
13903WAT     H156318   0.310   0.414   5.702
13903WAT     H256319   0.410   0.493   5.650
13903WAT    EPW56320   0.346   0.448   5.641
13904WAT      O56321   0.362   0.858   6.429
13904WAT     H156322   0.431   0.846   6.482
13904WAT     H256323   0.376   0.937   6.395
13904WAT    EPW56324   0.375   0.868   6.432
13905WAT      O56325   0.425   0.304   6.787
13905WAT     H156326   0.457   0.373   6.743
13905WAT     H256327   0.354   0.336   6.827
13905WAT    EPW56328   0.419   0.319   6.786
13906WAT      O56329   0.733   1.142   5.880
13906WAT     H156330   0.688   1.206   5.917
13906WAT     H256331   0.804   1.134   5.930
13906WAT    EPW56332   0.737   1.150   5.893
13907WAT      O56333   0.403   0.651   6.173
13907WAT     H156334   0.334   0.691   6.207
13907WAT     H256335   0.471   0.694   6.206
13907WAT    EPW56336   0.403   0.663   6.183
13908WAT      O56337   0.941   0.910   6.831
13908WAT     H156338   1.019   0.871   6.839
13908WAT     H256339   0.894   0.876   6.896
13908WAT    EPW56340   0.945   0.899   6.841
13909WAT      O56341   0.435   0.810   5.489
13909WAT     H156342   0.415   0.893   5.474
13909WAT     H256343   0.358   0.771   5.502
13909WAT    EPW56344   0.421   0.816   5.489
13910WAT      O56345   0.831   0.206   5.907
13910WAT     H156346   0.898   0.260   5.923
13910WAT     H256347   0.797   0.237   5.833
13910WAT    EPW56348   0.836   0.219   5.899
13911WAT      O56349   0.862   1.013   5.488
13911WAT     H156350   0.845   0.948   5.543
13911WAT     H256351   0.934   0.986   5.445
13911WAT    EPW56352   0.870   0.999   5.490
13912WAT      O56353   0.630   0.758   6.257
13912WAT     H156354   0.651   0.788   6.336
13912WAT     H256355   0.624   0.830   6.208
13912WAT    EPW56356   0.632   0.773   6.261
13913WAT      O56357   0.583   1.180   6.681
13913WAT     H156358   0.508   1.178   6.637
13913WAT     H256359   0.600   1.265   6.690
13913WAT    EPW56360   0.575   1.192   6.676
13914WAT      O56361   1.111   0.622   6.203
13914WAT     H156362   1.108   0.536   6.189
13914WAT     H256363   1.042   0.652   6.159
13914WAT    EPW56364   1.100   0.614   6.194
13915WAT      O56365   0.922   0.948   6.082
13915WAT     H156366   0.974   0.940   6.013
13915WAT     H256367   0.883   0.870   6.088
13915WAT    EPW56368   0.924   0.935   6.073
13916WAT      O56369   0.706   0.256   5.409
13916WAT     H156370   0.713   0.171   5.427
13916WAT     H256371   0.624   0.265   5.381
13916WAT    EPW56372   0.695   0.245   5.407
13917WAT      O56373   1.014   1.152   5.050
13917WAT     H156374   1.078   1.139   5.109
13917WAT     H256375   0.980   1.073   5.039
13917WAT    EPW56376   1.018   1.138   5.057
13918WAT      O56377   1.033   0.394   6.724
13918WAT     H156378   1.097   0.377   6.781
13918WAT     H256379   1.075   0.434   6.659
13918WAT    EPW56380   1.049   0.397   6.723
13919WAT      O56381   0.621   0.778   5.283
13919WAT     H156382   0.596   0.766   5.365
13919WAT     H256383   0.590   0.709   5.241
13919WAT    EPW56384   0.613   0.766   5.289
13920WAT      O56385   0.774   0.405   6.859
13920WAT     H156386   0.862   0.401   6.856
13920WAT     H256387   0.753   0.447   6.786
13920WAT    EPW56388   0.784   0.410   6.848
13921WAT      O56389   0.310   0.599   5.226
13921WAT     H156390   0.382   0.565   5.190
13921WAT     H256391   0.307   0.679   5.191
13921WAT    EPW56392   0.320   0.606   5.215
13922WAT      O56393   1.046   0.899   3.414
13922WAT     H156394   1.116   0.847   3.413
13922WAT     H256395   0.987   0.855   3.367
13922WAT    EPW56396   1.048   0.885   3.407
13923WAT      O56397   0.699   0.262   3.784
13923WAT     H156398   0.707   0.262   3.697
13923WAT     H256399   0.640   0.198   3.799
13923WAT    EPW56400   0.691   0.252   3.774
13924WAT      O56401   0.178   0.703   3.971
13924WAT     H156402   0.213   0.623   3.974
13924WAT     H256403   0.244   0.753   3.946
13924WAT    EPW56404   0.193   0.698   3.968
13925WAT      O56405   0.183   0.648   3.592
13925WAT     H156406   0.217   0.583   3.641
13925WAT     H256407   0.207   0.626   3.511
13925WAT    EPW56408   0.192   0.635   3.588
13926WAT      O56409   0.592   1.055   3.299
13926WAT     H156410   0.665   1.102   3.310
13926WAT     H256411   0.615   0.975   3.327
13926WAT    EPW56412   0.606   1.050   3.305
13927WAT      O56413   0.409   1.094   3.498
13927WAT     H156414   0.430   1.147   3.565
13927WAT     H256415   0.486   1.077   3.461
13927WAT    EPW56416   0.423   1.099   3.503
13928WAT      O56417   0.653   1.095   4.329
13928WAT     H156418   0.727   1.141   4.328
13928WAT     H256419   0.641   1.074   4.245
13928WAT    EPW56420   0.662   1.099   4.316
13929WAT      O56421   0.810   1.214   3.339
13929WAT     H156422   0.877   1.199   3.285
13929WAT     H256423   0.846   1.205   3.418
13929WAT    EPW56424   0.825   1.210   3.343
13930WAT      O56425   0.578   0.814   4.699
13930WAT     H156426   0.575   0.852   4.778
13930WAT     H256427   0.664   0.809   4.682
13930WAT    EPW56428   0.590   0.819   4.708
13931WAT      O56429   0.292   0.833   3.174
13931WAT     H156430   0.274   0.888   3.240
13931WAT     H256431   0.369   0.862   3.144
13931WAT    EPW56432   0.301   0.846   3.180
13932WAT      O56433   0.423   1.130   4.449
13932WAT     H156434   0.500   1.122   4.409
13932WAT     H256435   0.365   1.118   4.385
13932WAT    EPW56436   0.426   1.127   4.434
13933WAT      O56437   1.051   1.190   3.739
13933WAT     H156438   1.006   1.262   3.759
13933WAT     H256439   0.990   1.133   3.715
13933WAT    EPW56440   1.035   1.192   3.739
13934WAT      O56441   0.751   0.775   3.694
13934WAT     H156442   0.821   0.727   3.713
13934WAT     H256443   0.685   0.718   3.698
13934WAT    EPW56444   0.751   0.759   3.697
13935WAT      O56445   0.677   0.480   4.262
13935WAT     H156446   0.626   0.439   4.319
13935WAT     H256447   0.665   0.565   4.280
13935WAT    EPW56448   0.668   0.487   4.273
13936WAT      O56449   1.003   0.524   3.274
13936WAT     H156450   1.015   0.495   3.356
13936WAT     H256451   1.083   0.526   3.241
13936WAT    EPW56452   1.016   0.520   3.282
13937WAT      O56453   1.226   0.975   4.700
13937WAT     H156454   1.158   1.006   4.655
13937WAT     H256455   1.189   0.929   4.764
13937WAT    EPW56456   1.211   0.973   4.703
13938WAT      O56457   0.792   0.178   3.233
13938WAT     H156458   0.770   0.251   3.191
13938WAT     H256459   0.747   0.183   3.308
13938WAT    EPW56460   0.782   0.189   3.238
13939WAT      O56461   0.405   0.868   3.864
13939WAT     H156462   0.353   0.932   3.834
13939WAT     H256463   0.436   0.832   3.791
13939WAT    EPW56464   0.402   0.872   3.849
13940WAT      O56465   1.010   1.013   4.509
13940WAT     H156466   0.942   1.065   4.531
13940WAT     H256467   1.016   1.023   4.422
13940WAT    EPW56468   1.001   1.022   4.499
13941WAT      O56469   0.209   1.088   4.268
13941WAT     H156470   0.181   1.024   4.216
13941WAT     H256471   0.188   1.161   4.225
13941WAT    EPW56472   0.202   1.089   4.254
13942WAT      O56473   0.739   0.566   4.711
13942WAT     H156474   0.788   0.638   4.721
13942WAT     H256475   0.779   0.524   4.646
13942WAT    EPW56476   0.752   0.571   4.703
13943WAT      O56477   0.485   0.242   3.320
13943WAT     H156478   0.484   0.315   3.271
13943WAT     H256479   0.421   0.256   3.378
13943WAT    EPW56480   0.476   0.255   3.321
13944WAT      O56481   0.982   0.629   3.718
13944WAT     H156482   1.018   0.594   3.789
13944WAT     H256483   0.981   0.563   3.661
13944WAT    EPW56484   0.987   0.614   3.720
13945WAT      O56485   0.587   0.936   4.102
13945WAT     H156486   0.526   0.906   4.047
13945WAT     H256487   0.641   0.981   4.051
13945WAT    EPW56488   0.586   0.938   4.087
13946WAT      O56489   0.588   0.621   4.042
13946WAT     H156490   0.508   0.644   4.070
13946WAT     H256491   0.614   0.562   4.101
13946WAT    EPW56492   0.580   0.616   4.055
13947WAT      O56493   0.206   1.054   3.327
13947WAT     H156494   0.269   1.070   3.386
13947WAT     H256495   0.210   1.123   3.274
13947WAT    EPW56496   0.216   1.067   3.328
13948WAT      O56497   0.914   0.421   4.527
13948WAT     H156498   0.920   0.433   4.441
13948WAT     H256499   0.989   0.453   4.557
13948WAT    EPW56500   0.926   0.427   4.519
13949WAT      O56501   0.533   0.956   4.955
13949WAT     H156502   0.550   0.984   5.036
13949WAT     H256503   0.559   1.022   4.904
13949WAT    EPW56504   0.539   0.970   4.959
13950WAT      O56505   0.487   0.402   4.487
13950WAT     H156506   0.472   0.463   4.547
13950WAT     H256507   0.541   0.346   4.528
13950WAT    EPW56508   0.493   0.402   4.502
13951WAT      O56509   0.326   0.242   3.553
13951WAT     H156510   0.331   0.307   3.611
13951WAT     H256511   0.307   0.172   3.602
13951WAT    EPW56512   0.324   0.241   3.569
13952WAT      O56513   0.848   0.674   4.140
13952WAT     H156514   0.800   0.704   4.073
13952WAT     H256515   0.813   0.597   4.157
13952WAT    EPW56516   0.836   0.667   4.132
13953WAT      O56517   0.248   0.446   3.996
13953WAT     H156518   0.163   0.427   4.004
13953WAT     H256519   0.280   0.430   4.075
13953WAT    EPW56520   0.240   0.441   4.009
13954WAT      O56521   1.217   1.091   3.334
13954WAT     H156522   1.287   1.044   3.309
13954WAT     H256523   1.163   1.031   3.367
13954WAT    EPW56524   1.220   1.075   3.335
13955WAT      O56525   0.941   0.369   4.252
13955WAT     H156526   0.941   0.291   4.291
13955WAT     H256527   0.857   0.392   4.251
13955WAT    EPW56528   0.929   0.361   4.257
13956WAT      O56529   1.067   0.376   3.995
13956WAT     H156530   1.038   0.416   4.067
13956WAT     H256531   1.153   0.370   4.008
13956WAT    EPW56532   1.075   0.381   4.008
13957WAT      O56533   1.180   0.939   4.048
13957WAT     H156534   1.209   0.965   3.970
13957WAT     H256535   1.249   0.949   4.100
13957WAT    EPW56536   1.195   0.944   4.044
13958WAT      O56537   0.840   0.799   3.246
13958WAT     H156538   0.874   0.719   3.250
13958WAT     H256539   0.765   0.792   3.289
13958WAT    EPW56540   0.834   0.786   3.253
13959WAT      O56541   1.179   0.211   4.967
13959WAT     H156542   1.174   0.177   4.887
13959WAT     H256543   1.253   0.258   4.965
13959WAT    EPW56544   1.189   0.213   4.955
13960WAT      O56545   1.133   0.579   4.587
13960WAT     H156546   1.195   0.524   4.562
13960WAT     H256547   1.127   0.635   4.521
13960WAT    EPW56548   1.141   0.579   4.574
13961WAT      O56549   0.578   0.587   3.187
13961WAT     H156550   0.646   0.535   3.170
13961WAT     H256551   0.536   0.591   3.110
13961WAT    EPW56552   0.582   0.580   3.173
13962WAT      O56553   0.298   0.344   4.266
13962WAT     H156554   0.345   0.382   4.329
13962WAT     H256555   0.215   0.358   4.292
13962WAT    EPW56556   0.293   0.352   4.279
13963WAT      O56557   0.224   1.083   3.789
13963WAT     H156558   0.279   1.151   3.794
13963WAT     H256559   0.189   1.092   3.709
13963WAT    EPW56560   0.227   1.095   3.778
13964WAT      O56561   0.473   0.570   4.827
13964WAT     H156562   0.549   0.598   4.794
13964WAT     H256563   0.419   0.575   4.759
13964WAT    EPW56564   0.476   0.575   4.812
13965WAT      O56565   0.864   0.825   4.677
13965WAT     H156566   0.899   0.852   4.753
13965WAT     H256567   0.894   0.883   4.619
13965WAT    EPW56568   0.874   0.837   4.680
13966WAT      O56569   0.308   1.071   4.716
13966WAT     H156570   0.355   1.011   4.674
13966WAT     H256571   0.273   1.027   4.782
13966WAT    EPW56572   0.310   1.056   4.720
13967WAT      O56573   0.966   0.402   3.534
13967WAT     H156574   1.014   0.329   3.529
13967WAT     H256575   0.884   0.373   3.526
13967WAT    EPW56576   0.961   0.387   3.532
13968WAT      O56577   0.314   0.593   4.618
13968WAT     H156578   0.234   0.587   4.653
13968WAT     H256579   0.321   0.678   4.598
13968WAT    EPW56580   0.303   0.605   4.620
13969WAT      O56581   0.588   0.519   3.769
13969WAT     H156582   0.596   0.553   3.849
13969WAT     H256583   0.605   0.434   3.782
13969WAT    EPW56584   0.592   0.511   3.783
13970WAT      O56585   0.340   0.446   3.726
13970WAT     H156586   0.310   0.414   3.802
13970WAT     H256587   0.410   0.493   3.749
13970WAT    EPW56588   0.346   0.448   3.741
13971WAT      O56589   0.362   0.858   4.529
13971WAT     H156590   0.431   0.846   4.581
13971WAT     H256591   0.376   0.937   4.494
13971WAT    EPW56592   0.375   0.868   4.531
13972WAT      O56593   0.425   0.304   4.886
13972WAT     H156594   0.457   0.373   4.843
13972WAT     H256595   0.354   0.336   4.926
13972WAT    EPW56596   0.419   0.319   4.886
13973WAT      O56597   0.733   1.142   3.979
13973WAT     H156598   0.688   1.206   4.017
13973WAT     H256599   0.804   1.134   4.029
13973WAT    EPW56600   0.737   1.150   3.992
13974WAT      O56601   0.403   0.651   4.272
13974WAT     H156602   0.334   0.691   4.306
13974WAT     H256603   0.471   0.694   4.306
13974WAT    EPW56604   0.403   0.663   4.282
13975WAT      O56605   0.941   0.910   4.930
13975WAT     H156606   1.019   0.871   4.938
13975WAT     H256607   0.894   0.876   4.995
13975WAT    EPW56608   0.945   0.899   4.941
13976WAT      O56609   0.435   0.810   3.589
13976WAT     H156610   0.415   0.893   3.573
13976WAT     H256611   0.358   0.771   3.601
13976WAT    EPW56612   0.421   0.816   3.588
13977WAT      O56613   0.831   0.206   4.006
13977WAT     H156614   0.898   0.260   4.022
13977WAT     H256615   0.797   0.237   3.933
13977WAT    EPW56616   0.836   0.219   3.998
13978WAT      O56617   0.862   1.013   3.587
13978WAT     H156618   0.845   0.948   3.642
13978WAT     H256619   0.934   0.986   3.545
13978WAT    EPW56620   0.870   0.999   3.589
13979WAT      O56621   0.630   0.758   4.356
13979WAT     H156622   0.651   0.788   4.435
13979WAT     H256623   0.624   0.830   4.308
13979WAT    EPW56624   0.632   0.773   4.361
13980WAT      O56625   0.583   1.180   4.781
13980WAT     H156626   0.508   1.178   4.737
13980WAT     H256627   0.600   1.265   4.789
13980WAT    EPW56628   0.575   1.192   4.776
13981WAT      O56629   1.111   0.622   4.302
13981WAT     H156630   1.108   0.536   4.289
13981WAT     H256631   1.042   0.652   4.259
13981WAT    EPW56632   1.100   0.614   4.294
13982WAT      O56633   0.922   0.948   4.182
13982WAT     H156634   0.974   0.940   4.113
13982WAT     H256635   0.883   0.870   4.187
13982WAT    EPW56636   0.924   0.935   4.172
13983WAT      O56637   0.706   0.256   3.508
13983WAT     H156638   0.713   0.171   3.526
13983WAT     H256639   0.624   0.265   3.480
13983WAT    EPW56640   0.695   0.245   3.507
13984WAT      O56641   1.014   1.152   3.150
13984WAT     H156642   1.078   1.139   3.208
13984WAT     H256643   0.980   1.073   3.138
13984WAT    EPW56644   1.018   1.138   3.157
13985WAT      O56645   1.033   0.394   4.823
13985WAT     H156646   1.097   0.377   4.881
13985WAT     H256647   1.075   0.434   4.758
13985WAT    EPW56648   1.049   0.397   4.822
13986WAT      O56649   0.621   0.778   3.382
13986WAT     H156650   0.596   0.766   3.465
13986WAT     H256651   0.590   0.709   3.340
13986WAT    EPW56652   0.613   0.766   3.388
13987WAT      O56653   0.774   0.405   4.959
13987WAT     H156654   0.862   0.401   4.955
13987WAT     H256655   0.753   0.447   4.885
13987WAT    EPW56656   0.784   0.410   4.947
13988WAT      O56657   0.310   0.599   3.325
13988WAT     H156658   0.382   0.565   3.289
13988WAT     H256659   0.307   0.679   3.290
13988WAT    EPW56660   0.320   0.606   3.315
13989WAT      O56661   1.046   0.899   1.513
13989WAT     H156662   1.116   0.847   1.513
13989WAT     H256663   0.987   0.855   1.466
13989WAT    EPW56664   1.048   0.885   1.506
13990WAT      O56665   0.699   0.262   1.884
13990WAT     H156666   0.707   0.262   1.797
13990WAT     H256667   0.640   0.198   1.899
13990WAT    EPW56668   0.691   0.252   1.873
13991WAT      O56669   0.178   0.703   2.071
13991WAT     H156670   0.213   0.623   2.074
13991WAT     H256671   0.244   0.753   2.045
13991WAT    EPW56672   0.193   0.698   2.067
13992WAT      O56673   0.183   0.648   1.692
13992WAT     H156674   0.217   0.583   1.740
13992WAT     H256675   0.207   0.626   1.611
13992WAT    EPW56676   0.192   0.635   1.687
13993WAT      O56677   0.592   1.055   1.399
13993WAT     H156678   0.665   1.102   1.409
13993WAT     H256679   0.615   0.975   1.427
13993WAT    EPW56680   0.606   1.050   1.405
13994WAT      O56681   0.409   1.094   1.598
13994WAT     H156682   0.430   1.147   1.664
13994WAT     H256683   0.486   1.077   1.560
13994WAT    EPW56684   0.423   1.099   1.602
13995WAT      O56685   0.653   1.095   2.428
13995WAT     H156686   0.727   1.141   2.427
13995WAT     H256687   0.641   1.074   2.345
13995WAT    EPW56688   0.662   1.099   2.416
13996WAT      O56689   0.810   1.214   1.439
13996WAT     H156690   0.877   1.199   1.384
13996WAT     H256691   0.846   1.205   1.518
13996WAT    EPW56692   0.825   1.210   1.442
13997WAT      O56693   0.578   0.814   2.799
13997WAT     H156694   0.575   0.852   2.877
13997WAT     H256695   0.664   0.809   2.782
13997WAT    EPW56696   0.590   0.819   2.808
13998WAT      O56697   0.292   0.833   1.274
13998WAT     H156698   0.274   0.888   1.339
13998WAT     H256699   0.369   0.862   1.244
13998WAT    EPW56700   0.301   0.846   1.279
13999WAT      O56701   0.423   1.130   2.549
13999WAT     H156702   0.500   1.122   2.508
13999WAT     H256703   0.365   1.118   2.485
13999WAT    EPW56704   0.426   1.127   2.533
14000WAT      O56705   1.051   1.190   1.839
14000WAT     H156706   1.006   1.262   1.859
14000WAT     H256707   0.990   1.133   1.814
14000WAT    EPW56708   1.035   1.192   1.838
14001WAT      O56709   0.751   0.775   1.793
14001WAT     H156710   0.821   0.727   1.812
14001WAT     H256711   0.685   0.718   1.798
14001WAT    EPW56712   0.751   0.759   1.796
14002WAT      O56713   0.677   0.480   2.361
14002WAT     H156714   0.626   0.439   2.418
14002WAT     H256715   0.665   0.565   2.379
14002WAT    EPW56716   0.668   0.487   2.372
14003WAT      O56717   1.003   0.524   1.374
14003WAT     H156718   1.015   0.495   1.455
14003WAT     H256719   1.083   0.526   1.341
14003WAT    EPW56720   1.016   0.520   1.381
14004WAT      O56721   1.226   0.975   2.799
14004WAT     H156722   1.158   1.006   2.755
14004WAT     H256723   1.189   0.929   2.864
14004WAT    EPW56724   1.211   0.973   2.802
14005WAT      O56725   0.792   0.178   1.332
14005WAT     H156726   0.770   0.251   1.290
14005WAT     H256727   0.747   0.183   1.407
14005WAT    EPW56728   0.782   0.189   1.337
14006WAT      O56729   0.405   0.868   1.963
14006WAT     H156730   0.353   0.932   1.934
14006WAT     H256731   0.436   0.832   1.890
14006WAT    EPW56732   0.402   0.872   1.948
14007WAT      O56733   1.010   1.013   2.608
14007WAT     H156734   0.942   1.065   2.630
14007WAT     H256735   1.016   1.023   2.522
14007WAT    EPW56736   1.001   1.022   2.599
14008WAT      O56737   0.209   1.088   2.368
14008WAT     H156738   0.181   1.024   2.316
14008WAT     H256739   0.188   1.161   2.324
14008WAT    EPW56740   0.202   1.089   2.354
14009WAT      O56741   0.739   0.566   2.810
14009WAT     H156742   0.788   0.638   2.820
14009WAT     H256743   0.779   0.524   2.745
14009WAT    EPW56744   0.752   0.571   2.802
14010WAT      O56745   0.485   0.242   1.419
14010WAT     H156746   0.484   0.315   1.370
14010WAT     H256747   0.421   0.256   1.477
14010WAT    EPW56748   0.476   0.255   1.421
14011WAT      O56749   0.982   0.629   1.817
14011WAT     H156750   1.018   0.594   1.889
14011WAT     H256751   0.981   0.563   1.760
14011WAT    EPW56752   0.987   0.614   1.819
14012WAT      O56753   0.587   0.936   2.202
14012WAT     H156754   0.526   0.906   2.146
14012WAT     H256755   0.641   0.981   2.151
14012WAT    EPW56756   0.586   0.938   2.186
14013WAT      O56757   0.588   0.621   2.142
14013WAT     H156758   0.508   0.644   2.169
14013WAT     H256759   0.614   0.562   2.200
14013WAT    EPW56760   0.580   0.616   2.154
14014WAT      O56761   0.206   1.054   1.427
14014WAT     H156762   0.269   1.070   1.486
14014WAT     H256763   0.210   1.123   1.374
14014WAT    EPW56764   0.216   1.067   1.428
14015WAT      O56765   0.914   0.421   2.626
14015WAT     H156766   0.920   0.433   2.540
14015WAT     H256767   0.989   0.453   2.657
14015WAT    EPW56768   0.926   0.427   2.618
14016WAT      O56769   0.533   0.956   3.054
14016WAT     H156770   0.550   0.984   3.135
14016WAT     H256771   0.559   1.022   3.004
14016WAT    EPW56772   0.539   0.970   3.059
14017WAT      O56773   0.487   0.402   2.586
14017WAT     H156774   0.472   0.463   2.647
14017WAT     H256775   0.541   0.346   2.627
14017WAT    EPW56776   0.493   0.402   2.601
14018WAT      O56777   0.326   0.242   1.652
14018WAT     H156778   0.331   0.307   1.710
14018WAT     H256779   0.307   0.172   1.701
14018WAT    EPW56780   0.324   0.241   1.668
14019WAT      O56781   0.848   0.674   2.239
14019WAT     H156782   0.800   0.704   2.172
14019WAT     H256783   0.813   0.597   2.257
14019WAT    EPW56784   0.836   0.667   2.232
14020WAT      O56785   0.248   0.446   2.095
14020WAT     H156786   0.163   0.427   2.103
14020WAT     H256787   0.280   0.430   2.175
14020WAT    EPW56788   0.240   0.441   2.108
14021WAT      O56789   1.217   1.091   1.433
14021WAT     H156790   1.287   1.044   1.408
14021WAT     H256791   1.163   1.031   1.467
14021WAT    EPW56792   1.220   1.075   1.434
14022WAT      O56793   0.941   0.369   2.351
14022WAT     H156794   0.941   0.291   2.391
14022WAT     H256795   0.857   0.392   2.350
14022WAT    EPW56796   0.929   0.361   2.357
14023WAT      O56797   1.067   0.376   2.095
14023WAT     H156798   1.038   0.416   2.167
14023WAT     H256799   1.153   0.370   2.107
14023WAT    EPW56800   1.075   0.381   2.107
14024WAT      O56801   1.180   0.939   2.148
14024WAT     H156802   1.209   0.965   2.069
14024WAT     H256803   1.249   0.949   2.199
14024WAT    EPW56804   1.195   0.944   2.144
14025WAT      O56805   0.840   0.799   1.346
14025WAT     H156806   0.874   0.719   1.349
14025WAT     H256807   0.765   0.792   1.389
14025WAT    EPW56808   0.834   0.786   1.353
14026WAT      O56809   1.179   0.211   3.066
14026WAT     H156810   1.174   0.177   2.986
14026WAT     H256811   1.253   0.258   3.064
14026WAT    EPW56812   1.189   0.213   3.054
14027WAT      O56813   1.133   0.579   2.687
14027WAT     H156814   1.195   0.524   2.661
14027WAT     H256815   1.127   0.635   2.621
14027WAT    EPW56816   1.141   0.579   2.673
14028WAT      O56817   0.578   0.587   1.286
14028WAT     H156818   0.646   0.535   1.269
14028WAT     H256819   0.536   0.591   1.210
14028WAT    EPW56820   0.582   0.580   1.272
14029WAT      O56821   0.298   0.344   2.366
14029WAT     H156822   0.345   0.382   2.428
14029WAT     H256823   0.215   0.358   2.391
14029WAT    EPW56824   0.293   0.352   2.379
14030WAT      O56825   0.224   1.083   1.888
14030WAT     H156826   0.279   1.151   1.894
14030WAT     H256827   0.189   1.092   1.809
14030WAT    EPW56828   0.227   1.095   1.877
14031WAT      O56829   0.473   0.570   2.926
14031WAT     H156830   0.549   0.598   2.894
14031WAT     H256831   0.419   0.575   2.858
14031WAT    EPW56832   0.476   0.575   2.911
14032WAT      O56833   0.864   0.825   2.777
14032WAT     H156834   0.899   0.852   2.852
14032WAT     H256835   0.894   0.883   2.719
14032WAT    EPW56836   0.874   0.837   2.779
14033WAT      O56837   0.308   1.071   2.815
14033WAT     H156838   0.355   1.011   2.774
14033WAT     H256839   0.273   1.027   2.882
14033WAT    EPW56840   0.310   1.056   2.819
14034WAT      O56841   0.966   0.402   1.633
14034WAT     H156842   1.014   0.329   1.629
14034WAT     H256843   0.884   0.373   1.626
14034WAT    EPW56844   0.961   0.387   1.631
14035WAT      O56845   0.314   0.593   2.717
14035WAT     H156846   0.234   0.587   2.752
14035WAT     H256847   0.321   0.678   2.698
14035WAT    EPW56848   0.303   0.605   2.720
14036WAT      O56849   0.588   0.519   1.869
14036WAT     H156850   0.596   0.553   1.949
14036WAT     H256851   0.605   0.434   1.881
14036WAT    EPW56852   0.592   0.511   1.882
14037WAT      O56853   0.340   0.446   1.825
14037WAT     H156854   0.310   0.414   1.901
14037WAT     H256855   0.410   0.493   1.849
14037WAT    EPW56856   0.346   0.448   1.840
14038WAT      O56857   0.362   0.858   2.628
14038WAT     H156858   0.431   0.846   2.681
14038WAT     H256859   0.376   0.937   2.594
14038WAT    EPW56860   0.375   0.868   2.631
14039WAT      O56861   0.425   0.304   2.985
14039WAT     H156862   0.457   0.373   2.942
14039WAT     H256863   0.354   0.336   3.026
14039WAT    EPW56864   0.419   0.319   2.985
14040WAT      O56865   0.733   1.142   2.078
14040WAT     H156866   0.688   1.206   2.116
14040WAT     H256867   0.804   1.134   2.129
14040WAT    EPW56868   0.737   1.150   2.091
14041WAT      O56869   0.403   0.651   2.371
14041WAT     H156870   0.334   0.691   2.406
14041WAT     H256871   0.471   0.694   2.405
14041WAT    EPW56872   0.403   0.663   2.381
14042WAT      O56873   0.941   0.910   3.029
14042WAT     H156874   1.019   0.871   3.038
14042WAT     H256875   0.894   0.876   3.095
14042WAT    EPW56876   0.945   0.899   3.040
14043WAT      O56877   0.435   0.810   1.688
14043WAT     H156878   0.415   0.893   1.672
14043WAT     H256879   0.358   0.771   1.700
14043WAT    EPW56880   0.421   0.816   1.688
14044WAT      O56881   0.831   0.206   2.106
14044WAT     H156882   0.898   0.260   2.122
14044WAT     H256883   0.797   0.237   2.032
14044WAT    EPW56884   0.836   0.219   2.097
14045WAT      O56885   0.862   1.013   1.687
14045WAT     H156886   0.845   0.948   1.742
14045WAT     H256887   0.934   0.986   1.644
14045WAT    EPW56888   0.870   0.999   1.688
14046WAT      O56889   0.630   0.758   2.456
14046WAT     H156890   0.651   0.788   2.535
14046WAT     H256891   0.624   0.830   2.407
14046WAT    EPW56892   0.632   0.773   2.460
14047WAT      O56893   0.583   1.180   2.880
14047WAT     H156894   0.508   1.178   2.836
14047WAT     H256895   0.600   1.265   2.889
14047WAT    EPW56896   0.575   1.192   2.875
14048WAT      O56897   1.111   0.622   2.401
14048WAT     H156898   1.108   0.536   2.388
14048WAT     H256899   1.042   0.652   2.358
14048WAT    EPW56900   1.100   0.614   2.393
14049WAT      O56901   0.922   0.948   2.281
14049WAT     H156902   0.974   0.940   2.212
14049WAT     H256903   0.883   0.870   2.287
14049WAT    EPW56904   0.924   0.935   2.272
14050WAT      O56905   0.706   0.256   1.607
14050WAT     H156906   0.713   0.171   1.626
14050WAT     H256907   0.624   0.265   1.580
14050WAT    EPW56908   0.695   0.245   1.606
14051WAT      O56909   1.014   1.152   1.249
14051WAT     H156910   1.078   1.139   1.307
14051WAT     H256911   0.980   1.073   1.238
14051WAT    EPW56912   1.018   1.138   1.256
14052WAT      O56913   1.033   0.394   2.923
14052WAT     H156914   1.097   0.377   2.980
14052WAT     H256915   1.075   0.434   2.857
14052WAT    EPW56916   1.049   0.397   2.921
14053WAT      O56917   0.621   0.778   1.481
14053WAT     H156918   0.596   0.766   1.564
14053WAT     H256919   0.590   0.709   1.439
14053WAT    EPW56920   0.613   0.766   1.487
14054WAT      O56921   0.774   0.405   3.058
14054WAT     H156922   0.862   0.401   3.054
14054WAT     H256923   0.753   0.447   2.985
14054WAT    EPW56924   0.784   0.410   3.047
14055WAT      O56925   0.310   0.599   1.424
14055WAT     H156926   0.382   0.565   1.389
14055WAT     H256927   0.307   0.679   1.390
14055WAT    EPW56928   0.320   0.606   1.414
14056WAT      O56929   0.653   1.095   0.528
14056WAT     H156930   0.727   1.141   0.527
14056WAT     H256931   0.641   1.074   0.444
14056WAT    EPW56932   0.662   1.099   0.515
14057WAT      O56933   0.578   0.814   0.898
14057WAT     H156934   0.575   0.852   0.977
14057WAT     H256935   0.664   0.809   0.881
14057WAT    EPW56936   0.590   0.819   0.907
14058WAT      O56937   0.423   1.130   0.648
14058WAT     H156938   0.500   1.122   0.607
14058WAT     H256939   0.365   1.118   0.584
14058WAT    EPW56940   0.426   1.127   0.633
14059WAT      O56941   0.677   0.480   0.461
14059WAT     H156942   0.626   0.439   0.518
14059WAT     H256943   0.665   0.565   0.479
14059WAT    EPW56944   0.668   0.487   0.472
14060WAT      O56945   1.226   0.975   0.899
14060WAT     H156946   1.158   1.006   0.854
14060WAT     H256947   1.189   0.929   0.963
14060WAT    EPW56948   1.211   0.973   0.902
14061WAT      O56949   1.010   1.013   0.708
14061WAT     H156950   0.942   1.065   0.729
14061WAT     H256951   1.016   1.023   0.621
14061WAT    EPW56952   1.001   1.022   0.698
14062WAT      O56953   0.209   1.088   0.467
14062WAT     H156954   0.181   1.024   0.415
14062WAT     H256955   0.188   1.161   0.423
14062WAT    EPW56956   0.202   1.089   0.453
14063WAT      O56957   0.739   0.566   0.910
14063WAT     H156958   0.788   0.638   0.920
14063WAT     H256959   0.779   0.524   0.845
14063WAT    EPW56960   0.752   0.571   0.902
14064WAT      O56961   0.587   0.936   0.301
14064WAT     H156962   0.526   0.906   0.245
14064WAT     H256963   0.641   0.981   0.250
14064WAT    EPW56964   0.586   0.938   0.285
14065WAT      O56965   0.588   0.621   0.241
14065WAT     H156966   0.508   0.644   0.269
14065WAT     H256967   0.614   0.562   0.300
14065WAT    EPW56968   0.580   0.616   0.254
14066WAT      O56969   0.914   0.421   0.726
14066WAT     H156970   0.920   0.433   0.640
14066WAT     H256971   0.989   0.453   0.756
14066WAT    EPW56972   0.926   0.427   0.717
14067WAT      O56973   0.533   0.956   1.153
14067WAT     H156974   0.550   0.984   1.234
14067WAT     H256975   0.559   1.022   1.103
14067WAT    EPW56976   0.539   0.970   1.158
14068WAT      O56977   0.487   0.402   0.686
14068WAT     H156978   0.472   0.463   0.746
14068WAT     H256979   0.541   0.346   0.726
14068WAT    EPW56980   0.493   0.402   0.701
14069WAT      O56981   0.848   0.674   0.338
14069WAT     H156982   0.800   0.704   0.272
14069WAT     H256983   0.813   0.597   0.356
14069WAT    EPW56984   0.836   0.667   0.331
14070WAT      O56985   0.248   0.446   0.195
14070WAT     H156986   0.163   0.427   0.203
14070WAT     H256987   0.280   0.430   0.274
14070WAT    EPW56988   0.240   0.441   0.208
14071WAT      O56989   0.941   0.369   0.450
14071WAT     H156990   0.941   0.291   0.490
14071WAT     H256991   0.857   0.392   0.450
14071WAT    EPW56992   0.929   0.361   0.456
14072WAT      O56993   1.067   0.376   0.194
14072WAT     H156994   1.038   0.416   0.266
14072WAT     H256995   1.153   0.370   0.207
14072WAT    EPW56996   1.075   0.381   0.207
14073WAT      O56997   1.180   0.939   0.247
14073WAT     H156998   1.209   0.965   0.169
14073WAT     H256999   1.249   0.949   0.299
14073WAT    EPW57000   1.195   0.944   0.243
14074WAT      O57001   1.179   0.211   1.166
14074WAT     H157002   1.174   0.177   1.086
14074WAT     H257003   1.253   0.258   1.163
14074WAT    EPW57004   1.189   0.213   1.153
14075WAT      O57005   1.133   0.579   0.786
14075WAT     H157006   1.195   0.524   0.761
14075WAT     H257007   1.127   0.635   0.720
14075WAT    EPW57008   1.141   0.579   0.773
14076WAT      O57009   0.298   0.344   0.465
14076WAT     H157010   0.345   0.382   0.528
14076WAT     H257011   0.215   0.358   0.491
14076WAT    EPW57012   0.293   0.352   0.478
14077WAT      O57013   0.473   0.570   1.026
14077WAT     H157014   0.549   0.598   0.993
14077WAT     H257015   0.419   0.575   0.958
14077WAT    EPW57016   0.476   0.575   1.011
14078WAT      O57017   0.864   0.825   0.876
14078WAT     H157018   0.899   0.852   0.951
14078WAT     H257019   0.894   0.883   0.818
14078WAT    EPW57020   0.874   0.837   0.879
14079WAT      O57021   0.308   1.071   0.915
14079WAT     H157022   0.355   1.011   0.873
14079WAT     H257023   0.273   1.027   0.981
14079WAT    EPW57024   0.310   1.056   0.918
14080WAT      O57025   0.314   0.593   0.817
14080WAT     H157026   0.234   0.587   0.852
14080WAT     H257027   0.321   0.678   0.797
14080WAT    EPW57028   0.303   0.605   0.819
14081WAT      O57029   0.362   0.858   0.727
14081WAT     H157030   0.431   0.846   0.780
14081WAT     H257031   0.376   0.937   0.693
14081WAT    EPW57032   0.375   0.868   0.730
14082WAT      O57033   0.425   0.304   1.085
14082WAT     H157034   0.457   0.373   1.042
14082WAT     H257035   0.354   0.336   1.125
14082WAT    EPW57036   0.419   0.319   1.084
14083WAT      O57037   0.733   1.142   0.178
14083WAT     H157038   0.688   1.206   0.216
14083WAT     H257039   0.804   1.134   0.228
14083WAT    EPW57040   0.737   1.150   0.191
14084WAT      O57041   0.403   0.651   0.471
14084WAT     H157042   0.334   0.691   0.505
14084WAT     H257043   0.471   0.694   0.505
14084WAT    EPW57044   0.403   0.663   0.481
14085WAT      O57045   0.941   0.910   1.129
14085WAT     H157046   1.019   0.871   1.137
14085WAT     H257047   0.894   0.876   1.194
14085WAT    EPW57048   0.945   0.899   1.140
14086WAT      O57049   0.630   0.758   0.555
14086WAT     H157050   0.651   0.788   0.634
14086WAT     H257051   0.624   0.830   0.507
14086WAT    EPW57052   0.632   0.773   0.560
14087WAT      O57053   0.583   1.180   0.980
14087WAT     H157054   0.508   1.178   0.936
14087WAT     H257055   0.600   1.265   0.988
14087WAT    EPW57056   0.575   1.192   0.974
14088WAT      O57057   1.111   0.622   0.501
14088WAT     H157058   1.108   0.536   0.487
14088WAT     H257059   1.042   0.652   0.457
14088WAT    EPW57060   1.100   0.614   0.492
14089WAT      O57061   0.922   0.948   0.381
14089WAT     H157062   0.974   0.940   0.311
14089WAT     H257063   0.883   0.870   0.386
14089WAT    EPW57064   0.924   0.935   0.371
14090WAT      O57065   1.033   0.394   1.022
14090WAT     H157066   1.097   0.377   1.079
14090WAT     H257067   1.075   0.434   0.957
14090WAT    EPW57068   1.049   0.397   1.021
14091WAT      O57069   0.774   0.405   1.157
14091WAT     H157070   0.862   0.401   1.154
14091WAT     H257071   0.753   0.447   1.084
14091WAT    EPW57072   0.784   0.410   1.146
   8.09217   8.04338   8.05573
