default_name
 57072
  34.1078661  54.9473467  36.5982951  34.6108838  54.4066590  36.2663722
  35.9198661  54.1663467  36.8162951  36.6548661  54.3953467  36.2252951
  35.9408661  53.2123467  36.9902951  36.0788661  54.9173467  38.1242951
  36.3478661  55.8323467  37.9522951  34.8158661  54.9273467  38.8112951
  35.0158661  54.7633467  40.2092951  34.6078661  55.4913467  40.7042951
  34.3788661  53.4863467  40.6062951  33.9238661  52.6063467  39.6602951
  34.0308661  52.8173467  38.7612951  33.3308661  51.4523467  39.9922951
  33.0128661  50.8713467  39.3392951  33.2028661  51.1473467  41.3722951
  32.6188661  49.9973467  41.7472951  32.3358661  49.4453467  41.1522951
  32.5278661  49.8143467  42.5832951  33.6398661  51.9993467  42.3082951
  34.2358661  53.1683467  41.9562951  34.6768661  53.9823467  42.7732951
  37.0578661  54.3053467  39.1162951  36.9898661  53.3373467  39.0962951
  36.5198661  54.7863467  40.4582951  36.7828661  54.1863467  41.1742951
  36.9068661  56.1213467  40.7342951  37.6638661  56.2613467  40.4002951
  38.4078661  54.6823467  38.8422951  39.6028661  53.6433467  39.0412951
  40.8568661  54.3263467  38.6492951  39.2378661  52.3293467  38.4572951
  39.6698661  53.4133467  40.6322951  39.8808661  54.5023467  41.5142951
  39.2558661  55.2103467  41.2942951  40.7858661  54.8323467  41.3942951
  39.6878661  54.1093467  42.9702951  40.0038661  54.8423467  43.5222951
  38.2768661  53.8823467  43.2662951  38.1528661  52.8233467  44.1922951
  37.6188661  53.1133467  44.9472951  37.4678661  51.6803467  43.5462951
  37.3938661  51.5493467  42.1712951  37.7988661  52.1973467  41.6412951
  36.7648661  50.5293467  41.5672951  36.7218661  50.4873467  40.6392951
  36.1568661  49.5023467  42.3692951  35.5358661  48.5073467  41.9732951
  36.2798661  49.6873467  43.7452951  35.9168661  49.0913467  44.2482951
  36.9208661  50.7253467  44.3832951  36.9898661  50.7763467  45.6082951
  40.3538661  52.8213467  43.4082951  40.2148661  52.1323467  42.7402951
  39.5628661  52.4723467  44.6492951  39.6618661  51.5403467  44.8982951
  39.8878661  53.3543467  45.7002951  40.7208661  53.3543467  45.8102951
  41.7508661  52.9603467  43.6182951  42.7398661  51.7243467  43.3782951
  44.1148661  52.2443467  43.5792951  42.3958661  50.9953467  42.1202951
  42.4378661  50.7123467  44.5712951  42.7158661  51.0763467  45.9152951
  42.2778661  51.9193467  46.1102951  43.6738661  51.1853467  46.0212951
  42.2318661  50.0363467  46.8892951  42.5328661  50.2933467  47.7742951
  40.7698661  49.9713467  46.8582951  40.3548661  48.6413467  47.1242951
  39.7568661  48.6513467  47.8882951  39.6248661  48.0963467  45.9802951
  39.6698661  48.5643467  44.6752951  40.1768661  49.2943467  44.3992951
  38.9228661  47.8653467  43.8922951  38.3588661  46.8833467  44.6902951
  37.4818661  45.8243467  44.3562951  36.9788661  45.5283467  43.2732951
  37.1698661  45.0363467  45.4472951  36.6298661  44.3783467  45.3282951
  37.6688661  45.2393467  46.7112951  37.2648661  44.3443467  47.6112951
  36.7218661  43.7183467  47.3812951  37.5458661  44.3923467  48.4222951
  38.5008661  46.2123467  47.0272951  38.8198661  46.9873467  45.9782951
  42.6488661  48.5953467  46.6342951  42.5538661  48.4223467  45.6842951
  41.6068661  47.8323467  47.4392951  41.5428661  46.9053467  47.1602951
  41.8518661  47.9673467  48.8292951  42.5468661  47.5393467  49.0272951
  43.9798661  48.2723467  46.9962951  44.8008661  47.1953467  46.1072951
  46.1678661  47.2203467  46.6712951  44.5278661  47.3873467  44.6602951
  44.1168661  45.7893467  46.4202951  44.2258661  45.2313467  47.7122951
  44.1028661  45.9353467  48.3682951  45.1128661  44.8543467  47.8162951
  43.2088661  44.1553467  47.9572951  43.2368661  43.9373467  48.9022951
  41.8658661  44.6183467  47.6172951  41.0958661  43.5193467  47.1732951
  40.2998661  43.4483467  47.7222951  40.7098661  43.7343467  45.7592951
  41.1468661  44.6583467  44.8502951  41.7918661  45.3003467  45.0402951
  40.5598661  44.5413467  43.6812951  39.6958661  43.4663467  43.8562951
  38.7898661  42.8473467  42.9602951  38.5488661  43.1283467  41.7782951
  38.1258661  41.7933467  43.5632951  37.5648661  41.3543467  43.0822951
  38.2858661  41.3933467  44.8612951  37.5438661  40.3493467  45.2312951
  36.9948661  39.9933467  44.6732951  37.6128661  40.0333467  46.0282951
  39.1298661  41.9493467  45.7052951  39.7728661  42.9833467  45.1312951
  43.3518661  42.8803467  47.1402951  43.5088661  43.1033467  46.2092951
  41.9718661  42.2723467  47.3142951  41.7638661  41.6013467  46.6452951
  41.8328661  41.7783467  48.6422951  41.4438661  42.3583467  49.1102951
  44.4058661  42.0373467  47.5732951  45.0818661  41.0163467  46.5372951
  46.2028661  40.3843467  47.2342951  45.2688661  41.6953467  45.2162951
  43.9808661  39.8943467  46.3322951  43.5068661  39.1313467  47.4242951
  43.1358661  39.7283467  48.0932951  44.2458661  38.6393467  47.8152951
  42.4438661  38.1613467  46.9822951  42.1738661  37.6293467  47.7462951
  41.2958661  38.8883467  46.4722951  40.6828661  38.1553467  45.4282951
  39.7568661  37.9773467  45.6562951  40.7448661  38.9563467  44.1902951
  41.6078661  39.9793467  43.9072951  42.2468661  40.2933467  44.5052951
  41.4368661  40.4723467  42.7012951  40.3798661  39.7663467  42.1772951
  39.7398661  39.8823467  40.9162951  39.9738661  40.6823467  39.9912951
  38.7288661  38.9433467  40.7902951  38.2848661  38.9353467  40.0532951
  38.3798661  38.0283467  41.7442951  37.3838661  37.2133467  41.3992951
  37.0138661  37.2883467  40.6262951  37.1098661  36.6113467  41.9502951
  38.9588661  37.9223467  42.9332951  39.9528661  38.8153467  43.0732951
  42.8128661  37.2263467  45.8382951  43.2978661  37.7203467  45.1582951
  41.4518661  36.8363467  45.2852951  41.5228661  36.5433467  44.3632951
  40.8098661  35.8613467  46.0842951  41.3248661  35.2053467  46.1822951
  43.6028661  36.1323467  46.2582951  44.3808661  35.2473467  45.1772951
  45.7888661  35.0473467  45.5662951  44.0938661  35.8473467  43.8332951
  43.6538661  33.8393467  45.2912951  43.5398661  33.1873467  46.5452951
  43.3038661  33.8403467  47.2232951  44.3948661  32.7903467  46.7752951
  42.4878661  32.1093467  46.5112951  42.4448661  31.6753467  47.3772951
  41.1938661  32.7013467  46.2152951  40.4298661  31.8133467  45.4172951
  39.6018661  31.6053467  45.8772951  40.1008661  32.4673467  44.1292951
  40.7828661  33.5683467  43.6692951  41.4828661  33.9013467  44.1822951
  40.4838661  34.1863467  42.5112951  40.9768661  34.9253467  42.2372951
  39.4078661  33.7053467  41.7062951  39.0368661  34.1843467  40.6102951
  38.7698661  32.6003467  42.2332951  38.1188661  32.2823467  41.7692951
  39.0498661  31.9453467  43.4102951  38.4098661  30.9683467  43.7632951
  42.6648661  31.0553467  45.4312951  42.9518661  31.4823467  44.6092951
  41.2478661  30.5353467  45.2372951  41.1358661  30.1473467  44.3552951
  40.8758661  29.6233467  46.2552951  41.3608661  28.9393467  46.2002951
  43.6128661  30.0583467  45.7792951  44.6478661  29.5183467  44.6772951
  45.2958661  28.3183467  45.2362951  45.5038661  30.6333467  44.1862951
  43.7108661  29.2013467  43.4332951  42.7608661  28.1573467  43.4762951
  42.1778661  28.2783467  44.2422951  43.2168661  27.3053467  43.5582951
  41.9438661  28.1693467  42.2172951  41.3048661  27.4393467  42.2282951
  41.2198661  29.4313467  42.1272951  41.1458661  29.8553467  40.7832951
  40.2088661  29.9683467  40.5562951  41.8618661  31.1453467  40.6152951
  42.8608661  31.5563467  41.4572951  43.0818661  31.0323467  42.1932951
  43.5268661  32.6993467  41.2412951  44.1968661  32.9843467  41.8192951
  43.1638661  33.4603467  40.0902951  43.7728661  34.6123467  39.8132951
  44.3998661  34.9013467  40.3262951  43.5388661  35.0673467  39.1222951
  42.2038661  33.0703467  39.2582951  41.5468661  31.9173467  39.4942951
  40.6568661  31.5263467  38.7432951  42.7558661  28.1183467  40.9292951
  43.5398661  28.6823467  41.0192951  41.8078661  28.7673467  39.9202951
  42.2948661  29.1483467  39.1732951  40.8188661  27.8673467  39.4592951
  41.1908661  27.2553467  39.0192951  43.1988661  26.8133467  40.5902951
  44.7518661  26.5373467  40.2562951  44.9498661  25.0753467  40.0702951
  45.6188661  27.3083467  41.1782951  44.9638661  27.2663467  38.8522951
  44.1268661  26.9853467  37.7512951  43.1998661  27.0383467  38.0312951
  44.3088661  26.0873467  37.4312951  44.3678661  27.9713467  36.6342951
  43.8808661  27.6843467  35.8462951  43.8848661  29.2903467  37.0172951
  44.6688661  30.2853467  36.4042951  44.0698661  30.8013467  35.8412951
  45.2978661  31.1813467  37.4072951  45.7378661  30.9493467  38.6972951
  45.5948661  30.1463467  39.1452951  46.3778661  31.9643467  39.2342951
  46.4058661  32.8963467  38.2252951  46.9618661  34.1913467  38.2102951
  47.5538661  34.7623467  39.1392951  46.7718661  34.8153467  36.9712951
  47.1008661  35.6033467  36.8722951  46.1068661  34.2753467  35.9052951
  46.0288661  35.0393467  34.7952951  46.3688661  35.8293467  34.7912951
  45.6388661  34.7363467  34.0912951  45.5848661  33.0623467  35.9122951
  45.7578661  32.4403467  37.0992951  45.8308661  28.2013467  36.2702951
  46.3598661  28.2643467  37.0802951  45.7778661  29.5693467  35.5932951
  46.6078661  30.0643467  35.6812951  45.4238661  29.4333467  34.2162951
  46.0128661  28.9803467  33.8252951  46.3718661  27.1693467  35.4462951
  47.8098661  26.5043467  35.7782951  48.1368661  25.4953467  34.7512951
  47.8968661  26.1173467  37.2122951  48.8228661  27.7113467  35.5922951
  50.1928661  27.5563467  35.8942951  50.4488661  26.6303467  35.7572951
  50.3448661  27.7913467  36.8232951  51.0328661  28.4383467  35.0152951
  51.9408661  28.4643467  35.3552951  51.0478661  27.9003467  33.6682951
  51.0388661  28.9563467  32.7322951  51.8088661  28.8803467  32.1472951
  49.8098661  28.8573467  31.9212951  48.7578661  28.0363467  32.2402951
  48.7908661  27.5223467  33.0152951  47.6828661  27.9713467  31.4402951
  46.9598661  27.4233467  31.6442951  47.6948661  28.7833467  30.2562951
  46.6698661  28.7743467  29.3942951  45.9838661  28.2793467  29.5472951
  46.6978661  29.2643467  28.6882951  48.7138661  29.5783467  29.9402951
  49.7898661  29.6243467  30.7502951  50.7618661  30.3513467  30.5132951
  50.5288661  29.8633467  34.8412951  49.5628661  29.8513467  34.7542951
  51.1368661  30.2683467  33.5102951  50.6358661  30.9863467  33.0932951
  52.5128661  30.6033467  33.6442951  52.5758661  31.3593467  34.0052951
  50.8798661  30.7133467  35.9232951  49.8598661  31.8083467  36.4612951
  50.5778661  32.5413467  37.5382951  48.5438661  31.1873467  36.7872951
  49.6808661  32.7993467  35.2272951  50.7248661  33.6853467  34.8512951
  51.5638661  33.1983467  34.8332951  50.7868661  34.3993467  35.5052951
  50.4698661  34.2813467  33.4902951  51.2738661  34.7243467  33.1762951
  50.1248661  33.2273467  32.5572951  49.1528661  33.6823467  31.6482951
  49.4818661  33.6143467  30.7382951  47.9608661  32.8243467  31.7842951
  47.5648661  32.0603467  32.8562951  48.0398661  32.0243467  33.6542951
  46.4588661  31.3863467  32.6522951  46.1148661  31.7183467  31.3532951
  45.0428661  31.3253467  30.5282951  44.0858661  30.4823467  30.9202951
  43.4458661  30.2783467  30.3832951  44.1088661  30.1433467  31.7102951
  44.9918661  31.8513467  29.2802951  45.9518661  32.6993467  28.8902951
  45.8608661  33.0353467  28.0272951  47.0178661  33.1313467  29.5622951
  47.0278661  32.6043467  30.8082951  49.3138661  35.2563467  33.4052951
  48.5888661  34.9443467  33.9692951  48.8888661  35.1573467  31.9542951
  47.9518661  35.3823467  31.8362951  49.7388661  35.9493467  31.1332951
  49.6338661  36.7583467  31.3312951  49.7028661  36.5643467  33.7752951
  49.0138661  37.3213467  35.0032951  49.7978661  38.5653467  35.1582951
  48.8568661  36.4593467  36.2242951  47.5408661  37.5983467  34.4782951
  47.3188661  38.2983467  33.2532951  47.1468661  37.6593467  32.5432951
  48.1078661  38.8143467  33.0282951  46.1398661  39.2203467  33.3912951
  45.9928661  39.6963467  32.5582951  44.9778661  38.4073467  33.6972951
  44.4058661  38.8243467  34.9092951  43.6748661  39.4393467  34.7402951
  43.8928661  37.6283467  35.5882951  44.3288661  37.0883467  36.7822951
  45.0268661  37.4463467  37.2812951  43.6578661  36.0203467  37.1412951
  42.7338661  35.8403467  36.1362951  41.7638661  34.8233467  35.9812951
  41.5278661  33.8733467  36.7352951  41.0438661  34.9813467  34.8062951
  40.4328661  34.4003467  34.6332951  41.2308661  35.9923467  33.9022951
  40.4218661  35.9453467  32.8402951  39.8298661  35.3253467  32.7782951
  40.4938661  36.5353467  32.2192951  42.1498661  36.9423467  34.0142951
  42.8598661  36.8133467  35.1602951  46.2538661  40.2503467  34.5202951
  47.1808661  40.4153467  34.7522951  45.5058661  39.5743467  35.6652951
  46.0898661  38.9363467  36.1042951  44.9738661  40.4633467  36.6312951
  44.3128661  40.1003467  37.0022951  45.5998661  41.4683467  34.1492951
  46.1858661  42.4003467  32.9592951  45.3738661  42.1283467  31.7302951
  47.6668661  42.3303467  32.9742951  45.8338661  43.8793467  33.4292951
  46.3488661  44.4083467  34.6472951  47.0308661  43.8113467  34.9932951
  45.6298661  44.4763467  35.2952951  46.9508661  45.7753467  34.4292951
  47.1578661  46.1613467  35.2942951  48.1808661  45.6353467  33.6572951
  48.1248661  46.5103467  32.5492951  48.4908661  47.3693467  32.8142951
  48.9518661  46.0233467  31.4512951  48.9168661  44.7293467  31.0022951
  48.3598661  44.1193467  31.4292951  49.6598661  44.3133467  29.9672951
  49.6198661  43.4283467  29.6852951  50.5148661  45.2503467  29.3022951
  51.2478661  45.0033467  28.3542951  50.4968661  46.5323467  29.7972951
  51.0048661  47.1063467  29.4082951  49.7448661  46.9883467  30.8552951
  49.7888661  48.1473467  31.2362951  46.0788661  46.7653467  33.6412951
  45.1408661  46.5313467  33.7142951  46.6348661  46.6303467  32.2292951
  46.3058661  45.8183467  31.8142951  46.3598661  47.7103467  31.3672951
  47.0748661  48.1223467  31.2092951  46.3448661  48.1003467  34.0722951
  45.6928661  48.6893467  35.4152951  45.9998661  50.1483467  35.4502951
  46.1028661  47.7973467  36.5442951  44.1318661  48.4823467  35.1702951
  43.2028661  48.6653467  36.2272951  43.1488661  49.6093467  36.4412951
  43.5128661  48.1813467  37.0082951  41.8338661  48.1653467  35.8502951
  41.2018661  48.4433467  36.5322951  41.4278661  48.7363467  34.5802951
  40.5248661  47.8623467  33.9322951  39.6378661  48.2543467  33.9422951
  40.9088661  47.7013467  32.5122951  40.3198661  48.3873467  31.4662951
  39.6278661  48.9973467  31.5892951  40.8168661  48.1063467  30.2862951
  41.8108661  47.1723467  30.5632951  42.7158661  46.4863467  29.7172951
  42.7298661  46.6663467  28.3942951  43.2918661  46.2333467  27.9072951
  42.1778661  47.2143467  28.0282951  43.5968661  45.6143467  30.2812951
  43.5508661  45.4543467  31.6202951  44.1608661  44.8443467  31.9692951
  42.7498661  46.0493467  32.5212951  41.8888661  46.9093467  31.9322951
  41.7018661  46.6643467  35.6402951  42.4778661  46.3373467  35.1602951
  40.4748661  46.5523467  34.7342951  40.5488661  45.7793467  34.1522951
  39.2698661  46.5333467  35.4912951  39.0668661  47.3213467  35.7002951
  41.5588661  45.9643467  36.8702951  42.5178661  44.7343467  37.2822951
  42.0888661  44.4313467  38.6822951  43.9488661  44.9863467  36.9852951
  42.0318661  43.5043467  36.4012951  42.3118661  43.4333467  35.0092951
  43.2318661  43.1573467  34.8802951  42.1848661  44.3093467  34.6102951
  41.3928661  42.4433467  34.3412951  41.3938661  42.5983467  33.3832951
  41.8638661  41.1033467  34.5992951  40.7718661  40.2233467  34.7252951
  40.8038661  39.5463467  34.0312951  40.8728661  39.5223467  36.0152951
  41.7618661  39.7433467  37.0442951  42.3818661  40.4353467  37.0372951
  41.6558661  38.8893467  38.0372951  40.6538661  38.0403467  37.6322951
  40.0538661  36.9173467  38.2222951  40.3878661  36.4243467  39.4102951
  39.9848661  35.7283467  39.7152951  41.0068661  36.8013467  39.8732951
  39.0748661  36.2843467  37.5382951  38.7248661  36.7703467  36.3342951
  38.0518661  36.3033467  35.8952951  39.2048661  37.8213467  35.6872951
  40.1758661  38.4093467  36.3812951  39.9528661  42.4363467  34.8352951
  39.9278661  42.5363467  35.7992951  39.4898661  41.0253467  34.5072951
  38.7658661  40.7653467  35.0982951  39.1358661  40.8703467  33.1342951
  38.4788661  41.3653467  32.9632951  39.1918661  43.4673467  34.2382951
  37.7188661  43.8563467  34.7532951  37.5628661  45.3003467  34.4802951
  37.4608661  43.3443467  36.1302951  36.7718661  43.0543467  33.7592951
  35.5148661  43.5913467  33.3652951  35.6598661  44.4543467  32.9462951
  34.9648661  43.7133467  34.1552951  34.7878661  42.6953467  32.3982951
  33.8868661  43.0423467  32.3022951  35.4248661  42.7323467  31.0812951
  35.5158661  41.4163467  30.5792951  34.6878661  41.1753467  30.1342951
  36.5668661  41.3253467  29.5432951  37.8068661  40.8023467  29.7992951
  38.0078661  40.5123467  30.6592951  38.7398661  40.6963467  28.8362951
  39.5838661  40.3533467  29.0252951  38.4018661  41.1263467  27.5152951
  39.3038661  41.0483467  26.5202951  40.0868661  40.7273467  26.6732951
  39.0968661  41.3193467  25.7312951  37.1918661  41.6313467  27.2402951
  36.2528661  41.7353467  28.2222951  35.1318661  42.2163467  27.9572951
  34.7108661  41.2133467  32.7902951  34.9828661  41.0613467  33.7092951
  35.6968661  40.5473467  31.8232951  36.6028661  40.6463467  32.1552951
  35.4568661  39.1773467  31.5732951  35.6198661  38.7393467  32.2712951
  33.3868661  40.7503467  32.5462951  32.2588661  40.9273467  33.6772951
  30.9678661  40.6243467  33.0292951  32.4568661  42.2003467  34.4022951
  32.5688661  39.7313467  34.6782951  32.2488661  38.3943467  34.3112951
  32.7108661  38.1723467  33.4872951  31.2918661  38.3273467  34.1642951
  32.6518661  37.4103467  35.3792951  32.1998661  36.5683467  35.2102951
  34.0878661  37.1833467  35.3412951  34.5838661  37.0293467  36.6592951
  35.0768661  36.1973467  36.7312951  35.4828661  38.1553467  36.9532951
  35.5538661  39.2443467  36.1412951  35.0188661  39.2843467  35.3812951
  36.3788661  40.2593467  36.4182951  36.4238661  41.0083467  35.8692951
  37.1858661  40.1493467  37.5892951  38.0468661  41.1103467  37.8942951
  38.0968661  41.8133467  37.4022951  38.5538661  41.0293467  38.5832951
  37.1328661  39.0853467  38.3622951  36.2768661  38.0803467  38.0952951
  36.1838661  37.0753467  38.8212951  32.3868661  37.8383467  36.8162951
  32.6128661  38.7753467  36.9252951  33.3838661  36.9953467  37.5922951
  33.5738661  37.3783467  38.4622951  32.9538661  35.6473467  37.6872951
  33.3698661  35.1863467  37.1222951  31.0428661  37.6453467  37.2042951
  30.3618661  38.6043467  38.3012951  28.9488661  38.2033467  38.3092951
  30.7448661  40.0253467  38.1502951  31.0878661  38.1763467  39.6502951
  30.8608661  36.9043467  40.2272951  31.1378661  36.2153467  39.6032951
  29.9138661  36.8003467  40.4122951  31.6378661  36.7603467  41.5092951
  31.4328661  35.9003467  41.9082951  33.0588661  36.8393467  41.2162951
  33.7298661  37.4923467  42.2762951  34.4298661  36.9183467  42.6242951
  34.3548661  38.7303467  41.7612951  33.9738661  39.2623467  40.5602951
  33.3048661  38.8513467  40.0612951  34.5588661  40.3653467  40.1042951
  34.3158661  40.7353467  39.2862951  35.5688661  40.9613467  40.9112951
  36.1858661  42.0753467  40.4792951  35.9588661  42.4293467  39.7282951
  36.8058661  42.4353467  40.9542951  35.9478661  40.4423467  42.0812951
  35.3438661  39.3283467  42.5262951  35.6228661  38.8143467  43.6102951
  31.4238661  37.8493467  42.5542951  31.3888661  38.7143467  42.1152951
  32.7018661  37.7523467  43.3742951  32.8798661  38.5693467  43.8662951
  32.6728661  36.6143467  44.2182951  33.0578661  35.9763467  43.8302951
  30.2318661  37.6903467  43.3062951  29.4948661  38.9693467  43.9432951
  28.1998661  38.5143467  44.4772951  29.6038661  40.1483467  43.0702951
  30.4288661  39.3743467  45.1702951  30.6838661  38.4673467  46.2312951
  31.0138661  37.6333467  45.8612951  29.8568661  38.2963467  46.7072951
  31.7068661  39.0163467  47.2012951  31.7318661  38.4263467  47.9702951
  33.0238661  39.0573467  46.5692951  33.7398661  40.1733467  47.0542951
  34.5948661  39.8813467  47.4062951  33.9798661  41.1173467  45.9472951
  33.2628661  41.0233467  44.7942951  32.6178661  40.3593467  44.7092951
  33.4728661  41.8773467  43.7752951  32.9858661  41.8173467  42.9852951
  34.4718661  42.8773467  43.9542951  34.7298661  43.7423467  42.9732951
  34.2868661  43.7023467  42.2372951  35.3388661  44.3403467  43.0762951
  35.1878661  42.9803467  45.0812951  34.9468661  42.1203467  46.0942951
  35.5708661  42.2113467  47.1632951  31.5068661  40.4363467  47.6872951
  31.2418661  40.9853467  46.9322951  32.9008661  40.7913467  48.1572951
  33.0338661  41.7483467  48.2362951  33.1948661  40.0903467  49.3552951
  32.7918661  40.4593467  49.9932951  30.5328661  40.5763467  48.7092951
  29.5988661  41.8883467  48.7632951  28.4538661  41.5053467  49.5962951
  29.3308661  42.4473467  47.4162951  30.5118661  43.0583467  49.3492951
  30.9628661  43.0693467  50.6822951  31.1328661  42.1583467  50.9662951
  30.2728661  43.4523467  51.2462951  32.2268661  43.8763467  50.8342951
  32.6418661  43.6013467  51.6672951  33.1198661  43.6113467  49.7152951
  33.8998661  44.7623467  49.4612951  34.8478661  44.5773467  49.5552951
  33.6588661  45.1683467  48.0662951  32.8098661  44.5343467  47.2022951
  32.2688661  43.8223467  47.4592951  32.8208661  45.0123467  45.9832951
  33.7728661  46.0233467  46.0592951  34.2358661  46.9243467  45.0942951
  33.8118661  46.9293467  43.8232951  34.1398661  47.4933467  43.2622951
  33.2118661  46.3683467  43.5672951  35.1678661  47.8073467  45.4592951
  35.5898661  47.8163467  46.7482951  36.2198661  48.4673467  46.9582951
  35.2298661  47.0213467  47.7572951  34.2928661  46.1423467  47.3432951
  32.1248661  45.3943467  50.8582951  31.4938661  45.6693467  50.1742951
  33.5448661  45.7993467  50.5162951  33.6158661  46.7023467  50.1672951
  34.3688661  45.5683467  51.6642951  34.7328661  44.8143467  51.5922951
  31.7328661  45.9243467  52.1212951  30.9718661  47.3393467  52.2082951
  30.6568661  47.4933467  53.6702951  29.9598661  47.4463467  51.1462951
  32.0758661  48.4433467  51.8982951  33.2748661  48.5043467  52.6602951
  33.7718661  47.6803467  52.5422951  33.0528661  48.6073467  53.5992951
  34.1298661  49.6653467  52.2242951  34.9638661  49.6473467  52.7192951
  34.3968661  49.5233467  50.7872951  33.8208661  50.6193467  50.0942951
  34.5068661  51.2773467  49.8982951  33.2528661  50.1173467  48.8442951
  32.4508661  49.0093467  48.6602951  32.1758661  48.4533467  49.3532951
  32.1158661  48.8213467  47.3982951  32.7578661  49.8583467  46.7482951
  32.7728661  50.1793467  45.3692951  32.2248661  49.5663467  44.4632951
  33.5298661  51.3133467  45.1012951  33.5798661  51.5733467  44.2822951
  34.2038661  52.0493467  46.0432951  34.8688661  53.1173467  45.5742951
  34.8658661  53.2893467  44.7322951  35.2988661  53.6283467  46.1162951
  34.1988661  51.7723467  47.3342951  33.4688661  50.6623467  47.6042951
  33.4948661  51.0393467  52.3832951  32.8688661  51.0613467  53.1242951
  32.7958661  51.2283467  51.0462951  31.9768661  50.7083467  51.0322951
  32.4968661  52.5703467  50.7072951  33.0848661  52.8563467  50.1792951
  34.5178661  52.0283467  52.5352951  34.7668661  52.8313467  53.9152951
  34.5588661  51.8533467  55.0032951  34.0168661  54.0983467  53.9122951
  36.3048661  53.2253467  53.8182951  37.3248661  52.2303467  53.7912951
  37.0788661  51.5393467  53.1562951  37.4068661  51.8343467  54.6722951
  38.6488661  52.8243467  53.3892951  39.3688661  52.2273467  53.6462951
  38.6618661  52.9843467  51.9382951  38.8998661  54.3333467  51.6072951
  39.8428661  54.4833467  51.4392951  38.1288661  54.6203467  50.3922951
  36.8058661  54.2773467  50.3202951  36.4088661  53.8843467  51.0632951
  36.0588661  54.4783467  49.2322951  35.1588661  54.2463467  49.2272951
  36.6728661  55.0613467  48.0682951  36.1108661  55.2943467  47.0012951
  38.0038661  55.3653467  48.2062951  38.3878661  55.7153467  47.5212951
  38.7928661  55.1743467  49.3182951  39.9798661  55.4663467  49.3522951
  38.9128661  54.2103467  53.9702951  38.3768661  54.3623467  54.7642951
  38.4938661  55.1423467  52.8332951  37.5308661  55.2583467  52.8392951
  39.1388661  56.3953467  52.8612951  38.9858661  56.7653467  53.5992951
  40.2998661  54.3733467  54.2602951  40.7458661  54.5513467  55.7902951
  39.7148661  55.4023467  56.4112951  42.1948661  54.8233467  55.8782951
  40.5098661  53.0983467  56.3892951  41.5208661  52.0943467  56.3132951
  42.3298661  52.4233467  56.7352951  41.7068661  51.8993467  55.3812951
  41.0758661  50.8283467  57.0082951  41.7948661  50.1783467  56.9722951
  40.7848661  51.1303467  58.4082951  39.4328661  50.7983467  58.7002951
  39.3368661  49.9183467  59.0972951  38.9968661  51.8113467  59.6442951
  39.1798661  53.1243467  59.3072951  39.5038661  53.3243467  58.4582951
  38.9148661  54.1313467  60.1452951  39.0288661  55.0143467  59.8772951
  38.4468661  53.8203467  61.4762951  38.1768661  54.6213467  62.3622951
  38.3138661  52.4763467  61.7542951  38.0318661  52.2773467  62.5422951
  38.5738661  51.4423467  60.9332951  38.4008661  50.3043467  61.3122951
  39.8018661  50.2013467  56.4392951  39.6408661  50.4803467  55.5242951
  38.7128661  50.7423467  57.3552951  38.4678661  51.6353467  57.0662951
  37.5788661  49.9123467  57.4492951  37.2108661  49.8653467  56.6952951
  39.8888661  48.7743467  56.5272951  40.4678661  47.9343467  55.2922951
  40.6498661  46.5153467  55.6922951  41.5708661  48.7133467  54.7402951
  39.3678661  48.0963467  54.1462951  38.0408661  47.5993467  54.3082951
  37.5448661  48.2043467  54.8802951  38.0808661  46.7263467  54.7302951
  37.3188661  47.4723467  52.9812951  36.4288661  47.1153467  53.1282951
  37.1828661  48.7743467  52.3772951  37.4138661  48.7003467  50.9882951
  36.6588661  49.0493467  50.4892951  38.6048661  49.5293467  50.7002951
  39.8408661  49.5363467  51.3022951  40.0768661  48.9543467  51.9872951
  40.6598661  50.4473467  50.8152951  39.9158661  51.0643467  49.8312951
  40.2048661  52.1033467  48.9362951  41.3668661  52.7403467  48.8702951
  41.4768661  53.3763467  48.3022951  42.0108661  52.5163467  49.3952951
  39.2458661  52.4963467  48.0962951  38.0568661  51.8733467  48.1312951
  37.4208661  52.1933467  47.5332951  37.6638661  50.8653467  48.9002951
  38.6518661  50.5143467  49.7522951  38.0038661  46.6073467  51.9292951
  38.9678661  46.6913467  52.0002951  37.5618661  47.2313467  50.6132951
  38.2238661  47.1193467  49.9132951  36.2918661  46.7213467  50.2442951
  35.7008661  47.2763467  50.4622951  37.5788661  45.2553467  52.0602951
  38.4848661  44.0313467  51.6482951  39.8918661  44.4493467  51.8262951
  38.0538661  43.5403467  50.2722951  38.0498661  42.9153467  52.6742951
  38.3388661  43.1353467  54.0582951  38.0938661  44.0443467  54.2942951
  39.2888661  43.0153467  54.2092951  37.5808661  42.1823467  54.9212951
  37.8508661  42.3363467  55.8402951  36.1638661  42.4023467  54.8082951
  35.4788661  41.1933467  55.0732951  34.9518661  41.3123467  55.8782951
  34.5678661  40.8693467  53.9782951  34.5988661  41.3033467  52.6672951
  35.2448661  41.8803467  52.3282951  33.6118661  40.8073467  51.9552951
  32.9308661  39.9873467  52.8432951  31.7978661  39.1793467  52.6962951
  31.1478661  39.0843467  51.5472951  30.4448661  38.5923467  51.4902951
  31.4288661  39.5143467  50.8572951  31.3378661  38.4943467  53.7712951
  32.0208661  38.6233467  54.9262951  31.6858661  38.1343467  55.6432951
  33.1078661  39.3533467  55.1912951  33.5118661  40.0213467  54.0962951
  37.7238661  40.7223467  54.5882951  37.6288661  40.5843467  53.6332951
  36.5248661  40.1133467  55.2882951  36.2688661  39.2663467  54.8922951
  36.7588661  40.0043467  56.6852951  36.4248661  39.2853467  56.9632951
  38.9568661  40.2093467  55.0122951  39.6638661  39.0733467  54.1512951
  41.0008661  38.9713467  54.7632951  39.5138661  39.3163467  52.6912951
  38.7978661  37.7813467  54.4662951  38.5498661  37.4323467  55.8212951
  38.1528661  38.1913467  56.2762951  39.3908661  37.2113467  56.2512951
  37.6238661  36.2593467  55.9272951  37.6828661  35.8873467  56.8212951
  36.2508661  36.6723467  55.7022951  35.5418661  35.6313467  55.0562951
  34.7868661  35.3753467  55.6082951  35.0568661  36.1143467  53.7412951
  35.7408661  37.0453467  53.0102951  36.5318661  37.4043467  53.3422951
  35.2718661  37.4483467  51.8062951  35.7278661  38.0813467  51.2992951
  34.0488661  36.8683467  51.3402951  33.5098661  37.2093467  50.1652951
  33.8998661  37.7893467  49.6642951  32.7718661  36.8493467  49.9102951
  33.3848661  35.9663467  52.0552951  33.8688661  35.5673467  53.2452951
  33.2718661  34.7253467  53.9212951  37.8498661  35.1653467  54.9012951
  38.0068661  35.5653467  54.0322951  36.5088661  34.4543467  54.8892951
  36.3488661  33.9813467  54.0572951  36.3938661  33.5943467  56.0072951
  36.9748661  32.9903467  55.9482951  38.9438661  34.3243467  55.2222951
  39.5898661  33.4003467  54.0812951  40.5028661  32.4353467  54.7702951
  40.1018661  34.2463467  52.9852951  38.3398661  32.5703467  53.5642951
  38.1958661  32.2163467  52.2022951  38.6478661  31.3743467  52.0382951
  38.5958661  32.9033467  51.6472951  36.7388661  32.0783467  51.8552951
  36.2698661  31.6263467  52.5732951  36.1708661  33.3953467  51.6842951
  35.2178661  33.3793467  50.6472951  34.3448661  33.6343467  50.9842951
  35.6338661  34.3653467  49.6352951  36.7588661  35.1513467  49.6922951
  37.3838661  35.0923467  50.3782951  36.8728661  35.9923467  48.6932951
  35.7388661  35.7423467  47.9412951  35.2948661  36.3113467  46.7512951
  35.9828661  37.2823467  46.1562951  35.6878661  37.6363467  45.4302951
  36.7238661  37.5553467  46.4972951  34.1258661  35.8633467  46.2332951
  33.4698661  34.8963467  46.8932951  32.6688661  34.6243467  46.5062951
  33.7988661  34.2633467  48.0262951  34.9578661  34.7483467  48.5042951
  36.4348661  31.3503467  50.5602951  37.1008661  31.5753467  49.8922951
  35.1068661  31.9523467  50.1292951  35.0118661  31.9233467  49.1642951
  34.0178661  31.3313467  50.7872951  34.1338661  30.4993467  50.7822951
  36.3868661  29.9453467  50.7542951  37.0168661  28.9343467  49.6812951
  36.7518661  27.5653467  50.1872951  38.4148661  29.3503467  49.3572951
  36.1148661  29.1503467  48.3872951  34.7408661  28.8073467  48.4022951
  34.3048661  29.2653467  49.1372951  34.6518661  27.8493467  48.5292951
  34.0758661  29.1993467  47.1082951  33.1688661  28.8573467  47.0932951
  34.0308661  30.6463467  47.0102951  34.2308661  31.0463467  45.6662951
  33.4678661  31.5443467  45.3332951  35.4038661  31.9413467  45.6272951
  36.4838661  31.9753467  46.4812951  36.6018661  31.3683467  47.1762951
  37.3308661  32.9433467  46.2232951  36.7628661  33.6003467  45.1462951
  37.1578661  34.7193467  44.3962951  38.2688661  35.4083467  44.6142951
  38.4638661  36.0803467  44.1142951  38.7958661  35.1843467  45.2562951
  36.3678661  35.1163467  43.3742951  35.2528661  34.4233467  43.1342951
  34.7438661  34.7253467  42.4172951  34.7628661  33.3623467  43.7732951
  35.5738661  33.0013467  44.7822951  34.7858661  28.7513467  45.8412951
  35.7458661  28.8383467  45.9562951  34.3418661  29.7863467  44.8172951
  34.9988661  29.8733467  44.1092951  33.0448661  29.4993467  44.3222951
  32.4768661  29.9013467  44.7922951  34.4798661  27.4033467  45.4952951
  35.4808661  26.5473467  44.5792951  35.1538661  25.1133467  44.7362951
  36.8668661  26.9983467  44.8412951  35.0418661  26.9463467  43.0992951
  33.6808661  26.8133467  42.7062951  33.1478661  27.4593467  43.1962951
  33.3758661  25.9193467  42.9282951  33.4878661  27.0423467  41.2292951
  32.6038661  26.7243467  40.9862951  33.5688661  28.4713467  40.9462951
  34.5578661  28.6873467  39.9602951  34.1518661  28.6763467  39.0792951
  35.1538661  30.0063467  40.1462951  36.2528661  30.3413467  40.8832951
  36.7398661  29.7243467  41.3802951  36.5548661  31.6113467  40.8242951
  35.5918661  32.1513467  39.9912951  35.3678661  33.4593467  39.5242951
  36.1388661  34.4893467  39.8492951  35.9698661  35.2693467  39.5302951
  36.8068661  34.3763467  40.3792951  34.3218661  33.6763467  38.6842951
  33.5638661  32.6203467  38.3632951  32.8468661  32.8043467  37.8002951
  33.6838661  31.3403467  38.7302951  34.7248661  31.1703467  39.5602951
  34.5158661  26.3753467  40.3132951  34.9128661  25.5923467  40.7252951
  35.5148661  27.5023467  40.0932951  36.0768661  27.6313467  40.8722951
  36.3358661  27.3253467  38.9702951  36.8608661  27.9793467  38.9092951
  33.9008661  26.0813467  39.0582951  34.1808661  24.7173467  38.2552951
  33.0558661  23.8253467  38.6402951  35.5908661  24.2463467  38.3422951
  33.9768661  25.1513467  36.7402951  34.8938661  26.0323467  36.1032951
  35.4248661  25.5303467  35.4662951  35.4818661  26.4153467  36.7722951
  34.1788661  27.1463467  35.3792951  33.3258661  26.8193467  35.0542951
  33.9358661  28.2513467  36.2912951  34.0918661  29.4813467  35.6142951
  33.2908661  30.0183467  35.7172951  35.2428661  30.1873467  36.2002951
  36.2408661  29.6253467  36.9532951  36.2678661  28.7203467  37.1642951
  37.1498661  30.4753467  37.3502951  36.7338661  31.6793467  36.8192951
  37.2728661  32.9733467  36.8852951  38.3928661  33.2933467  37.5402951
  38.6718661  34.1063467  37.5422951  38.8338661  32.6863467  37.9592951
  36.6178661  33.9533467  36.2462951  35.4888661  33.6453467  35.5872951
  35.0728661  34.3553467  35.1532951  34.8838661  32.4693467  35.4672951
  35.5618661  31.5143467  36.1002951  34.9398661  27.7783467  34.2282951
  35.8728661  27.8733467  34.4742951  34.3128661  29.1623467  34.1382951
  34.9088661  29.7953467  33.7082951  33.0498661  29.1223467  33.4952951
  33.1238661  28.6973467  32.7732951  34.8588661  27.0253467  33.0322951
  36.1178661  26.9553467  32.0372951  35.7328661  26.1143467  30.8812951
  37.3568661  26.6483467  32.7992951  36.2478661  28.4423467  31.5002951
  35.2208661  29.0363467  30.7192951  34.3768661  28.9703467  31.1932951
  35.1468661  28.5673467  29.8742951  35.5368661  30.4833467  30.4612951
  34.8378661  30.8843467  29.9212951  35.6228661  31.1773467  31.7352951
  36.6298661  32.1643467  31.6802951  36.2428661  33.0373467  31.8492951
  37.6288661  31.8793467  32.7272951  37.7518661  30.6283467  33.2642951
  37.2118661  29.9383467  32.9542951  38.6498661  30.3873467  34.2392951
  38.7458661  29.5393467  34.6082951  39.4488661  31.4873467  34.6852951
  40.3558661  31.3383467  35.6372951  40.4758661  30.5683467  36.0012951
  40.8258661  32.0123467  35.8932951  39.3288661  32.7073467  34.1802951
  38.4268661  32.9283467  33.1922951  38.2958661  34.0453467  32.6922951
  36.8838661  30.7453467  29.8082951  37.5288661  30.1223467  30.1772951
  37.2188661  32.1523467  30.2672951  38.1768661  32.3053467  30.2712951
  36.5278661  33.1173467  29.4942951  36.7138661  33.0033467  28.6832951
  36.8558661  30.6193467  28.4012951  38.1648661  30.1183467  27.6252951
  37.7298661  29.8563467  26.2392951  38.8398661  29.0763467  28.4322951
  39.1348661  31.3843467  27.5962951  38.8308661  32.5273467  26.7932951
  38.1838661  33.0803467  27.2582951  38.4478661  32.2333467  25.9512951
  40.0718661  33.3433467  26.5142951  39.8838661  34.0593467  25.8882951
  40.5088661  33.9203467  27.7822951  41.7818661  33.4213467  28.1172951
  42.4248661  34.1123467  27.8892951  41.8538661  33.1223467  29.5632951
  41.1918661  32.1283467  30.2432951  40.5758661  31.5663467  29.8322951
  41.4948661  32.0313467  31.5162951  42.4488661  33.0103467  31.6852951
  43.1868661  33.3803467  32.8052951  43.0548661  32.7973467  34.0052951
  43.5278661  33.0683467  34.6702951  42.4968661  32.1513467  34.1102951
  44.0658661  34.3923467  32.6522951  44.1838661  34.9623467  31.4412951
  44.7988661  35.6593467  31.3922951  43.5538661  34.6813467  30.2992951
  42.6908661  33.6813467  30.4912951  41.2458661  32.5163467  25.9832951
  40.9208661  31.7333467  25.5112951  41.9838661  32.1553467  27.2682951
  41.5288661  31.4183467  27.7052951  43.3398661  31.8093467  27.0992951
  43.8198661  32.4403467  27.3782951  42.0928661  33.2663467  25.1132951
  42.5208661  32.6523467  23.6682951  41.3118661  32.4553467  22.8442951
  43.5028661  31.5643467  23.8132951  43.3808661  33.8083467  23.0182951
  42.7728661  34.9233467  22.3872951  42.0578661  35.2623467  22.9482951
  42.3998661  34.6483467  21.5342951  43.7938661  36.0063467  22.1632951
  43.4468661  36.6493467  21.5242951  44.0628661  36.6943467  23.4132951
  45.4288661  37.0563467  23.4782951  45.5198661  38.0163467  23.5792951
  46.0228661  36.3963467  24.6582951  45.5468661  35.2863467  25.3202951
  44.7878661  34.8203467  25.0522951  46.2638661  34.9473467  26.3642951
  47.2808661  35.8953467  26.4102951  48.3738661  36.0833467  27.2832951
  48.6338661  35.3153467  28.3522951  49.3098661  35.4913467  28.8542951
  48.1248661  34.6473467  28.5362951  49.2018661  37.1243467  27.0312951
  48.9348661  37.9163467  25.9822951  49.5298661  38.6193467  25.8552951
  47.9378661  37.8433467  25.0922951  47.1368661  36.7983467  25.3602951
  45.1648661  35.5243467  21.7032951  45.3858661  34.7103467  22.1832951
  46.0768661  36.6493467  22.1572951  46.9888661  36.3443467  22.2812951
  45.9958661  37.7513467  21.2652951  46.3468661  37.5363467  20.5322951
  45.2358661  35.2743467  20.3112951  45.7088661  33.8433467  19.7652951
  45.8828661  33.9493467  18.2822951  44.7568661  32.8623467  20.3522951
  47.1428661  33.6123467  20.4212951  48.1998661  34.5303467  20.1942951
  47.8338661  35.4273467  20.1462951  48.6268661  34.3183467  19.3492951
  49.2318661  34.4763467  21.2962951  49.8798661  35.1803467  21.1382951
  48.6078661  34.6973467  22.5882951  49.2828661  33.9573467  23.5782951
  49.5878661  34.5603467  24.2742951  48.3548661  32.9593467  24.1502951
  47.2348661  32.3923467  23.5912951  46.9148661  32.6193467  22.7482951
  46.6668661  31.5073467  24.3562951  47.4608661  31.4933467  25.4862951
  47.3508661  30.7343467  26.6662951  46.4918661  29.9043467  26.9452951
  48.3738661  31.0163467  27.5662951  48.3788661  30.5943467  28.3152951
  49.3728661  31.9243467  27.3342951  50.2798661  32.0813467  28.2952951
  50.2218661  31.6213467  29.0202951  50.9228661  32.6423467  28.1922951
  49.4888661  32.6453467  26.2322951  48.5068661  32.3713467  25.3662951
  49.9628661  33.1553467  21.4702951  49.3288661  32.4233467  21.4132951
  50.4738661  33.2683467  22.8962951  50.6618661  32.4023467  23.2902951
  51.6028661  34.1213467  22.9602951  52.2498661  33.7483467  22.5752951
  50.9768661  32.9393467  20.5012951  51.7748661  32.8423467  20.7432951
  52.9206993  41.1113833  42.2746493  47.8408553  33.1523833  53.0678903
  24.7320113  46.3163833  41.0236493  47.5518553  43.2503833  56.1858903
  55.1246993  30.1222753  44.4596493  42.5798553  20.9022753  33.1986493
  53.6516993  50.9574913  40.5836493  41.9768553  21.5192753  48.8606493
  24.5950113  31.8813833  41.0256493  28.6600113  35.2183833  26.5504083
  31.8558553  45.3803833  61.8838903  44.5038553  23.2792753  23.6114083
  49.8388553  52.0724913  50.7888903  29.0030113  48.4753833  31.4986493
  25.2920113  33.1843833  51.8038903  45.6518553  57.2114913  32.3296493
  24.9440113  53.2194913  54.2058903  57.5726993  40.4113833  34.0186493
  40.3908553  17.7332753  40.9246493  34.6208553  30.6913833  17.8664083
  46.8698553  59.6434913  45.2696493  34.0308553  26.0512753  58.4298903
  50.8666993  22.1952753  44.5656493  46.9458553  46.4373833  22.8114083
  26.7870113  20.2552753  32.3296493  34.8928553  60.4064913  57.0818903
  42.6008553  40.9713833  63.8758903  22.0000113  42.8863833  46.1786493
  36.6948553  49.0933833  22.4894083  27.9550113  57.0034913  46.9336493
  57.2766993  27.6192753  26.2014083  27.9550113  20.0472753  46.9336493
  47.1388553  27.5762753  11.2871673  47.2658553  56.7114913  63.1438903
  22.9260113  37.1173833  31.9276493  53.5036993  38.0953833  48.0856493
  34.0558553  22.6332753  23.2684083  35.6138553  64.0914913  46.1486493
  42.5798553  39.3803833  14.1924083  24.7450113  42.1413833  56.7008903
  53.9886993  19.0142753  33.2256493  44.2578553  29.4282753  62.2958903
  62.6696993  53.5164913  25.4064083  34.2948553  58.5074913  72.1151313
  34.7978553  60.1784913  31.8016493  60.6556993  37.1173833  12.9214083
  29.0370113  31.4633833  67.2628903  62.6736993  34.7413833  35.1996493
  45.0608553  67.9385993  56.2548903  29.3760113  11.9021673  37.3926493
  24.6430113  61.3024913  31.8666493  42.2378553  50.0674913  74.5081313
  43.9428553  26.2622753  52.8268903  60.9116993  38.5053833  41.1666493
  31.4168553  62.0564913  39.6306493  37.8468553  33.3863833  66.1408903
  42.5798553  57.8584913  71.2111313  53.6396993  25.9062753  51.9048903
  25.4300113  16.9622753  39.1346493  31.2970113  56.4504913  25.3324083
  37.1728553  68.6785993  51.8658903  39.5638553  24.9532753  16.9174083
  25.1780113  38.8073833  64.6798903  61.0036993  33.2233833  19.7674083
  41.0688553  18.3002753  55.8128903  18.9820113  51.8644913  47.1346493
  41.8188553  47.8963833  15.9784083  50.5196993  62.9044913  53.3148903
  46.9508553  14.5522753  36.9596493  48.5868553  36.3983833  60.9468903
  28.0810113  27.9592753  22.8114083  34.5408553  48.0143833  72.3031313
  61.9256993  46.5143833  30.5404083  56.2806993  17.5222753  26.3964083
  69.3885433  73.3935993  71.1421313  68.6105433  73.5555993  70.7821313
  69.4275433  72.5225993  71.1641313  69.2795433  73.2885993  71.0921313
  72.5275433  78.6565993  69.8141313  72.1355433  78.2855993  69.1281313
  72.4475433  78.0585993  70.4431313  72.4575433  78.5135993  69.8051313
  76.4365433  69.6325993  73.6631313  76.3665433  70.3095993  73.1171313
  77.1775433  69.2445993  73.4141313  76.5355433  69.6755993  73.5451313
  71.0315433  76.8575993  75.0921313  70.5695433  76.4655993  74.4651313
  71.7315433  76.3445993  75.1841313  71.0665433  76.7245993  75.0131313
  73.0325433  74.9575993  75.1151313  73.8495433  74.7705993  75.3581313
  72.5555433  74.3435993  75.5111313  73.0825433  74.8395993  75.2101313
  73.6295433  70.0515993  74.3811313  73.3335433  70.5525993  73.7311313
  74.4965433  70.1295993  74.3241313  73.7135433  70.1375993  74.2771313
  76.6085433  69.1935993  76.6041313  76.6815433  70.0535993  76.7331313
  76.5705433  69.1185993  75.7361313  76.6135433  69.3095993  76.4951313
  69.4875433  74.6185993  78.1051313  69.2315433  75.4495993  78.0301313
  68.8235433  74.2355993  78.5221313  69.3515433  74.6845993  78.1561313
  69.8405433  71.3085993  73.3791313  69.7265433  70.4445993  73.4101313
  69.3655433  71.6025993  74.0491313  69.7535433  71.2245993  73.4821313
  79.1445433  72.5165993  72.1241313  78.6365433  71.8545993  71.8701313
  79.1965433  73.0205993  71.4141313  79.0775433  72.4935993  71.9821313
  77.7425433  71.8245993  76.5371313  77.8165433  72.3925993  75.8791313
  77.8635433  72.3165993  77.2471313  77.7705433  71.9815993  76.5451313
  72.3505433  67.6475993  74.8851313  72.8865433  68.3355993  74.8751313
  72.3535433  67.3735993  74.0571313  72.4295433  67.7085993  74.7611313
  72.7985433  71.4575993  76.5391313  73.0705433  71.0275993  75.8311313
  72.6225433  70.8215993  77.1101313  72.8125433  71.3005993  76.5191313
  69.2125433  77.2185993  72.7461313  69.0275433  76.3795993  72.8981313
  69.8715433  77.1825993  72.1761313  69.2825433  77.0895993  72.6841313
  76.5005433  71.6165993  71.6041313  76.4985433  71.4995993  70.7391313
  76.3195433  72.4645993  71.6961313  76.4735433  71.7245993  71.4901313
  72.8535433  74.4485993  71.2381313  72.7255433  74.0005993  71.9761313
  72.2715433  74.1065993  70.6861313  72.7485433  74.3315993  71.2661313
  73.0205433  76.2785993  77.8371313  72.2395433  76.2195993  77.4541313
  73.0925433  75.5265993  78.2741313  72.9155433  76.1595993  77.8451313
  74.9025433  68.6785993  70.8721313  74.9995433  68.5715993  71.7331313
  74.1945433  69.1845993  70.8071313  74.8125433  68.7375993  70.9901313
  72.0245433  76.9855993  72.1151313  72.3485433  76.2065993  71.8931313
  72.6705433  77.3535993  72.5701313  72.1675433  76.9245993  72.1491313
  69.0215433  68.6465993  73.0831313  69.1505433  67.9385993  72.5911313
  68.6545433  68.3285993  73.8081313  68.9865433  68.4945993  73.1181313
  78.7145433  76.3275993  73.5401313  78.7735433  76.9775993  74.1191313
  78.5255433  75.6315993  74.0311313  78.6955433  76.3205993  73.6981313
  73.2105433  70.8445993  70.0521313  72.6995433  70.8975993  69.3461313
  73.9945433  71.0845993  69.7561313  73.2505433  70.8875993  69.9041313
  77.9375433  78.3745993  77.9711313  77.0905433  78.1805993  78.0521313
  78.2615433  78.2095993  78.7641313  77.8595433  78.3215993  78.1001313
  75.0155433  73.2385993  77.0221313  75.8615433  73.0485993  77.1201313
  74.6455433  72.4615993  76.8841313  75.0855433  73.0955993  77.0161313
  69.8365433  74.5765993  73.6771313  70.3255433  74.2845993  74.3381313
  69.9655433  73.9835993  73.0501313  69.9275433  74.4455993  73.6821313
  74.3615433  76.0105993  69.1631313  73.7515433  75.6055993  69.6371313
  73.9755433  76.1285993  68.3901313  74.2145433  75.9675993  69.1191313
  75.8165433  74.4715993  71.8731313  76.0885433  75.2975993  71.9401313
  74.9535433  74.5465993  71.7771313  75.7295433  74.6045993  71.8681313
  69.2965433  70.4415993  78.4091313  69.3405433  70.7855993  77.6081313
  70.0515433  70.6785993  78.7761313  69.4145433  70.5275993  78.3451313
  77.4765433  77.7505993  69.2061313  76.6715433  77.5735993  68.9211313
  77.4435433  78.6015993  69.3981313  77.3525433  77.8495993  69.1931313
  72.5825433  71.9445993  72.6631313  72.7085433  71.6155993  71.8651313
  71.7705433  71.6955993  72.8621313  72.4815433  71.8595993  72.5751313
  71.1875433  73.5655993  69.1961313  70.5155433  73.5795993  69.7521313
  71.2825433  72.7175993  69.0121313  71.1025433  73.4425993  69.2511313
  77.3255433  68.2275993  69.6181313  77.4035433  68.4745993  68.7851313
  76.5825433  68.6045993  69.8761313  77.2275433  68.3195993  69.5331313
  70.7965433  73.2955993  76.0171313  70.4285433  73.5975993  76.7481313
  71.3305433  72.6665993  76.3011313  70.8205433  73.2475993  76.1671313
  76.4375433  77.3675993  72.0311313  76.5375433  77.5065993  71.1761313
  77.2555433  77.3075993  72.3271313  76.5725433  77.3785993  71.9481313
  69.3885433  73.3935993  52.1358903  68.6105433  73.5555993  51.7758903
  69.4275433  72.5225993  52.1578903  69.2795433  73.2885993  52.0858903
  72.5275433  78.6565993  50.8078903  72.1355433  78.2855993  50.1218903
  72.4475433  78.0585993  51.4368903  72.4575433  78.5135993  50.7988903
  76.4365433  69.6325993  54.6568903  76.3665433  70.3095993  54.1108903
  77.1775433  69.2445993  54.4078903  76.5355433  69.6755993  54.5388903
  71.0315433  76.8575993  56.0858903  70.5695433  76.4655993  55.4588903
  71.7315433  76.3445993  56.1778903  71.0665433  76.7245993  56.0068903
  75.5395433  72.4675993  61.4328903  76.2175433  72.4855993  60.8838903
  75.4945433  71.6315993  61.6778903  75.6325433  72.3465993  61.3878903
  73.0325433  74.9575993  56.1088903  73.8495433  74.7705993  56.3518903
  72.5555433  74.3435993  56.5048903  73.0825433  74.8395993  56.2038903
  73.6295433  70.0515993  55.3748903  73.3335433  70.5525993  54.7248903
  74.4965433  70.1295993  55.3178903  73.7135433  70.1375993  55.2708903
  76.6085433  69.1935993  57.5978903  76.6815433  70.0535993  57.7268903
  76.5705433  69.1185993  56.7298903  76.6135433  69.3095993  57.4888903
  69.4875433  74.6185993  59.0988903  69.2315433  75.4495993  59.0238903
  68.8235433  74.2355993  59.5158903  69.3515433  74.6845993  59.1498903
  72.5165433  69.4355993  59.5898903  71.9955433  68.8075993  59.2818903
  73.1075433  68.9985993  60.0608903  72.5275433  69.2775993  59.6138903
  75.8225433  71.5685993  68.8878903  75.9395433  71.1145993  68.1518903
  76.1105433  72.3665993  68.6848903  75.8825433  71.6195993  68.7488903
  71.5555433  71.1655993  67.8718903  70.7775433  70.7755993  67.7998903
  72.0465433  70.7535993  67.2808903  71.5125433  71.0465993  67.7738903
  78.2045433  68.8085993  67.0398903  78.3825433  67.9995993  66.7648903
  78.0615433  69.2495993  66.3008903  78.2095433  68.7545993  66.8898903
  68.9035433  71.7135993  65.4578903  68.8995433  72.3005993  66.1038903
  69.4975433  72.0255993  64.9008903  68.9905433  71.8465993  65.4708903
  69.8405433  71.3085993  54.3728903  69.7265433  70.4445993  54.4038903
  69.3655433  71.6025993  55.0428903  69.7535433  71.2245993  54.4758903
  79.1445433  72.5165993  53.1178903  78.6365433  71.8545993  52.8638903
  79.1965433  73.0205993  52.4078903  79.0775433  72.4935993  52.9758903
  77.7425433  71.8245993  57.5308903  77.8165433  72.3925993  56.8728903
  77.8635433  72.3165993  58.2408903  77.7705433  71.9815993  57.5388903
  72.3505433  67.6475993  55.8788903  72.8865433  68.3355993  55.8688903
  72.3535433  67.3735993  55.0508903  72.4295433  67.7085993  55.7548903
  75.3065433  78.0805993  59.9038903  75.4785433  77.8705993  60.7328903
  74.6515433  77.5465993  59.6878903  75.2355433  77.9705993  59.9948903
  72.7985433  71.4575993  57.5328903  73.0705433  71.0275993  56.8248903
  72.6225433  70.8215993  58.1038903  72.8125433  71.3005993  57.5128903
  70.9395433  72.5595993  60.6148903  71.7825433  72.7795993  60.5718903
  70.5505433  73.1325993  60.0838903  71.0065433  72.6765993  60.5298903
  76.7935433  74.2445993  68.7328903  76.3095433  74.8215993  69.1748903
  76.7655433  74.5395993  67.9118903  76.7175433  74.3735993  68.6768903
  69.2125433  77.2185993  53.7398903  69.0275433  76.3795993  53.8918903
  69.8715433  77.1825993  53.1698903  69.2825433  77.0895993  53.6778903
  76.5005433  71.6165993  52.5978903  76.4985433  71.4995993  51.7328903
  76.3195433  72.4645993  52.6898903  76.4735433  71.7245993  52.4838903
  72.3685433  75.0515993  67.0918903  71.8325433  74.5455993  67.5598903
  72.3885433  74.6615993  66.3118903  72.2915433  74.9185993  67.0458903
  72.8535433  74.4485993  52.2318903  72.7255433  74.0005993  52.9698903
  72.2715433  74.1065993  51.6798903  72.7485433  74.3315993  52.2598903
  73.0205433  76.2785993  58.8308903  72.2395433  76.2195993  58.4478903
  73.0925433  75.5265993  59.2678903  72.9155433  76.1595993  58.8388903
  73.4505433  76.0155993  62.2988903  73.4755433  75.3405993  61.7478903
  72.8045433  76.5115993  61.9868903  73.3595433  75.9885993  62.1718903
  71.2495433  77.3705993  67.8578903  71.2125433  77.8715993  67.1438903
  71.5805433  76.6185993  67.5628903  71.2925433  77.3325993  67.7088903
  78.1205433  73.1675993  59.9308903  78.6005433  73.8665993  60.1388903
  78.4935433  72.5205993  60.3818903  78.2465433  73.1755993  60.0278903
  74.9025433  68.6785993  51.8658903  74.9995433  68.5715993  52.7268903
  74.1945433  69.1845993  51.8008903  74.8125433  68.7375993  51.9838903
  72.0245433  76.9855993  53.1088903  72.3485433  76.2065993  52.8868903
  72.6705433  77.3535993  53.5638903  72.1675433  76.9245993  53.1428903
  69.0215433  68.6465993  54.0768903  69.1505433  67.9385993  53.5848903
  68.6545433  68.3285993  54.8018903  68.9865433  68.4945993  54.1118903
  78.7145433  76.3275993  54.5338903  78.7735433  76.9775993  55.1128903
  78.5255433  75.6315993  55.0248903  78.6955433  76.3205993  54.6918903
  73.2105433  70.8445993  51.0458903  72.6995433  70.8975993  50.3398903
  73.9945433  71.0845993  50.7498903  73.2505433  70.8875993  50.8978903
  77.9375433  78.3745993  58.9648903  77.0905433  78.1805993  59.0458903
  78.2615433  78.2095993  59.7578903  77.8595433  78.3215993  59.0938903
  71.7855433  78.0675993  61.2808903  72.5075433  78.5555993  61.2438903
  71.5155433  78.0375993  60.4518903  71.8525433  78.1355993  61.1528903
  75.0155433  73.2385993  58.0158903  75.8615433  73.0485993  58.1138903
  74.6455433  72.4615993  57.8778903  75.0855433  73.0955993  58.0098903
  69.8365433  74.5765993  54.6708903  70.3255433  74.2845993  55.3318903
  69.9655433  73.9835993  54.0438903  69.9275433  74.4455993  54.6758903
  74.3615433  76.0105993  50.1568903  73.7515433  75.6055993  50.6308903
  73.9755433  76.1285993  49.3838903  74.2145433  75.9675993  50.1128903
  75.8165433  74.4715993  52.8668903  76.0885433  75.2975993  52.9338903
  74.9535433  74.5465993  52.7708903  75.7295433  74.6045993  52.8618903
  69.2965433  70.4415993  59.4028903  69.3405433  70.7855993  58.6018903
  70.0515433  70.6785993  59.7698903  69.4145433  70.5275993  59.3388903
  78.4355433  77.3535993  61.6678903  78.9115433  77.7275993  62.2958903
  77.6125433  77.4875993  61.9268903  78.3845433  77.4285993  61.7988903
  75.1455433  72.9565993  64.4088903  75.3065433  72.2125993  64.8358903
  75.1005433  72.7075993  63.5738903  75.1625433  72.8095993  64.3488903
  76.8975433  68.7645993  64.2888903  77.6025433  69.0845993  63.8868903
  77.1385433  67.9575993  64.5158903  77.0365433  68.6925993  64.2628903
  77.4765433  77.7505993  50.1998903  76.6715433  77.5735993  49.9148903
  77.4435433  78.6015993  50.3918903  77.3525433  77.8495993  50.1868903
  73.4065433  73.8175993  60.3498903  73.8465433  73.7145993  59.6038903
  73.9515433  73.5045993  60.9548903  73.5515433  73.7565993  60.3288903
  76.9535433  68.8025993  60.3968903  76.1275433  68.6535993  60.6338903
  76.9135433  68.8375993  59.5258903  76.8255433  68.7855993  60.3028903
  69.5185433  69.2005993  66.4318903  69.3785433  69.9955993  66.1008903
  68.7325433  68.9575993  66.7208903  69.3815433  69.2825993  66.4258903
  72.5825433  71.9445993  53.6568903  72.7085433  71.6155993  52.8588903
  71.7705433  71.6955993  53.8558903  72.4815433  71.8595993  53.5688903
  72.5595433  73.9555993  64.0728903  72.9345433  74.5745993  63.5858903
  73.2335433  73.4815993  64.3578903  72.7145433  73.9775993  64.0428903
  70.3345433  72.4035993  63.3478903  70.4115433  72.2345993  62.4948903
  71.0805433  72.8095993  63.5448903  70.4555433  72.4385993  63.2508903
  72.8885433  69.8135993  65.7588903  72.8075433  68.9695993  65.9648903
  72.5745433  69.8575993  64.9458903  72.8305433  69.6955993  65.6688903
  69.7315433  77.6295993  63.5718903  70.0515433  77.8485993  62.7908903
  69.6315433  76.7645993  63.5168903  69.7635433  77.5345993  63.4488903
  71.1875433  73.5655993  50.1898903  70.5155433  73.5795993  50.7458903
  71.2825433  72.7175993  50.0058903  71.1025433  73.4425993  50.2448903
  74.4945433  76.9215993  64.9568903  74.0985433  77.6955993  65.0318903
  74.0885433  76.5485993  64.2808903  74.3765433  76.9805993  64.8678903
  74.9235433  69.8985993  62.4068903  74.0595433  69.9825993  62.4868903
  75.1435433  69.3845993  63.0758903  74.8285433  69.8355993  62.5178903
  76.5295433  74.9755993  65.9848903  76.2075433  74.3995993  65.4148903
  76.1705433  75.7305993  65.7388903  76.4295433  75.0015993  65.8648903
  77.3255433  68.2275993  50.6118903  77.4035433  68.4745993  49.7788903
  76.5825433  68.6045993  50.8698903  77.2275433  68.3195993  50.5268903
  72.1435433  69.9815993  63.0548903  71.8005433  69.2145993  62.8208903
  71.4485433  70.5055993  63.1188903  71.9905433  69.9455993  63.0298903
  70.7965433  73.2955993  57.0108903  70.4285433  73.5975993  57.7418903
  71.3305433  72.6665993  57.2948903  70.8205433  73.2475993  57.1608903
  76.4375433  77.3675993  53.0248903  76.5375433  77.5065993  52.1698903
  77.2555433  77.3075993  53.3208903  76.5725433  77.3785993  52.9418903
  75.5765433  70.3425993  66.1408903  75.8105433  69.7665993  65.5278903
  74.7345433  70.1615993  66.2818903  75.4865433  70.2305993  66.0708903
  69.3885433  73.3935993  33.1296493  68.6105433  73.5555993  32.7696493
  69.4275433  72.5225993  33.1516493  69.2795433  73.2885993  33.0796493
  72.5275433  78.6565993  31.8016493  72.1355433  78.2855993  31.1156493
  72.4475433  78.0585993  32.4306493  72.4575433  78.5135993  31.7926493
  76.4365433  69.6325993  35.6506493  76.3665433  70.3095993  35.1046493
  77.1775433  69.2445993  35.4016493  76.5355433  69.6755993  35.5326493
  71.0315433  76.8575993  37.0796493  70.5695433  76.4655993  36.4526493
  71.7315433  76.3445993  37.1716493  71.0665433  76.7245993  37.0006493
  75.5395433  72.4675993  42.4266493  76.2175433  72.4855993  41.8776493
  75.4945433  71.6315993  42.6716493  75.6325433  72.3465993  42.3816493
  73.0325433  74.9575993  37.1026493  73.8495433  74.7705993  37.3456493
  72.5555433  74.3435993  37.4986493  73.0825433  74.8395993  37.1976493
  73.6295433  70.0515993  36.3686493  73.3335433  70.5525993  35.7186493
  74.4965433  70.1295993  36.3116493  73.7135433  70.1375993  36.2646493
  76.6085433  69.1935993  38.5916493  76.6815433  70.0535993  38.7206493
  76.5705433  69.1185993  37.7236493  76.6135433  69.3095993  38.4826493
  69.4875433  74.6185993  40.0926493  69.2315433  75.4495993  40.0176493
  68.8235433  74.2355993  40.5096493  69.3515433  74.6845993  40.1436493
  72.5165433  69.4355993  40.5836493  71.9955433  68.8075993  40.2756493
  73.1075433  68.9985993  41.0546493  72.5275433  69.2775993  40.6076493
  75.8225433  71.5685993  49.8816493  75.9395433  71.1145993  49.1456493
  76.1105433  72.3665993  49.6786493  75.8825433  71.6195993  49.7426493
  71.5555433  71.1655993  48.8656493  70.7775433  70.7755993  48.7936493
  72.0465433  70.7535993  48.2746493  71.5125433  71.0465993  48.7676493
  78.2045433  68.8085993  48.0336493  78.3825433  67.9995993  47.7586493
  78.0615433  69.2495993  47.2946493  78.2095433  68.7545993  47.8836493
  68.9035433  71.7135993  46.4516493  68.8995433  72.3005993  47.0976493
  69.4975433  72.0255993  45.8946493  68.9905433  71.8465993  46.4646493
  69.8405433  71.3085993  35.3666493  69.7265433  70.4445993  35.3976493
  69.3655433  71.6025993  36.0366493  69.7535433  71.2245993  35.4696493
  79.1445433  72.5165993  34.1116493  78.6365433  71.8545993  33.8576493
  79.1965433  73.0205993  33.4016493  79.0775433  72.4935993  33.9696493
  77.7425433  71.8245993  38.5246493  77.8165433  72.3925993  37.8666493
  77.8635433  72.3165993  39.2346493  77.7705433  71.9815993  38.5326493
  72.3505433  67.6475993  36.8726493  72.8865433  68.3355993  36.8626493
  72.3535433  67.3735993  36.0446493  72.4295433  67.7085993  36.7486493
  75.3065433  78.0805993  40.8976493  75.4785433  77.8705993  41.7266493
  74.6515433  77.5465993  40.6816493  75.2355433  77.9705993  40.9886493
  72.7985433  71.4575993  38.5266493  73.0705433  71.0275993  37.8186493
  72.6225433  70.8215993  39.0976493  72.8125433  71.3005993  38.5066493
  70.9395433  72.5595993  41.6086493  71.7825433  72.7795993  41.5656493
  70.5505433  73.1325993  41.0776493  71.0065433  72.6765993  41.5236493
  76.7935433  74.2445993  49.7266493  76.3095433  74.8215993  50.1686493
  76.7655433  74.5395993  48.9056493  76.7175433  74.3735993  49.6706493
  69.2125433  77.2185993  34.7336493  69.0275433  76.3795993  34.8856493
  69.8715433  77.1825993  34.1636493  69.2825433  77.0895993  34.6716493
  76.5005433  71.6165993  33.5916493  76.4985433  71.4995993  32.7266493
  76.3195433  72.4645993  33.6836493  76.4735433  71.7245993  33.4776493
  72.3685433  75.0515993  48.0856493  71.8325433  74.5455993  48.5536493
  72.3885433  74.6615993  47.3056493  72.2915433  74.9185993  48.0396493
  72.8535433  74.4485993  33.2256493  72.7255433  74.0005993  33.9636493
  72.2715433  74.1065993  32.6736493  72.7485433  74.3315993  33.2536493
  73.0205433  76.2785993  39.8246493  72.2395433  76.2195993  39.4416493
  73.0925433  75.5265993  40.2616493  72.9155433  76.1595993  39.8326493
  73.4505433  76.0155993  43.2926493  73.4755433  75.3405993  42.7416493
  72.8045433  76.5115993  42.9806493  73.3595433  75.9885993  43.1656493
  71.2495433  77.3705993  48.8516493  71.2125433  77.8715993  48.1376493
  71.5805433  76.6185993  48.5566493  71.2925433  77.3325993  48.7026493
  78.1205433  73.1675993  40.9246493  78.6005433  73.8665993  41.1326493
  78.4935433  72.5205993  41.3756493  78.2465433  73.1755993  41.0216493
  74.9025433  68.6785993  32.8596493  74.9995433  68.5715993  33.7206493
  74.1945433  69.1845993  32.7946493  74.8125433  68.7375993  32.9776493
  72.0245433  76.9855993  34.1026493  72.3485433  76.2065993  33.8806493
  72.6705433  77.3535993  34.5576493  72.1675433  76.9245993  34.1366493
  69.0215433  68.6465993  35.0706493  69.1505433  67.9385993  34.5786493
  68.6545433  68.3285993  35.7956493  68.9865433  68.4945993  35.1056493
  78.7145433  76.3275993  35.5276493  78.7735433  76.9775993  36.1066493
  78.5255433  75.6315993  36.0186493  78.6955433  76.3205993  35.6856493
  73.2105433  70.8445993  32.0396493  72.6995433  70.8975993  31.3336493
  73.9945433  71.0845993  31.7436493  73.2505433  70.8875993  31.8916493
  77.9375433  78.3745993  39.9586493  77.0905433  78.1805993  40.0396493
  78.2615433  78.2095993  40.7516493  77.8595433  78.3215993  40.0876493
  71.7855433  78.0675993  42.2746493  72.5075433  78.5555993  42.2376493
  71.5155433  78.0375993  41.4456493  71.8525433  78.1355993  42.1466493
  75.0155433  73.2385993  39.0096493  75.8615433  73.0485993  39.1076493
  74.6455433  72.4615993  38.8716493  75.0855433  73.0955993  39.0036493
  69.8365433  74.5765993  35.6646493  70.3255433  74.2845993  36.3256493
  69.9655433  73.9835993  35.0376493  69.9275433  74.4455993  35.6696493
  74.3615433  76.0105993  31.1506493  73.7515433  75.6055993  31.6246493
  73.9755433  76.1285993  30.3776493  74.2145433  75.9675993  31.1066493
  75.8165433  74.4715993  33.8606493  76.0885433  75.2975993  33.9276493
  74.9535433  74.5465993  33.7646493  75.7295433  74.6045993  33.8556493
  69.2965433  70.4415993  40.3966493  69.3405433  70.7855993  39.5956493
  70.0515433  70.6785993  40.7636493  69.4145433  70.5275993  40.3326493
  78.4355433  77.3535993  42.6616493  78.9115433  77.7275993  43.2896493
  77.6125433  77.4875993  42.9206493  78.3845433  77.4285993  42.7926493
  75.1455433  72.9565993  45.4026493  75.3065433  72.2125993  45.8296493
  75.1005433  72.7075993  44.5676493  75.1625433  72.8095993  45.3426493
  76.8975433  68.7645993  45.2826493  77.6025433  69.0845993  44.8806493
  77.1385433  67.9575993  45.5096493  77.0365433  68.6925993  45.2566493
  77.4765433  77.7505993  31.1936493  76.6715433  77.5735993  30.9086493
  77.4435433  78.6015993  31.3856493  77.3525433  77.8495993  31.1806493
  73.4065433  73.8175993  41.3436493  73.8465433  73.7145993  40.5976493
  73.9515433  73.5045993  41.9486493  73.5515433  73.7565993  41.3226493
  76.9535433  68.8025993  41.3906493  76.1275433  68.6535993  41.6276493
  76.9135433  68.8375993  40.5196493  76.8255433  68.7855993  41.2966493
  69.5185433  69.2005993  47.4256493  69.3785433  69.9955993  47.0946493
  68.7325433  68.9575993  47.7146493  69.3815433  69.2825993  47.4196493
  72.5825433  71.9445993  34.6506493  72.7085433  71.6155993  33.8526493
  71.7705433  71.6955993  34.8496493  72.4815433  71.8595993  34.5626493
  72.5595433  73.9555993  45.0666493  72.9345433  74.5745993  44.5796493
  73.2335433  73.4815993  45.3516493  72.7145433  73.9775993  45.0366493
  70.3345433  72.4035993  44.3416493  70.4115433  72.2345993  43.4886493
  71.0805433  72.8095993  44.5386493  70.4555433  72.4385993  44.2446493
  72.8885433  69.8135993  46.7526493  72.8075433  68.9695993  46.9586493
  72.5745433  69.8575993  45.9396493  72.8305433  69.6955993  46.6626493
  69.7315433  77.6295993  44.5656493  70.0515433  77.8485993  43.7846493
  69.6315433  76.7645993  44.5106493  69.7635433  77.5345993  44.4426493
  71.1875433  73.5655993  31.1836493  70.5155433  73.5795993  31.7396493
  71.2825433  72.7175993  30.9996493  71.1025433  73.4425993  31.2386493
  74.4945433  76.9215993  45.9506493  74.0985433  77.6955993  46.0256493
  74.0885433  76.5485993  45.2746493  74.3765433  76.9805993  45.8616493
  74.9235433  69.8985993  43.4006493  74.0595433  69.9825993  43.4806493
  75.1435433  69.3845993  44.0696493  74.8285433  69.8355993  43.5116493
  76.5295433  74.9755993  46.9786493  76.2075433  74.3995993  46.4086493
  76.1705433  75.7305993  46.7326493  76.4295433  75.0015993  46.8586493
  77.3255433  68.2275993  31.6056493  77.4035433  68.4745993  30.7726493
  76.5825433  68.6045993  31.8636493  77.2275433  68.3195993  31.5206493
  72.1435433  69.9815993  44.0486493  71.8005433  69.2145993  43.8146493
  71.4485433  70.5055993  44.1126493  71.9905433  69.9455993  44.0236493
  70.7965433  73.2955993  38.0046493  70.4285433  73.5975993  38.7356493
  71.3305433  72.6665993  38.2886493  70.8205433  73.2475993  38.1546493
  76.4375433  77.3675993  34.0186493  76.5375433  77.5065993  33.1636493
  77.2555433  77.3075993  34.3146493  76.5725433  77.3785993  33.9356493
  75.5765433  70.3425993  47.1346493  75.8105433  69.7665993  46.5216493
  74.7345433  70.1615993  47.2756493  75.4865433  70.2305993  47.0646493
  69.3885433  73.3935993  14.1234083  68.6105433  73.5555993  13.7634083
  69.4275433  72.5225993  14.1454083  69.2795433  73.2885993  14.0734083
  72.5275433  78.6565993  12.7954083  72.1355433  78.2855993  12.1094083
  72.4475433  78.0585993  13.4244083  72.4575433  78.5135993  12.7864083
  76.4365433  69.6325993  16.6444083  76.3665433  70.3095993  16.0984083
  77.1775433  69.2445993  16.3954083  76.5355433  69.6755993  16.5264083
  71.0315433  76.8575993  18.0734083  70.5695433  76.4655993  17.4464083
  71.7315433  76.3445993  18.1654083  71.0665433  76.7245993  17.9944083
  75.5395433  72.4675993  23.4204083  76.2175433  72.4855993  22.8714083
  75.4945433  71.6315993  23.6654083  75.6325433  72.3465993  23.3754083
  73.0325433  74.9575993  18.0964083  73.8495433  74.7705993  18.3394083
  72.5555433  74.3435993  18.4924083  73.0825433  74.8395993  18.1914083
  73.6295433  70.0515993  17.3624083  73.3335433  70.5525993  16.7124083
  74.4965433  70.1295993  17.3054083  73.7135433  70.1375993  17.2584083
  76.6085433  69.1935993  19.5854083  76.6815433  70.0535993  19.7144083
  76.5705433  69.1185993  18.7174083  76.6135433  69.3095993  19.4764083
  69.4875433  74.6185993  21.0864083  69.2315433  75.4495993  21.0114083
  68.8235433  74.2355993  21.5034083  69.3515433  74.6845993  21.1374083
  72.5165433  69.4355993  21.5774083  71.9955433  68.8075993  21.2694083
  73.1075433  68.9985993  22.0484083  72.5275433  69.2775993  21.6014083
  75.8225433  71.5685993  30.8754083  75.9395433  71.1145993  30.1394083
  76.1105433  72.3665993  30.6724083  75.8825433  71.6195993  30.7364083
  71.5555433  71.1655993  29.8594083  70.7775433  70.7755993  29.7874083
  72.0465433  70.7535993  29.2684083  71.5125433  71.0465993  29.7614083
  78.2045433  68.8085993  29.0274083  78.3825433  67.9995993  28.7524083
  78.0615433  69.2495993  28.2884083  78.2095433  68.7545993  28.8774083
  68.9035433  71.7135993  27.4454083  68.8995433  72.3005993  28.0914083
  69.4975433  72.0255993  26.8884083  68.9905433  71.8465993  27.4584083
  69.8405433  71.3085993  16.3604083  69.7265433  70.4445993  16.3914083
  69.3655433  71.6025993  17.0304083  69.7535433  71.2245993  16.4634083
  79.1445433  72.5165993  15.1054083  78.6365433  71.8545993  14.8514083
  79.1965433  73.0205993  14.3954083  79.0775433  72.4935993  14.9634083
  77.7425433  71.8245993  19.5184083  77.8165433  72.3925993  18.8604083
  77.8635433  72.3165993  20.2284083  77.7705433  71.9815993  19.5264083
  72.3505433  67.6475993  17.8664083  72.8865433  68.3355993  17.8564083
  72.3535433  67.3735993  17.0384083  72.4295433  67.7085993  17.7424083
  75.3065433  78.0805993  21.8914083  75.4785433  77.8705993  22.7204083
  74.6515433  77.5465993  21.6754083  75.2355433  77.9705993  21.9824083
  72.7985433  71.4575993  19.5204083  73.0705433  71.0275993  18.8124083
  72.6225433  70.8215993  20.0914083  72.8125433  71.3005993  19.5004083
  70.9395433  72.5595993  22.6024083  71.7825433  72.7795993  22.5594083
  70.5505433  73.1325993  22.0714083  71.0065433  72.6765993  22.5174083
  76.7935433  74.2445993  30.7204083  76.3095433  74.8215993  31.1624083
  76.7655433  74.5395993  29.8994083  76.7175433  74.3735993  30.6644083
  69.2125433  77.2185993  15.7274083  69.0275433  76.3795993  15.8794083
  69.8715433  77.1825993  15.1574083  69.2825433  77.0895993  15.6654083
  76.5005433  71.6165993  14.5854083  76.4985433  71.4995993  13.7204083
  76.3195433  72.4645993  14.6774083  76.4735433  71.7245993  14.4714083
  72.3685433  75.0515993  29.0794083  71.8325433  74.5455993  29.5474083
  72.3885433  74.6615993  28.2994083  72.2915433  74.9185993  29.0334083
  72.8535433  74.4485993  14.2194083  72.7255433  74.0005993  14.9574083
  72.2715433  74.1065993  13.6674083  72.7485433  74.3315993  14.2474083
  73.0205433  76.2785993  20.8184083  72.2395433  76.2195993  20.4354083
  73.0925433  75.5265993  21.2554083  72.9155433  76.1595993  20.8264083
  73.4505433  76.0155993  24.2864083  73.4755433  75.3405993  23.7354083
  72.8045433  76.5115993  23.9744083  73.3595433  75.9885993  24.1594083
  71.2495433  77.3705993  29.8454083  71.2125433  77.8715993  29.1314083
  71.5805433  76.6185993  29.5504083  71.2925433  77.3325993  29.6964083
  78.1205433  73.1675993  21.9184083  78.6005433  73.8665993  22.1264083
  78.4935433  72.5205993  22.3694083  78.2465433  73.1755993  22.0154083
  74.9025433  68.6785993  13.8534083  74.9995433  68.5715993  14.7144083
  74.1945433  69.1845993  13.7884083  74.8125433  68.7375993  13.9714083
  72.0245433  76.9855993  15.0964083  72.3485433  76.2065993  14.8744083
  72.6705433  77.3535993  15.5514083  72.1675433  76.9245993  15.1304083
  69.0215433  68.6465993  16.0644083  69.1505433  67.9385993  15.5724083
  68.6545433  68.3285993  16.7894083  68.9865433  68.4945993  16.0994083
  78.7145433  76.3275993  16.5214083  78.7735433  76.9775993  17.1004083
  78.5255433  75.6315993  17.0124083  78.6955433  76.3205993  16.6794083
  73.2105433  70.8445993  13.0334083  72.6995433  70.8975993  12.3274083
  73.9945433  71.0845993  12.7374083  73.2505433  70.8875993  12.8854083
  77.9375433  78.3745993  20.9524083  77.0905433  78.1805993  21.0334083
  78.2615433  78.2095993  21.7454083  77.8595433  78.3215993  21.0814083
  71.7855433  78.0675993  23.2684083  72.5075433  78.5555993  23.2314083
  71.5155433  78.0375993  22.4394083  71.8525433  78.1355993  23.1404083
  75.0155433  73.2385993  20.0034083  75.8615433  73.0485993  20.1014083
  74.6455433  72.4615993  19.8654083  75.0855433  73.0955993  19.9974083
  69.8365433  74.5765993  16.6584083  70.3255433  74.2845993  17.3194083
  69.9655433  73.9835993  16.0314083  69.9275433  74.4455993  16.6634083
  74.3615433  76.0105993  12.1444083  73.7515433  75.6055993  12.6184083
  73.9755433  76.1285993  11.3714083  74.2145433  75.9675993  12.1004083
  75.8165433  74.4715993  14.8544083  76.0885433  75.2975993  14.9214083
  74.9535433  74.5465993  14.7584083  75.7295433  74.6045993  14.8494083
  69.2965433  70.4415993  21.3904083  69.3405433  70.7855993  20.5894083
  70.0515433  70.6785993  21.7574083  69.4145433  70.5275993  21.3264083
  78.4355433  77.3535993  23.6554083  78.9115433  77.7275993  24.2834083
  77.6125433  77.4875993  23.9144083  78.3845433  77.4285993  23.7864083
  75.1455433  72.9565993  26.3964083  75.3065433  72.2125993  26.8234083
  75.1005433  72.7075993  25.5614083  75.1625433  72.8095993  26.3364083
  76.8975433  68.7645993  26.2764083  77.6025433  69.0845993  25.8744083
  77.1385433  67.9575993  26.5034083  77.0365433  68.6925993  26.2504083
  77.4765433  77.7505993  12.1874083  76.6715433  77.5735993  11.9024083
  77.4435433  78.6015993  12.3794083  77.3525433  77.8495993  12.1744083
  73.4065433  73.8175993  22.3374083  73.8465433  73.7145993  21.5914083
  73.9515433  73.5045993  22.9424083  73.5515433  73.7565993  22.3164083
  76.9535433  68.8025993  22.3844083  76.1275433  68.6535993  22.6214083
  76.9135433  68.8375993  21.5134083  76.8255433  68.7855993  22.2904083
  69.5185433  69.2005993  28.4194083  69.3785433  69.9955993  28.0884083
  68.7325433  68.9575993  28.7084083  69.3815433  69.2825993  28.4134083
  72.5825433  71.9445993  15.6444083  72.7085433  71.6155993  14.8464083
  71.7705433  71.6955993  15.8434083  72.4815433  71.8595993  15.5564083
  72.5595433  73.9555993  26.0604083  72.9345433  74.5745993  25.5734083
  73.2335433  73.4815993  26.3454083  72.7145433  73.9775993  26.0304083
  70.3345433  72.4035993  25.3354083  70.4115433  72.2345993  24.4824083
  71.0805433  72.8095993  25.5324083  70.4555433  72.4385993  25.2384083
  72.8885433  69.8135993  27.7464083  72.8075433  68.9695993  27.9524083
  72.5745433  69.8575993  26.9334083  72.8305433  69.6955993  27.6564083
  69.7315433  77.6295993  25.5594083  70.0515433  77.8485993  24.7784083
  69.6315433  76.7645993  25.5044083  69.7635433  77.5345993  25.4364083
  71.1875433  73.5655993  12.1774083  70.5155433  73.5795993  12.7334083
  71.2825433  72.7175993  11.9934083  71.1025433  73.4425993  12.2324083
  74.4945433  76.9215993  26.9444083  74.0985433  77.6955993  27.0194083
  74.0885433  76.5485993  26.2684083  74.3765433  76.9805993  26.8554083
  74.9235433  69.8985993  24.3944083  74.0595433  69.9825993  24.4744083
  75.1435433  69.3845993  25.0634083  74.8285433  69.8355993  24.5054083
  76.5295433  74.9755993  27.9724083  76.2075433  74.3995993  27.4024083
  76.1705433  75.7305993  27.7264083  76.4295433  75.0015993  27.8524083
  77.3255433  68.2275993  12.5994083  77.4035433  68.4745993  11.7664083
  76.5825433  68.6045993  12.8574083  77.2275433  68.3195993  12.5144083
  72.1435433  69.9815993  25.0424083  71.8005433  69.2145993  24.8084083
  71.4485433  70.5055993  25.1064083  71.9905433  69.9455993  25.0174083
  70.7965433  73.2955993  18.9984083  70.4285433  73.5975993  19.7294083
  71.3305433  72.6665993  19.2824083  70.8205433  73.2475993  19.1484083
  76.4375433  77.3675993  15.0124083  76.5375433  77.5065993  14.1574083
  77.2555433  77.3075993  15.3084083  76.5725433  77.3785993  14.9294083
  75.5765433  70.3425993  28.1284083  75.8105433  69.7665993  27.5154083
  74.7345433  70.1615993  28.2694083  75.4865433  70.2305993  28.0584083
  75.5395433  72.4675993   4.4141673  76.2175433  72.4855993   3.8651673
  75.4945433  71.6315993   4.6591673  75.6325433  72.3465993   4.3691673
  69.4875433  74.6185993   2.0801673  69.2315433  75.4495993   2.0051673
  68.8235433  74.2355993   2.4971673  69.3515433  74.6845993   2.1311673
  72.5165433  69.4355993   2.5711673  71.9955433  68.8075993   2.2631673
  73.1075433  68.9985993   3.0421673  72.5275433  69.2775993   2.5951673
  75.8225433  71.5685993  11.8691673  75.9395433  71.1145993  11.1331673
  76.1105433  72.3665993  11.6661673  75.8825433  71.6195993  11.7301673
  71.5555433  71.1655993  10.8531673  70.7775433  70.7755993  10.7811673
  72.0465433  70.7535993  10.2621673  71.5125433  71.0465993  10.7551673
  78.2045433  68.8085993  10.0211673  78.3825433  67.9995993   9.7461673
  78.0615433  69.2495993   9.2821673  78.2095433  68.7545993   9.8711673
  68.9035433  71.7135993   8.4391673  68.8995433  72.3005993   9.0851673
  69.4975433  72.0255993   7.8821673  68.9905433  71.8465993   8.4521673
  75.3065433  78.0805993   2.8851673  75.4785433  77.8705993   3.7141673
  74.6515433  77.5465993   2.6691673  75.2355433  77.9705993   2.9761673
  70.9395433  72.5595993   3.5961673  71.7825433  72.7795993   3.5531673
  70.5505433  73.1325993   3.0651673  71.0065433  72.6765993   3.5111673
  76.7935433  74.2445993  11.7141673  76.3095433  74.8215993  12.1561673
  76.7655433  74.5395993  10.8931673  76.7175433  74.3735993  11.6581673
  72.3685433  75.0515993  10.0731673  71.8325433  74.5455993  10.5411673
  72.3885433  74.6615993   9.2931673  72.2915433  74.9185993  10.0271673
  73.4505433  76.0155993   5.2801673  73.4755433  75.3405993   4.7291673
  72.8045433  76.5115993   4.9681673  73.3595433  75.9885993   5.1531673
  71.2495433  77.3705993  10.8391673  71.2125433  77.8715993  10.1251673
  71.5805433  76.6185993  10.5441673  71.2925433  77.3325993  10.6901673
  78.1205433  73.1675993   2.9121673  78.6005433  73.8665993   3.1201673
  78.4935433  72.5205993   3.3631673  78.2465433  73.1755993   3.0091673
  77.9375433  78.3745993   1.9461673  77.0905433  78.1805993   2.0271673
  78.2615433  78.2095993   2.7391673  77.8595433  78.3215993   2.0751673
  71.7855433  78.0675993   4.2621673  72.5075433  78.5555993   4.2251673
  71.5155433  78.0375993   3.4331673  71.8525433  78.1355993   4.1341673
  78.4355433  77.3535993   4.6491673  78.9115433  77.7275993   5.2771673
  77.6125433  77.4875993   4.9081673  78.3845433  77.4285993   4.7801673
  75.1455433  72.9565993   7.3901673  75.3065433  72.2125993   7.8171673
  75.1005433  72.7075993   6.5551673  75.1625433  72.8095993   7.3301673
  76.8975433  68.7645993   7.2701673  77.6025433  69.0845993   6.8681673
  77.1385433  67.9575993   7.4971673  77.0365433  68.6925993   7.2441673
  73.4065433  73.8175993   3.3311673  73.8465433  73.7145993   2.5851673
  73.9515433  73.5045993   3.9361673  73.5515433  73.7565993   3.3101673
  76.9535433  68.8025993   3.3781673  76.1275433  68.6535993   3.6151673
  76.9135433  68.8375993   2.5071673  76.8255433  68.7855993   3.2841673
  69.5185433  69.2005993   9.4131673  69.3785433  69.9955993   9.0821673
  68.7325433  68.9575993   9.7021673  69.3815433  69.2825993   9.4071673
  72.5595433  73.9555993   7.0541673  72.9345433  74.5745993   6.5671673
  73.2335433  73.4815993   7.3391673  72.7145433  73.9775993   7.0241673
  70.3345433  72.4035993   6.3291673  70.4115433  72.2345993   5.4761673
  71.0805433  72.8095993   6.5261673  70.4555433  72.4385993   6.2321673
  72.8885433  69.8135993   8.7401673  72.8075433  68.9695993   8.9461673
  72.5745433  69.8575993   7.9271673  72.8305433  69.6955993   8.6501673
  69.7315433  77.6295993   6.5531673  70.0515433  77.8485993   5.7721673
  69.6315433  76.7645993   6.4981673  69.7635433  77.5345993   6.4301673
  74.4945433  76.9215993   7.9381673  74.0985433  77.6955993   8.0131673
  74.0885433  76.5485993   7.2621673  74.3765433  76.9805993   7.8491673
  74.9235433  69.8985993   5.3881673  74.0595433  69.9825993   5.4681673
  75.1435433  69.3845993   6.0571673  74.8285433  69.8355993   5.4991673
  76.5295433  74.9755993   8.9661673  76.2075433  74.3995993   8.3961673
  76.1705433  75.7305993   8.7201673  76.4295433  75.0015993   8.8461673
  72.1435433  69.9815993   6.0361673  71.8005433  69.2145993   5.8021673
  71.4485433  70.5055993   6.1001673  71.9905433  69.9455993   6.0111673
  75.5765433  70.3425993   9.1221673  75.8105433  69.7665993   8.5091673
  74.7345433  70.1615993   9.2631673  75.4865433  70.2305993   9.0521673
  69.6455433  61.1234913  74.6351313  69.2045433  61.2414913  75.3781313
  69.3625433  60.3484913  74.3501313  69.5385433  61.0264913  74.7031313
  69.3885433  54.9154913  71.1421313  68.6105433  55.0774913  70.7821313
  69.4275433  54.0444913  71.1641313  69.2795433  54.8104913  71.0921313
  72.5275433  60.1784913  69.8141313  72.1355433  59.8074913  69.1281313
  72.4475433  59.5804913  70.4431313  72.4575433  60.0354913  69.8051313
  72.1545433  61.8194913  73.7141313  72.7625433  61.6494913  74.3171313
  71.4035433  61.6794913  74.1351313  72.1335433  61.7734913  73.8651313
  76.4365433  51.1544913  73.6631313  76.3665433  51.8314913  73.1171313
  77.1775433  50.7664913  73.4141313  76.5355433  51.1974913  73.5451313
  71.0455433  64.9104913  69.7911313  71.5125433  64.9944913  69.0591313
  71.5005433  64.3324913  70.2601313  71.1815433  64.8374913  69.7521313
  71.0315433  58.3794913  75.0921313  70.5695433  57.9874913  74.4651313
  71.7315433  57.8664913  75.1841313  71.0665433  58.2464913  75.0131313
  73.0325433  56.4794913  75.1151313  73.8495433  56.2924913  75.3581313
  72.5555433  55.8654913  75.5111313  73.0825433  56.3614913  75.2101313
  77.2365433  62.4604913  77.7251313  77.5845433  61.6614913  77.7551313
  77.9015433  62.9644913  77.4701313  77.3865433  62.4164913  77.6921313
  77.2935433  61.9094913  73.9361313  77.6245433  61.2654913  74.4221313
  77.5335433  61.6984913  73.1251313  77.3775433  61.7834913  73.8881313
  73.6295433  51.5734913  74.3811313  73.3335433  52.0744913  73.7311313
  74.4965433  51.6514913  74.3241313  73.7135433  51.6594913  74.2771313
  76.6085433  50.7154913  76.6041313  76.6815433  51.5754913  76.7331313
  76.5705433  50.6404913  75.7361313  76.6135433  50.8314913  76.4951313
  69.4875433  56.1404913  78.1051313  69.2315433  56.9714913  78.0301313
  68.8235433  55.7574913  78.5221313  69.3515433  56.2064913  78.1561313
  69.3975433  65.8504913  76.0051313  68.8055433  66.4084913  75.6921313
  69.8235433  65.5814913  75.2931313  69.3735433  65.8924913  75.8541313
  75.2375433  63.6944913  73.4851313  74.6585433  63.4194913  74.0771313
  75.8615433  63.0854913  73.5101313  75.2445433  63.5644913  73.5761313
  70.9425433  64.5204913  73.9361313  71.5985433  63.9454913  73.9511313
  71.3315433  65.2694913  73.7151313  71.0975433  64.5454913  73.9061313
  71.7605433  63.0074913  77.4361313  72.1835433  62.6514913  76.7621313
  72.0845433  62.5854913  78.1281313  71.8705433  62.8924913  77.4391313
  74.9915433  65.8594913  76.7321313  75.8355433  65.9634913  76.5371313
  74.6945433  66.6774913  76.8001313  75.0725433  65.9954913  76.7131313
  78.3795433  63.7664913  69.7561313  78.1985433  64.3114913  70.4131313
  79.1455433  64.0564913  69.4551313  78.4655433  63.8904913  69.8091313
  69.8405433  52.8304913  73.3791313  69.7265433  51.9664913  73.4101313
  69.3655433  53.1244913  74.0491313  69.7535433  52.7464913  73.4821313
  79.1445433  54.0384913  72.1241313  78.6365433  53.3764913  71.8701313
  79.1965433  54.5424913  71.4141313  79.0775433  54.0154913  71.9821313
  77.7425433  53.3464913  76.5371313  77.8165433  53.9144913  75.8791313
  77.8635433  53.8384913  77.2471313  77.7705433  53.5034913  76.5451313
  72.3505433  49.1694913  74.8851313  72.8865433  49.8574913  74.8751313
  72.3535433  48.8954913  74.0571313  72.4295433  49.2304913  74.7611313
  72.7985433  52.9794913  76.5391313  73.0705433  52.5494913  75.8311313
  72.6225433  52.3434913  77.1101313  72.8125433  52.8224913  76.5191313
  72.6225433  60.4064913  76.0881313  73.4735433  60.3264913  75.9151313
  72.2655433  59.7244913  75.6761313  72.6955433  60.2934913  76.0011313
  71.3895433  67.1314913  77.3251313  70.7165433  66.6334913  77.0801313
  71.7925433  67.3164913  76.5741313  71.3495433  67.0854913  77.1781313
  74.9905433  60.4134913  74.3231313  75.7035433  60.9084913  74.4131313
  75.2125433  59.8464913  73.6971313  75.1285433  60.4024913  74.2441313
  69.1465433  62.0564913  77.6431313  68.4795433  62.5444913  77.9191313
  69.8265433  62.6014913  77.6721313  69.1485433  62.2084913  77.6881313
  69.2125433  58.7404913  72.7461313  69.0275433  57.9014913  72.8981313
  69.8715433  58.7044913  72.1761313  69.2825433  58.6114913  72.6841313
  69.3845433  62.9044913  72.3211313  69.9365433  63.4734913  72.6851313
  69.1525433  62.3894913  72.9861313  69.4315433  62.9124913  72.4731313
  69.2145433  61.3534913  69.9491313  69.9705433  60.9214913  70.0071313
  69.2295433  61.8854913  70.6401313  69.3285433  61.3684913  70.0601313
  70.1545433  59.5744913  77.9541313  70.5855433  59.4454913  77.2071313
  69.9495433  60.4224913  77.9281313  70.1875433  59.6804913  77.8401313
  76.5005433  53.1384913  71.6041313  76.4985433  53.0214913  70.7391313
  76.3195433  53.9864913  71.6961313  76.4735433  53.2464913  71.4901313
  74.2385433  63.0904913  76.2361313  74.3645433  63.9334913  76.4231313
  74.9065433  62.6914913  76.6321313  74.3565433  63.1564913  76.3221313
  72.8535433  55.9704913  71.2381313  72.7255433  55.5224913  71.9761313
  72.2715433  55.6284913  70.6861313  72.7485433  55.8534913  71.2661313
  73.0205433  57.8004913  77.8371313  72.2395433  57.7414913  77.4541313
  73.0925433  57.0484913  78.2741313  72.9155433  57.6814913  77.8451313
  75.2315433  66.4574913  72.8841313  75.0845433  65.6814913  73.2551313
  75.9205433  66.3104913  72.3691313  75.3115433  66.3204913  72.8631313
  74.9025433  50.2004913  70.8721313  74.9995433  50.0934913  71.7331313
  74.1945433  50.7064913  70.8071313  74.8125433  50.2594913  70.9901313
  77.5235433  65.9734913  71.2861313  78.1455433  66.1364913  71.8761313
  77.5595433  66.6644913  70.7541313  77.6205433  66.0994913  71.2951313
  72.0245433  58.5074913  72.1151313  72.3485433  57.7284913  71.8931313
  72.6705433  58.8754913  72.5701313  72.1675433  58.4464913  72.1491313
  69.0215433  50.1684913  73.0831313  69.1505433  49.4604913  72.5911313
  68.6545433  49.8504913  73.8081313  68.9865433  50.0164913  73.1181313
  78.7145433  57.8494913  73.5401313  78.7735433  58.4994913  74.1191313
  78.5255433  57.1534913  74.0311313  78.6955433  57.8424913  73.6981313
  73.2105433  52.3664913  70.0521313  72.6995433  52.4194913  69.3461313
  73.9945433  52.6064913  69.7561313  73.2505433  52.4094913  69.9041313
  77.9375433  59.8964913  77.9711313  77.0905433  59.7024913  78.0521313
  78.2615433  59.7314913  78.7641313  77.8595433  59.8434913  78.1001313
  74.6895433  66.6264913  68.8571313  75.1285433  65.9294913  69.1451313
  74.8965433  67.2504913  69.4301313  74.7855433  66.6154913  68.9841313
  75.0155433  54.7604913  77.0221313  75.8615433  54.5704913  77.1201313
  74.6455433  53.9834913  76.8841313  75.0855433  54.6174913  77.0161313
  69.8365433  56.0984913  73.6771313  70.3255433  55.8064913  74.3381313
  69.9655433  55.5054913  73.0501313  69.9275433  55.9674913  73.6821313
  74.3615433  57.5324913  69.1631313  73.7515433  57.1274913  69.6371313
  73.9755433  57.6504913  68.3901313  74.2145433  57.4894913  69.1191313
  75.8165433  55.9934913  71.8731313  76.0885433  56.8194913  71.9401313
  74.9535433  56.0684913  71.7771313  75.7295433  56.1264913  71.8681313
  69.2965433  51.9634913  78.4091313  69.3405433  52.3074913  77.6081313
  70.0515433  52.2004913  78.7761313  69.4145433  52.0494913  78.3451313
  77.6995433  66.2684913  75.9021313  78.2455433  66.9474913  75.9561313
  77.3495433  66.3504913  75.1071313  77.7285433  66.3814913  75.7921313
  77.4765433  59.2724913  69.2061313  76.6715433  59.0954913  68.9211313
  77.4435433  60.1234913  69.3981313  77.3525433  59.3714913  69.1931313
  72.5825433  53.4664913  72.6631313  72.7085433  53.1374913  71.8651313
  71.7705433  53.2174913  72.8621313  72.4815433  53.3814913  72.5751313
  71.1875433  55.0874913  69.1961313  70.5155433  55.1014913  69.7521313
  71.2825433  54.2394913  69.0121313  71.1025433  54.9644913  69.2511313
  75.1755433  63.7924913  70.3101313  75.6165433  63.8724913  71.0581313
  74.3705433  63.5764913  70.5681313  75.1215433  63.7724913  70.4591313
  72.5045433  62.8624913  70.9111313  72.2605433  62.5554913  71.6911313
  72.4715433  62.1594913  70.3951313  72.4635433  62.7134913  70.9501313
  75.3235433  61.1074913  69.6541313  74.5055433  60.8394913  69.7941313
  75.2955433  61.9594913  69.8391313  75.1985433  61.1944913  69.7021313
  77.3255433  49.7494913  69.6181313  77.4035433  49.9964913  68.7851313
  76.5825433  50.1264913  69.8761313  77.2275433  49.8414913  69.5331313
  70.7965433  54.8174913  76.0171313  70.4285433  55.1194913  76.7481313
  71.3305433  54.1884913  76.3011313  70.8205433  54.7694913  76.1671313
  72.2705433  66.4924913  72.3031313  72.1255433  66.6484913  71.4571313
  73.1365433  66.5714913  72.3811313  72.3775433  66.5274913  72.1901313
  76.4375433  58.8894913  72.0311313  76.5375433  59.0284913  71.1761313
  77.2555433  58.8294913  72.3271313  76.5725433  58.9004913  71.9481313
  72.9575433  65.3074913  78.7801313  72.8785433  64.4974913  78.4641313
  72.5135433  65.7944913  78.2081313  72.8805433  65.2594913  78.6491313
  69.6455433  61.1234913  55.6288903  69.2045433  61.2414913  56.3718903
  69.3625433  60.3484913  55.3438903  69.5385433  61.0264913  55.6968903
  69.3885433  54.9154913  52.1358903  68.6105433  55.0774913  51.7758903
  69.4275433  54.0444913  52.1578903  69.2795433  54.8104913  52.0858903
  72.5275433  60.1784913  50.8078903  72.1355433  59.8074913  50.1218903
  72.4475433  59.5804913  51.4368903  72.4575433  60.0354913  50.7988903
  72.1545433  61.8194913  54.7078903  72.7625433  61.6494913  55.3108903
  71.4035433  61.6794913  55.1288903  72.1335433  61.7734913  54.8588903
  76.4365433  51.1544913  54.6568903  76.3665433  51.8314913  54.1108903
  77.1775433  50.7664913  54.4078903  76.5355433  51.1974913  54.5388903
  71.0455433  64.9104913  50.7848903  71.5125433  64.9944913  50.0528903
  71.5005433  64.3324913  51.2538903  71.1815433  64.8374913  50.7458903
  69.5855433  63.8584913  61.8838903  69.7145433  63.5784913  62.6998903
  68.9755433  63.3174913  61.5748903  69.5145433  63.7374913  61.9588903
  76.1595433  61.3834913  66.9508903  75.9235433  61.3804913  67.7908903
  75.4115433  61.2354913  66.5268903  76.0135433  61.3604913  67.0118903
  71.0315433  58.3794913  56.0858903  70.5695433  57.9874913  55.4588903
  71.7315433  57.8664913  56.1778903  71.0665433  58.2464913  56.0068903
  75.5395433  53.9894913  61.4328903  76.2175433  54.0074913  60.8838903
  75.4945433  53.1534913  61.6778903  75.6325433  53.8684913  61.3878903
  76.1415433  64.5754913  64.2138903  76.2795433  65.3354913  63.8068903
  76.9325433  64.2104913  64.2408903  76.2785433  64.6344913  64.1578903
  73.0325433  56.4794913  56.1088903  73.8495433  56.2924913  56.3518903
  72.5555433  55.8654913  56.5048903  73.0825433  56.3614913  56.2038903
  77.2365433  62.4604913  58.7188903  77.5845433  61.6614913  58.7488903
  77.9015433  62.9644913  58.4638903  77.3865433  62.4164913  58.6858903
  77.2935433  61.9094913  54.9298903  77.6245433  61.2654913  55.4158903
  77.5335433  61.6984913  54.1188903  77.3775433  61.7834913  54.8818903
  73.6295433  51.5734913  55.3748903  73.3335433  52.0744913  54.7248903
  74.4965433  51.6514913  55.3178903  73.7135433  51.6594913  55.2708903
  76.6085433  50.7154913  57.5978903  76.6815433  51.5754913  57.7268903
  76.5705433  50.6404913  56.7298903  76.6135433  50.8314913  57.4888903
  69.4875433  56.1404913  59.0988903  69.2315433  56.9714913  59.0238903
  68.8235433  55.7574913  59.5158903  69.3515433  56.2064913  59.1498903
  69.3975433  65.8504913  56.9988903  68.8055433  66.4084913  56.6858903
  69.8235433  65.5814913  56.2868903  69.3735433  65.8924913  56.8478903
  75.2375433  63.6944913  54.4788903  74.6585433  63.4194913  55.0708903
  75.8615433  63.0854913  54.5038903  75.2445433  63.5644913  54.5698903
  72.5165433  50.9574913  59.5898903  71.9955433  50.3294913  59.2818903
  73.1075433  50.5204913  60.0608903  72.5275433  50.7994913  59.6138903
  75.8225433  53.0904913  68.8878903  75.9395433  52.6364913  68.1518903
  76.1105433  53.8884913  68.6848903  75.8825433  53.1414913  68.7488903
  70.9425433  64.5204913  54.9298903  71.5985433  63.9454913  54.9448903
  71.3315433  65.2694913  54.7088903  71.0975433  64.5454913  54.8998903
  71.5555433  52.6874913  67.8718903  70.7775433  52.2974913  67.7998903
  72.0465433  52.2754913  67.2808903  71.5125433  52.5684913  67.7738903
  71.7605433  63.0074913  58.4298903  72.1835433  62.6514913  57.7558903
  72.0845433  62.5854913  59.1218903  71.8705433  62.8924913  58.4328903
  74.9915433  65.8594913  57.7258903  75.8355433  65.9634913  57.5308903
  74.6945433  66.6774913  57.7938903  75.0725433  65.9954913  57.7068903
  78.2045433  50.3304913  67.0398903  78.3825433  49.5214913  66.7648903
  78.0615433  50.7714913  66.3008903  78.2095433  50.2764913  66.8898903
  73.9895433  67.0784913  63.4658903  74.2815433  67.0114913  64.2858903
  73.3635433  66.4734913  63.4208903  73.9405433  66.9794913  63.5808903
  68.9035433  53.2354913  65.4578903  68.8995433  53.8224913  66.1038903
  69.4975433  53.5474913  64.9008903  68.9905433  53.3684913  65.4708903
  78.3795433  63.7664913  50.7498903  78.1985433  64.3114913  51.4068903
  79.1455433  64.0564913  50.4488903  78.4655433  63.8904913  50.8028903
  69.8405433  52.8304913  54.3728903  69.7265433  51.9664913  54.4038903
  69.3655433  53.1244913  55.0428903  69.7535433  52.7464913  54.4758903
  71.9825433  65.2404913  62.5878903  71.2845433  64.7324913  62.7138903
  72.2425433  65.0354913  61.7798903  71.9175433  65.1354913  62.4868903
  79.1445433  54.0384913  53.1178903  78.6365433  53.3764913  52.8638903
  79.1965433  54.5424913  52.4078903  79.0775433  54.0154913  52.9758903
  77.7425433  53.3464913  57.5308903  77.8165433  53.9144913  56.8728903
  77.8635433  53.8384913  58.2408903  77.7705433  53.5034913  57.5388903
  73.3435433  64.0914913  65.1548903  74.1845433  64.1544913  64.9328903
  73.3065433  64.4884913  65.9308903  73.4625433  64.1594913  65.2368903
  72.3505433  49.1694913  55.8788903  72.8865433  49.8574913  55.8688903
  72.3535433  48.8954913  55.0508903  72.4295433  49.2304913  55.7548903
  75.3065433  59.6024913  59.9038903  75.4785433  59.3924913  60.7328903
  74.6515433  59.0684913  59.6878903  75.2355433  59.4924913  59.9948903
  76.0565433  59.5404913  62.4938903  76.1095433  60.3874913  62.6958903
  75.7715433  59.1704913  63.2308903  76.0225433  59.6104913  62.6318903
  68.8775433  63.9114913  68.7048903  69.6335433  64.2604913  68.9628903
  69.0545433  63.0584913  68.6478903  69.0155433  63.8364913  68.7348903
  72.7985433  52.9794913  57.5328903  73.0705433  52.5494913  56.8248903
  72.6225433  52.3434913  58.1038903  72.8125433  52.8224913  57.5128903
  72.6225433  60.4064913  57.0818903  73.4735433  60.3264913  56.9088903
  72.2655433  59.7244913  56.6698903  72.6955433  60.2934913  56.9948903
  71.3895433  67.1314913  58.3188903  70.7165433  66.6334913  58.0738903
  71.7925433  67.3164913  57.5678903  71.3495433  67.0854913  58.1718903
  70.9395433  54.0814913  60.6148903  71.7825433  54.3014913  60.5718903
  70.5505433  54.6544913  60.0838903  71.0065433  54.1984913  60.5298903
  74.9905433  60.4134913  55.3168903  75.7035433  60.9084913  55.4068903
  75.2125433  59.8464913  54.6908903  75.1285433  60.4024913  55.2378903
  69.1465433  62.0564913  58.6368903  68.4795433  62.5444913  58.9128903
  69.8265433  62.6014913  58.6658903  69.1485433  62.2084913  58.6818903
  76.7935433  55.7664913  68.7328903  76.3095433  56.3434913  69.1748903
  76.7655433  56.0614913  67.9118903  76.7175433  55.8954913  68.6768903
  69.2125433  58.7404913  53.7398903  69.0275433  57.9014913  53.8918903
  69.8715433  58.7044913  53.1698903  69.2825433  58.6114913  53.6778903
  69.3845433  62.9044913  53.3148903  69.9365433  63.4734913  53.6788903
  69.1525433  62.3894913  53.9798903  69.4315433  62.9124913  53.4668903
  73.5885433  61.9044913  60.4038903  74.0555433  62.1934913  61.0818903
  74.1605433  61.4264913  59.9498903  73.7425433  61.8764913  60.4368903
  69.2145433  61.3534913  50.9428903  69.9705433  60.9214913  51.0008903
  69.2295433  61.8854913  51.6338903  69.3285433  61.3684913  51.0538903
  70.1545433  59.5744913  58.9478903  70.5855433  59.4454913  58.2008903
  69.9495433  60.4224913  58.9218903  70.1875433  59.6804913  58.8338903
  76.5005433  53.1384913  52.5978903  76.4985433  53.0214913  51.7328903
  76.3195433  53.9864913  52.6898903  76.4735433  53.2464913  52.4838903
  74.2385433  63.0904913  57.2298903  74.3645433  63.9334913  57.4168903
  74.9065433  62.6914913  57.6258903  74.3565433  63.1564913  57.3158903
  72.3685433  56.5734913  67.0918903  71.8325433  56.0674913  67.5598903
  72.3885433  56.1834913  66.3118903  72.2915433  56.4404913  67.0458903
  72.8535433  55.9704913  52.2318903  72.7255433  55.5224913  52.9698903
  72.2715433  55.6284913  51.6798903  72.7485433  55.8534913  52.2598903
  73.0205433  57.8004913  58.8308903  72.2395433  57.7414913  58.4478903
  73.0925433  57.0484913  59.2678903  72.9155433  57.6814913  58.8388903
  73.4505433  57.5374913  62.2988903  73.4755433  56.8624913  61.7478903
  72.8045433  58.0334913  61.9868903  73.3595433  57.5104913  62.1718903
  77.5505433  66.3144913  61.6908903  77.2735433  65.6734913  61.1678903
  77.3425433  67.0404913  61.2528903  77.4795433  66.3274913  61.5488903
  71.2495433  58.8924913  67.8578903  71.2125433  59.3934913  67.1438903
  71.5805433  58.1404913  67.5628903  71.2925433  58.8544913  67.7088903
  77.1485433  63.9424913  67.2928903  77.5025433  63.7644913  68.0698903
  76.7125433  63.2134913  67.0938903  77.1365433  63.8084913  67.3788903
  78.1205433  54.6894913  59.9308903  78.6005433  55.3884913  60.1388903
  78.4935433  54.0424913  60.3818903  78.2465433  54.6974913  60.0278903
  75.2315433  66.4574913  53.8778903  75.0845433  65.6814913  54.2488903
  75.9205433  66.3104913  53.3628903  75.3115433  66.3204913  53.8568903
  74.9025433  50.2004913  51.8658903  74.9995433  50.0934913  52.7268903
  74.1945433  50.7064913  51.8008903  74.8125433  50.2594913  51.9838903
  77.5235433  65.9734913  52.2798903  78.1455433  66.1364913  52.8698903
  77.5595433  66.6644913  51.7478903  77.6205433  66.0994913  52.2888903
  72.0245433  58.5074913  53.1088903  72.3485433  57.7284913  52.8868903
  72.6705433  58.8754913  53.5638903  72.1675433  58.4464913  53.1428903
  69.0215433  50.1684913  54.0768903  69.1505433  49.4604913  53.5848903
  68.6545433  49.8504913  54.8018903  68.9865433  50.0164913  54.1118903
  78.7145433  57.8494913  54.5338903  78.7735433  58.4994913  55.1128903
  78.5255433  57.1534913  55.0248903  78.6955433  57.8424913  54.6918903
  73.2105433  52.3664913  51.0458903  72.6995433  52.4194913  50.3398903
  73.9945433  52.6064913  50.7498903  73.2505433  52.4094913  50.8978903
  77.9375433  59.8964913  58.9648903  77.0905433  59.7024913  59.0458903
  78.2615433  59.7314913  59.7578903  77.8595433  59.8434913  59.0938903
  74.6895433  66.6264913  49.8508903  75.1285433  65.9294913  50.1388903
  74.8965433  67.2504913  50.4238903  74.7855433  66.6154913  49.9778903
  71.7855433  59.5894913  61.2808903  72.5075433  60.0774913  61.2438903
  71.5155433  59.5594913  60.4518903  71.8525433  59.6574913  61.1528903
  75.0155433  54.7604913  58.0158903  75.8615433  54.5704913  58.1138903
  74.6455433  53.9834913  57.8778903  75.0855433  54.6174913  58.0098903
  69.8365433  56.0984913  54.6708903  70.3255433  55.8064913  55.3318903
  69.9655433  55.5054913  54.0438903  69.9275433  55.9674913  54.6758903
  74.3615433  57.5324913  50.1568903  73.7515433  57.1274913  50.6308903
  73.9755433  57.6504913  49.3838903  74.2145433  57.4894913  50.1128903
  71.1805433  60.6414913  65.5588903  70.7595433  60.1234913  64.9978903
  70.8285433  61.4274913  65.4158903  71.0665433  60.6814913  65.4548903
  75.8165433  55.9934913  52.8668903  76.0885433  56.8194913  52.9338903
  74.9535433  56.0684913  52.7708903  75.7295433  56.1264913  52.8618903
  69.2965433  51.9634913  59.4028903  69.3405433  52.3074913  58.6018903
  70.0515433  52.2004913  59.7698903  69.4145433  52.0494913  59.3388903
  75.9195433  62.4524913  62.1768903  75.6215433  63.0444913  62.7438903
  75.9745433  62.8944913  61.4278903  75.8835433  62.6054913  62.1498903
  73.8985433  61.4024913  65.5748903  73.0925433  61.1124913  65.7418903
  73.8095433  62.2704913  65.5808903  73.7665433  61.4874913  65.5998903
  78.4355433  58.8754913  61.6678903  78.9115433  59.2494913  62.2958903
  77.6125433  59.0094913  61.9268903  78.3845433  58.9504913  61.7988903
  75.1455433  54.4784913  64.4088903  75.3065433  53.7344913  64.8358903
  75.1005433  54.2294913  63.5738903  75.1625433  54.3314913  64.3488903
  77.6995433  66.2684913  56.8958903  78.2455433  66.9474913  56.9498903
  77.3495433  66.3504913  56.1008903  77.7285433  66.3814913  56.7858903
  76.8975433  50.2864913  64.2888903  77.6025433  50.6064913  63.8868903
  77.1385433  49.4794913  64.5158903  77.0365433  50.2144913  64.2628903
  75.8825433  64.4964913  60.2848903  75.2585433  65.0784913  60.1028903
  76.1305433  64.2104913  59.4988903  75.8265433  64.5404913  60.1418903
  77.4765433  59.2724913  50.1998903  76.6715433  59.0954913  49.9148903
  77.4435433  60.1234913  50.3918903  77.3525433  59.3714913  50.1868903
  73.4065433  55.3394913  60.3498903  73.8465433  55.2364913  59.6038903
  73.9515433  55.0264913  60.9548903  73.5515433  55.2784913  60.3288903
  78.5355433  66.1454913  66.1648903  79.0135433  65.5454913  65.7488903
  78.1845433  65.7024913  66.8298903  78.5545433  65.9914913  66.2018903
  76.9535433  50.3244913  60.3968903  76.1275433  50.1754913  60.6338903
  76.9135433  50.3594913  59.5258903  76.8255433  50.3074913  60.3028903
  78.5945433  61.3644913  65.1848903  77.7995433  61.3004913  65.5358903
  78.6655433  62.2114913  64.9898903  78.4875433  61.4794913  65.2078903
  69.5185433  50.7224913  66.4318903  69.3785433  51.5174913  66.1008903
  68.7325433  50.4794913  66.7208903  69.3815433  50.8044913  66.4258903
  74.4245433  67.5714913  60.5018903  74.4355433  67.6304913  61.3718903
  73.9995433  66.8244913  60.3518903  74.3635433  67.4694913  60.6078903
  72.5825433  53.4664913  53.6568903  72.7085433  53.1374913  52.8588903
  71.7705433  53.2174913  53.8558903  72.4815433  53.3814913  53.5688903
  71.1885433  67.0694913  65.9438903  70.5345433  66.5004913  66.0418903
  70.8135433  67.8424913  66.0948903  71.0365433  67.0994913  65.9808903
  72.5595433  55.4774913  64.0728903  72.9345433  56.0964913  63.5858903
  73.2335433  55.0034913  64.3578903  72.7145433  55.4994913  64.0428903
  70.3345433  53.9254913  63.3478903  70.4115433  53.7564913  62.4948903
  71.0805433  54.3314913  63.5448903  70.4555433  53.9604913  63.2508903
  72.8885433  51.3354913  65.7588903  72.8075433  50.4914913  65.9648903
  72.5745433  51.3794913  64.9458903  72.8305433  51.2174913  65.6688903
  69.7315433  59.1514913  63.5718903  70.0515433  59.3704913  62.7908903
  69.6315433  58.2864913  63.5168903  69.7635433  59.0564913  63.4488903
  71.1875433  55.0874913  50.1898903  70.5155433  55.1014913  50.7458903
  71.2825433  54.2394913  50.0058903  71.1025433  54.9644913  50.2448903
  75.1755433  63.7924913  51.3038903  75.6165433  63.8724913  52.0518903
  74.3705433  63.5764913  51.5618903  75.1215433  63.7724913  51.4528903
  74.4945433  58.4434913  64.9568903  74.0985433  59.2174913  65.0318903
  74.0885433  58.0704913  64.2808903  74.3765433  58.5024913  64.8678903
  72.5045433  62.8624913  51.9048903  72.2605433  62.5554913  52.6848903
  72.4715433  62.1594913  51.3888903  72.4635433  62.7134913  51.9438903
  75.3235433  61.1074913  50.6478903  74.5055433  60.8394913  50.7878903
  75.2955433  61.9594913  50.8328903  75.1985433  61.1944913  50.6958903
  74.9235433  51.4204913  62.4068903  74.0595433  51.5044913  62.4868903
  75.1435433  50.9064913  63.0758903  74.8285433  51.3574913  62.5178903
  76.5295433  56.4974913  65.9848903  76.2075433  55.9214913  65.4148903
  76.1705433  57.2524913  65.7388903  76.4295433  56.5234913  65.8648903
  77.3255433  49.7494913  50.6118903  77.4035433  49.9964913  49.7788903
  76.5825433  50.1264913  50.8698903  77.2275433  49.8414913  50.5268903
  74.9645433  66.8534913  66.2328903  75.0055433  66.9794913  67.0958903
  75.6155433  66.2934913  66.0768903  75.0665433  66.7894913  66.3378903
  72.1435433  51.5034913  63.0548903  71.8005433  50.7364913  62.8208903
  71.4485433  52.0274913  63.1188903  71.9905433  51.4674913  63.0298903
  72.5575433  65.2364913  67.5928903  73.1525433  65.6674913  68.0648903
  72.1935433  65.8604913  67.1038903  72.5915433  65.3924913  67.5898903
  70.7965433  54.8174913  57.0108903  70.4285433  55.1194913  57.7418903
  71.3305433  54.1884913  57.2948903  70.8205433  54.7694913  57.1608903
  70.4845433  63.2254913  64.5218903  69.9105433  63.6414913  65.0308903
  71.2175433  63.6904913  64.6168903  70.5085433  63.3554913  64.6108903
  72.2705433  66.4924913  53.2968903  72.1255433  66.6484913  52.4508903
  73.1365433  66.5714913  53.3748903  72.3775433  66.5274913  53.1838903
  76.4375433  58.8894913  53.0248903  76.5375433  59.0284913  52.1698903
  77.2555433  58.8294913  53.3208903  76.5725433  58.9004913  52.9418903
  75.5765433  51.8644913  66.1408903  75.8105433  51.2884913  65.5278903
  74.7345433  51.6834913  66.2818903  75.4865433  51.7524913  66.0708903
  72.9575433  65.3074913  59.7738903  72.8785433  64.4974913  59.4578903
  72.5135433  65.7944913  59.2018903  72.8805433  65.2594913  59.6428903
  70.5295433  67.5514913  63.3548903  71.0225433  67.4954913  64.0728903
  70.7175433  66.8184913  62.9198903  70.6305433  67.4344913  63.3968903
  69.6455433  61.1234913  36.6226493  69.2045433  61.2414913  37.3656493
  69.3625433  60.3484913  36.3376493  69.5385433  61.0264913  36.6906493
  69.3885433  54.9154913  33.1296493  68.6105433  55.0774913  32.7696493
  69.4275433  54.0444913  33.1516493  69.2795433  54.8104913  33.0796493
  72.5275433  60.1784913  31.8016493  72.1355433  59.8074913  31.1156493
  72.4475433  59.5804913  32.4306493  72.4575433  60.0354913  31.7926493
  72.1545433  61.8194913  35.7016493  72.7625433  61.6494913  36.3046493
  71.4035433  61.6794913  36.1226493  72.1335433  61.7734913  35.8526493
  76.4365433  51.1544913  35.6506493  76.3665433  51.8314913  35.1046493
  77.1775433  50.7664913  35.4016493  76.5355433  51.1974913  35.5326493
  71.0455433  64.9104913  31.7786493  71.5125433  64.9944913  31.0466493
  71.5005433  64.3324913  32.2476493  71.1815433  64.8374913  31.7396493
  69.5855433  63.8584913  42.8776493  69.7145433  63.5784913  43.6936493
  68.9755433  63.3174913  42.5686493  69.5145433  63.7374913  42.9526493
  76.1595433  61.3834913  47.9446493  75.9235433  61.3804913  48.7846493
  75.4115433  61.2354913  47.5206493  76.0135433  61.3604913  48.0056493
  71.0315433  58.3794913  37.0796493  70.5695433  57.9874913  36.4526493
  71.7315433  57.8664913  37.1716493  71.0665433  58.2464913  37.0006493
  75.5395433  53.9894913  42.4266493  76.2175433  54.0074913  41.8776493
  75.4945433  53.1534913  42.6716493  75.6325433  53.8684913  42.3816493
  76.1415433  64.5754913  45.2076493  76.2795433  65.3354913  44.8006493
  76.9325433  64.2104913  45.2346493  76.2785433  64.6344913  45.1516493
  73.0325433  56.4794913  37.1026493  73.8495433  56.2924913  37.3456493
  72.5555433  55.8654913  37.4986493  73.0825433  56.3614913  37.1976493
  77.2365433  62.4604913  39.7126493  77.5845433  61.6614913  39.7426493
  77.9015433  62.9644913  39.4576493  77.3865433  62.4164913  39.6796493
  77.2935433  61.9094913  35.9236493  77.6245433  61.2654913  36.4096493
  77.5335433  61.6984913  35.1126493  77.3775433  61.7834913  35.8756493
  73.6295433  51.5734913  36.3686493  73.3335433  52.0744913  35.7186493
  74.4965433  51.6514913  36.3116493  73.7135433  51.6594913  36.2646493
  76.6085433  50.7154913  38.5916493  76.6815433  51.5754913  38.7206493
  76.5705433  50.6404913  37.7236493  76.6135433  50.8314913  38.4826493
  69.4875433  56.1404913  40.0926493  69.2315433  56.9714913  40.0176493
  68.8235433  55.7574913  40.5096493  69.3515433  56.2064913  40.1436493
  69.3975433  65.8504913  37.9926493  68.8055433  66.4084913  37.6796493
  69.8235433  65.5814913  37.2806493  69.3735433  65.8924913  37.8416493
  75.2375433  63.6944913  35.4726493  74.6585433  63.4194913  36.0646493
  75.8615433  63.0854913  35.4976493  75.2445433  63.5644913  35.5636493
  72.5165433  50.9574913  40.5836493  71.9955433  50.3294913  40.2756493
  73.1075433  50.5204913  41.0546493  72.5275433  50.7994913  40.6076493
  75.8225433  53.0904913  49.8816493  75.9395433  52.6364913  49.1456493
  76.1105433  53.8884913  49.6786493  75.8825433  53.1414913  49.7426493
  70.9425433  64.5204913  35.9236493  71.5985433  63.9454913  35.9386493
  71.3315433  65.2694913  35.7026493  71.0975433  64.5454913  35.8936493
  71.5555433  52.6874913  48.8656493  70.7775433  52.2974913  48.7936493
  72.0465433  52.2754913  48.2746493  71.5125433  52.5684913  48.7676493
  71.7605433  63.0074913  39.4236493  72.1835433  62.6514913  38.7496493
  72.0845433  62.5854913  40.1156493  71.8705433  62.8924913  39.4266493
  74.9915433  65.8594913  38.7196493  75.8355433  65.9634913  38.5246493
  74.6945433  66.6774913  38.7876493  75.0725433  65.9954913  38.7006493
  78.2045433  50.3304913  48.0336493  78.3825433  49.5214913  47.7586493
  78.0615433  50.7714913  47.2946493  78.2095433  50.2764913  47.8836493
  73.9895433  67.0784913  44.4596493  74.2815433  67.0114913  45.2796493
  73.3635433  66.4734913  44.4146493  73.9405433  66.9794913  44.5746493
  68.9035433  53.2354913  46.4516493  68.8995433  53.8224913  47.0976493
  69.4975433  53.5474913  45.8946493  68.9905433  53.3684913  46.4646493
  78.3795433  63.7664913  31.7436493  78.1985433  64.3114913  32.4006493
  79.1455433  64.0564913  31.4426493  78.4655433  63.8904913  31.7966493
  69.8405433  52.8304913  35.3666493  69.7265433  51.9664913  35.3976493
  69.3655433  53.1244913  36.0366493  69.7535433  52.7464913  35.4696493
  71.9825433  65.2404913  43.5816493  71.2845433  64.7324913  43.7076493
  72.2425433  65.0354913  42.7736493  71.9175433  65.1354913  43.4806493
  79.1445433  54.0384913  34.1116493  78.6365433  53.3764913  33.8576493
  79.1965433  54.5424913  33.4016493  79.0775433  54.0154913  33.9696493
  77.7425433  53.3464913  38.5246493  77.8165433  53.9144913  37.8666493
  77.8635433  53.8384913  39.2346493  77.7705433  53.5034913  38.5326493
  73.3435433  64.0914913  46.1486493  74.1845433  64.1544913  45.9266493
  73.3065433  64.4884913  46.9246493  73.4625433  64.1594913  46.2306493
  72.3505433  49.1694913  36.8726493  72.8865433  49.8574913  36.8626493
  72.3535433  48.8954913  36.0446493  72.4295433  49.2304913  36.7486493
  75.3065433  59.6024913  40.8976493  75.4785433  59.3924913  41.7266493
  74.6515433  59.0684913  40.6816493  75.2355433  59.4924913  40.9886493
  76.0565433  59.5404913  43.4876493  76.1095433  60.3874913  43.6896493
  75.7715433  59.1704913  44.2246493  76.0225433  59.6104913  43.6256493
  68.8775433  63.9114913  49.6986493  69.6335433  64.2604913  49.9566493
  69.0545433  63.0584913  49.6416493  69.0155433  63.8364913  49.7286493
  72.7985433  52.9794913  38.5266493  73.0705433  52.5494913  37.8186493
  72.6225433  52.3434913  39.0976493  72.8125433  52.8224913  38.5066493
  72.6225433  60.4064913  38.0756493  73.4735433  60.3264913  37.9026493
  72.2655433  59.7244913  37.6636493  72.6955433  60.2934913  37.9886493
  71.3895433  67.1314913  39.3126493  70.7165433  66.6334913  39.0676493
  71.7925433  67.3164913  38.5616493  71.3495433  67.0854913  39.1656493
  70.9395433  54.0814913  41.6086493  71.7825433  54.3014913  41.5656493
  70.5505433  54.6544913  41.0776493  71.0065433  54.1984913  41.5236493
  74.9905433  60.4134913  36.3106493  75.7035433  60.9084913  36.4006493
  75.2125433  59.8464913  35.6846493  75.1285433  60.4024913  36.2316493
  69.1465433  62.0564913  39.6306493  68.4795433  62.5444913  39.9066493
  69.8265433  62.6014913  39.6596493  69.1485433  62.2084913  39.6756493
  76.7935433  55.7664913  49.7266493  76.3095433  56.3434913  50.1686493
  76.7655433  56.0614913  48.9056493  76.7175433  55.8954913  49.6706493
  69.2125433  58.7404913  34.7336493  69.0275433  57.9014913  34.8856493
  69.8715433  58.7044913  34.1636493  69.2825433  58.6114913  34.6716493
  69.3845433  62.9044913  34.3086493  69.9365433  63.4734913  34.6726493
  69.1525433  62.3894913  34.9736493  69.4315433  62.9124913  34.4606493
  73.5885433  61.9044913  41.3976493  74.0555433  62.1934913  42.0756493
  74.1605433  61.4264913  40.9436493  73.7425433  61.8764913  41.4306493
  69.2145433  61.3534913  31.9366493  69.9705433  60.9214913  31.9946493
  69.2295433  61.8854913  32.6276493  69.3285433  61.3684913  32.0476493
  70.1545433  59.5744913  39.9416493  70.5855433  59.4454913  39.1946493
  69.9495433  60.4224913  39.9156493  70.1875433  59.6804913  39.8276493
  76.5005433  53.1384913  33.5916493  76.4985433  53.0214913  32.7266493
  76.3195433  53.9864913  33.6836493  76.4735433  53.2464913  33.4776493
  74.2385433  63.0904913  38.2236493  74.3645433  63.9334913  38.4106493
  74.9065433  62.6914913  38.6196493  74.3565433  63.1564913  38.3096493
  72.3685433  56.5734913  48.0856493  71.8325433  56.0674913  48.5536493
  72.3885433  56.1834913  47.3056493  72.2915433  56.4404913  48.0396493
  72.8535433  55.9704913  33.2256493  72.7255433  55.5224913  33.9636493
  72.2715433  55.6284913  32.6736493  72.7485433  55.8534913  33.2536493
  73.0205433  57.8004913  39.8246493  72.2395433  57.7414913  39.4416493
  73.0925433  57.0484913  40.2616493  72.9155433  57.6814913  39.8326493
  73.4505433  57.5374913  43.2926493  73.4755433  56.8624913  42.7416493
  72.8045433  58.0334913  42.9806493  73.3595433  57.5104913  43.1656493
  77.5505433  66.3144913  42.6846493  77.2735433  65.6734913  42.1616493
  77.3425433  67.0404913  42.2466493  77.4795433  66.3274913  42.5426493
  71.2495433  58.8924913  48.8516493  71.2125433  59.3934913  48.1376493
  71.5805433  58.1404913  48.5566493  71.2925433  58.8544913  48.7026493
  77.1485433  63.9424913  48.2866493  77.5025433  63.7644913  49.0636493
  76.7125433  63.2134913  48.0876493  77.1365433  63.8084913  48.3726493
  78.1205433  54.6894913  40.9246493  78.6005433  55.3884913  41.1326493
  78.4935433  54.0424913  41.3756493  78.2465433  54.6974913  41.0216493
  75.2315433  66.4574913  34.8716493  75.0845433  65.6814913  35.2426493
  75.9205433  66.3104913  34.3566493  75.3115433  66.3204913  34.8506493
  74.9025433  50.2004913  32.8596493  74.9995433  50.0934913  33.7206493
  74.1945433  50.7064913  32.7946493  74.8125433  50.2594913  32.9776493
  77.5235433  65.9734913  33.2736493  78.1455433  66.1364913  33.8636493
  77.5595433  66.6644913  32.7416493  77.6205433  66.0994913  33.2826493
  72.0245433  58.5074913  34.1026493  72.3485433  57.7284913  33.8806493
  72.6705433  58.8754913  34.5576493  72.1675433  58.4464913  34.1366493
  69.0215433  50.1684913  35.0706493  69.1505433  49.4604913  34.5786493
  68.6545433  49.8504913  35.7956493  68.9865433  50.0164913  35.1056493
  78.7145433  57.8494913  35.5276493  78.7735433  58.4994913  36.1066493
  78.5255433  57.1534913  36.0186493  78.6955433  57.8424913  35.6856493
  73.2105433  52.3664913  32.0396493  72.6995433  52.4194913  31.3336493
  73.9945433  52.6064913  31.7436493  73.2505433  52.4094913  31.8916493
  77.9375433  59.8964913  39.9586493  77.0905433  59.7024913  40.0396493
  78.2615433  59.7314913  40.7516493  77.8595433  59.8434913  40.0876493
  74.6895433  66.6264913  30.8446493  75.1285433  65.9294913  31.1326493
  74.8965433  67.2504913  31.4176493  74.7855433  66.6154913  30.9716493
  71.7855433  59.5894913  42.2746493  72.5075433  60.0774913  42.2376493
  71.5155433  59.5594913  41.4456493  71.8525433  59.6574913  42.1466493
  75.0155433  54.7604913  39.0096493  75.8615433  54.5704913  39.1076493
  74.6455433  53.9834913  38.8716493  75.0855433  54.6174913  39.0036493
  69.8365433  56.0984913  35.6646493  70.3255433  55.8064913  36.3256493
  69.9655433  55.5054913  35.0376493  69.9275433  55.9674913  35.6696493
  74.3615433  57.5324913  31.1506493  73.7515433  57.1274913  31.6246493
  73.9755433  57.6504913  30.3776493  74.2145433  57.4894913  31.1066493
  71.1805433  60.6414913  46.5526493  70.7595433  60.1234913  45.9916493
  70.8285433  61.4274913  46.4096493  71.0665433  60.6814913  46.4486493
  75.8165433  55.9934913  33.8606493  76.0885433  56.8194913  33.9276493
  74.9535433  56.0684913  33.7646493  75.7295433  56.1264913  33.8556493
  69.2965433  51.9634913  40.3966493  69.3405433  52.3074913  39.5956493
  70.0515433  52.2004913  40.7636493  69.4145433  52.0494913  40.3326493
  75.9195433  62.4524913  43.1706493  75.6215433  63.0444913  43.7376493
  75.9745433  62.8944913  42.4216493  75.8835433  62.6054913  43.1436493
  73.8985433  61.4024913  46.5686493  73.0925433  61.1124913  46.7356493
  73.8095433  62.2704913  46.5746493  73.7665433  61.4874913  46.5936493
  78.4355433  58.8754913  42.6616493  78.9115433  59.2494913  43.2896493
  77.6125433  59.0094913  42.9206493  78.3845433  58.9504913  42.7926493
  75.1455433  54.4784913  45.4026493  75.3065433  53.7344913  45.8296493
  75.1005433  54.2294913  44.5676493  75.1625433  54.3314913  45.3426493
  77.6995433  66.2684913  37.8896493  78.2455433  66.9474913  37.9436493
  77.3495433  66.3504913  37.0946493  77.7285433  66.3814913  37.7796493
  76.8975433  50.2864913  45.2826493  77.6025433  50.6064913  44.8806493
  77.1385433  49.4794913  45.5096493  77.0365433  50.2144913  45.2566493
  75.8825433  64.4964913  41.2786493  75.2585433  65.0784913  41.0966493
  76.1305433  64.2104913  40.4926493  75.8265433  64.5404913  41.1356493
  77.4765433  59.2724913  31.1936493  76.6715433  59.0954913  30.9086493
  77.4435433  60.1234913  31.3856493  77.3525433  59.3714913  31.1806493
  73.4065433  55.3394913  41.3436493  73.8465433  55.2364913  40.5976493
  73.9515433  55.0264913  41.9486493  73.5515433  55.2784913  41.3226493
  78.5355433  66.1454913  47.1586493  79.0135433  65.5454913  46.7426493
  78.1845433  65.7024913  47.8236493  78.5545433  65.9914913  47.1956493
  76.9535433  50.3244913  41.3906493  76.1275433  50.1754913  41.6276493
  76.9135433  50.3594913  40.5196493  76.8255433  50.3074913  41.2966493
  78.5945433  61.3644913  46.1786493  77.7995433  61.3004913  46.5296493
  78.6655433  62.2114913  45.9836493  78.4875433  61.4794913  46.2016493
  69.5185433  50.7224913  47.4256493  69.3785433  51.5174913  47.0946493
  68.7325433  50.4794913  47.7146493  69.3815433  50.8044913  47.4196493
  74.4245433  67.5714913  41.4956493  74.4355433  67.6304913  42.3656493
  73.9995433  66.8244913  41.3456493  74.3635433  67.4694913  41.6016493
  72.5825433  53.4664913  34.6506493  72.7085433  53.1374913  33.8526493
  71.7705433  53.2174913  34.8496493  72.4815433  53.3814913  34.5626493
  71.1885433  67.0694913  46.9376493  70.5345433  66.5004913  47.0356493
  70.8135433  67.8424913  47.0886493  71.0365433  67.0994913  46.9746493
  72.5595433  55.4774913  45.0666493  72.9345433  56.0964913  44.5796493
  73.2335433  55.0034913  45.3516493  72.7145433  55.4994913  45.0366493
  70.3345433  53.9254913  44.3416493  70.4115433  53.7564913  43.4886493
  71.0805433  54.3314913  44.5386493  70.4555433  53.9604913  44.2446493
  72.8885433  51.3354913  46.7526493  72.8075433  50.4914913  46.9586493
  72.5745433  51.3794913  45.9396493  72.8305433  51.2174913  46.6626493
  69.7315433  59.1514913  44.5656493  70.0515433  59.3704913  43.7846493
  69.6315433  58.2864913  44.5106493  69.7635433  59.0564913  44.4426493
  71.1875433  55.0874913  31.1836493  70.5155433  55.1014913  31.7396493
  71.2825433  54.2394913  30.9996493  71.1025433  54.9644913  31.2386493
  75.1755433  63.7924913  32.2976493  75.6165433  63.8724913  33.0456493
  74.3705433  63.5764913  32.5556493  75.1215433  63.7724913  32.4466493
  74.4945433  58.4434913  45.9506493  74.0985433  59.2174913  46.0256493
  74.0885433  58.0704913  45.2746493  74.3765433  58.5024913  45.8616493
  72.5045433  62.8624913  32.8986493  72.2605433  62.5554913  33.6786493
  72.4715433  62.1594913  32.3826493  72.4635433  62.7134913  32.9376493
  75.3235433  61.1074913  31.6416493  74.5055433  60.8394913  31.7816493
  75.2955433  61.9594913  31.8266493  75.1985433  61.1944913  31.6896493
  74.9235433  51.4204913  43.4006493  74.0595433  51.5044913  43.4806493
  75.1435433  50.9064913  44.0696493  74.8285433  51.3574913  43.5116493
  76.5295433  56.4974913  46.9786493  76.2075433  55.9214913  46.4086493
  76.1705433  57.2524913  46.7326493  76.4295433  56.5234913  46.8586493
  77.3255433  49.7494913  31.6056493  77.4035433  49.9964913  30.7726493
  76.5825433  50.1264913  31.8636493  77.2275433  49.8414913  31.5206493
  74.9645433  66.8534913  47.2266493  75.0055433  66.9794913  48.0896493
  75.6155433  66.2934913  47.0706493  75.0665433  66.7894913  47.3316493
  72.1435433  51.5034913  44.0486493  71.8005433  50.7364913  43.8146493
  71.4485433  52.0274913  44.1126493  71.9905433  51.4674913  44.0236493
  72.5575433  65.2364913  48.5866493  73.1525433  65.6674913  49.0586493
  72.1935433  65.8604913  48.0976493  72.5915433  65.3924913  48.5836493
  70.7965433  54.8174913  38.0046493  70.4285433  55.1194913  38.7356493
  71.3305433  54.1884913  38.2886493  70.8205433  54.7694913  38.1546493
  70.4845433  63.2254913  45.5156493  69.9105433  63.6414913  46.0246493
  71.2175433  63.6904913  45.6106493  70.5085433  63.3554913  45.6046493
  72.2705433  66.4924913  34.2906493  72.1255433  66.6484913  33.4446493
  73.1365433  66.5714913  34.3686493  72.3775433  66.5274913  34.1776493
  76.4375433  58.8894913  34.0186493  76.5375433  59.0284913  33.1636493
  77.2555433  58.8294913  34.3146493  76.5725433  58.9004913  33.9356493
  75.5765433  51.8644913  47.1346493  75.8105433  51.2884913  46.5216493
  74.7345433  51.6834913  47.2756493  75.4865433  51.7524913  47.0646493
  72.9575433  65.3074913  40.7676493  72.8785433  64.4974913  40.4516493
  72.5135433  65.7944913  40.1956493  72.8805433  65.2594913  40.6366493
  70.5295433  67.5514913  44.3486493  71.0225433  67.4954913  45.0666493
  70.7175433  66.8184913  43.9136493  70.6305433  67.4344913  44.3906493
  69.6455433  61.1234913  17.6164083  69.2045433  61.2414913  18.3594083
  69.3625433  60.3484913  17.3314083  69.5385433  61.0264913  17.6844083
  69.3885433  54.9154913  14.1234083  68.6105433  55.0774913  13.7634083
  69.4275433  54.0444913  14.1454083  69.2795433  54.8104913  14.0734083
  72.5275433  60.1784913  12.7954083  72.1355433  59.8074913  12.1094083
  72.4475433  59.5804913  13.4244083  72.4575433  60.0354913  12.7864083
  72.1545433  61.8194913  16.6954083  72.7625433  61.6494913  17.2984083
  71.4035433  61.6794913  17.1164083  72.1335433  61.7734913  16.8464083
  76.4365433  51.1544913  16.6444083  76.3665433  51.8314913  16.0984083
  77.1775433  50.7664913  16.3954083  76.5355433  51.1974913  16.5264083
  71.0455433  64.9104913  12.7724083  71.5125433  64.9944913  12.0404083
  71.5005433  64.3324913  13.2414083  71.1815433  64.8374913  12.7334083
  69.5855433  63.8584913  23.8714083  69.7145433  63.5784913  24.6874083
  68.9755433  63.3174913  23.5624083  69.5145433  63.7374913  23.9464083
  76.1595433  61.3834913  28.9384083  75.9235433  61.3804913  29.7784083
  75.4115433  61.2354913  28.5144083  76.0135433  61.3604913  28.9994083
  71.0315433  58.3794913  18.0734083  70.5695433  57.9874913  17.4464083
  71.7315433  57.8664913  18.1654083  71.0665433  58.2464913  17.9944083
  75.5395433  53.9894913  23.4204083  76.2175433  54.0074913  22.8714083
  75.4945433  53.1534913  23.6654083  75.6325433  53.8684913  23.3754083
  76.1415433  64.5754913  26.2014083  76.2795433  65.3354913  25.7944083
  76.9325433  64.2104913  26.2284083  76.2785433  64.6344913  26.1454083
  73.0325433  56.4794913  18.0964083  73.8495433  56.2924913  18.3394083
  72.5555433  55.8654913  18.4924083  73.0825433  56.3614913  18.1914083
  77.2365433  62.4604913  20.7064083  77.5845433  61.6614913  20.7364083
  77.9015433  62.9644913  20.4514083  77.3865433  62.4164913  20.6734083
  77.2935433  61.9094913  16.9174083  77.6245433  61.2654913  17.4034083
  77.5335433  61.6984913  16.1064083  77.3775433  61.7834913  16.8694083
  73.6295433  51.5734913  17.3624083  73.3335433  52.0744913  16.7124083
  74.4965433  51.6514913  17.3054083  73.7135433  51.6594913  17.2584083
  76.6085433  50.7154913  19.5854083  76.6815433  51.5754913  19.7144083
  76.5705433  50.6404913  18.7174083  76.6135433  50.8314913  19.4764083
  69.4875433  56.1404913  21.0864083  69.2315433  56.9714913  21.0114083
  68.8235433  55.7574913  21.5034083  69.3515433  56.2064913  21.1374083
  69.3975433  65.8504913  18.9864083  68.8055433  66.4084913  18.6734083
  69.8235433  65.5814913  18.2744083  69.3735433  65.8924913  18.8354083
  75.2375433  63.6944913  16.4664083  74.6585433  63.4194913  17.0584083
  75.8615433  63.0854913  16.4914083  75.2445433  63.5644913  16.5574083
  72.5165433  50.9574913  21.5774083  71.9955433  50.3294913  21.2694083
  73.1075433  50.5204913  22.0484083  72.5275433  50.7994913  21.6014083
  75.8225433  53.0904913  30.8754083  75.9395433  52.6364913  30.1394083
  76.1105433  53.8884913  30.6724083  75.8825433  53.1414913  30.7364083
  70.9425433  64.5204913  16.9174083  71.5985433  63.9454913  16.9324083
  71.3315433  65.2694913  16.6964083  71.0975433  64.5454913  16.8874083
  71.5555433  52.6874913  29.8594083  70.7775433  52.2974913  29.7874083
  72.0465433  52.2754913  29.2684083  71.5125433  52.5684913  29.7614083
  71.7605433  63.0074913  20.4174083  72.1835433  62.6514913  19.7434083
  72.0845433  62.5854913  21.1094083  71.8705433  62.8924913  20.4204083
  74.9915433  65.8594913  19.7134083  75.8355433  65.9634913  19.5184083
  74.6945433  66.6774913  19.7814083  75.0725433  65.9954913  19.6944083
  78.2045433  50.3304913  29.0274083  78.3825433  49.5214913  28.7524083
  78.0615433  50.7714913  28.2884083  78.2095433  50.2764913  28.8774083
  73.9895433  67.0784913  25.4534083  74.2815433  67.0114913  26.2734083
  73.3635433  66.4734913  25.4084083  73.9405433  66.9794913  25.5684083
  68.9035433  53.2354913  27.4454083  68.8995433  53.8224913  28.0914083
  69.4975433  53.5474913  26.8884083  68.9905433  53.3684913  27.4584083
  78.3795433  63.7664913  12.7374083  78.1985433  64.3114913  13.3944083
  79.1455433  64.0564913  12.4364083  78.4655433  63.8904913  12.7904083
  69.8405433  52.8304913  16.3604083  69.7265433  51.9664913  16.3914083
  69.3655433  53.1244913  17.0304083  69.7535433  52.7464913  16.4634083
  71.9825433  65.2404913  24.5754083  71.2845433  64.7324913  24.7014083
  72.2425433  65.0354913  23.7674083  71.9175433  65.1354913  24.4744083
  79.1445433  54.0384913  15.1054083  78.6365433  53.3764913  14.8514083
  79.1965433  54.5424913  14.3954083  79.0775433  54.0154913  14.9634083
  77.7425433  53.3464913  19.5184083  77.8165433  53.9144913  18.8604083
  77.8635433  53.8384913  20.2284083  77.7705433  53.5034913  19.5264083
  73.3435433  64.0914913  27.1424083  74.1845433  64.1544913  26.9204083
  73.3065433  64.4884913  27.9184083  73.4625433  64.1594913  27.2244083
  72.3505433  49.1694913  17.8664083  72.8865433  49.8574913  17.8564083
  72.3535433  48.8954913  17.0384083  72.4295433  49.2304913  17.7424083
  75.3065433  59.6024913  21.8914083  75.4785433  59.3924913  22.7204083
  74.6515433  59.0684913  21.6754083  75.2355433  59.4924913  21.9824083
  76.0565433  59.5404913  24.4814083  76.1095433  60.3874913  24.6834083
  75.7715433  59.1704913  25.2184083  76.0225433  59.6104913  24.6194083
  68.8775433  63.9114913  30.6924083  69.6335433  64.2604913  30.9504083
  69.0545433  63.0584913  30.6354083  69.0155433  63.8364913  30.7224083
  72.7985433  52.9794913  19.5204083  73.0705433  52.5494913  18.8124083
  72.6225433  52.3434913  20.0914083  72.8125433  52.8224913  19.5004083
  72.6225433  60.4064913  19.0694083  73.4735433  60.3264913  18.8964083
  72.2655433  59.7244913  18.6574083  72.6955433  60.2934913  18.9824083
  71.3895433  67.1314913  20.3064083  70.7165433  66.6334913  20.0614083
  71.7925433  67.3164913  19.5554083  71.3495433  67.0854913  20.1594083
  70.9395433  54.0814913  22.6024083  71.7825433  54.3014913  22.5594083
  70.5505433  54.6544913  22.0714083  71.0065433  54.1984913  22.5174083
  74.9905433  60.4134913  17.3044083  75.7035433  60.9084913  17.3944083
  75.2125433  59.8464913  16.6784083  75.1285433  60.4024913  17.2254083
  69.1465433  62.0564913  20.6244083  68.4795433  62.5444913  20.9004083
  69.8265433  62.6014913  20.6534083  69.1485433  62.2084913  20.6694083
  76.7935433  55.7664913  30.7204083  76.3095433  56.3434913  31.1624083
  76.7655433  56.0614913  29.8994083  76.7175433  55.8954913  30.6644083
  69.2125433  58.7404913  15.7274083  69.0275433  57.9014913  15.8794083
  69.8715433  58.7044913  15.1574083  69.2825433  58.6114913  15.6654083
  69.3845433  62.9044913  15.3024083  69.9365433  63.4734913  15.6664083
  69.1525433  62.3894913  15.9674083  69.4315433  62.9124913  15.4544083
  73.5885433  61.9044913  22.3914083  74.0555433  62.1934913  23.0694083
  74.1605433  61.4264913  21.9374083  73.7425433  61.8764913  22.4244083
  69.2145433  61.3534913  12.9304083  69.9705433  60.9214913  12.9884083
  69.2295433  61.8854913  13.6214083  69.3285433  61.3684913  13.0414083
  70.1545433  59.5744913  20.9354083  70.5855433  59.4454913  20.1884083
  69.9495433  60.4224913  20.9094083  70.1875433  59.6804913  20.8214083
  76.5005433  53.1384913  14.5854083  76.4985433  53.0214913  13.7204083
  76.3195433  53.9864913  14.6774083  76.4735433  53.2464913  14.4714083
  74.2385433  63.0904913  19.2174083  74.3645433  63.9334913  19.4044083
  74.9065433  62.6914913  19.6134083  74.3565433  63.1564913  19.3034083
  72.3685433  56.5734913  29.0794083  71.8325433  56.0674913  29.5474083
  72.3885433  56.1834913  28.2994083  72.2915433  56.4404913  29.0334083
  72.8535433  55.9704913  14.2194083  72.7255433  55.5224913  14.9574083
  72.2715433  55.6284913  13.6674083  72.7485433  55.8534913  14.2474083
  73.0205433  57.8004913  20.8184083  72.2395433  57.7414913  20.4354083
  73.0925433  57.0484913  21.2554083  72.9155433  57.6814913  20.8264083
  73.4505433  57.5374913  24.2864083  73.4755433  56.8624913  23.7354083
  72.8045433  58.0334913  23.9744083  73.3595433  57.5104913  24.1594083
  77.5505433  66.3144913  23.6784083  77.2735433  65.6734913  23.1554083
  77.3425433  67.0404913  23.2404083  77.4795433  66.3274913  23.5364083
  71.2495433  58.8924913  29.8454083  71.2125433  59.3934913  29.1314083
  71.5805433  58.1404913  29.5504083  71.2925433  58.8544913  29.6964083
  77.1485433  63.9424913  29.2804083  77.5025433  63.7644913  30.0574083
  76.7125433  63.2134913  29.0814083  77.1365433  63.8084913  29.3664083
  78.1205433  54.6894913  21.9184083  78.6005433  55.3884913  22.1264083
  78.4935433  54.0424913  22.3694083  78.2465433  54.6974913  22.0154083
  75.2315433  66.4574913  15.8654083  75.0845433  65.6814913  16.2364083
  75.9205433  66.3104913  15.3504083  75.3115433  66.3204913  15.8444083
  74.9025433  50.2004913  13.8534083  74.9995433  50.0934913  14.7144083
  74.1945433  50.7064913  13.7884083  74.8125433  50.2594913  13.9714083
  77.5235433  65.9734913  14.2674083  78.1455433  66.1364913  14.8574083
  77.5595433  66.6644913  13.7354083  77.6205433  66.0994913  14.2764083
  72.0245433  58.5074913  15.0964083  72.3485433  57.7284913  14.8744083
  72.6705433  58.8754913  15.5514083  72.1675433  58.4464913  15.1304083
  69.0215433  50.1684913  16.0644083  69.1505433  49.4604913  15.5724083
  68.6545433  49.8504913  16.7894083  68.9865433  50.0164913  16.0994083
  78.7145433  57.8494913  16.5214083  78.7735433  58.4994913  17.1004083
  78.5255433  57.1534913  17.0124083  78.6955433  57.8424913  16.6794083
  73.2105433  52.3664913  13.0334083  72.6995433  52.4194913  12.3274083
  73.9945433  52.6064913  12.7374083  73.2505433  52.4094913  12.8854083
  77.9375433  59.8964913  20.9524083  77.0905433  59.7024913  21.0334083
  78.2615433  59.7314913  21.7454083  77.8595433  59.8434913  21.0814083
  74.6895433  66.6264913  11.8384083  75.1285433  65.9294913  12.1264083
  74.8965433  67.2504913  12.4114083  74.7855433  66.6154913  11.9654083
  71.7855433  59.5894913  23.2684083  72.5075433  60.0774913  23.2314083
  71.5155433  59.5594913  22.4394083  71.8525433  59.6574913  23.1404083
  75.0155433  54.7604913  20.0034083  75.8615433  54.5704913  20.1014083
  74.6455433  53.9834913  19.8654083  75.0855433  54.6174913  19.9974083
  69.8365433  56.0984913  16.6584083  70.3255433  55.8064913  17.3194083
  69.9655433  55.5054913  16.0314083  69.9275433  55.9674913  16.6634083
  74.3615433  57.5324913  12.1444083  73.7515433  57.1274913  12.6184083
  73.9755433  57.6504913  11.3714083  74.2145433  57.4894913  12.1004083
  71.1805433  60.6414913  27.5464083  70.7595433  60.1234913  26.9854083
  70.8285433  61.4274913  27.4034083  71.0665433  60.6814913  27.4424083
  75.8165433  55.9934913  14.8544083  76.0885433  56.8194913  14.9214083
  74.9535433  56.0684913  14.7584083  75.7295433  56.1264913  14.8494083
  69.2965433  51.9634913  21.3904083  69.3405433  52.3074913  20.5894083
  70.0515433  52.2004913  21.7574083  69.4145433  52.0494913  21.3264083
  75.9195433  62.4524913  24.1644083  75.6215433  63.0444913  24.7314083
  75.9745433  62.8944913  23.4154083  75.8835433  62.6054913  24.1374083
  73.8985433  61.4024913  27.5624083  73.0925433  61.1124913  27.7294083
  73.8095433  62.2704913  27.5684083  73.7665433  61.4874913  27.5874083
  78.4355433  58.8754913  23.6554083  78.9115433  59.2494913  24.2834083
  77.6125433  59.0094913  23.9144083  78.3845433  58.9504913  23.7864083
  75.1455433  54.4784913  26.3964083  75.3065433  53.7344913  26.8234083
  75.1005433  54.2294913  25.5614083  75.1625433  54.3314913  26.3364083
  77.6995433  66.2684913  18.8834083  78.2455433  66.9474913  18.9374083
  77.3495433  66.3504913  18.0884083  77.7285433  66.3814913  18.7734083
  76.8975433  50.2864913  26.2764083  77.6025433  50.6064913  25.8744083
  77.1385433  49.4794913  26.5034083  77.0365433  50.2144913  26.2504083
  75.8825433  64.4964913  22.2724083  75.2585433  65.0784913  22.0904083
  76.1305433  64.2104913  21.4864083  75.8265433  64.5404913  22.1294083
  77.4765433  59.2724913  12.1874083  76.6715433  59.0954913  11.9024083
  77.4435433  60.1234913  12.3794083  77.3525433  59.3714913  12.1744083
  73.4065433  55.3394913  22.3374083  73.8465433  55.2364913  21.5914083
  73.9515433  55.0264913  22.9424083  73.5515433  55.2784913  22.3164083
  78.5355433  66.1454913  28.1524083  79.0135433  65.5454913  27.7364083
  78.1845433  65.7024913  28.8174083  78.5545433  65.9914913  28.1894083
  76.9535433  50.3244913  22.3844083  76.1275433  50.1754913  22.6214083
  76.9135433  50.3594913  21.5134083  76.8255433  50.3074913  22.2904083
  78.5945433  61.3644913  27.1724083  77.7995433  61.3004913  27.5234083
  78.6655433  62.2114913  26.9774083  78.4875433  61.4794913  27.1954083
  69.5185433  50.7224913  28.4194083  69.3785433  51.5174913  28.0884083
  68.7325433  50.4794913  28.7084083  69.3815433  50.8044913  28.4134083
  74.4245433  67.5714913  22.4894083  74.4355433  67.6304913  23.3594083
  73.9995433  66.8244913  22.3394083  74.3635433  67.4694913  22.5954083
  72.5825433  53.4664913  15.6444083  72.7085433  53.1374913  14.8464083
  71.7705433  53.2174913  15.8434083  72.4815433  53.3814913  15.5564083
  71.1885433  67.0694913  27.9314083  70.5345433  66.5004913  28.0294083
  70.8135433  67.8424913  28.0824083  71.0365433  67.0994913  27.9684083
  72.5595433  55.4774913  26.0604083  72.9345433  56.0964913  25.5734083
  73.2335433  55.0034913  26.3454083  72.7145433  55.4994913  26.0304083
  70.3345433  53.9254913  25.3354083  70.4115433  53.7564913  24.4824083
  71.0805433  54.3314913  25.5324083  70.4555433  53.9604913  25.2384083
  72.8885433  51.3354913  27.7464083  72.8075433  50.4914913  27.9524083
  72.5745433  51.3794913  26.9334083  72.8305433  51.2174913  27.6564083
  69.7315433  59.1514913  25.5594083  70.0515433  59.3704913  24.7784083
  69.6315433  58.2864913  25.5044083  69.7635433  59.0564913  25.4364083
  71.1875433  55.0874913  12.1774083  70.5155433  55.1014913  12.7334083
  71.2825433  54.2394913  11.9934083  71.1025433  54.9644913  12.2324083
  75.1755433  63.7924913  13.2914083  75.6165433  63.8724913  14.0394083
  74.3705433  63.5764913  13.5494083  75.1215433  63.7724913  13.4404083
  74.4945433  58.4434913  26.9444083  74.0985433  59.2174913  27.0194083
  74.0885433  58.0704913  26.2684083  74.3765433  58.5024913  26.8554083
  72.5045433  62.8624913  13.8924083  72.2605433  62.5554913  14.6724083
  72.4715433  62.1594913  13.3764083  72.4635433  62.7134913  13.9314083
  75.3235433  61.1074913  12.6354083  74.5055433  60.8394913  12.7754083
  75.2955433  61.9594913  12.8204083  75.1985433  61.1944913  12.6834083
  74.9235433  51.4204913  24.3944083  74.0595433  51.5044913  24.4744083
  75.1435433  50.9064913  25.0634083  74.8285433  51.3574913  24.5054083
  76.5295433  56.4974913  27.9724083  76.2075433  55.9214913  27.4024083
  76.1705433  57.2524913  27.7264083  76.4295433  56.5234913  27.8524083
  77.3255433  49.7494913  12.5994083  77.4035433  49.9964913  11.7664083
  76.5825433  50.1264913  12.8574083  77.2275433  49.8414913  12.5144083
  74.9645433  66.8534913  28.2204083  75.0055433  66.9794913  29.0834083
  75.6155433  66.2934913  28.0644083  75.0665433  66.7894913  28.3254083
  72.1435433  51.5034913  25.0424083  71.8005433  50.7364913  24.8084083
  71.4485433  52.0274913  25.1064083  71.9905433  51.4674913  25.0174083
  72.5575433  65.2364913  29.5804083  73.1525433  65.6674913  30.0524083
  72.1935433  65.8604913  29.0914083  72.5915433  65.3924913  29.5774083
  70.7965433  54.8174913  18.9984083  70.4285433  55.1194913  19.7294083
  71.3305433  54.1884913  19.2824083  70.8205433  54.7694913  19.1484083
  70.4845433  63.2254913  26.5094083  69.9105433  63.6414913  27.0184083
  71.2175433  63.6904913  26.6044083  70.5085433  63.3554913  26.5984083
  72.2705433  66.4924913  15.2844083  72.1255433  66.6484913  14.4384083
  73.1365433  66.5714913  15.3624083  72.3775433  66.5274913  15.1714083
  76.4375433  58.8894913  15.0124083  76.5375433  59.0284913  14.1574083
  77.2555433  58.8294913  15.3084083  76.5725433  58.9004913  14.9294083
  75.5765433  51.8644913  28.1284083  75.8105433  51.2884913  27.5154083
  74.7345433  51.6834913  28.2694083  75.4865433  51.7524913  28.0584083
  72.9575433  65.3074913  21.7614083  72.8785433  64.4974913  21.4454083
  72.5135433  65.7944913  21.1894083  72.8805433  65.2594913  21.6304083
  70.5295433  67.5514913  25.3424083  71.0225433  67.4954913  26.0604083
  70.7175433  66.8184913  24.9074083  70.6305433  67.4344913  25.3844083
  69.5855433  63.8584913   4.8651673  69.7145433  63.5784913   5.6811673
  68.9755433  63.3174913   4.5561673  69.5145433  63.7374913   4.9401673
  76.1595433  61.3834913   9.9321673  75.9235433  61.3804913  10.7721673
  75.4115433  61.2354913   9.5081673  76.0135433  61.3604913   9.9931673
  75.5395433  53.9894913   4.4141673  76.2175433  54.0074913   3.8651673
  75.4945433  53.1534913   4.6591673  75.6325433  53.8684913   4.3691673
  76.1415433  64.5754913   7.1951673  76.2795433  65.3354913   6.7881673
  76.9325433  64.2104913   7.2221673  76.2785433  64.6344913   7.1391673
  69.4875433  56.1404913   2.0801673  69.2315433  56.9714913   2.0051673
  68.8235433  55.7574913   2.4971673  69.3515433  56.2064913   2.1311673
  72.5165433  50.9574913   2.5711673  71.9955433  50.3294913   2.2631673
  73.1075433  50.5204913   3.0421673  72.5275433  50.7994913   2.5951673
  75.8225433  53.0904913  11.8691673  75.9395433  52.6364913  11.1331673
  76.1105433  53.8884913  11.6661673  75.8825433  53.1414913  11.7301673
  71.5555433  52.6874913  10.8531673  70.7775433  52.2974913  10.7811673
  72.0465433  52.2754913  10.2621673  71.5125433  52.5684913  10.7551673
  78.2045433  50.3304913  10.0211673  78.3825433  49.5214913   9.7461673
  78.0615433  50.7714913   9.2821673  78.2095433  50.2764913   9.8711673
  73.9895433  67.0784913   6.4471673  74.2815433  67.0114913   7.2671673
  73.3635433  66.4734913   6.4021673  73.9405433  66.9794913   6.5621673
  68.9035433  53.2354913   8.4391673  68.8995433  53.8224913   9.0851673
  69.4975433  53.5474913   7.8821673  68.9905433  53.3684913   8.4521673
  71.9825433  65.2404913   5.5691673  71.2845433  64.7324913   5.6951673
  72.2425433  65.0354913   4.7611673  71.9175433  65.1354913   5.4681673
  73.3435433  64.0914913   8.1361673  74.1845433  64.1544913   7.9141673
  73.3065433  64.4884913   8.9121673  73.4625433  64.1594913   8.2181673
  75.3065433  59.6024913   2.8851673  75.4785433  59.3924913   3.7141673
  74.6515433  59.0684913   2.6691673  75.2355433  59.4924913   2.9761673
  76.0565433  59.5404913   5.4751673  76.1095433  60.3874913   5.6771673
  75.7715433  59.1704913   6.2121673  76.0225433  59.6104913   5.6131673
  68.8775433  63.9114913  11.6861673  69.6335433  64.2604913  11.9441673
  69.0545433  63.0584913  11.6291673  69.0155433  63.8364913  11.7161673
  70.9395433  54.0814913   3.5961673  71.7825433  54.3014913   3.5531673
  70.5505433  54.6544913   3.0651673  71.0065433  54.1984913   3.5111673
  76.7935433  55.7664913  11.7141673  76.3095433  56.3434913  12.1561673
  76.7655433  56.0614913  10.8931673  76.7175433  55.8954913  11.6581673
  73.5885433  61.9044913   3.3851673  74.0555433  62.1934913   4.0631673
  74.1605433  61.4264913   2.9311673  73.7425433  61.8764913   3.4181673
  72.3685433  56.5734913  10.0731673  71.8325433  56.0674913  10.5411673
  72.3885433  56.1834913   9.2931673  72.2915433  56.4404913  10.0271673
  73.4505433  57.5374913   5.2801673  73.4755433  56.8624913   4.7291673
  72.8045433  58.0334913   4.9681673  73.3595433  57.5104913   5.1531673
  77.5505433  66.3144913   4.6721673  77.2735433  65.6734913   4.1491673
  77.3425433  67.0404913   4.2341673  77.4795433  66.3274913   4.5301673
  71.2495433  58.8924913  10.8391673  71.2125433  59.3934913  10.1251673
  71.5805433  58.1404913  10.5441673  71.2925433  58.8544913  10.6901673
  77.1485433  63.9424913  10.2741673  77.5025433  63.7644913  11.0511673
  76.7125433  63.2134913  10.0751673  77.1365433  63.8084913  10.3601673
  78.1205433  54.6894913   2.9121673  78.6005433  55.3884913   3.1201673
  78.4935433  54.0424913   3.3631673  78.2465433  54.6974913   3.0091673
  77.9375433  59.8964913   1.9461673  77.0905433  59.7024913   2.0271673
  78.2615433  59.7314913   2.7391673  77.8595433  59.8434913   2.0751673
  71.7855433  59.5894913   4.2621673  72.5075433  60.0774913   4.2251673
  71.5155433  59.5594913   3.4331673  71.8525433  59.6574913   4.1341673
  71.1805433  60.6414913   8.5401673  70.7595433  60.1234913   7.9791673
  70.8285433  61.4274913   8.3971673  71.0665433  60.6814913   8.4361673
  75.9195433  62.4524913   5.1581673  75.6215433  63.0444913   5.7251673
  75.9745433  62.8944913   4.4091673  75.8835433  62.6054913   5.1311673
  73.8985433  61.4024913   8.5561673  73.0925433  61.1124913   8.7231673
  73.8095433  62.2704913   8.5621673  73.7665433  61.4874913   8.5811673
  78.4355433  58.8754913   4.6491673  78.9115433  59.2494913   5.2771673
  77.6125433  59.0094913   4.9081673  78.3845433  58.9504913   4.7801673
  75.1455433  54.4784913   7.3901673  75.3065433  53.7344913   7.8171673
  75.1005433  54.2294913   6.5551673  75.1625433  54.3314913   7.3301673
  76.8975433  50.2864913   7.2701673  77.6025433  50.6064913   6.8681673
  77.1385433  49.4794913   7.4971673  77.0365433  50.2144913   7.2441673
  75.8825433  64.4964913   3.2661673  75.2585433  65.0784913   3.0841673
  76.1305433  64.2104913   2.4801673  75.8265433  64.5404913   3.1231673
  73.4065433  55.3394913   3.3311673  73.8465433  55.2364913   2.5851673
  73.9515433  55.0264913   3.9361673  73.5515433  55.2784913   3.3101673
  78.5355433  66.1454913   9.1461673  79.0135433  65.5454913   8.7301673
  78.1845433  65.7024913   9.8111673  78.5545433  65.9914913   9.1831673
  76.9535433  50.3244913   3.3781673  76.1275433  50.1754913   3.6151673
  76.9135433  50.3594913   2.5071673  76.8255433  50.3074913   3.2841673
  78.5945433  61.3644913   8.1661673  77.7995433  61.3004913   8.5171673
  78.6655433  62.2114913   7.9711673  78.4875433  61.4794913   8.1891673
  69.5185433  50.7224913   9.4131673  69.3785433  51.5174913   9.0821673
  68.7325433  50.4794913   9.7021673  69.3815433  50.8044913   9.4071673
  74.4245433  67.5714913   3.4831673  74.4355433  67.6304913   4.3531673
  73.9995433  66.8244913   3.3331673  74.3635433  67.4694913   3.5891673
  71.1885433  67.0694913   8.9251673  70.5345433  66.5004913   9.0231673
  70.8135433  67.8424913   9.0761673  71.0365433  67.0994913   8.9621673
  72.5595433  55.4774913   7.0541673  72.9345433  56.0964913   6.5671673
  73.2335433  55.0034913   7.3391673  72.7145433  55.4994913   7.0241673
  70.3345433  53.9254913   6.3291673  70.4115433  53.7564913   5.4761673
  71.0805433  54.3314913   6.5261673  70.4555433  53.9604913   6.2321673
  72.8885433  51.3354913   8.7401673  72.8075433  50.4914913   8.9461673
  72.5745433  51.3794913   7.9271673  72.8305433  51.2174913   8.6501673
  69.7315433  59.1514913   6.5531673  70.0515433  59.3704913   5.7721673
  69.6315433  58.2864913   6.4981673  69.7635433  59.0564913   6.4301673
  74.4945433  58.4434913   7.9381673  74.0985433  59.2174913   8.0131673
  74.0885433  58.0704913   7.2621673  74.3765433  58.5024913   7.8491673
  74.9235433  51.4204913   5.3881673  74.0595433  51.5044913   5.4681673
  75.1435433  50.9064913   6.0571673  74.8285433  51.3574913   5.4991673
  76.5295433  56.4974913   8.9661673  76.2075433  55.9214913   8.3961673
  76.1705433  57.2524913   8.7201673  76.4295433  56.5234913   8.8461673
  74.9645433  66.8534913   9.2141673  75.0055433  66.9794913  10.0771673
  75.6155433  66.2934913   9.0581673  75.0665433  66.7894913   9.3191673
  72.1435433  51.5034913   6.0361673  71.8005433  50.7364913   5.8021673
  71.4485433  52.0274913   6.1001673  71.9905433  51.4674913   6.0111673
  72.5575433  65.2364913  10.5741673  73.1525433  65.6674913  11.0461673
  72.1935433  65.8604913  10.0851673  72.5915433  65.3924913  10.5711673
  70.4845433  63.2254913   7.5031673  69.9105433  63.6414913   8.0121673
  71.2175433  63.6904913   7.5981673  70.5085433  63.3554913   7.5921673
  75.5765433  51.8644913   9.1221673  75.8105433  51.2884913   8.5091673
  74.7345433  51.6834913   9.2631673  75.4865433  51.7524913   9.0521673
  72.9575433  65.3074913   2.7551673  72.8785433  64.4974913   2.4391673
  72.5135433  65.7944913   2.1831673  72.8805433  65.2594913   2.6241673
  70.5295433  67.5514913   6.3361673  71.0225433  67.4954913   7.0541673
  70.7175433  66.8184913   5.9011673  70.6305433  67.4344913   6.3781673
  69.6455433  42.6453833  74.6351313  69.2045433  42.7633833  75.3781313
  69.3625433  41.8703833  74.3501313  69.5385433  42.5483833  74.7031313
  69.3885433  36.4373833  71.1421313  68.6105433  36.5993833  70.7821313
  69.4275433  35.5663833  71.1641313  69.2795433  36.3323833  71.0921313
  72.5275433  41.7003833  69.8141313  72.1355433  41.3293833  69.1281313
  72.4475433  41.1023833  70.4431313  72.4575433  41.5573833  69.8051313
  72.1545433  43.3413833  73.7141313  72.7625433  43.1713833  74.3171313
  71.4035433  43.2013833  74.1351313  72.1335433  43.2953833  73.8651313
  76.4365433  32.6763833  73.6631313  76.3665433  33.3533833  73.1171313
  77.1775433  32.2883833  73.4141313  76.5355433  32.7193833  73.5451313
  71.0455433  46.4323833  69.7911313  71.5125433  46.5163833  69.0591313
  71.5005433  45.8543833  70.2601313  71.1815433  46.3593833  69.7521313
  71.0315433  39.9013833  75.0921313  70.5695433  39.5093833  74.4651313
  71.7315433  39.3883833  75.1841313  71.0665433  39.7683833  75.0131313
  73.0325433  38.0013833  75.1151313  73.8495433  37.8143833  75.3581313
  72.5555433  37.3873833  75.5111313  73.0825433  37.8833833  75.2101313
  77.2365433  43.9823833  77.7251313  77.5845433  43.1833833  77.7551313
  77.9015433  44.4863833  77.4701313  77.3865433  43.9383833  77.6921313
  77.2935433  43.4313833  73.9361313  77.6245433  42.7873833  74.4221313
  77.5335433  43.2203833  73.1251313  77.3775433  43.3053833  73.8881313
  73.6295433  33.0953833  74.3811313  73.3335433  33.5963833  73.7311313
  74.4965433  33.1733833  74.3241313  73.7135433  33.1813833  74.2771313
  76.6085433  32.2373833  76.6041313  76.6815433  33.0973833  76.7331313
  76.5705433  32.1623833  75.7361313  76.6135433  32.3533833  76.4951313
  69.4875433  37.6623833  78.1051313  69.2315433  38.4933833  78.0301313
  68.8235433  37.2793833  78.5221313  69.3515433  37.7283833  78.1561313
  69.3975433  47.3723833  76.0051313  68.8055433  47.9303833  75.6921313
  69.8235433  47.1033833  75.2931313  69.3735433  47.4143833  75.8541313
  75.2375433  45.2163833  73.4851313  74.6585433  44.9413833  74.0771313
  75.8615433  44.6073833  73.5101313  75.2445433  45.0863833  73.5761313
  70.9425433  46.0423833  73.9361313  71.5985433  45.4673833  73.9511313
  71.3315433  46.7913833  73.7151313  71.0975433  46.0673833  73.9061313
  71.7605433  44.5293833  77.4361313  72.1835433  44.1733833  76.7621313
  72.0845433  44.1073833  78.1281313  71.8705433  44.4143833  77.4391313
  74.9915433  47.3813833  76.7321313  75.8355433  47.4853833  76.5371313
  74.6945433  48.1993833  76.8001313  75.0725433  47.5173833  76.7131313
  78.3795433  45.2883833  69.7561313  78.1985433  45.8333833  70.4131313
  79.1455433  45.5783833  69.4551313  78.4655433  45.4123833  69.8091313
  69.8405433  34.3523833  73.3791313  69.7265433  33.4883833  73.4101313
  69.3655433  34.6463833  74.0491313  69.7535433  34.2683833  73.4821313
  79.1445433  35.5603833  72.1241313  78.6365433  34.8983833  71.8701313
  79.1965433  36.0643833  71.4141313  79.0775433  35.5373833  71.9821313
  77.7425433  34.8683833  76.5371313  77.8165433  35.4363833  75.8791313
  77.8635433  35.3603833  77.2471313  77.7705433  35.0253833  76.5451313
  72.3505433  30.6913833  74.8851313  72.8865433  31.3793833  74.8751313
  72.3535433  30.4173833  74.0571313  72.4295433  30.7523833  74.7611313
  72.7985433  34.5013833  76.5391313  73.0705433  34.0713833  75.8311313
  72.6225433  33.8653833  77.1101313  72.8125433  34.3443833  76.5191313
  72.6225433  41.9283833  76.0881313  73.4735433  41.8483833  75.9151313
  72.2655433  41.2463833  75.6761313  72.6955433  41.8153833  76.0011313
  71.3895433  48.6533833  77.3251313  70.7165433  48.1553833  77.0801313
  71.7925433  48.8383833  76.5741313  71.3495433  48.6073833  77.1781313
  74.9905433  41.9353833  74.3231313  75.7035433  42.4303833  74.4131313
  75.2125433  41.3683833  73.6971313  75.1285433  41.9243833  74.2441313
  69.1465433  43.5783833  77.6431313  68.4795433  44.0663833  77.9191313
  69.8265433  44.1233833  77.6721313  69.1485433  43.7303833  77.6881313
  69.2125433  40.2623833  72.7461313  69.0275433  39.4233833  72.8981313
  69.8715433  40.2263833  72.1761313  69.2825433  40.1333833  72.6841313
  69.3845433  44.4263833  72.3211313  69.9365433  44.9953833  72.6851313
  69.1525433  43.9113833  72.9861313  69.4315433  44.4343833  72.4731313
  69.2145433  42.8753833  69.9491313  69.9705433  42.4433833  70.0071313
  69.2295433  43.4073833  70.6401313  69.3285433  42.8903833  70.0601313
  70.1545433  41.0963833  77.9541313  70.5855433  40.9673833  77.2071313
  69.9495433  41.9443833  77.9281313  70.1875433  41.2023833  77.8401313
  76.5005433  34.6603833  71.6041313  76.4985433  34.5433833  70.7391313
  76.3195433  35.5083833  71.6961313  76.4735433  34.7683833  71.4901313
  74.2385433  44.6123833  76.2361313  74.3645433  45.4553833  76.4231313
  74.9065433  44.2133833  76.6321313  74.3565433  44.6783833  76.3221313
  72.8535433  37.4923833  71.2381313  72.7255433  37.0443833  71.9761313
  72.2715433  37.1503833  70.6861313  72.7485433  37.3753833  71.2661313
  73.0205433  39.3223833  77.8371313  72.2395433  39.2633833  77.4541313
  73.0925433  38.5703833  78.2741313  72.9155433  39.2033833  77.8451313
  75.2315433  47.9793833  72.8841313  75.0845433  47.2033833  73.2551313
  75.9205433  47.8323833  72.3691313  75.3115433  47.8423833  72.8631313
  74.9025433  31.7223833  70.8721313  74.9995433  31.6153833  71.7331313
  74.1945433  32.2283833  70.8071313  74.8125433  31.7813833  70.9901313
  77.5235433  47.4953833  71.2861313  78.1455433  47.6583833  71.8761313
  77.5595433  48.1863833  70.7541313  77.6205433  47.6213833  71.2951313
  72.0245433  40.0293833  72.1151313  72.3485433  39.2503833  71.8931313
  72.6705433  40.3973833  72.5701313  72.1675433  39.9683833  72.1491313
  69.0215433  31.6903833  73.0831313  69.1505433  30.9823833  72.5911313
  68.6545433  31.3723833  73.8081313  68.9865433  31.5383833  73.1181313
  78.7145433  39.3713833  73.5401313  78.7735433  40.0213833  74.1191313
  78.5255433  38.6753833  74.0311313  78.6955433  39.3643833  73.6981313
  73.2105433  33.8883833  70.0521313  72.6995433  33.9413833  69.3461313
  73.9945433  34.1283833  69.7561313  73.2505433  33.9313833  69.9041313
  77.9375433  41.4183833  77.9711313  77.0905433  41.2243833  78.0521313
  78.2615433  41.2533833  78.7641313  77.8595433  41.3653833  78.1001313
  74.6895433  48.1483833  68.8571313  75.1285433  47.4513833  69.1451313
  74.8965433  48.7723833  69.4301313  74.7855433  48.1373833  68.9841313
  75.0155433  36.2823833  77.0221313  75.8615433  36.0923833  77.1201313
  74.6455433  35.5053833  76.8841313  75.0855433  36.1393833  77.0161313
  69.8365433  37.6203833  73.6771313  70.3255433  37.3283833  74.3381313
  69.9655433  37.0273833  73.0501313  69.9275433  37.4893833  73.6821313
  74.3615433  39.0543833  69.1631313  73.7515433  38.6493833  69.6371313
  73.9755433  39.1723833  68.3901313  74.2145433  39.0113833  69.1191313
  75.8165433  37.5153833  71.8731313  76.0885433  38.3413833  71.9401313
  74.9535433  37.5903833  71.7771313  75.7295433  37.6483833  71.8681313
  69.2965433  33.4853833  78.4091313  69.3405433  33.8293833  77.6081313
  70.0515433  33.7223833  78.7761313  69.4145433  33.5713833  78.3451313
  77.6995433  47.7903833  75.9021313  78.2455433  48.4693833  75.9561313
  77.3495433  47.8723833  75.1071313  77.7285433  47.9033833  75.7921313
  77.4765433  40.7943833  69.2061313  76.6715433  40.6173833  68.9211313
  77.4435433  41.6453833  69.3981313  77.3525433  40.8933833  69.1931313
  72.5825433  34.9883833  72.6631313  72.7085433  34.6593833  71.8651313
  71.7705433  34.7393833  72.8621313  72.4815433  34.9033833  72.5751313
  71.1875433  36.6093833  69.1961313  70.5155433  36.6233833  69.7521313
  71.2825433  35.7613833  69.0121313  71.1025433  36.4863833  69.2511313
  75.1755433  45.3143833  70.3101313  75.6165433  45.3943833  71.0581313
  74.3705433  45.0983833  70.5681313  75.1215433  45.2943833  70.4591313
  72.5045433  44.3843833  70.9111313  72.2605433  44.0773833  71.6911313
  72.4715433  43.6813833  70.3951313  72.4635433  44.2353833  70.9501313
  75.3235433  42.6293833  69.6541313  74.5055433  42.3613833  69.7941313
  75.2955433  43.4813833  69.8391313  75.1985433  42.7163833  69.7021313
  77.3255433  31.2713833  69.6181313  77.4035433  31.5183833  68.7851313
  76.5825433  31.6483833  69.8761313  77.2275433  31.3633833  69.5331313
  70.7965433  36.3393833  76.0171313  70.4285433  36.6413833  76.7481313
  71.3305433  35.7103833  76.3011313  70.8205433  36.2913833  76.1671313
  72.2705433  48.0143833  72.3031313  72.1255433  48.1703833  71.4571313
  73.1365433  48.0933833  72.3811313  72.3775433  48.0493833  72.1901313
  76.4375433  40.4113833  72.0311313  76.5375433  40.5503833  71.1761313
  77.2555433  40.3513833  72.3271313  76.5725433  40.4223833  71.9481313
  72.9575433  46.8293833  78.7801313  72.8785433  46.0193833  78.4641313
  72.5135433  47.3163833  78.2081313  72.8805433  46.7813833  78.6491313
  69.6455433  42.6453833  55.6288903  69.2045433  42.7633833  56.3718903
  69.3625433  41.8703833  55.3438903  69.5385433  42.5483833  55.6968903
  69.3885433  36.4373833  52.1358903  68.6105433  36.5993833  51.7758903
  69.4275433  35.5663833  52.1578903  69.2795433  36.3323833  52.0858903
  72.5275433  41.7003833  50.8078903  72.1355433  41.3293833  50.1218903
  72.4475433  41.1023833  51.4368903  72.4575433  41.5573833  50.7988903
  72.1545433  43.3413833  54.7078903  72.7625433  43.1713833  55.3108903
  71.4035433  43.2013833  55.1288903  72.1335433  43.2953833  54.8588903
  76.4365433  32.6763833  54.6568903  76.3665433  33.3533833  54.1108903
  77.1775433  32.2883833  54.4078903  76.5355433  32.7193833  54.5388903
  71.0455433  46.4323833  50.7848903  71.5125433  46.5163833  50.0528903
  71.5005433  45.8543833  51.2538903  71.1815433  46.3593833  50.7458903
  69.5855433  45.3803833  61.8838903  69.7145433  45.1003833  62.6998903
  68.9755433  44.8393833  61.5748903  69.5145433  45.2593833  61.9588903
  76.1595433  42.9053833  66.9508903  75.9235433  42.9023833  67.7908903
  75.4115433  42.7573833  66.5268903  76.0135433  42.8823833  67.0118903
  71.0315433  39.9013833  56.0858903  70.5695433  39.5093833  55.4588903
  71.7315433  39.3883833  56.1778903  71.0665433  39.7683833  56.0068903
  75.5395433  35.5113833  61.4328903  76.2175433  35.5293833  60.8838903
  75.4945433  34.6753833  61.6778903  75.6325433  35.3903833  61.3878903
  76.1415433  46.0973833  64.2138903  76.2795433  46.8573833  63.8068903
  76.9325433  45.7323833  64.2408903  76.2785433  46.1563833  64.1578903
  73.0325433  38.0013833  56.1088903  73.8495433  37.8143833  56.3518903
  72.5555433  37.3873833  56.5048903  73.0825433  37.8833833  56.2038903
  77.2365433  43.9823833  58.7188903  77.5845433  43.1833833  58.7488903
  77.9015433  44.4863833  58.4638903  77.3865433  43.9383833  58.6858903
  77.2935433  43.4313833  54.9298903  77.6245433  42.7873833  55.4158903
  77.5335433  43.2203833  54.1188903  77.3775433  43.3053833  54.8818903
  73.6295433  33.0953833  55.3748903  73.3335433  33.5963833  54.7248903
  74.4965433  33.1733833  55.3178903  73.7135433  33.1813833  55.2708903
  76.6085433  32.2373833  57.5978903  76.6815433  33.0973833  57.7268903
  76.5705433  32.1623833  56.7298903  76.6135433  32.3533833  57.4888903
  69.4875433  37.6623833  59.0988903  69.2315433  38.4933833  59.0238903
  68.8235433  37.2793833  59.5158903  69.3515433  37.7283833  59.1498903
  69.3975433  47.3723833  56.9988903  68.8055433  47.9303833  56.6858903
  69.8235433  47.1033833  56.2868903  69.3735433  47.4143833  56.8478903
  75.2375433  45.2163833  54.4788903  74.6585433  44.9413833  55.0708903
  75.8615433  44.6073833  54.5038903  75.2445433  45.0863833  54.5698903
  72.5165433  32.4793833  59.5898903  71.9955433  31.8513833  59.2818903
  73.1075433  32.0423833  60.0608903  72.5275433  32.3213833  59.6138903
  75.8225433  34.6123833  68.8878903  75.9395433  34.1583833  68.1518903
  76.1105433  35.4103833  68.6848903  75.8825433  34.6633833  68.7488903
  70.9425433  46.0423833  54.9298903  71.5985433  45.4673833  54.9448903
  71.3315433  46.7913833  54.7088903  71.0975433  46.0673833  54.8998903
  71.5555433  34.2093833  67.8718903  70.7775433  33.8193833  67.7998903
  72.0465433  33.7973833  67.2808903  71.5125433  34.0903833  67.7738903
  71.7605433  44.5293833  58.4298903  72.1835433  44.1733833  57.7558903
  72.0845433  44.1073833  59.1218903  71.8705433  44.4143833  58.4328903
  74.9915433  47.3813833  57.7258903  75.8355433  47.4853833  57.5308903
  74.6945433  48.1993833  57.7938903  75.0725433  47.5173833  57.7068903
  78.2045433  31.8523833  67.0398903  78.3825433  31.0433833  66.7648903
  78.0615433  32.2933833  66.3008903  78.2095433  31.7983833  66.8898903
  73.9895433  48.6003833  63.4658903  74.2815433  48.5333833  64.2858903
  73.3635433  47.9953833  63.4208903  73.9405433  48.5013833  63.5808903
  68.9035433  34.7573833  65.4578903  68.8995433  35.3443833  66.1038903
  69.4975433  35.0693833  64.9008903  68.9905433  34.8903833  65.4708903
  78.3795433  45.2883833  50.7498903  78.1985433  45.8333833  51.4068903
  79.1455433  45.5783833  50.4488903  78.4655433  45.4123833  50.8028903
  69.8405433  34.3523833  54.3728903  69.7265433  33.4883833  54.4038903
  69.3655433  34.6463833  55.0428903  69.7535433  34.2683833  54.4758903
  71.9825433  46.7623833  62.5878903  71.2845433  46.2543833  62.7138903
  72.2425433  46.5573833  61.7798903  71.9175433  46.6573833  62.4868903
  79.1445433  35.5603833  53.1178903  78.6365433  34.8983833  52.8638903
  79.1965433  36.0643833  52.4078903  79.0775433  35.5373833  52.9758903
  77.7425433  34.8683833  57.5308903  77.8165433  35.4363833  56.8728903
  77.8635433  35.3603833  58.2408903  77.7705433  35.0253833  57.5388903
  73.3435433  45.6133833  65.1548903  74.1845433  45.6763833  64.9328903
  73.3065433  46.0103833  65.9308903  73.4625433  45.6813833  65.2368903
  72.3505433  30.6913833  55.8788903  72.8865433  31.3793833  55.8688903
  72.3535433  30.4173833  55.0508903  72.4295433  30.7523833  55.7548903
  75.3065433  41.1243833  59.9038903  75.4785433  40.9143833  60.7328903
  74.6515433  40.5903833  59.6878903  75.2355433  41.0143833  59.9948903
  76.0565433  41.0623833  62.4938903  76.1095433  41.9093833  62.6958903
  75.7715433  40.6923833  63.2308903  76.0225433  41.1323833  62.6318903
  68.8775433  45.4333833  68.7048903  69.6335433  45.7823833  68.9628903
  69.0545433  44.5803833  68.6478903  69.0155433  45.3583833  68.7348903
  72.7985433  34.5013833  57.5328903  73.0705433  34.0713833  56.8248903
  72.6225433  33.8653833  58.1038903  72.8125433  34.3443833  57.5128903
  72.6225433  41.9283833  57.0818903  73.4735433  41.8483833  56.9088903
  72.2655433  41.2463833  56.6698903  72.6955433  41.8153833  56.9948903
  71.3895433  48.6533833  58.3188903  70.7165433  48.1553833  58.0738903
  71.7925433  48.8383833  57.5678903  71.3495433  48.6073833  58.1718903
  70.9395433  35.6033833  60.6148903  71.7825433  35.8233833  60.5718903
  70.5505433  36.1763833  60.0838903  71.0065433  35.7203833  60.5298903
  74.9905433  41.9353833  55.3168903  75.7035433  42.4303833  55.4068903
  75.2125433  41.3683833  54.6908903  75.1285433  41.9243833  55.2378903
  69.1465433  43.5783833  58.6368903  68.4795433  44.0663833  58.9128903
  69.8265433  44.1233833  58.6658903  69.1485433  43.7303833  58.6818903
  76.7935433  37.2883833  68.7328903  76.3095433  37.8653833  69.1748903
  76.7655433  37.5833833  67.9118903  76.7175433  37.4173833  68.6768903
  69.2125433  40.2623833  53.7398903  69.0275433  39.4233833  53.8918903
  69.8715433  40.2263833  53.1698903  69.2825433  40.1333833  53.6778903
  69.3845433  44.4263833  53.3148903  69.9365433  44.9953833  53.6788903
  69.1525433  43.9113833  53.9798903  69.4315433  44.4343833  53.4668903
  73.5885433  43.4263833  60.4038903  74.0555433  43.7153833  61.0818903
  74.1605433  42.9483833  59.9498903  73.7425433  43.3983833  60.4368903
  69.2145433  42.8753833  50.9428903  69.9705433  42.4433833  51.0008903
  69.2295433  43.4073833  51.6338903  69.3285433  42.8903833  51.0538903
  70.1545433  41.0963833  58.9478903  70.5855433  40.9673833  58.2008903
  69.9495433  41.9443833  58.9218903  70.1875433  41.2023833  58.8338903
  76.5005433  34.6603833  52.5978903  76.4985433  34.5433833  51.7328903
  76.3195433  35.5083833  52.6898903  76.4735433  34.7683833  52.4838903
  74.2385433  44.6123833  57.2298903  74.3645433  45.4553833  57.4168903
  74.9065433  44.2133833  57.6258903  74.3565433  44.6783833  57.3158903
  72.3685433  38.0953833  67.0918903  71.8325433  37.5893833  67.5598903
  72.3885433  37.7053833  66.3118903  72.2915433  37.9623833  67.0458903
  72.8535433  37.4923833  52.2318903  72.7255433  37.0443833  52.9698903
  72.2715433  37.1503833  51.6798903  72.7485433  37.3753833  52.2598903
  73.0205433  39.3223833  58.8308903  72.2395433  39.2633833  58.4478903
  73.0925433  38.5703833  59.2678903  72.9155433  39.2033833  58.8388903
  73.4505433  39.0593833  62.2988903  73.4755433  38.3843833  61.7478903
  72.8045433  39.5553833  61.9868903  73.3595433  39.0323833  62.1718903
  77.5505433  47.8363833  61.6908903  77.2735433  47.1953833  61.1678903
  77.3425433  48.5623833  61.2528903  77.4795433  47.8493833  61.5488903
  71.2495433  40.4143833  67.8578903  71.2125433  40.9153833  67.1438903
  71.5805433  39.6623833  67.5628903  71.2925433  40.3763833  67.7088903
  77.1485433  45.4643833  67.2928903  77.5025433  45.2863833  68.0698903
  76.7125433  44.7353833  67.0938903  77.1365433  45.3303833  67.3788903
  78.1205433  36.2113833  59.9308903  78.6005433  36.9103833  60.1388903
  78.4935433  35.5643833  60.3818903  78.2465433  36.2193833  60.0278903
  75.2315433  47.9793833  53.8778903  75.0845433  47.2033833  54.2488903
  75.9205433  47.8323833  53.3628903  75.3115433  47.8423833  53.8568903
  74.9025433  31.7223833  51.8658903  74.9995433  31.6153833  52.7268903
  74.1945433  32.2283833  51.8008903  74.8125433  31.7813833  51.9838903
  77.5235433  47.4953833  52.2798903  78.1455433  47.6583833  52.8698903
  77.5595433  48.1863833  51.7478903  77.6205433  47.6213833  52.2888903
  72.0245433  40.0293833  53.1088903  72.3485433  39.2503833  52.8868903
  72.6705433  40.3973833  53.5638903  72.1675433  39.9683833  53.1428903
  69.0215433  31.6903833  54.0768903  69.1505433  30.9823833  53.5848903
  68.6545433  31.3723833  54.8018903  68.9865433  31.5383833  54.1118903
  78.7145433  39.3713833  54.5338903  78.7735433  40.0213833  55.1128903
  78.5255433  38.6753833  55.0248903  78.6955433  39.3643833  54.6918903
  73.2105433  33.8883833  51.0458903  72.6995433  33.9413833  50.3398903
  73.9945433  34.1283833  50.7498903  73.2505433  33.9313833  50.8978903
  77.9375433  41.4183833  58.9648903  77.0905433  41.2243833  59.0458903
  78.2615433  41.2533833  59.7578903  77.8595433  41.3653833  59.0938903
  74.6895433  48.1483833  49.8508903  75.1285433  47.4513833  50.1388903
  74.8965433  48.7723833  50.4238903  74.7855433  48.1373833  49.9778903
  71.7855433  41.1113833  61.2808903  72.5075433  41.5993833  61.2438903
  71.5155433  41.0813833  60.4518903  71.8525433  41.1793833  61.1528903
  75.0155433  36.2823833  58.0158903  75.8615433  36.0923833  58.1138903
  74.6455433  35.5053833  57.8778903  75.0855433  36.1393833  58.0098903
  69.8365433  37.6203833  54.6708903  70.3255433  37.3283833  55.3318903
  69.9655433  37.0273833  54.0438903  69.9275433  37.4893833  54.6758903
  74.3615433  39.0543833  50.1568903  73.7515433  38.6493833  50.6308903
  73.9755433  39.1723833  49.3838903  74.2145433  39.0113833  50.1128903
  71.1805433  42.1633833  65.5588903  70.7595433  41.6453833  64.9978903
  70.8285433  42.9493833  65.4158903  71.0665433  42.2033833  65.4548903
  75.8165433  37.5153833  52.8668903  76.0885433  38.3413833  52.9338903
  74.9535433  37.5903833  52.7708903  75.7295433  37.6483833  52.8618903
  69.2965433  33.4853833  59.4028903  69.3405433  33.8293833  58.6018903
  70.0515433  33.7223833  59.7698903  69.4145433  33.5713833  59.3388903
  75.9195433  43.9743833  62.1768903  75.6215433  44.5663833  62.7438903
  75.9745433  44.4163833  61.4278903  75.8835433  44.1273833  62.1498903
  73.8985433  42.9243833  65.5748903  73.0925433  42.6343833  65.7418903
  73.8095433  43.7923833  65.5808903  73.7665433  43.0093833  65.5998903
  78.4355433  40.3973833  61.6678903  78.9115433  40.7713833  62.2958903
  77.6125433  40.5313833  61.9268903  78.3845433  40.4723833  61.7988903
  75.1455433  36.0003833  64.4088903  75.3065433  35.2563833  64.8358903
  75.1005433  35.7513833  63.5738903  75.1625433  35.8533833  64.3488903
  77.6995433  47.7903833  56.8958903  78.2455433  48.4693833  56.9498903
  77.3495433  47.8723833  56.1008903  77.7285433  47.9033833  56.7858903
  76.8975433  31.8083833  64.2888903  77.6025433  32.1283833  63.8868903
  77.1385433  31.0013833  64.5158903  77.0365433  31.7363833  64.2628903
  75.8825433  46.0183833  60.2848903  75.2585433  46.6003833  60.1028903
  76.1305433  45.7323833  59.4988903  75.8265433  46.0623833  60.1418903
  77.4765433  40.7943833  50.1998903  76.6715433  40.6173833  49.9148903
  77.4435433  41.6453833  50.3918903  77.3525433  40.8933833  50.1868903
  73.4065433  36.8613833  60.3498903  73.8465433  36.7583833  59.6038903
  73.9515433  36.5483833  60.9548903  73.5515433  36.8003833  60.3288903
  78.5355433  47.6673833  66.1648903  79.0135433  47.0673833  65.7488903
  78.1845433  47.2243833  66.8298903  78.5545433  47.5133833  66.2018903
  76.9535433  31.8463833  60.3968903  76.1275433  31.6973833  60.6338903
  76.9135433  31.8813833  59.5258903  76.8255433  31.8293833  60.3028903
  78.5945433  42.8863833  65.1848903  77.7995433  42.8223833  65.5358903
  78.6655433  43.7333833  64.9898903  78.4875433  43.0013833  65.2078903
  69.5185433  32.2443833  66.4318903  69.3785433  33.0393833  66.1008903
  68.7325433  32.0013833  66.7208903  69.3815433  32.3263833  66.4258903
  74.4245433  49.0933833  60.5018903  74.4355433  49.1523833  61.3718903
  73.9995433  48.3463833  60.3518903  74.3635433  48.9913833  60.6078903
  72.5825433  34.9883833  53.6568903  72.7085433  34.6593833  52.8588903
  71.7705433  34.7393833  53.8558903  72.4815433  34.9033833  53.5688903
  71.1885433  48.5913833  65.9438903  70.5345433  48.0223833  66.0418903
  70.8135433  49.3643833  66.0948903  71.0365433  48.6213833  65.9808903
  72.5595433  36.9993833  64.0728903  72.9345433  37.6183833  63.5858903
  73.2335433  36.5253833  64.3578903  72.7145433  37.0213833  64.0428903
  70.3345433  35.4473833  63.3478903  70.4115433  35.2783833  62.4948903
  71.0805433  35.8533833  63.5448903  70.4555433  35.4823833  63.2508903
  72.8885433  32.8573833  65.7588903  72.8075433  32.0133833  65.9648903
  72.5745433  32.9013833  64.9458903  72.8305433  32.7393833  65.6688903
  69.7315433  40.6733833  63.5718903  70.0515433  40.8923833  62.7908903
  69.6315433  39.8083833  63.5168903  69.7635433  40.5783833  63.4488903
  71.1875433  36.6093833  50.1898903  70.5155433  36.6233833  50.7458903
  71.2825433  35.7613833  50.0058903  71.1025433  36.4863833  50.2448903
  75.1755433  45.3143833  51.3038903  75.6165433  45.3943833  52.0518903
  74.3705433  45.0983833  51.5618903  75.1215433  45.2943833  51.4528903
  74.4945433  39.9653833  64.9568903  74.0985433  40.7393833  65.0318903
  74.0885433  39.5923833  64.2808903  74.3765433  40.0243833  64.8678903
  72.5045433  44.3843833  51.9048903  72.2605433  44.0773833  52.6848903
  72.4715433  43.6813833  51.3888903  72.4635433  44.2353833  51.9438903
  75.3235433  42.6293833  50.6478903  74.5055433  42.3613833  50.7878903
  75.2955433  43.4813833  50.8328903  75.1985433  42.7163833  50.6958903
  74.9235433  32.9423833  62.4068903  74.0595433  33.0263833  62.4868903
  75.1435433  32.4283833  63.0758903  74.8285433  32.8793833  62.5178903
  76.5295433  38.0193833  65.9848903  76.2075433  37.4433833  65.4148903
  76.1705433  38.7743833  65.7388903  76.4295433  38.0453833  65.8648903
  77.3255433  31.2713833  50.6118903  77.4035433  31.5183833  49.7788903
  76.5825433  31.6483833  50.8698903  77.2275433  31.3633833  50.5268903
  74.9645433  48.3753833  66.2328903  75.0055433  48.5013833  67.0958903
  75.6155433  47.8153833  66.0768903  75.0665433  48.3113833  66.3378903
  72.1435433  33.0253833  63.0548903  71.8005433  32.2583833  62.8208903
  71.4485433  33.5493833  63.1188903  71.9905433  32.9893833  63.0298903
  72.5575433  46.7583833  67.5928903  73.1525433  47.1893833  68.0648903
  72.1935433  47.3823833  67.1038903  72.5915433  46.9143833  67.5898903
  70.7965433  36.3393833  57.0108903  70.4285433  36.6413833  57.7418903
  71.3305433  35.7103833  57.2948903  70.8205433  36.2913833  57.1608903
  70.4845433  44.7473833  64.5218903  69.9105433  45.1633833  65.0308903
  71.2175433  45.2123833  64.6168903  70.5085433  44.8773833  64.6108903
  72.2705433  48.0143833  53.2968903  72.1255433  48.1703833  52.4508903
  73.1365433  48.0933833  53.3748903  72.3775433  48.0493833  53.1838903
  76.4375433  40.4113833  53.0248903  76.5375433  40.5503833  52.1698903
  77.2555433  40.3513833  53.3208903  76.5725433  40.4223833  52.9418903
  75.5765433  33.3863833  66.1408903  75.8105433  32.8103833  65.5278903
  74.7345433  33.2053833  66.2818903  75.4865433  33.2743833  66.0708903
  72.9575433  46.8293833  59.7738903  72.8785433  46.0193833  59.4578903
  72.5135433  47.3163833  59.2018903  72.8805433  46.7813833  59.6428903
  70.5295433  49.0733833  63.3548903  71.0225433  49.0173833  64.0728903
  70.7175433  48.3403833  62.9198903  70.6305433  48.9563833  63.3968903
  69.6455433  42.6453833  36.6226493  69.2045433  42.7633833  37.3656493
  69.3625433  41.8703833  36.3376493  69.5385433  42.5483833  36.6906493
  69.3885433  36.4373833  33.1296493  68.6105433  36.5993833  32.7696493
  69.4275433  35.5663833  33.1516493  69.2795433  36.3323833  33.0796493
  72.5275433  41.7003833  31.8016493  72.1355433  41.3293833  31.1156493
  72.4475433  41.1023833  32.4306493  72.4575433  41.5573833  31.7926493
  72.1545433  43.3413833  35.7016493  72.7625433  43.1713833  36.3046493
  71.4035433  43.2013833  36.1226493  72.1335433  43.2953833  35.8526493
  76.4365433  32.6763833  35.6506493  76.3665433  33.3533833  35.1046493
  77.1775433  32.2883833  35.4016493  76.5355433  32.7193833  35.5326493
  71.0455433  46.4323833  31.7786493  71.5125433  46.5163833  31.0466493
  71.5005433  45.8543833  32.2476493  71.1815433  46.3593833  31.7396493
  69.5855433  45.3803833  42.8776493  69.7145433  45.1003833  43.6936493
  68.9755433  44.8393833  42.5686493  69.5145433  45.2593833  42.9526493
  76.1595433  42.9053833  47.9446493  75.9235433  42.9023833  48.7846493
  75.4115433  42.7573833  47.5206493  76.0135433  42.8823833  48.0056493
  71.0315433  39.9013833  37.0796493  70.5695433  39.5093833  36.4526493
  71.7315433  39.3883833  37.1716493  71.0665433  39.7683833  37.0006493
  75.5395433  35.5113833  42.4266493  76.2175433  35.5293833  41.8776493
  75.4945433  34.6753833  42.6716493  75.6325433  35.3903833  42.3816493
  76.1415433  46.0973833  45.2076493  76.2795433  46.8573833  44.8006493
  76.9325433  45.7323833  45.2346493  76.2785433  46.1563833  45.1516493
  73.0325433  38.0013833  37.1026493  73.8495433  37.8143833  37.3456493
  72.5555433  37.3873833  37.4986493  73.0825433  37.8833833  37.1976493
  77.2365433  43.9823833  39.7126493  77.5845433  43.1833833  39.7426493
  77.9015433  44.4863833  39.4576493  77.3865433  43.9383833  39.6796493
  77.2935433  43.4313833  35.9236493  77.6245433  42.7873833  36.4096493
  77.5335433  43.2203833  35.1126493  77.3775433  43.3053833  35.8756493
  73.6295433  33.0953833  36.3686493  73.3335433  33.5963833  35.7186493
  74.4965433  33.1733833  36.3116493  73.7135433  33.1813833  36.2646493
  76.6085433  32.2373833  38.5916493  76.6815433  33.0973833  38.7206493
  76.5705433  32.1623833  37.7236493  76.6135433  32.3533833  38.4826493
  69.4875433  37.6623833  40.0926493  69.2315433  38.4933833  40.0176493
  68.8235433  37.2793833  40.5096493  69.3515433  37.7283833  40.1436493
  69.3975433  47.3723833  37.9926493  68.8055433  47.9303833  37.6796493
  69.8235433  47.1033833  37.2806493  69.3735433  47.4143833  37.8416493
  75.2375433  45.2163833  35.4726493  74.6585433  44.9413833  36.0646493
  75.8615433  44.6073833  35.4976493  75.2445433  45.0863833  35.5636493
  72.5165433  32.4793833  40.5836493  71.9955433  31.8513833  40.2756493
  73.1075433  32.0423833  41.0546493  72.5275433  32.3213833  40.6076493
  75.8225433  34.6123833  49.8816493  75.9395433  34.1583833  49.1456493
  76.1105433  35.4103833  49.6786493  75.8825433  34.6633833  49.7426493
  70.9425433  46.0423833  35.9236493  71.5985433  45.4673833  35.9386493
  71.3315433  46.7913833  35.7026493  71.0975433  46.0673833  35.8936493
  71.5555433  34.2093833  48.8656493  70.7775433  33.8193833  48.7936493
  72.0465433  33.7973833  48.2746493  71.5125433  34.0903833  48.7676493
  71.7605433  44.5293833  39.4236493  72.1835433  44.1733833  38.7496493
  72.0845433  44.1073833  40.1156493  71.8705433  44.4143833  39.4266493
  74.9915433  47.3813833  38.7196493  75.8355433  47.4853833  38.5246493
  74.6945433  48.1993833  38.7876493  75.0725433  47.5173833  38.7006493
  78.2045433  31.8523833  48.0336493  78.3825433  31.0433833  47.7586493
  78.0615433  32.2933833  47.2946493  78.2095433  31.7983833  47.8836493
  73.9895433  48.6003833  44.4596493  74.2815433  48.5333833  45.2796493
  73.3635433  47.9953833  44.4146493  73.9405433  48.5013833  44.5746493
  68.9035433  34.7573833  46.4516493  68.8995433  35.3443833  47.0976493
  69.4975433  35.0693833  45.8946493  68.9905433  34.8903833  46.4646493
  78.3795433  45.2883833  31.7436493  78.1985433  45.8333833  32.4006493
  79.1455433  45.5783833  31.4426493  78.4655433  45.4123833  31.7966493
  69.8405433  34.3523833  35.3666493  69.7265433  33.4883833  35.3976493
  69.3655433  34.6463833  36.0366493  69.7535433  34.2683833  35.4696493
  71.9825433  46.7623833  43.5816493  71.2845433  46.2543833  43.7076493
  72.2425433  46.5573833  42.7736493  71.9175433  46.6573833  43.4806493
  79.1445433  35.5603833  34.1116493  78.6365433  34.8983833  33.8576493
  79.1965433  36.0643833  33.4016493  79.0775433  35.5373833  33.9696493
  77.7425433  34.8683833  38.5246493  77.8165433  35.4363833  37.8666493
  77.8635433  35.3603833  39.2346493  77.7705433  35.0253833  38.5326493
  73.3435433  45.6133833  46.1486493  74.1845433  45.6763833  45.9266493
  73.3065433  46.0103833  46.9246493  73.4625433  45.6813833  46.2306493
  72.3505433  30.6913833  36.8726493  72.8865433  31.3793833  36.8626493
  72.3535433  30.4173833  36.0446493  72.4295433  30.7523833  36.7486493
  75.3065433  41.1243833  40.8976493  75.4785433  40.9143833  41.7266493
  74.6515433  40.5903833  40.6816493  75.2355433  41.0143833  40.9886493
  76.0565433  41.0623833  43.4876493  76.1095433  41.9093833  43.6896493
  75.7715433  40.6923833  44.2246493  76.0225433  41.1323833  43.6256493
  68.8775433  45.4333833  49.6986493  69.6335433  45.7823833  49.9566493
  69.0545433  44.5803833  49.6416493  69.0155433  45.3583833  49.7286493
  72.7985433  34.5013833  38.5266493  73.0705433  34.0713833  37.8186493
  72.6225433  33.8653833  39.0976493  72.8125433  34.3443833  38.5066493
  72.6225433  41.9283833  38.0756493  73.4735433  41.8483833  37.9026493
  72.2655433  41.2463833  37.6636493  72.6955433  41.8153833  37.9886493
  71.3895433  48.6533833  39.3126493  70.7165433  48.1553833  39.0676493
  71.7925433  48.8383833  38.5616493  71.3495433  48.6073833  39.1656493
  70.9395433  35.6033833  41.6086493  71.7825433  35.8233833  41.5656493
  70.5505433  36.1763833  41.0776493  71.0065433  35.7203833  41.5236493
  74.9905433  41.9353833  36.3106493  75.7035433  42.4303833  36.4006493
  75.2125433  41.3683833  35.6846493  75.1285433  41.9243833  36.2316493
  69.1465433  43.5783833  39.6306493  68.4795433  44.0663833  39.9066493
  69.8265433  44.1233833  39.6596493  69.1485433  43.7303833  39.6756493
  76.7935433  37.2883833  49.7266493  76.3095433  37.8653833  50.1686493
  76.7655433  37.5833833  48.9056493  76.7175433  37.4173833  49.6706493
  69.2125433  40.2623833  34.7336493  69.0275433  39.4233833  34.8856493
  69.8715433  40.2263833  34.1636493  69.2825433  40.1333833  34.6716493
  69.3845433  44.4263833  34.3086493  69.9365433  44.9953833  34.6726493
  69.1525433  43.9113833  34.9736493  69.4315433  44.4343833  34.4606493
  73.5885433  43.4263833  41.3976493  74.0555433  43.7153833  42.0756493
  74.1605433  42.9483833  40.9436493  73.7425433  43.3983833  41.4306493
  69.2145433  42.8753833  31.9366493  69.9705433  42.4433833  31.9946493
  69.2295433  43.4073833  32.6276493  69.3285433  42.8903833  32.0476493
  70.1545433  41.0963833  39.9416493  70.5855433  40.9673833  39.1946493
  69.9495433  41.9443833  39.9156493  70.1875433  41.2023833  39.8276493
  76.5005433  34.6603833  33.5916493  76.4985433  34.5433833  32.7266493
  76.3195433  35.5083833  33.6836493  76.4735433  34.7683833  33.4776493
  74.2385433  44.6123833  38.2236493  74.3645433  45.4553833  38.4106493
  74.9065433  44.2133833  38.6196493  74.3565433  44.6783833  38.3096493
  72.3685433  38.0953833  48.0856493  71.8325433  37.5893833  48.5536493
  72.3885433  37.7053833  47.3056493  72.2915433  37.9623833  48.0396493
  72.8535433  37.4923833  33.2256493  72.7255433  37.0443833  33.9636493
  72.2715433  37.1503833  32.6736493  72.7485433  37.3753833  33.2536493
  73.0205433  39.3223833  39.8246493  72.2395433  39.2633833  39.4416493
  73.0925433  38.5703833  40.2616493  72.9155433  39.2033833  39.8326493
  73.4505433  39.0593833  43.2926493  73.4755433  38.3843833  42.7416493
  72.8045433  39.5553833  42.9806493  73.3595433  39.0323833  43.1656493
  77.5505433  47.8363833  42.6846493  77.2735433  47.1953833  42.1616493
  77.3425433  48.5623833  42.2466493  77.4795433  47.8493833  42.5426493
  71.2495433  40.4143833  48.8516493  71.2125433  40.9153833  48.1376493
  71.5805433  39.6623833  48.5566493  71.2925433  40.3763833  48.7026493
  77.1485433  45.4643833  48.2866493  77.5025433  45.2863833  49.0636493
  76.7125433  44.7353833  48.0876493  77.1365433  45.3303833  48.3726493
  78.1205433  36.2113833  40.9246493  78.6005433  36.9103833  41.1326493
  78.4935433  35.5643833  41.3756493  78.2465433  36.2193833  41.0216493
  75.2315433  47.9793833  34.8716493  75.0845433  47.2033833  35.2426493
  75.9205433  47.8323833  34.3566493  75.3115433  47.8423833  34.8506493
  74.9025433  31.7223833  32.8596493  74.9995433  31.6153833  33.7206493
  74.1945433  32.2283833  32.7946493  74.8125433  31.7813833  32.9776493
  77.5235433  47.4953833  33.2736493  78.1455433  47.6583833  33.8636493
  77.5595433  48.1863833  32.7416493  77.6205433  47.6213833  33.2826493
  72.0245433  40.0293833  34.1026493  72.3485433  39.2503833  33.8806493
  72.6705433  40.3973833  34.5576493  72.1675433  39.9683833  34.1366493
  69.0215433  31.6903833  35.0706493  69.1505433  30.9823833  34.5786493
  68.6545433  31.3723833  35.7956493  68.9865433  31.5383833  35.1056493
  78.7145433  39.3713833  35.5276493  78.7735433  40.0213833  36.1066493
  78.5255433  38.6753833  36.0186493  78.6955433  39.3643833  35.6856493
  73.2105433  33.8883833  32.0396493  72.6995433  33.9413833  31.3336493
  73.9945433  34.1283833  31.7436493  73.2505433  33.9313833  31.8916493
  77.9375433  41.4183833  39.9586493  77.0905433  41.2243833  40.0396493
  78.2615433  41.2533833  40.7516493  77.8595433  41.3653833  40.0876493
  74.6895433  48.1483833  30.8446493  75.1285433  47.4513833  31.1326493
  74.8965433  48.7723833  31.4176493  74.7855433  48.1373833  30.9716493
  71.7855433  41.1113833  42.2746493  72.5075433  41.5993833  42.2376493
  71.5155433  41.0813833  41.4456493  71.8525433  41.1793833  42.1466493
  75.0155433  36.2823833  39.0096493  75.8615433  36.0923833  39.1076493
  74.6455433  35.5053833  38.8716493  75.0855433  36.1393833  39.0036493
  69.8365433  37.6203833  35.6646493  70.3255433  37.3283833  36.3256493
  69.9655433  37.0273833  35.0376493  69.9275433  37.4893833  35.6696493
  74.3615433  39.0543833  31.1506493  73.7515433  38.6493833  31.6246493
  73.9755433  39.1723833  30.3776493  74.2145433  39.0113833  31.1066493
  71.1805433  42.1633833  46.5526493  70.7595433  41.6453833  45.9916493
  70.8285433  42.9493833  46.4096493  71.0665433  42.2033833  46.4486493
  75.8165433  37.5153833  33.8606493  76.0885433  38.3413833  33.9276493
  74.9535433  37.5903833  33.7646493  75.7295433  37.6483833  33.8556493
  69.2965433  33.4853833  40.3966493  69.3405433  33.8293833  39.5956493
  70.0515433  33.7223833  40.7636493  69.4145433  33.5713833  40.3326493
  75.9195433  43.9743833  43.1706493  75.6215433  44.5663833  43.7376493
  75.9745433  44.4163833  42.4216493  75.8835433  44.1273833  43.1436493
  73.8985433  42.9243833  46.5686493  73.0925433  42.6343833  46.7356493
  73.8095433  43.7923833  46.5746493  73.7665433  43.0093833  46.5936493
  78.4355433  40.3973833  42.6616493  78.9115433  40.7713833  43.2896493
  77.6125433  40.5313833  42.9206493  78.3845433  40.4723833  42.7926493
  75.1455433  36.0003833  45.4026493  75.3065433  35.2563833  45.8296493
  75.1005433  35.7513833  44.5676493  75.1625433  35.8533833  45.3426493
  77.6995433  47.7903833  37.8896493  78.2455433  48.4693833  37.9436493
  77.3495433  47.8723833  37.0946493  77.7285433  47.9033833  37.7796493
  76.8975433  31.8083833  45.2826493  77.6025433  32.1283833  44.8806493
  77.1385433  31.0013833  45.5096493  77.0365433  31.7363833  45.2566493
  75.8825433  46.0183833  41.2786493  75.2585433  46.6003833  41.0966493
  76.1305433  45.7323833  40.4926493  75.8265433  46.0623833  41.1356493
  77.4765433  40.7943833  31.1936493  76.6715433  40.6173833  30.9086493
  77.4435433  41.6453833  31.3856493  77.3525433  40.8933833  31.1806493
  73.4065433  36.8613833  41.3436493  73.8465433  36.7583833  40.5976493
  73.9515433  36.5483833  41.9486493  73.5515433  36.8003833  41.3226493
  78.5355433  47.6673833  47.1586493  79.0135433  47.0673833  46.7426493
  78.1845433  47.2243833  47.8236493  78.5545433  47.5133833  47.1956493
  76.9535433  31.8463833  41.3906493  76.1275433  31.6973833  41.6276493
  76.9135433  31.8813833  40.5196493  76.8255433  31.8293833  41.2966493
  78.5945433  42.8863833  46.1786493  77.7995433  42.8223833  46.5296493
  78.6655433  43.7333833  45.9836493  78.4875433  43.0013833  46.2016493
  69.5185433  32.2443833  47.4256493  69.3785433  33.0393833  47.0946493
  68.7325433  32.0013833  47.7146493  69.3815433  32.3263833  47.4196493
  74.4245433  49.0933833  41.4956493  74.4355433  49.1523833  42.3656493
  73.9995433  48.3463833  41.3456493  74.3635433  48.9913833  41.6016493
  72.5825433  34.9883833  34.6506493  72.7085433  34.6593833  33.8526493
  71.7705433  34.7393833  34.8496493  72.4815433  34.9033833  34.5626493
  71.1885433  48.5913833  46.9376493  70.5345433  48.0223833  47.0356493
  70.8135433  49.3643833  47.0886493  71.0365433  48.6213833  46.9746493
  72.5595433  36.9993833  45.0666493  72.9345433  37.6183833  44.5796493
  73.2335433  36.5253833  45.3516493  72.7145433  37.0213833  45.0366493
  70.3345433  35.4473833  44.3416493  70.4115433  35.2783833  43.4886493
  71.0805433  35.8533833  44.5386493  70.4555433  35.4823833  44.2446493
  72.8885433  32.8573833  46.7526493  72.8075433  32.0133833  46.9586493
  72.5745433  32.9013833  45.9396493  72.8305433  32.7393833  46.6626493
  69.7315433  40.6733833  44.5656493  70.0515433  40.8923833  43.7846493
  69.6315433  39.8083833  44.5106493  69.7635433  40.5783833  44.4426493
  71.1875433  36.6093833  31.1836493  70.5155433  36.6233833  31.7396493
  71.2825433  35.7613833  30.9996493  71.1025433  36.4863833  31.2386493
  75.1755433  45.3143833  32.2976493  75.6165433  45.3943833  33.0456493
  74.3705433  45.0983833  32.5556493  75.1215433  45.2943833  32.4466493
  74.4945433  39.9653833  45.9506493  74.0985433  40.7393833  46.0256493
  74.0885433  39.5923833  45.2746493  74.3765433  40.0243833  45.8616493
  72.5045433  44.3843833  32.8986493  72.2605433  44.0773833  33.6786493
  72.4715433  43.6813833  32.3826493  72.4635433  44.2353833  32.9376493
  75.3235433  42.6293833  31.6416493  74.5055433  42.3613833  31.7816493
  75.2955433  43.4813833  31.8266493  75.1985433  42.7163833  31.6896493
  74.9235433  32.9423833  43.4006493  74.0595433  33.0263833  43.4806493
  75.1435433  32.4283833  44.0696493  74.8285433  32.8793833  43.5116493
  76.5295433  38.0193833  46.9786493  76.2075433  37.4433833  46.4086493
  76.1705433  38.7743833  46.7326493  76.4295433  38.0453833  46.8586493
  77.3255433  31.2713833  31.6056493  77.4035433  31.5183833  30.7726493
  76.5825433  31.6483833  31.8636493  77.2275433  31.3633833  31.5206493
  74.9645433  48.3753833  47.2266493  75.0055433  48.5013833  48.0896493
  75.6155433  47.8153833  47.0706493  75.0665433  48.3113833  47.3316493
  72.1435433  33.0253833  44.0486493  71.8005433  32.2583833  43.8146493
  71.4485433  33.5493833  44.1126493  71.9905433  32.9893833  44.0236493
  72.5575433  46.7583833  48.5866493  73.1525433  47.1893833  49.0586493
  72.1935433  47.3823833  48.0976493  72.5915433  46.9143833  48.5836493
  70.7965433  36.3393833  38.0046493  70.4285433  36.6413833  38.7356493
  71.3305433  35.7103833  38.2886493  70.8205433  36.2913833  38.1546493
  70.4845433  44.7473833  45.5156493  69.9105433  45.1633833  46.0246493
  71.2175433  45.2123833  45.6106493  70.5085433  44.8773833  45.6046493
  72.2705433  48.0143833  34.2906493  72.1255433  48.1703833  33.4446493
  73.1365433  48.0933833  34.3686493  72.3775433  48.0493833  34.1776493
  76.4375433  40.4113833  34.0186493  76.5375433  40.5503833  33.1636493
  77.2555433  40.3513833  34.3146493  76.5725433  40.4223833  33.9356493
  75.5765433  33.3863833  47.1346493  75.8105433  32.8103833  46.5216493
  74.7345433  33.2053833  47.2756493  75.4865433  33.2743833  47.0646493
  72.9575433  46.8293833  40.7676493  72.8785433  46.0193833  40.4516493
  72.5135433  47.3163833  40.1956493  72.8805433  46.7813833  40.6366493
  70.5295433  49.0733833  44.3486493  71.0225433  49.0173833  45.0666493
  70.7175433  48.3403833  43.9136493  70.6305433  48.9563833  44.3906493
  69.6455433  42.6453833  17.6164083  69.2045433  42.7633833  18.3594083
  69.3625433  41.8703833  17.3314083  69.5385433  42.5483833  17.6844083
  69.3885433  36.4373833  14.1234083  68.6105433  36.5993833  13.7634083
  69.4275433  35.5663833  14.1454083  69.2795433  36.3323833  14.0734083
  72.5275433  41.7003833  12.7954083  72.1355433  41.3293833  12.1094083
  72.4475433  41.1023833  13.4244083  72.4575433  41.5573833  12.7864083
  72.1545433  43.3413833  16.6954083  72.7625433  43.1713833  17.2984083
  71.4035433  43.2013833  17.1164083  72.1335433  43.2953833  16.8464083
  76.4365433  32.6763833  16.6444083  76.3665433  33.3533833  16.0984083
  77.1775433  32.2883833  16.3954083  76.5355433  32.7193833  16.5264083
  71.0455433  46.4323833  12.7724083  71.5125433  46.5163833  12.0404083
  71.5005433  45.8543833  13.2414083  71.1815433  46.3593833  12.7334083
  69.5855433  45.3803833  23.8714083  69.7145433  45.1003833  24.6874083
  68.9755433  44.8393833  23.5624083  69.5145433  45.2593833  23.9464083
  76.1595433  42.9053833  28.9384083  75.9235433  42.9023833  29.7784083
  75.4115433  42.7573833  28.5144083  76.0135433  42.8823833  28.9994083
  71.0315433  39.9013833  18.0734083  70.5695433  39.5093833  17.4464083
  71.7315433  39.3883833  18.1654083  71.0665433  39.7683833  17.9944083
  75.5395433  35.5113833  23.4204083  76.2175433  35.5293833  22.8714083
  75.4945433  34.6753833  23.6654083  75.6325433  35.3903833  23.3754083
  76.1415433  46.0973833  26.2014083  76.2795433  46.8573833  25.7944083
  76.9325433  45.7323833  26.2284083  76.2785433  46.1563833  26.1454083
  73.0325433  38.0013833  18.0964083  73.8495433  37.8143833  18.3394083
  72.5555433  37.3873833  18.4924083  73.0825433  37.8833833  18.1914083
  77.2365433  43.9823833  20.7064083  77.5845433  43.1833833  20.7364083
  77.9015433  44.4863833  20.4514083  77.3865433  43.9383833  20.6734083
  77.2935433  43.4313833  16.9174083  77.6245433  42.7873833  17.4034083
  77.5335433  43.2203833  16.1064083  77.3775433  43.3053833  16.8694083
  73.6295433  33.0953833  17.3624083  73.3335433  33.5963833  16.7124083
  74.4965433  33.1733833  17.3054083  73.7135433  33.1813833  17.2584083
  76.6085433  32.2373833  19.5854083  76.6815433  33.0973833  19.7144083
  76.5705433  32.1623833  18.7174083  76.6135433  32.3533833  19.4764083
  69.4875433  37.6623833  21.0864083  69.2315433  38.4933833  21.0114083
  68.8235433  37.2793833  21.5034083  69.3515433  37.7283833  21.1374083
  69.3975433  47.3723833  18.9864083  68.8055433  47.9303833  18.6734083
  69.8235433  47.1033833  18.2744083  69.3735433  47.4143833  18.8354083
  75.2375433  45.2163833  16.4664083  74.6585433  44.9413833  17.0584083
  75.8615433  44.6073833  16.4914083  75.2445433  45.0863833  16.5574083
  72.5165433  32.4793833  21.5774083  71.9955433  31.8513833  21.2694083
  73.1075433  32.0423833  22.0484083  72.5275433  32.3213833  21.6014083
  75.8225433  34.6123833  30.8754083  75.9395433  34.1583833  30.1394083
  76.1105433  35.4103833  30.6724083  75.8825433  34.6633833  30.7364083
  70.9425433  46.0423833  16.9174083  71.5985433  45.4673833  16.9324083
  71.3315433  46.7913833  16.6964083  71.0975433  46.0673833  16.8874083
  71.5555433  34.2093833  29.8594083  70.7775433  33.8193833  29.7874083
  72.0465433  33.7973833  29.2684083  71.5125433  34.0903833  29.7614083
  71.7605433  44.5293833  20.4174083  72.1835433  44.1733833  19.7434083
  72.0845433  44.1073833  21.1094083  71.8705433  44.4143833  20.4204083
  74.9915433  47.3813833  19.7134083  75.8355433  47.4853833  19.5184083
  74.6945433  48.1993833  19.7814083  75.0725433  47.5173833  19.6944083
  78.2045433  31.8523833  29.0274083  78.3825433  31.0433833  28.7524083
  78.0615433  32.2933833  28.2884083  78.2095433  31.7983833  28.8774083
  73.9895433  48.6003833  25.4534083  74.2815433  48.5333833  26.2734083
  73.3635433  47.9953833  25.4084083  73.9405433  48.5013833  25.5684083
  68.9035433  34.7573833  27.4454083  68.8995433  35.3443833  28.0914083
  69.4975433  35.0693833  26.8884083  68.9905433  34.8903833  27.4584083
  78.3795433  45.2883833  12.7374083  78.1985433  45.8333833  13.3944083
  79.1455433  45.5783833  12.4364083  78.4655433  45.4123833  12.7904083
  69.8405433  34.3523833  16.3604083  69.7265433  33.4883833  16.3914083
  69.3655433  34.6463833  17.0304083  69.7535433  34.2683833  16.4634083
  71.9825433  46.7623833  24.5754083  71.2845433  46.2543833  24.7014083
  72.2425433  46.5573833  23.7674083  71.9175433  46.6573833  24.4744083
  79.1445433  35.5603833  15.1054083  78.6365433  34.8983833  14.8514083
  79.1965433  36.0643833  14.3954083  79.0775433  35.5373833  14.9634083
  77.7425433  34.8683833  19.5184083  77.8165433  35.4363833  18.8604083
  77.8635433  35.3603833  20.2284083  77.7705433  35.0253833  19.5264083
  73.3435433  45.6133833  27.1424083  74.1845433  45.6763833  26.9204083
  73.3065433  46.0103833  27.9184083  73.4625433  45.6813833  27.2244083
  72.3505433  30.6913833  17.8664083  72.8865433  31.3793833  17.8564083
  72.3535433  30.4173833  17.0384083  72.4295433  30.7523833  17.7424083
  75.3065433  41.1243833  21.8914083  75.4785433  40.9143833  22.7204083
  74.6515433  40.5903833  21.6754083  75.2355433  41.0143833  21.9824083
  76.0565433  41.0623833  24.4814083  76.1095433  41.9093833  24.6834083
  75.7715433  40.6923833  25.2184083  76.0225433  41.1323833  24.6194083
  68.8775433  45.4333833  30.6924083  69.6335433  45.7823833  30.9504083
  69.0545433  44.5803833  30.6354083  69.0155433  45.3583833  30.7224083
  72.7985433  34.5013833  19.5204083  73.0705433  34.0713833  18.8124083
  72.6225433  33.8653833  20.0914083  72.8125433  34.3443833  19.5004083
  72.6225433  41.9283833  19.0694083  73.4735433  41.8483833  18.8964083
  72.2655433  41.2463833  18.6574083  72.6955433  41.8153833  18.9824083
  71.3895433  48.6533833  20.3064083  70.7165433  48.1553833  20.0614083
  71.7925433  48.8383833  19.5554083  71.3495433  48.6073833  20.1594083
  70.9395433  35.6033833  22.6024083  71.7825433  35.8233833  22.5594083
  70.5505433  36.1763833  22.0714083  71.0065433  35.7203833  22.5174083
  74.9905433  41.9353833  17.3044083  75.7035433  42.4303833  17.3944083
  75.2125433  41.3683833  16.6784083  75.1285433  41.9243833  17.2254083
  69.1465433  43.5783833  20.6244083  68.4795433  44.0663833  20.9004083
  69.8265433  44.1233833  20.6534083  69.1485433  43.7303833  20.6694083
  76.7935433  37.2883833  30.7204083  76.3095433  37.8653833  31.1624083
  76.7655433  37.5833833  29.8994083  76.7175433  37.4173833  30.6644083
  69.2125433  40.2623833  15.7274083  69.0275433  39.4233833  15.8794083
  69.8715433  40.2263833  15.1574083  69.2825433  40.1333833  15.6654083
  69.3845433  44.4263833  15.3024083  69.9365433  44.9953833  15.6664083
  69.1525433  43.9113833  15.9674083  69.4315433  44.4343833  15.4544083
  73.5885433  43.4263833  22.3914083  74.0555433  43.7153833  23.0694083
  74.1605433  42.9483833  21.9374083  73.7425433  43.3983833  22.4244083
  69.2145433  42.8753833  12.9304083  69.9705433  42.4433833  12.9884083
  69.2295433  43.4073833  13.6214083  69.3285433  42.8903833  13.0414083
  70.1545433  41.0963833  20.9354083  70.5855433  40.9673833  20.1884083
  69.9495433  41.9443833  20.9094083  70.1875433  41.2023833  20.8214083
  76.5005433  34.6603833  14.5854083  76.4985433  34.5433833  13.7204083
  76.3195433  35.5083833  14.6774083  76.4735433  34.7683833  14.4714083
  74.2385433  44.6123833  19.2174083  74.3645433  45.4553833  19.4044083
  74.9065433  44.2133833  19.6134083  74.3565433  44.6783833  19.3034083
  72.3685433  38.0953833  29.0794083  71.8325433  37.5893833  29.5474083
  72.3885433  37.7053833  28.2994083  72.2915433  37.9623833  29.0334083
  72.8535433  37.4923833  14.2194083  72.7255433  37.0443833  14.9574083
  72.2715433  37.1503833  13.6674083  72.7485433  37.3753833  14.2474083
  73.0205433  39.3223833  20.8184083  72.2395433  39.2633833  20.4354083
  73.0925433  38.5703833  21.2554083  72.9155433  39.2033833  20.8264083
  73.4505433  39.0593833  24.2864083  73.4755433  38.3843833  23.7354083
  72.8045433  39.5553833  23.9744083  73.3595433  39.0323833  24.1594083
  77.5505433  47.8363833  23.6784083  77.2735433  47.1953833  23.1554083
  77.3425433  48.5623833  23.2404083  77.4795433  47.8493833  23.5364083
  71.2495433  40.4143833  29.8454083  71.2125433  40.9153833  29.1314083
  71.5805433  39.6623833  29.5504083  71.2925433  40.3763833  29.6964083
  77.1485433  45.4643833  29.2804083  77.5025433  45.2863833  30.0574083
  76.7125433  44.7353833  29.0814083  77.1365433  45.3303833  29.3664083
  78.1205433  36.2113833  21.9184083  78.6005433  36.9103833  22.1264083
  78.4935433  35.5643833  22.3694083  78.2465433  36.2193833  22.0154083
  75.2315433  47.9793833  15.8654083  75.0845433  47.2033833  16.2364083
  75.9205433  47.8323833  15.3504083  75.3115433  47.8423833  15.8444083
  74.9025433  31.7223833  13.8534083  74.9995433  31.6153833  14.7144083
  74.1945433  32.2283833  13.7884083  74.8125433  31.7813833  13.9714083
  77.5235433  47.4953833  14.2674083  78.1455433  47.6583833  14.8574083
  77.5595433  48.1863833  13.7354083  77.6205433  47.6213833  14.2764083
  72.0245433  40.0293833  15.0964083  72.3485433  39.2503833  14.8744083
  72.6705433  40.3973833  15.5514083  72.1675433  39.9683833  15.1304083
  69.0215433  31.6903833  16.0644083  69.1505433  30.9823833  15.5724083
  68.6545433  31.3723833  16.7894083  68.9865433  31.5383833  16.0994083
  78.7145433  39.3713833  16.5214083  78.7735433  40.0213833  17.1004083
  78.5255433  38.6753833  17.0124083  78.6955433  39.3643833  16.6794083
  73.2105433  33.8883833  13.0334083  72.6995433  33.9413833  12.3274083
  73.9945433  34.1283833  12.7374083  73.2505433  33.9313833  12.8854083
  77.9375433  41.4183833  20.9524083  77.0905433  41.2243833  21.0334083
  78.2615433  41.2533833  21.7454083  77.8595433  41.3653833  21.0814083
  74.6895433  48.1483833  11.8384083  75.1285433  47.4513833  12.1264083
  74.8965433  48.7723833  12.4114083  74.7855433  48.1373833  11.9654083
  71.7855433  41.1113833  23.2684083  72.5075433  41.5993833  23.2314083
  71.5155433  41.0813833  22.4394083  71.8525433  41.1793833  23.1404083
  75.0155433  36.2823833  20.0034083  75.8615433  36.0923833  20.1014083
  74.6455433  35.5053833  19.8654083  75.0855433  36.1393833  19.9974083
  69.8365433  37.6203833  16.6584083  70.3255433  37.3283833  17.3194083
  69.9655433  37.0273833  16.0314083  69.9275433  37.4893833  16.6634083
  74.3615433  39.0543833  12.1444083  73.7515433  38.6493833  12.6184083
  73.9755433  39.1723833  11.3714083  74.2145433  39.0113833  12.1004083
  71.1805433  42.1633833  27.5464083  70.7595433  41.6453833  26.9854083
  70.8285433  42.9493833  27.4034083  71.0665433  42.2033833  27.4424083
  75.8165433  37.5153833  14.8544083  76.0885433  38.3413833  14.9214083
  74.9535433  37.5903833  14.7584083  75.7295433  37.6483833  14.8494083
  69.2965433  33.4853833  21.3904083  69.3405433  33.8293833  20.5894083
  70.0515433  33.7223833  21.7574083  69.4145433  33.5713833  21.3264083
  75.9195433  43.9743833  24.1644083  75.6215433  44.5663833  24.7314083
  75.9745433  44.4163833  23.4154083  75.8835433  44.1273833  24.1374083
  73.8985433  42.9243833  27.5624083  73.0925433  42.6343833  27.7294083
  73.8095433  43.7923833  27.5684083  73.7665433  43.0093833  27.5874083
  78.4355433  40.3973833  23.6554083  78.9115433  40.7713833  24.2834083
  77.6125433  40.5313833  23.9144083  78.3845433  40.4723833  23.7864083
  75.1455433  36.0003833  26.3964083  75.3065433  35.2563833  26.8234083
  75.1005433  35.7513833  25.5614083  75.1625433  35.8533833  26.3364083
  77.6995433  47.7903833  18.8834083  78.2455433  48.4693833  18.9374083
  77.3495433  47.8723833  18.0884083  77.7285433  47.9033833  18.7734083
  76.8975433  31.8083833  26.2764083  77.6025433  32.1283833  25.8744083
  77.1385433  31.0013833  26.5034083  77.0365433  31.7363833  26.2504083
  75.8825433  46.0183833  22.2724083  75.2585433  46.6003833  22.0904083
  76.1305433  45.7323833  21.4864083  75.8265433  46.0623833  22.1294083
  77.4765433  40.7943833  12.1874083  76.6715433  40.6173833  11.9024083
  77.4435433  41.6453833  12.3794083  77.3525433  40.8933833  12.1744083
  73.4065433  36.8613833  22.3374083  73.8465433  36.7583833  21.5914083
  73.9515433  36.5483833  22.9424083  73.5515433  36.8003833  22.3164083
  78.5355433  47.6673833  28.1524083  79.0135433  47.0673833  27.7364083
  78.1845433  47.2243833  28.8174083  78.5545433  47.5133833  28.1894083
  76.9535433  31.8463833  22.3844083  76.1275433  31.6973833  22.6214083
  76.9135433  31.8813833  21.5134083  76.8255433  31.8293833  22.2904083
  78.5945433  42.8863833  27.1724083  77.7995433  42.8223833  27.5234083
  78.6655433  43.7333833  26.9774083  78.4875433  43.0013833  27.1954083
  69.5185433  32.2443833  28.4194083  69.3785433  33.0393833  28.0884083
  68.7325433  32.0013833  28.7084083  69.3815433  32.3263833  28.4134083
  74.4245433  49.0933833  22.4894083  74.4355433  49.1523833  23.3594083
  73.9995433  48.3463833  22.3394083  74.3635433  48.9913833  22.5954083
  72.5825433  34.9883833  15.6444083  72.7085433  34.6593833  14.8464083
  71.7705433  34.7393833  15.8434083  72.4815433  34.9033833  15.5564083
  71.1885433  48.5913833  27.9314083  70.5345433  48.0223833  28.0294083
  70.8135433  49.3643833  28.0824083  71.0365433  48.6213833  27.9684083
  72.5595433  36.9993833  26.0604083  72.9345433  37.6183833  25.5734083
  73.2335433  36.5253833  26.3454083  72.7145433  37.0213833  26.0304083
  70.3345433  35.4473833  25.3354083  70.4115433  35.2783833  24.4824083
  71.0805433  35.8533833  25.5324083  70.4555433  35.4823833  25.2384083
  72.8885433  32.8573833  27.7464083  72.8075433  32.0133833  27.9524083
  72.5745433  32.9013833  26.9334083  72.8305433  32.7393833  27.6564083
  69.7315433  40.6733833  25.5594083  70.0515433  40.8923833  24.7784083
  69.6315433  39.8083833  25.5044083  69.7635433  40.5783833  25.4364083
  71.1875433  36.6093833  12.1774083  70.5155433  36.6233833  12.7334083
  71.2825433  35.7613833  11.9934083  71.1025433  36.4863833  12.2324083
  75.1755433  45.3143833  13.2914083  75.6165433  45.3943833  14.0394083
  74.3705433  45.0983833  13.5494083  75.1215433  45.2943833  13.4404083
  74.4945433  39.9653833  26.9444083  74.0985433  40.7393833  27.0194083
  74.0885433  39.5923833  26.2684083  74.3765433  40.0243833  26.8554083
  72.5045433  44.3843833  13.8924083  72.2605433  44.0773833  14.6724083
  72.4715433  43.6813833  13.3764083  72.4635433  44.2353833  13.9314083
  75.3235433  42.6293833  12.6354083  74.5055433  42.3613833  12.7754083
  75.2955433  43.4813833  12.8204083  75.1985433  42.7163833  12.6834083
  74.9235433  32.9423833  24.3944083  74.0595433  33.0263833  24.4744083
  75.1435433  32.4283833  25.0634083  74.8285433  32.8793833  24.5054083
  76.5295433  38.0193833  27.9724083  76.2075433  37.4433833  27.4024083
  76.1705433  38.7743833  27.7264083  76.4295433  38.0453833  27.8524083
  77.3255433  31.2713833  12.5994083  77.4035433  31.5183833  11.7664083
  76.5825433  31.6483833  12.8574083  77.2275433  31.3633833  12.5144083
  74.9645433  48.3753833  28.2204083  75.0055433  48.5013833  29.0834083
  75.6155433  47.8153833  28.0644083  75.0665433  48.3113833  28.3254083
  72.1435433  33.0253833  25.0424083  71.8005433  32.2583833  24.8084083
  71.4485433  33.5493833  25.1064083  71.9905433  32.9893833  25.0174083
  72.5575433  46.7583833  29.5804083  73.1525433  47.1893833  30.0524083
  72.1935433  47.3823833  29.0914083  72.5915433  46.9143833  29.5774083
  70.7965433  36.3393833  18.9984083  70.4285433  36.6413833  19.7294083
  71.3305433  35.7103833  19.2824083  70.8205433  36.2913833  19.1484083
  70.4845433  44.7473833  26.5094083  69.9105433  45.1633833  27.0184083
  71.2175433  45.2123833  26.6044083  70.5085433  44.8773833  26.5984083
  72.2705433  48.0143833  15.2844083  72.1255433  48.1703833  14.4384083
  73.1365433  48.0933833  15.3624083  72.3775433  48.0493833  15.1714083
  76.4375433  40.4113833  15.0124083  76.5375433  40.5503833  14.1574083
  77.2555433  40.3513833  15.3084083  76.5725433  40.4223833  14.9294083
  75.5765433  33.3863833  28.1284083  75.8105433  32.8103833  27.5154083
  74.7345433  33.2053833  28.2694083  75.4865433  33.2743833  28.0584083
  72.9575433  46.8293833  21.7614083  72.8785433  46.0193833  21.4454083
  72.5135433  47.3163833  21.1894083  72.8805433  46.7813833  21.6304083
  70.5295433  49.0733833  25.3424083  71.0225433  49.0173833  26.0604083
  70.7175433  48.3403833  24.9074083  70.6305433  48.9563833  25.3844083
  69.5855433  45.3803833   4.8651673  69.7145433  45.1003833   5.6811673
  68.9755433  44.8393833   4.5561673  69.5145433  45.2593833   4.9401673
  76.1595433  42.9053833   9.9321673  75.9235433  42.9023833  10.7721673
  75.4115433  42.7573833   9.5081673  76.0135433  42.8823833   9.9931673
  75.5395433  35.5113833   4.4141673  76.2175433  35.5293833   3.8651673
  75.4945433  34.6753833   4.6591673  75.6325433  35.3903833   4.3691673
  76.1415433  46.0973833   7.1951673  76.2795433  46.8573833   6.7881673
  76.9325433  45.7323833   7.2221673  76.2785433  46.1563833   7.1391673
  69.4875433  37.6623833   2.0801673  69.2315433  38.4933833   2.0051673
  68.8235433  37.2793833   2.4971673  69.3515433  37.7283833   2.1311673
  72.5165433  32.4793833   2.5711673  71.9955433  31.8513833   2.2631673
  73.1075433  32.0423833   3.0421673  72.5275433  32.3213833   2.5951673
  75.8225433  34.6123833  11.8691673  75.9395433  34.1583833  11.1331673
  76.1105433  35.4103833  11.6661673  75.8825433  34.6633833  11.7301673
  71.5555433  34.2093833  10.8531673  70.7775433  33.8193833  10.7811673
  72.0465433  33.7973833  10.2621673  71.5125433  34.0903833  10.7551673
  78.2045433  31.8523833  10.0211673  78.3825433  31.0433833   9.7461673
  78.0615433  32.2933833   9.2821673  78.2095433  31.7983833   9.8711673
  73.9895433  48.6003833   6.4471673  74.2815433  48.5333833   7.2671673
  73.3635433  47.9953833   6.4021673  73.9405433  48.5013833   6.5621673
  68.9035433  34.7573833   8.4391673  68.8995433  35.3443833   9.0851673
  69.4975433  35.0693833   7.8821673  68.9905433  34.8903833   8.4521673
  71.9825433  46.7623833   5.5691673  71.2845433  46.2543833   5.6951673
  72.2425433  46.5573833   4.7611673  71.9175433  46.6573833   5.4681673
  73.3435433  45.6133833   8.1361673  74.1845433  45.6763833   7.9141673
  73.3065433  46.0103833   8.9121673  73.4625433  45.6813833   8.2181673
  75.3065433  41.1243833   2.8851673  75.4785433  40.9143833   3.7141673
  74.6515433  40.5903833   2.6691673  75.2355433  41.0143833   2.9761673
  76.0565433  41.0623833   5.4751673  76.1095433  41.9093833   5.6771673
  75.7715433  40.6923833   6.2121673  76.0225433  41.1323833   5.6131673
  68.8775433  45.4333833  11.6861673  69.6335433  45.7823833  11.9441673
  69.0545433  44.5803833  11.6291673  69.0155433  45.3583833  11.7161673
  70.9395433  35.6033833   3.5961673  71.7825433  35.8233833   3.5531673
  70.5505433  36.1763833   3.0651673  71.0065433  35.7203833   3.5111673
  76.7935433  37.2883833  11.7141673  76.3095433  37.8653833  12.1561673
  76.7655433  37.5833833  10.8931673  76.7175433  37.4173833  11.6581673
  73.5885433  43.4263833   3.3851673  74.0555433  43.7153833   4.0631673
  74.1605433  42.9483833   2.9311673  73.7425433  43.3983833   3.4181673
  72.3685433  38.0953833  10.0731673  71.8325433  37.5893833  10.5411673
  72.3885433  37.7053833   9.2931673  72.2915433  37.9623833  10.0271673
  73.4505433  39.0593833   5.2801673  73.4755433  38.3843833   4.7291673
  72.8045433  39.5553833   4.9681673  73.3595433  39.0323833   5.1531673
  77.5505433  47.8363833   4.6721673  77.2735433  47.1953833   4.1491673
  77.3425433  48.5623833   4.2341673  77.4795433  47.8493833   4.5301673
  71.2495433  40.4143833  10.8391673  71.2125433  40.9153833  10.1251673
  71.5805433  39.6623833  10.5441673  71.2925433  40.3763833  10.6901673
  77.1485433  45.4643833  10.2741673  77.5025433  45.2863833  11.0511673
  76.7125433  44.7353833  10.0751673  77.1365433  45.3303833  10.3601673
  78.1205433  36.2113833   2.9121673  78.6005433  36.9103833   3.1201673
  78.4935433  35.5643833   3.3631673  78.2465433  36.2193833   3.0091673
  77.9375433  41.4183833   1.9461673  77.0905433  41.2243833   2.0271673
  78.2615433  41.2533833   2.7391673  77.8595433  41.3653833   2.0751673
  71.7855433  41.1113833   4.2621673  72.5075433  41.5993833   4.2251673
  71.5155433  41.0813833   3.4331673  71.8525433  41.1793833   4.1341673
  71.1805433  42.1633833   8.5401673  70.7595433  41.6453833   7.9791673
  70.8285433  42.9493833   8.3971673  71.0665433  42.2033833   8.4361673
  75.9195433  43.9743833   5.1581673  75.6215433  44.5663833   5.7251673
  75.9745433  44.4163833   4.4091673  75.8835433  44.1273833   5.1311673
  73.8985433  42.9243833   8.5561673  73.0925433  42.6343833   8.7231673
  73.8095433  43.7923833   8.5621673  73.7665433  43.0093833   8.5811673
  78.4355433  40.3973833   4.6491673  78.9115433  40.7713833   5.2771673
  77.6125433  40.5313833   4.9081673  78.3845433  40.4723833   4.7801673
  75.1455433  36.0003833   7.3901673  75.3065433  35.2563833   7.8171673
  75.1005433  35.7513833   6.5551673  75.1625433  35.8533833   7.3301673
  76.8975433  31.8083833   7.2701673  77.6025433  32.1283833   6.8681673
  77.1385433  31.0013833   7.4971673  77.0365433  31.7363833   7.2441673
  75.8825433  46.0183833   3.2661673  75.2585433  46.6003833   3.0841673
  76.1305433  45.7323833   2.4801673  75.8265433  46.0623833   3.1231673
  73.4065433  36.8613833   3.3311673  73.8465433  36.7583833   2.5851673
  73.9515433  36.5483833   3.9361673  73.5515433  36.8003833   3.3101673
  78.5355433  47.6673833   9.1461673  79.0135433  47.0673833   8.7301673
  78.1845433  47.2243833   9.8111673  78.5545433  47.5133833   9.1831673
  76.9535433  31.8463833   3.3781673  76.1275433  31.6973833   3.6151673
  76.9135433  31.8813833   2.5071673  76.8255433  31.8293833   3.2841673
  78.5945433  42.8863833   8.1661673  77.7995433  42.8223833   8.5171673
  78.6655433  43.7333833   7.9711673  78.4875433  43.0013833   8.1891673
  69.5185433  32.2443833   9.4131673  69.3785433  33.0393833   9.0821673
  68.7325433  32.0013833   9.7021673  69.3815433  32.3263833   9.4071673
  74.4245433  49.0933833   3.4831673  74.4355433  49.1523833   4.3531673
  73.9995433  48.3463833   3.3331673  74.3635433  48.9913833   3.5891673
  71.1885433  48.5913833   8.9251673  70.5345433  48.0223833   9.0231673
  70.8135433  49.3643833   9.0761673  71.0365433  48.6213833   8.9621673
  72.5595433  36.9993833   7.0541673  72.9345433  37.6183833   6.5671673
  73.2335433  36.5253833   7.3391673  72.7145433  37.0213833   7.0241673
  70.3345433  35.4473833   6.3291673  70.4115433  35.2783833   5.4761673
  71.0805433  35.8533833   6.5261673  70.4555433  35.4823833   6.2321673
  72.8885433  32.8573833   8.7401673  72.8075433  32.0133833   8.9461673
  72.5745433  32.9013833   7.9271673  72.8305433  32.7393833   8.6501673
  69.7315433  40.6733833   6.5531673  70.0515433  40.8923833   5.7721673
  69.6315433  39.8083833   6.4981673  69.7635433  40.5783833   6.4301673
  74.4945433  39.9653833   7.9381673  74.0985433  40.7393833   8.0131673
  74.0885433  39.5923833   7.2621673  74.3765433  40.0243833   7.8491673
  74.9235433  32.9423833   5.3881673  74.0595433  33.0263833   5.4681673
  75.1435433  32.4283833   6.0571673  74.8285433  32.8793833   5.4991673
  76.5295433  38.0193833   8.9661673  76.2075433  37.4433833   8.3961673
  76.1705433  38.7743833   8.7201673  76.4295433  38.0453833   8.8461673
  74.9645433  48.3753833   9.2141673  75.0055433  48.5013833  10.0771673
  75.6155433  47.8153833   9.0581673  75.0665433  48.3113833   9.3191673
  72.1435433  33.0253833   6.0361673  71.8005433  32.2583833   5.8021673
  71.4485433  33.5493833   6.1001673  71.9905433  32.9893833   6.0111673
  72.5575433  46.7583833  10.5741673  73.1525433  47.1893833  11.0461673
  72.1935433  47.3823833  10.0851673  72.5915433  46.9143833  10.5711673
  70.4845433  44.7473833   7.5031673  69.9105433  45.1633833   8.0121673
  71.2175433  45.2123833   7.5981673  70.5085433  44.8773833   7.5921673
  75.5765433  33.3863833   9.1221673  75.8105433  32.8103833   8.5091673
  74.7345433  33.2053833   9.2631673  75.4865433  33.2743833   9.0521673
  72.9575433  46.8293833   2.7551673  72.8785433  46.0193833   2.4391673
  72.5135433  47.3163833   2.1831673  72.8805433  46.7813833   2.6241673
  70.5295433  49.0733833   6.3361673  71.0225433  49.0173833   7.0541673
  70.7175433  48.3403833   5.9011673  70.6305433  48.9563833   6.3781673
  69.6455433  24.1672753  74.6351313  69.2045433  24.2852753  75.3781313
  69.3625433  23.3922753  74.3501313  69.5385433  24.0702753  74.7031313
  69.3885433  17.9592753  71.1421313  68.6105433  18.1212753  70.7821313
  69.4275433  17.0882753  71.1641313  69.2795433  17.8542753  71.0921313
  72.5275433  23.2222753  69.8141313  72.1355433  22.8512753  69.1281313
  72.4475433  22.6242753  70.4431313  72.4575433  23.0792753  69.8051313
  72.1545433  24.8632753  73.7141313  72.7625433  24.6932753  74.3171313
  71.4035433  24.7232753  74.1351313  72.1335433  24.8172753  73.8651313
  76.4365433  14.1982753  73.6631313  76.3665433  14.8752753  73.1171313
  77.1775433  13.8102753  73.4141313  76.5355433  14.2412753  73.5451313
  71.0455433  27.9542753  69.7911313  71.5125433  28.0382753  69.0591313
  71.5005433  27.3762753  70.2601313  71.1815433  27.8812753  69.7521313
  71.0315433  21.4232753  75.0921313  70.5695433  21.0312753  74.4651313
  71.7315433  20.9102753  75.1841313  71.0665433  21.2902753  75.0131313
  73.0325433  19.5232753  75.1151313  73.8495433  19.3362753  75.3581313
  72.5555433  18.9092753  75.5111313  73.0825433  19.4052753  75.2101313
  77.2365433  25.5042753  77.7251313  77.5845433  24.7052753  77.7551313
  77.9015433  26.0082753  77.4701313  77.3865433  25.4602753  77.6921313
  77.2935433  24.9532753  73.9361313  77.6245433  24.3092753  74.4221313
  77.5335433  24.7422753  73.1251313  77.3775433  24.8272753  73.8881313
  73.6295433  14.6172753  74.3811313  73.3335433  15.1182753  73.7311313
  74.4965433  14.6952753  74.3241313  73.7135433  14.7032753  74.2771313
  76.6085433  13.7592753  76.6041313  76.6815433  14.6192753  76.7331313
  76.5705433  13.6842753  75.7361313  76.6135433  13.8752753  76.4951313
  69.4875433  19.1842753  78.1051313  69.2315433  20.0152753  78.0301313
  68.8235433  18.8012753  78.5221313  69.3515433  19.2502753  78.1561313
  69.3975433  28.8942753  76.0051313  68.8055433  29.4522753  75.6921313
  69.8235433  28.6252753  75.2931313  69.3735433  28.9362753  75.8541313
  75.2375433  26.7382753  73.4851313  74.6585433  26.4632753  74.0771313
  75.8615433  26.1292753  73.5101313  75.2445433  26.6082753  73.5761313
  70.9425433  27.5642753  73.9361313  71.5985433  26.9892753  73.9511313
  71.3315433  28.3132753  73.7151313  71.0975433  27.5892753  73.9061313
  71.7605433  26.0512753  77.4361313  72.1835433  25.6952753  76.7621313
  72.0845433  25.6292753  78.1281313  71.8705433  25.9362753  77.4391313
  74.9915433  28.9032753  76.7321313  75.8355433  29.0072753  76.5371313
  74.6945433  29.7212753  76.8001313  75.0725433  29.0392753  76.7131313
  78.3795433  26.8102753  69.7561313  78.1985433  27.3552753  70.4131313
  79.1455433  27.1002753  69.4551313  78.4655433  26.9342753  69.8091313
  69.8405433  15.8742753  73.3791313  69.7265433  15.0102753  73.4101313
  69.3655433  16.1682753  74.0491313  69.7535433  15.7902753  73.4821313
  79.1445433  17.0822753  72.1241313  78.6365433  16.4202753  71.8701313
  79.1965433  17.5862753  71.4141313  79.0775433  17.0592753  71.9821313
  77.7425433  16.3902753  76.5371313  77.8165433  16.9582753  75.8791313
  77.8635433  16.8822753  77.2471313  77.7705433  16.5472753  76.5451313
  72.3505433  12.2132753  74.8851313  72.8865433  12.9012753  74.8751313
  72.3535433  11.9392753  74.0571313  72.4295433  12.2742753  74.7611313
  72.7985433  16.0232753  76.5391313  73.0705433  15.5932753  75.8311313
  72.6225433  15.3872753  77.1101313  72.8125433  15.8662753  76.5191313
  72.6225433  23.4502753  76.0881313  73.4735433  23.3702753  75.9151313
  72.2655433  22.7682753  75.6761313  72.6955433  23.3372753  76.0011313
  71.3895433  30.1752753  77.3251313  70.7165433  29.6772753  77.0801313
  71.7925433  30.3602753  76.5741313  71.3495433  30.1292753  77.1781313
  74.9905433  23.4572753  74.3231313  75.7035433  23.9522753  74.4131313
  75.2125433  22.8902753  73.6971313  75.1285433  23.4462753  74.2441313
  69.1465433  25.1002753  77.6431313  68.4795433  25.5882753  77.9191313
  69.8265433  25.6452753  77.6721313  69.1485433  25.2522753  77.6881313
  69.2125433  21.7842753  72.7461313  69.0275433  20.9452753  72.8981313
  69.8715433  21.7482753  72.1761313  69.2825433  21.6552753  72.6841313
  69.3845433  25.9482753  72.3211313  69.9365433  26.5172753  72.6851313
  69.1525433  25.4332753  72.9861313  69.4315433  25.9562753  72.4731313
  69.2145433  24.3972753  69.9491313  69.9705433  23.9652753  70.0071313
  69.2295433  24.9292753  70.6401313  69.3285433  24.4122753  70.0601313
  70.1545433  22.6182753  77.9541313  70.5855433  22.4892753  77.2071313
  69.9495433  23.4662753  77.9281313  70.1875433  22.7242753  77.8401313
  76.5005433  16.1822753  71.6041313  76.4985433  16.0652753  70.7391313
  76.3195433  17.0302753  71.6961313  76.4735433  16.2902753  71.4901313
  74.2385433  26.1342753  76.2361313  74.3645433  26.9772753  76.4231313
  74.9065433  25.7352753  76.6321313  74.3565433  26.2002753  76.3221313
  72.8535433  19.0142753  71.2381313  72.7255433  18.5662753  71.9761313
  72.2715433  18.6722753  70.6861313  72.7485433  18.8972753  71.2661313
  73.0205433  20.8442753  77.8371313  72.2395433  20.7852753  77.4541313
  73.0925433  20.0922753  78.2741313  72.9155433  20.7252753  77.8451313
  75.2315433  29.5012753  72.8841313  75.0845433  28.7252753  73.2551313
  75.9205433  29.3542753  72.3691313  75.3115433  29.3642753  72.8631313
  74.9025433  13.2442753  70.8721313  74.9995433  13.1372753  71.7331313
  74.1945433  13.7502753  70.8071313  74.8125433  13.3032753  70.9901313
  77.5235433  29.0172753  71.2861313  78.1455433  29.1802753  71.8761313
  77.5595433  29.7082753  70.7541313  77.6205433  29.1432753  71.2951313
  72.0245433  21.5512753  72.1151313  72.3485433  20.7722753  71.8931313
  72.6705433  21.9192753  72.5701313  72.1675433  21.4902753  72.1491313
  69.0215433  13.2122753  73.0831313  69.1505433  12.5042753  72.5911313
  68.6545433  12.8942753  73.8081313  68.9865433  13.0602753  73.1181313
  78.7145433  20.8932753  73.5401313  78.7735433  21.5432753  74.1191313
  78.5255433  20.1972753  74.0311313  78.6955433  20.8862753  73.6981313
  73.2105433  15.4102753  70.0521313  72.6995433  15.4632753  69.3461313
  73.9945433  15.6502753  69.7561313  73.2505433  15.4532753  69.9041313
  77.9375433  22.9402753  77.9711313  77.0905433  22.7462753  78.0521313
  78.2615433  22.7752753  78.7641313  77.8595433  22.8872753  78.1001313
  74.6895433  29.6702753  68.8571313  75.1285433  28.9732753  69.1451313
  74.8965433  30.2942753  69.4301313  74.7855433  29.6592753  68.9841313
  75.0155433  17.8042753  77.0221313  75.8615433  17.6142753  77.1201313
  74.6455433  17.0272753  76.8841313  75.0855433  17.6612753  77.0161313
  69.8365433  19.1422753  73.6771313  70.3255433  18.8502753  74.3381313
  69.9655433  18.5492753  73.0501313  69.9275433  19.0112753  73.6821313
  74.3615433  20.5762753  69.1631313  73.7515433  20.1712753  69.6371313
  73.9755433  20.6942753  68.3901313  74.2145433  20.5332753  69.1191313
  75.8165433  19.0372753  71.8731313  76.0885433  19.8632753  71.9401313
  74.9535433  19.1122753  71.7771313  75.7295433  19.1702753  71.8681313
  69.2965433  15.0072753  78.4091313  69.3405433  15.3512753  77.6081313
  70.0515433  15.2442753  78.7761313  69.4145433  15.0932753  78.3451313
  77.6995433  29.3122753  75.9021313  78.2455433  29.9912753  75.9561313
  77.3495433  29.3942753  75.1071313  77.7285433  29.4252753  75.7921313
  77.4765433  22.3162753  69.2061313  76.6715433  22.1392753  68.9211313
  77.4435433  23.1672753  69.3981313  77.3525433  22.4152753  69.1931313
  72.5825433  16.5102753  72.6631313  72.7085433  16.1812753  71.8651313
  71.7705433  16.2612753  72.8621313  72.4815433  16.4252753  72.5751313
  71.1875433  18.1312753  69.1961313  70.5155433  18.1452753  69.7521313
  71.2825433  17.2832753  69.0121313  71.1025433  18.0082753  69.2511313
  75.1755433  26.8362753  70.3101313  75.6165433  26.9162753  71.0581313
  74.3705433  26.6202753  70.5681313  75.1215433  26.8162753  70.4591313
  72.5045433  25.9062753  70.9111313  72.2605433  25.5992753  71.6911313
  72.4715433  25.2032753  70.3951313  72.4635433  25.7572753  70.9501313
  75.3235433  24.1512753  69.6541313  74.5055433  23.8832753  69.7941313
  75.2955433  25.0032753  69.8391313  75.1985433  24.2382753  69.7021313
  77.3255433  12.7932753  69.6181313  77.4035433  13.0402753  68.7851313
  76.5825433  13.1702753  69.8761313  77.2275433  12.8852753  69.5331313
  70.7965433  17.8612753  76.0171313  70.4285433  18.1632753  76.7481313
  71.3305433  17.2322753  76.3011313  70.8205433  17.8132753  76.1671313
  72.2705433  29.5362753  72.3031313  72.1255433  29.6922753  71.4571313
  73.1365433  29.6152753  72.3811313  72.3775433  29.5712753  72.1901313
  76.4375433  21.9332753  72.0311313  76.5375433  22.0722753  71.1761313
  77.2555433  21.8732753  72.3271313  76.5725433  21.9442753  71.9481313
  72.9575433  28.3512753  78.7801313  72.8785433  27.5412753  78.4641313
  72.5135433  28.8382753  78.2081313  72.8805433  28.3032753  78.6491313
  69.6455433  24.1672753  55.6288903  69.2045433  24.2852753  56.3718903
  69.3625433  23.3922753  55.3438903  69.5385433  24.0702753  55.6968903
  69.3885433  17.9592753  52.1358903  68.6105433  18.1212753  51.7758903
  69.4275433  17.0882753  52.1578903  69.2795433  17.8542753  52.0858903
  72.5275433  23.2222753  50.8078903  72.1355433  22.8512753  50.1218903
  72.4475433  22.6242753  51.4368903  72.4575433  23.0792753  50.7988903
  72.1545433  24.8632753  54.7078903  72.7625433  24.6932753  55.3108903
  71.4035433  24.7232753  55.1288903  72.1335433  24.8172753  54.8588903
  76.4365433  14.1982753  54.6568903  76.3665433  14.8752753  54.1108903
  77.1775433  13.8102753  54.4078903  76.5355433  14.2412753  54.5388903
  71.0455433  27.9542753  50.7848903  71.5125433  28.0382753  50.0528903
  71.5005433  27.3762753  51.2538903  71.1815433  27.8812753  50.7458903
  69.5855433  26.9022753  61.8838903  69.7145433  26.6222753  62.6998903
  68.9755433  26.3612753  61.5748903  69.5145433  26.7812753  61.9588903
  76.1595433  24.4272753  66.9508903  75.9235433  24.4242753  67.7908903
  75.4115433  24.2792753  66.5268903  76.0135433  24.4042753  67.0118903
  71.0315433  21.4232753  56.0858903  70.5695433  21.0312753  55.4588903
  71.7315433  20.9102753  56.1778903  71.0665433  21.2902753  56.0068903
  75.5395433  17.0332753  61.4328903  76.2175433  17.0512753  60.8838903
  75.4945433  16.1972753  61.6778903  75.6325433  16.9122753  61.3878903
  76.1415433  27.6192753  64.2138903  76.2795433  28.3792753  63.8068903
  76.9325433  27.2542753  64.2408903  76.2785433  27.6782753  64.1578903
  73.0325433  19.5232753  56.1088903  73.8495433  19.3362753  56.3518903
  72.5555433  18.9092753  56.5048903  73.0825433  19.4052753  56.2038903
  77.2365433  25.5042753  58.7188903  77.5845433  24.7052753  58.7488903
  77.9015433  26.0082753  58.4638903  77.3865433  25.4602753  58.6858903
  77.2935433  24.9532753  54.9298903  77.6245433  24.3092753  55.4158903
  77.5335433  24.7422753  54.1188903  77.3775433  24.8272753  54.8818903
  73.6295433  14.6172753  55.3748903  73.3335433  15.1182753  54.7248903
  74.4965433  14.6952753  55.3178903  73.7135433  14.7032753  55.2708903
  76.6085433  13.7592753  57.5978903  76.6815433  14.6192753  57.7268903
  76.5705433  13.6842753  56.7298903  76.6135433  13.8752753  57.4888903
  69.4875433  19.1842753  59.0988903  69.2315433  20.0152753  59.0238903
  68.8235433  18.8012753  59.5158903  69.3515433  19.2502753  59.1498903
  69.3975433  28.8942753  56.9988903  68.8055433  29.4522753  56.6858903
  69.8235433  28.6252753  56.2868903  69.3735433  28.9362753  56.8478903
  75.2375433  26.7382753  54.4788903  74.6585433  26.4632753  55.0708903
  75.8615433  26.1292753  54.5038903  75.2445433  26.6082753  54.5698903
  72.5165433  14.0012753  59.5898903  71.9955433  13.3732753  59.2818903
  73.1075433  13.5642753  60.0608903  72.5275433  13.8432753  59.6138903
  75.8225433  16.1342753  68.8878903  75.9395433  15.6802753  68.1518903
  76.1105433  16.9322753  68.6848903  75.8825433  16.1852753  68.7488903
  70.9425433  27.5642753  54.9298903  71.5985433  26.9892753  54.9448903
  71.3315433  28.3132753  54.7088903  71.0975433  27.5892753  54.8998903
  71.5555433  15.7312753  67.8718903  70.7775433  15.3412753  67.7998903
  72.0465433  15.3192753  67.2808903  71.5125433  15.6122753  67.7738903
  71.7605433  26.0512753  58.4298903  72.1835433  25.6952753  57.7558903
  72.0845433  25.6292753  59.1218903  71.8705433  25.9362753  58.4328903
  74.9915433  28.9032753  57.7258903  75.8355433  29.0072753  57.5308903
  74.6945433  29.7212753  57.7938903  75.0725433  29.0392753  57.7068903
  78.2045433  13.3742753  67.0398903  78.3825433  12.5652753  66.7648903
  78.0615433  13.8152753  66.3008903  78.2095433  13.3202753  66.8898903
  73.9895433  30.1222753  63.4658903  74.2815433  30.0552753  64.2858903
  73.3635433  29.5172753  63.4208903  73.9405433  30.0232753  63.5808903
  68.9035433  16.2792753  65.4578903  68.8995433  16.8662753  66.1038903
  69.4975433  16.5912753  64.9008903  68.9905433  16.4122753  65.4708903
  78.3795433  26.8102753  50.7498903  78.1985433  27.3552753  51.4068903
  79.1455433  27.1002753  50.4488903  78.4655433  26.9342753  50.8028903
  69.8405433  15.8742753  54.3728903  69.7265433  15.0102753  54.4038903
  69.3655433  16.1682753  55.0428903  69.7535433  15.7902753  54.4758903
  71.9825433  28.2842753  62.5878903  71.2845433  27.7762753  62.7138903
  72.2425433  28.0792753  61.7798903  71.9175433  28.1792753  62.4868903
  79.1445433  17.0822753  53.1178903  78.6365433  16.4202753  52.8638903
  79.1965433  17.5862753  52.4078903  79.0775433  17.0592753  52.9758903
  77.7425433  16.3902753  57.5308903  77.8165433  16.9582753  56.8728903
  77.8635433  16.8822753  58.2408903  77.7705433  16.5472753  57.5388903
  73.3435433  27.1352753  65.1548903  74.1845433  27.1982753  64.9328903
  73.3065433  27.5322753  65.9308903  73.4625433  27.2032753  65.2368903
  72.3505433  12.2132753  55.8788903  72.8865433  12.9012753  55.8688903
  72.3535433  11.9392753  55.0508903  72.4295433  12.2742753  55.7548903
  75.3065433  22.6462753  59.9038903  75.4785433  22.4362753  60.7328903
  74.6515433  22.1122753  59.6878903  75.2355433  22.5362753  59.9948903
  76.0565433  22.5842753  62.4938903  76.1095433  23.4312753  62.6958903
  75.7715433  22.2142753  63.2308903  76.0225433  22.6542753  62.6318903
  68.8775433  26.9552753  68.7048903  69.6335433  27.3042753  68.9628903
  69.0545433  26.1022753  68.6478903  69.0155433  26.8802753  68.7348903
  72.7985433  16.0232753  57.5328903  73.0705433  15.5932753  56.8248903
  72.6225433  15.3872753  58.1038903  72.8125433  15.8662753  57.5128903
  72.6225433  23.4502753  57.0818903  73.4735433  23.3702753  56.9088903
  72.2655433  22.7682753  56.6698903  72.6955433  23.3372753  56.9948903
  71.3895433  30.1752753  58.3188903  70.7165433  29.6772753  58.0738903
  71.7925433  30.3602753  57.5678903  71.3495433  30.1292753  58.1718903
  70.9395433  17.1252753  60.6148903  71.7825433  17.3452753  60.5718903
  70.5505433  17.6982753  60.0838903  71.0065433  17.2422753  60.5298903
  74.9905433  23.4572753  55.3168903  75.7035433  23.9522753  55.4068903
  75.2125433  22.8902753  54.6908903  75.1285433  23.4462753  55.2378903
  69.1465433  25.1002753  58.6368903  68.4795433  25.5882753  58.9128903
  69.8265433  25.6452753  58.6658903  69.1485433  25.2522753  58.6818903
  76.7935433  18.8102753  68.7328903  76.3095433  19.3872753  69.1748903
  76.7655433  19.1052753  67.9118903  76.7175433  18.9392753  68.6768903
  69.2125433  21.7842753  53.7398903  69.0275433  20.9452753  53.8918903
  69.8715433  21.7482753  53.1698903  69.2825433  21.6552753  53.6778903
  69.3845433  25.9482753  53.3148903  69.9365433  26.5172753  53.6788903
  69.1525433  25.4332753  53.9798903  69.4315433  25.9562753  53.4668903
  73.5885433  24.9482753  60.4038903  74.0555433  25.2372753  61.0818903
  74.1605433  24.4702753  59.9498903  73.7425433  24.9202753  60.4368903
  69.2145433  24.3972753  50.9428903  69.9705433  23.9652753  51.0008903
  69.2295433  24.9292753  51.6338903  69.3285433  24.4122753  51.0538903
  70.1545433  22.6182753  58.9478903  70.5855433  22.4892753  58.2008903
  69.9495433  23.4662753  58.9218903  70.1875433  22.7242753  58.8338903
  76.5005433  16.1822753  52.5978903  76.4985433  16.0652753  51.7328903
  76.3195433  17.0302753  52.6898903  76.4735433  16.2902753  52.4838903
  74.2385433  26.1342753  57.2298903  74.3645433  26.9772753  57.4168903
  74.9065433  25.7352753  57.6258903  74.3565433  26.2002753  57.3158903
  72.3685433  19.6172753  67.0918903  71.8325433  19.1112753  67.5598903
  72.3885433  19.2272753  66.3118903  72.2915433  19.4842753  67.0458903
  72.8535433  19.0142753  52.2318903  72.7255433  18.5662753  52.9698903
  72.2715433  18.6722753  51.6798903  72.7485433  18.8972753  52.2598903
  73.0205433  20.8442753  58.8308903  72.2395433  20.7852753  58.4478903
  73.0925433  20.0922753  59.2678903  72.9155433  20.7252753  58.8388903
  73.4505433  20.5812753  62.2988903  73.4755433  19.9062753  61.7478903
  72.8045433  21.0772753  61.9868903  73.3595433  20.5542753  62.1718903
  77.5505433  29.3582753  61.6908903  77.2735433  28.7172753  61.1678903
  77.3425433  30.0842753  61.2528903  77.4795433  29.3712753  61.5488903
  71.2495433  21.9362753  67.8578903  71.2125433  22.4372753  67.1438903
  71.5805433  21.1842753  67.5628903  71.2925433  21.8982753  67.7088903
  77.1485433  26.9862753  67.2928903  77.5025433  26.8082753  68.0698903
  76.7125433  26.2572753  67.0938903  77.1365433  26.8522753  67.3788903
  78.1205433  17.7332753  59.9308903  78.6005433  18.4322753  60.1388903
  78.4935433  17.0862753  60.3818903  78.2465433  17.7412753  60.0278903
  75.2315433  29.5012753  53.8778903  75.0845433  28.7252753  54.2488903
  75.9205433  29.3542753  53.3628903  75.3115433  29.3642753  53.8568903
  74.9025433  13.2442753  51.8658903  74.9995433  13.1372753  52.7268903
  74.1945433  13.7502753  51.8008903  74.8125433  13.3032753  51.9838903
  77.5235433  29.0172753  52.2798903  78.1455433  29.1802753  52.8698903
  77.5595433  29.7082753  51.7478903  77.6205433  29.1432753  52.2888903
  72.0245433  21.5512753  53.1088903  72.3485433  20.7722753  52.8868903
  72.6705433  21.9192753  53.5638903  72.1675433  21.4902753  53.1428903
  69.0215433  13.2122753  54.0768903  69.1505433  12.5042753  53.5848903
  68.6545433  12.8942753  54.8018903  68.9865433  13.0602753  54.1118903
  78.7145433  20.8932753  54.5338903  78.7735433  21.5432753  55.1128903
  78.5255433  20.1972753  55.0248903  78.6955433  20.8862753  54.6918903
  73.2105433  15.4102753  51.0458903  72.6995433  15.4632753  50.3398903
  73.9945433  15.6502753  50.7498903  73.2505433  15.4532753  50.8978903
  77.9375433  22.9402753  58.9648903  77.0905433  22.7462753  59.0458903
  78.2615433  22.7752753  59.7578903  77.8595433  22.8872753  59.0938903
  74.6895433  29.6702753  49.8508903  75.1285433  28.9732753  50.1388903
  74.8965433  30.2942753  50.4238903  74.7855433  29.6592753  49.9778903
  71.7855433  22.6332753  61.2808903  72.5075433  23.1212753  61.2438903
  71.5155433  22.6032753  60.4518903  71.8525433  22.7012753  61.1528903
  75.0155433  17.8042753  58.0158903  75.8615433  17.6142753  58.1138903
  74.6455433  17.0272753  57.8778903  75.0855433  17.6612753  58.0098903
  69.8365433  19.1422753  54.6708903  70.3255433  18.8502753  55.3318903
  69.9655433  18.5492753  54.0438903  69.9275433  19.0112753  54.6758903
  74.3615433  20.5762753  50.1568903  73.7515433  20.1712753  50.6308903
  73.9755433  20.6942753  49.3838903  74.2145433  20.5332753  50.1128903
  71.1805433  23.6852753  65.5588903  70.7595433  23.1672753  64.9978903
  70.8285433  24.4712753  65.4158903  71.0665433  23.7252753  65.4548903
  75.8165433  19.0372753  52.8668903  76.0885433  19.8632753  52.9338903
  74.9535433  19.1122753  52.7708903  75.7295433  19.1702753  52.8618903
  69.2965433  15.0072753  59.4028903  69.3405433  15.3512753  58.6018903
  70.0515433  15.2442753  59.7698903  69.4145433  15.0932753  59.3388903
  75.9195433  25.4962753  62.1768903  75.6215433  26.0882753  62.7438903
  75.9745433  25.9382753  61.4278903  75.8835433  25.6492753  62.1498903
  73.8985433  24.4462753  65.5748903  73.0925433  24.1562753  65.7418903
  73.8095433  25.3142753  65.5808903  73.7665433  24.5312753  65.5998903
  78.4355433  21.9192753  61.6678903  78.9115433  22.2932753  62.2958903
  77.6125433  22.0532753  61.9268903  78.3845433  21.9942753  61.7988903
  75.1455433  17.5222753  64.4088903  75.3065433  16.7782753  64.8358903
  75.1005433  17.2732753  63.5738903  75.1625433  17.3752753  64.3488903
  77.6995433  29.3122753  56.8958903  78.2455433  29.9912753  56.9498903
  77.3495433  29.3942753  56.1008903  77.7285433  29.4252753  56.7858903
  76.8975433  13.3302753  64.2888903  77.6025433  13.6502753  63.8868903
  77.1385433  12.5232753  64.5158903  77.0365433  13.2582753  64.2628903
  75.8825433  27.5402753  60.2848903  75.2585433  28.1222753  60.1028903
  76.1305433  27.2542753  59.4988903  75.8265433  27.5842753  60.1418903
  77.4765433  22.3162753  50.1998903  76.6715433  22.1392753  49.9148903
  77.4435433  23.1672753  50.3918903  77.3525433  22.4152753  50.1868903
  73.4065433  18.3832753  60.3498903  73.8465433  18.2802753  59.6038903
  73.9515433  18.0702753  60.9548903  73.5515433  18.3222753  60.3288903
  78.5355433  29.1892753  66.1648903  79.0135433  28.5892753  65.7488903
  78.1845433  28.7462753  66.8298903  78.5545433  29.0352753  66.2018903
  76.9535433  13.3682753  60.3968903  76.1275433  13.2192753  60.6338903
  76.9135433  13.4032753  59.5258903  76.8255433  13.3512753  60.3028903
  78.5945433  24.4082753  65.1848903  77.7995433  24.3442753  65.5358903
  78.6655433  25.2552753  64.9898903  78.4875433  24.5232753  65.2078903
  69.5185433  13.7662753  66.4318903  69.3785433  14.5612753  66.1008903
  68.7325433  13.5232753  66.7208903  69.3815433  13.8482753  66.4258903
  74.4245433  30.6152753  60.5018903  74.4355433  30.6742753  61.3718903
  73.9995433  29.8682753  60.3518903  74.3635433  30.5132753  60.6078903
  72.5825433  16.5102753  53.6568903  72.7085433  16.1812753  52.8588903
  71.7705433  16.2612753  53.8558903  72.4815433  16.4252753  53.5688903
  71.1885433  30.1132753  65.9438903  70.5345433  29.5442753  66.0418903
  70.8135433  30.8862753  66.0948903  71.0365433  30.1432753  65.9808903
  72.5595433  18.5212753  64.0728903  72.9345433  19.1402753  63.5858903
  73.2335433  18.0472753  64.3578903  72.7145433  18.5432753  64.0428903
  70.3345433  16.9692753  63.3478903  70.4115433  16.8002753  62.4948903
  71.0805433  17.3752753  63.5448903  70.4555433  17.0042753  63.2508903
  72.8885433  14.3792753  65.7588903  72.8075433  13.5352753  65.9648903
  72.5745433  14.4232753  64.9458903  72.8305433  14.2612753  65.6688903
  69.7315433  22.1952753  63.5718903  70.0515433  22.4142753  62.7908903
  69.6315433  21.3302753  63.5168903  69.7635433  22.1002753  63.4488903
  71.1875433  18.1312753  50.1898903  70.5155433  18.1452753  50.7458903
  71.2825433  17.2832753  50.0058903  71.1025433  18.0082753  50.2448903
  75.1755433  26.8362753  51.3038903  75.6165433  26.9162753  52.0518903
  74.3705433  26.6202753  51.5618903  75.1215433  26.8162753  51.4528903
  74.4945433  21.4872753  64.9568903  74.0985433  22.2612753  65.0318903
  74.0885433  21.1142753  64.2808903  74.3765433  21.5462753  64.8678903
  72.5045433  25.9062753  51.9048903  72.2605433  25.5992753  52.6848903
  72.4715433  25.2032753  51.3888903  72.4635433  25.7572753  51.9438903
  75.3235433  24.1512753  50.6478903  74.5055433  23.8832753  50.7878903
  75.2955433  25.0032753  50.8328903  75.1985433  24.2382753  50.6958903
  74.9235433  14.4642753  62.4068903  74.0595433  14.5482753  62.4868903
  75.1435433  13.9502753  63.0758903  74.8285433  14.4012753  62.5178903
  76.5295433  19.5412753  65.9848903  76.2075433  18.9652753  65.4148903
  76.1705433  20.2962753  65.7388903  76.4295433  19.5672753  65.8648903
  77.3255433  12.7932753  50.6118903  77.4035433  13.0402753  49.7788903
  76.5825433  13.1702753  50.8698903  77.2275433  12.8852753  50.5268903
  74.9645433  29.8972753  66.2328903  75.0055433  30.0232753  67.0958903
  75.6155433  29.3372753  66.0768903  75.0665433  29.8332753  66.3378903
  72.1435433  14.5472753  63.0548903  71.8005433  13.7802753  62.8208903
  71.4485433  15.0712753  63.1188903  71.9905433  14.5112753  63.0298903
  72.5575433  28.2802753  67.5928903  73.1525433  28.7112753  68.0648903
  72.1935433  28.9042753  67.1038903  72.5915433  28.4362753  67.5898903
  70.7965433  17.8612753  57.0108903  70.4285433  18.1632753  57.7418903
  71.3305433  17.2322753  57.2948903  70.8205433  17.8132753  57.1608903
  70.4845433  26.2692753  64.5218903  69.9105433  26.6852753  65.0308903
  71.2175433  26.7342753  64.6168903  70.5085433  26.3992753  64.6108903
  72.2705433  29.5362753  53.2968903  72.1255433  29.6922753  52.4508903
  73.1365433  29.6152753  53.3748903  72.3775433  29.5712753  53.1838903
  76.4375433  21.9332753  53.0248903  76.5375433  22.0722753  52.1698903
  77.2555433  21.8732753  53.3208903  76.5725433  21.9442753  52.9418903
  75.5765433  14.9082753  66.1408903  75.8105433  14.3322753  65.5278903
  74.7345433  14.7272753  66.2818903  75.4865433  14.7962753  66.0708903
  72.9575433  28.3512753  59.7738903  72.8785433  27.5412753  59.4578903
  72.5135433  28.8382753  59.2018903  72.8805433  28.3032753  59.6428903
  70.5295433  30.5952753  63.3548903  71.0225433  30.5392753  64.0728903
  70.7175433  29.8622753  62.9198903  70.6305433  30.4782753  63.3968903
  69.6455433  24.1672753  36.6226493  69.2045433  24.2852753  37.3656493
  69.3625433  23.3922753  36.3376493  69.5385433  24.0702753  36.6906493
  69.3885433  17.9592753  33.1296493  68.6105433  18.1212753  32.7696493
  69.4275433  17.0882753  33.1516493  69.2795433  17.8542753  33.0796493
  72.5275433  23.2222753  31.8016493  72.1355433  22.8512753  31.1156493
  72.4475433  22.6242753  32.4306493  72.4575433  23.0792753  31.7926493
  72.1545433  24.8632753  35.7016493  72.7625433  24.6932753  36.3046493
  71.4035433  24.7232753  36.1226493  72.1335433  24.8172753  35.8526493
  76.4365433  14.1982753  35.6506493  76.3665433  14.8752753  35.1046493
  77.1775433  13.8102753  35.4016493  76.5355433  14.2412753  35.5326493
  71.0455433  27.9542753  31.7786493  71.5125433  28.0382753  31.0466493
  71.5005433  27.3762753  32.2476493  71.1815433  27.8812753  31.7396493
  69.5855433  26.9022753  42.8776493  69.7145433  26.6222753  43.6936493
  68.9755433  26.3612753  42.5686493  69.5145433  26.7812753  42.9526493
  76.1595433  24.4272753  47.9446493  75.9235433  24.4242753  48.7846493
  75.4115433  24.2792753  47.5206493  76.0135433  24.4042753  48.0056493
  71.0315433  21.4232753  37.0796493  70.5695433  21.0312753  36.4526493
  71.7315433  20.9102753  37.1716493  71.0665433  21.2902753  37.0006493
  75.5395433  17.0332753  42.4266493  76.2175433  17.0512753  41.8776493
  75.4945433  16.1972753  42.6716493  75.6325433  16.9122753  42.3816493
  76.1415433  27.6192753  45.2076493  76.2795433  28.3792753  44.8006493
  76.9325433  27.2542753  45.2346493  76.2785433  27.6782753  45.1516493
  73.0325433  19.5232753  37.1026493  73.8495433  19.3362753  37.3456493
  72.5555433  18.9092753  37.4986493  73.0825433  19.4052753  37.1976493
  77.2365433  25.5042753  39.7126493  77.5845433  24.7052753  39.7426493
  77.9015433  26.0082753  39.4576493  77.3865433  25.4602753  39.6796493
  77.2935433  24.9532753  35.9236493  77.6245433  24.3092753  36.4096493
  77.5335433  24.7422753  35.1126493  77.3775433  24.8272753  35.8756493
  73.6295433  14.6172753  36.3686493  73.3335433  15.1182753  35.7186493
  74.4965433  14.6952753  36.3116493  73.7135433  14.7032753  36.2646493
  76.6085433  13.7592753  38.5916493  76.6815433  14.6192753  38.7206493
  76.5705433  13.6842753  37.7236493  76.6135433  13.8752753  38.4826493
  69.4875433  19.1842753  40.0926493  69.2315433  20.0152753  40.0176493
  68.8235433  18.8012753  40.5096493  69.3515433  19.2502753  40.1436493
  69.3975433  28.8942753  37.9926493  68.8055433  29.4522753  37.6796493
  69.8235433  28.6252753  37.2806493  69.3735433  28.9362753  37.8416493
  75.2375433  26.7382753  35.4726493  74.6585433  26.4632753  36.0646493
  75.8615433  26.1292753  35.4976493  75.2445433  26.6082753  35.5636493
  72.5165433  14.0012753  40.5836493  71.9955433  13.3732753  40.2756493
  73.1075433  13.5642753  41.0546493  72.5275433  13.8432753  40.6076493
  75.8225433  16.1342753  49.8816493  75.9395433  15.6802753  49.1456493
  76.1105433  16.9322753  49.6786493  75.8825433  16.1852753  49.7426493
  70.9425433  27.5642753  35.9236493  71.5985433  26.9892753  35.9386493
  71.3315433  28.3132753  35.7026493  71.0975433  27.5892753  35.8936493
  71.5555433  15.7312753  48.8656493  70.7775433  15.3412753  48.7936493
  72.0465433  15.3192753  48.2746493  71.5125433  15.6122753  48.7676493
  71.7605433  26.0512753  39.4236493  72.1835433  25.6952753  38.7496493
  72.0845433  25.6292753  40.1156493  71.8705433  25.9362753  39.4266493
  74.9915433  28.9032753  38.7196493  75.8355433  29.0072753  38.5246493
  74.6945433  29.7212753  38.7876493  75.0725433  29.0392753  38.7006493
  78.2045433  13.3742753  48.0336493  78.3825433  12.5652753  47.7586493
  78.0615433  13.8152753  47.2946493  78.2095433  13.3202753  47.8836493
  73.9895433  30.1222753  44.4596493  74.2815433  30.0552753  45.2796493
  73.3635433  29.5172753  44.4146493  73.9405433  30.0232753  44.5746493
  68.9035433  16.2792753  46.4516493  68.8995433  16.8662753  47.0976493
  69.4975433  16.5912753  45.8946493  68.9905433  16.4122753  46.4646493
  78.3795433  26.8102753  31.7436493  78.1985433  27.3552753  32.4006493
  79.1455433  27.1002753  31.4426493  78.4655433  26.9342753  31.7966493
  69.8405433  15.8742753  35.3666493  69.7265433  15.0102753  35.3976493
  69.3655433  16.1682753  36.0366493  69.7535433  15.7902753  35.4696493
  71.9825433  28.2842753  43.5816493  71.2845433  27.7762753  43.7076493
  72.2425433  28.0792753  42.7736493  71.9175433  28.1792753  43.4806493
  79.1445433  17.0822753  34.1116493  78.6365433  16.4202753  33.8576493
  79.1965433  17.5862753  33.4016493  79.0775433  17.0592753  33.9696493
  77.7425433  16.3902753  38.5246493  77.8165433  16.9582753  37.8666493
  77.8635433  16.8822753  39.2346493  77.7705433  16.5472753  38.5326493
  73.3435433  27.1352753  46.1486493  74.1845433  27.1982753  45.9266493
  73.3065433  27.5322753  46.9246493  73.4625433  27.2032753  46.2306493
  72.3505433  12.2132753  36.8726493  72.8865433  12.9012753  36.8626493
  72.3535433  11.9392753  36.0446493  72.4295433  12.2742753  36.7486493
  75.3065433  22.6462753  40.8976493  75.4785433  22.4362753  41.7266493
  74.6515433  22.1122753  40.6816493  75.2355433  22.5362753  40.9886493
  76.0565433  22.5842753  43.4876493  76.1095433  23.4312753  43.6896493
  75.7715433  22.2142753  44.2246493  76.0225433  22.6542753  43.6256493
  68.8775433  26.9552753  49.6986493  69.6335433  27.3042753  49.9566493
  69.0545433  26.1022753  49.6416493  69.0155433  26.8802753  49.7286493
  72.7985433  16.0232753  38.5266493  73.0705433  15.5932753  37.8186493
  72.6225433  15.3872753  39.0976493  72.8125433  15.8662753  38.5066493
  72.6225433  23.4502753  38.0756493  73.4735433  23.3702753  37.9026493
  72.2655433  22.7682753  37.6636493  72.6955433  23.3372753  37.9886493
  71.3895433  30.1752753  39.3126493  70.7165433  29.6772753  39.0676493
  71.7925433  30.3602753  38.5616493  71.3495433  30.1292753  39.1656493
  70.9395433  17.1252753  41.6086493  71.7825433  17.3452753  41.5656493
  70.5505433  17.6982753  41.0776493  71.0065433  17.2422753  41.5236493
  74.9905433  23.4572753  36.3106493  75.7035433  23.9522753  36.4006493
  75.2125433  22.8902753  35.6846493  75.1285433  23.4462753  36.2316493
  69.1465433  25.1002753  39.6306493  68.4795433  25.5882753  39.9066493
  69.8265433  25.6452753  39.6596493  69.1485433  25.2522753  39.6756493
  76.7935433  18.8102753  49.7266493  76.3095433  19.3872753  50.1686493
  76.7655433  19.1052753  48.9056493  76.7175433  18.9392753  49.6706493
  69.2125433  21.7842753  34.7336493  69.0275433  20.9452753  34.8856493
  69.8715433  21.7482753  34.1636493  69.2825433  21.6552753  34.6716493
  69.3845433  25.9482753  34.3086493  69.9365433  26.5172753  34.6726493
  69.1525433  25.4332753  34.9736493  69.4315433  25.9562753  34.4606493
  73.5885433  24.9482753  41.3976493  74.0555433  25.2372753  42.0756493
  74.1605433  24.4702753  40.9436493  73.7425433  24.9202753  41.4306493
  69.2145433  24.3972753  31.9366493  69.9705433  23.9652753  31.9946493
  69.2295433  24.9292753  32.6276493  69.3285433  24.4122753  32.0476493
  70.1545433  22.6182753  39.9416493  70.5855433  22.4892753  39.1946493
  69.9495433  23.4662753  39.9156493  70.1875433  22.7242753  39.8276493
  76.5005433  16.1822753  33.5916493  76.4985433  16.0652753  32.7266493
  76.3195433  17.0302753  33.6836493  76.4735433  16.2902753  33.4776493
  74.2385433  26.1342753  38.2236493  74.3645433  26.9772753  38.4106493
  74.9065433  25.7352753  38.6196493  74.3565433  26.2002753  38.3096493
  72.3685433  19.6172753  48.0856493  71.8325433  19.1112753  48.5536493
  72.3885433  19.2272753  47.3056493  72.2915433  19.4842753  48.0396493
  72.8535433  19.0142753  33.2256493  72.7255433  18.5662753  33.9636493
  72.2715433  18.6722753  32.6736493  72.7485433  18.8972753  33.2536493
  73.0205433  20.8442753  39.8246493  72.2395433  20.7852753  39.4416493
  73.0925433  20.0922753  40.2616493  72.9155433  20.7252753  39.8326493
  73.4505433  20.5812753  43.2926493  73.4755433  19.9062753  42.7416493
  72.8045433  21.0772753  42.9806493  73.3595433  20.5542753  43.1656493
  77.5505433  29.3582753  42.6846493  77.2735433  28.7172753  42.1616493
  77.3425433  30.0842753  42.2466493  77.4795433  29.3712753  42.5426493
  71.2495433  21.9362753  48.8516493  71.2125433  22.4372753  48.1376493
  71.5805433  21.1842753  48.5566493  71.2925433  21.8982753  48.7026493
  77.1485433  26.9862753  48.2866493  77.5025433  26.8082753  49.0636493
  76.7125433  26.2572753  48.0876493  77.1365433  26.8522753  48.3726493
  78.1205433  17.7332753  40.9246493  78.6005433  18.4322753  41.1326493
  78.4935433  17.0862753  41.3756493  78.2465433  17.7412753  41.0216493
  75.2315433  29.5012753  34.8716493  75.0845433  28.7252753  35.2426493
  75.9205433  29.3542753  34.3566493  75.3115433  29.3642753  34.8506493
  74.9025433  13.2442753  32.8596493  74.9995433  13.1372753  33.7206493
  74.1945433  13.7502753  32.7946493  74.8125433  13.3032753  32.9776493
  77.5235433  29.0172753  33.2736493  78.1455433  29.1802753  33.8636493
  77.5595433  29.7082753  32.7416493  77.6205433  29.1432753  33.2826493
  72.0245433  21.5512753  34.1026493  72.3485433  20.7722753  33.8806493
  72.6705433  21.9192753  34.5576493  72.1675433  21.4902753  34.1366493
  69.0215433  13.2122753  35.0706493  69.1505433  12.5042753  34.5786493
  68.6545433  12.8942753  35.7956493  68.9865433  13.0602753  35.1056493
  78.7145433  20.8932753  35.5276493  78.7735433  21.5432753  36.1066493
  78.5255433  20.1972753  36.0186493  78.6955433  20.8862753  35.6856493
  73.2105433  15.4102753  32.0396493  72.6995433  15.4632753  31.3336493
  73.9945433  15.6502753  31.7436493  73.2505433  15.4532753  31.8916493
  77.9375433  22.9402753  39.9586493  77.0905433  22.7462753  40.0396493
  78.2615433  22.7752753  40.7516493  77.8595433  22.8872753  40.0876493
  74.6895433  29.6702753  30.8446493  75.1285433  28.9732753  31.1326493
  74.8965433  30.2942753  31.4176493  74.7855433  29.6592753  30.9716493
  71.7855433  22.6332753  42.2746493  72.5075433  23.1212753  42.2376493
  71.5155433  22.6032753  41.4456493  71.8525433  22.7012753  42.1466493
  75.0155433  17.8042753  39.0096493  75.8615433  17.6142753  39.1076493
  74.6455433  17.0272753  38.8716493  75.0855433  17.6612753  39.0036493
  69.8365433  19.1422753  35.6646493  70.3255433  18.8502753  36.3256493
  69.9655433  18.5492753  35.0376493  69.9275433  19.0112753  35.6696493
  74.3615433  20.5762753  31.1506493  73.7515433  20.1712753  31.6246493
  73.9755433  20.6942753  30.3776493  74.2145433  20.5332753  31.1066493
  71.1805433  23.6852753  46.5526493  70.7595433  23.1672753  45.9916493
  70.8285433  24.4712753  46.4096493  71.0665433  23.7252753  46.4486493
  75.8165433  19.0372753  33.8606493  76.0885433  19.8632753  33.9276493
  74.9535433  19.1122753  33.7646493  75.7295433  19.1702753  33.8556493
  69.2965433  15.0072753  40.3966493  69.3405433  15.3512753  39.5956493
  70.0515433  15.2442753  40.7636493  69.4145433  15.0932753  40.3326493
  75.9195433  25.4962753  43.1706493  75.6215433  26.0882753  43.7376493
  75.9745433  25.9382753  42.4216493  75.8835433  25.6492753  43.1436493
  73.8985433  24.4462753  46.5686493  73.0925433  24.1562753  46.7356493
  73.8095433  25.3142753  46.5746493  73.7665433  24.5312753  46.5936493
  78.4355433  21.9192753  42.6616493  78.9115433  22.2932753  43.2896493
  77.6125433  22.0532753  42.9206493  78.3845433  21.9942753  42.7926493
  75.1455433  17.5222753  45.4026493  75.3065433  16.7782753  45.8296493
  75.1005433  17.2732753  44.5676493  75.1625433  17.3752753  45.3426493
  77.6995433  29.3122753  37.8896493  78.2455433  29.9912753  37.9436493
  77.3495433  29.3942753  37.0946493  77.7285433  29.4252753  37.7796493
  76.8975433  13.3302753  45.2826493  77.6025433  13.6502753  44.8806493
  77.1385433  12.5232753  45.5096493  77.0365433  13.2582753  45.2566493
  75.8825433  27.5402753  41.2786493  75.2585433  28.1222753  41.0966493
  76.1305433  27.2542753  40.4926493  75.8265433  27.5842753  41.1356493
  77.4765433  22.3162753  31.1936493  76.6715433  22.1392753  30.9086493
  77.4435433  23.1672753  31.3856493  77.3525433  22.4152753  31.1806493
  73.4065433  18.3832753  41.3436493  73.8465433  18.2802753  40.5976493
  73.9515433  18.0702753  41.9486493  73.5515433  18.3222753  41.3226493
  78.5355433  29.1892753  47.1586493  79.0135433  28.5892753  46.7426493
  78.1845433  28.7462753  47.8236493  78.5545433  29.0352753  47.1956493
  76.9535433  13.3682753  41.3906493  76.1275433  13.2192753  41.6276493
  76.9135433  13.4032753  40.5196493  76.8255433  13.3512753  41.2966493
  78.5945433  24.4082753  46.1786493  77.7995433  24.3442753  46.5296493
  78.6655433  25.2552753  45.9836493  78.4875433  24.5232753  46.2016493
  69.5185433  13.7662753  47.4256493  69.3785433  14.5612753  47.0946493
  68.7325433  13.5232753  47.7146493  69.3815433  13.8482753  47.4196493
  74.4245433  30.6152753  41.4956493  74.4355433  30.6742753  42.3656493
  73.9995433  29.8682753  41.3456493  74.3635433  30.5132753  41.6016493
  72.5825433  16.5102753  34.6506493  72.7085433  16.1812753  33.8526493
  71.7705433  16.2612753  34.8496493  72.4815433  16.4252753  34.5626493
  71.1885433  30.1132753  46.9376493  70.5345433  29.5442753  47.0356493
  70.8135433  30.8862753  47.0886493  71.0365433  30.1432753  46.9746493
  72.5595433  18.5212753  45.0666493  72.9345433  19.1402753  44.5796493
  73.2335433  18.0472753  45.3516493  72.7145433  18.5432753  45.0366493
  70.3345433  16.9692753  44.3416493  70.4115433  16.8002753  43.4886493
  71.0805433  17.3752753  44.5386493  70.4555433  17.0042753  44.2446493
  72.8885433  14.3792753  46.7526493  72.8075433  13.5352753  46.9586493
  72.5745433  14.4232753  45.9396493  72.8305433  14.2612753  46.6626493
  69.7315433  22.1952753  44.5656493  70.0515433  22.4142753  43.7846493
  69.6315433  21.3302753  44.5106493  69.7635433  22.1002753  44.4426493
  71.1875433  18.1312753  31.1836493  70.5155433  18.1452753  31.7396493
  71.2825433  17.2832753  30.9996493  71.1025433  18.0082753  31.2386493
  75.1755433  26.8362753  32.2976493  75.6165433  26.9162753  33.0456493
  74.3705433  26.6202753  32.5556493  75.1215433  26.8162753  32.4466493
  74.4945433  21.4872753  45.9506493  74.0985433  22.2612753  46.0256493
  74.0885433  21.1142753  45.2746493  74.3765433  21.5462753  45.8616493
  72.5045433  25.9062753  32.8986493  72.2605433  25.5992753  33.6786493
  72.4715433  25.2032753  32.3826493  72.4635433  25.7572753  32.9376493
  75.3235433  24.1512753  31.6416493  74.5055433  23.8832753  31.7816493
  75.2955433  25.0032753  31.8266493  75.1985433  24.2382753  31.6896493
  74.9235433  14.4642753  43.4006493  74.0595433  14.5482753  43.4806493
  75.1435433  13.9502753  44.0696493  74.8285433  14.4012753  43.5116493
  76.5295433  19.5412753  46.9786493  76.2075433  18.9652753  46.4086493
  76.1705433  20.2962753  46.7326493  76.4295433  19.5672753  46.8586493
  77.3255433  12.7932753  31.6056493  77.4035433  13.0402753  30.7726493
  76.5825433  13.1702753  31.8636493  77.2275433  12.8852753  31.5206493
  74.9645433  29.8972753  47.2266493  75.0055433  30.0232753  48.0896493
  75.6155433  29.3372753  47.0706493  75.0665433  29.8332753  47.3316493
  72.1435433  14.5472753  44.0486493  71.8005433  13.7802753  43.8146493
  71.4485433  15.0712753  44.1126493  71.9905433  14.5112753  44.0236493
  72.5575433  28.2802753  48.5866493  73.1525433  28.7112753  49.0586493
  72.1935433  28.9042753  48.0976493  72.5915433  28.4362753  48.5836493
  70.7965433  17.8612753  38.0046493  70.4285433  18.1632753  38.7356493
  71.3305433  17.2322753  38.2886493  70.8205433  17.8132753  38.1546493
  70.4845433  26.2692753  45.5156493  69.9105433  26.6852753  46.0246493
  71.2175433  26.7342753  45.6106493  70.5085433  26.3992753  45.6046493
  72.2705433  29.5362753  34.2906493  72.1255433  29.6922753  33.4446493
  73.1365433  29.6152753  34.3686493  72.3775433  29.5712753  34.1776493
  76.4375433  21.9332753  34.0186493  76.5375433  22.0722753  33.1636493
  77.2555433  21.8732753  34.3146493  76.5725433  21.9442753  33.9356493
  75.5765433  14.9082753  47.1346493  75.8105433  14.3322753  46.5216493
  74.7345433  14.7272753  47.2756493  75.4865433  14.7962753  47.0646493
  72.9575433  28.3512753  40.7676493  72.8785433  27.5412753  40.4516493
  72.5135433  28.8382753  40.1956493  72.8805433  28.3032753  40.6366493
  70.5295433  30.5952753  44.3486493  71.0225433  30.5392753  45.0666493
  70.7175433  29.8622753  43.9136493  70.6305433  30.4782753  44.3906493
  69.6455433  24.1672753  17.6164083  69.2045433  24.2852753  18.3594083
  69.3625433  23.3922753  17.3314083  69.5385433  24.0702753  17.6844083
  69.3885433  17.9592753  14.1234083  68.6105433  18.1212753  13.7634083
  69.4275433  17.0882753  14.1454083  69.2795433  17.8542753  14.0734083
  72.5275433  23.2222753  12.7954083  72.1355433  22.8512753  12.1094083
  72.4475433  22.6242753  13.4244083  72.4575433  23.0792753  12.7864083
  72.1545433  24.8632753  16.6954083  72.7625433  24.6932753  17.2984083
  71.4035433  24.7232753  17.1164083  72.1335433  24.8172753  16.8464083
  76.4365433  14.1982753  16.6444083  76.3665433  14.8752753  16.0984083
  77.1775433  13.8102753  16.3954083  76.5355433  14.2412753  16.5264083
  71.0455433  27.9542753  12.7724083  71.5125433  28.0382753  12.0404083
  71.5005433  27.3762753  13.2414083  71.1815433  27.8812753  12.7334083
  69.5855433  26.9022753  23.8714083  69.7145433  26.6222753  24.6874083
  68.9755433  26.3612753  23.5624083  69.5145433  26.7812753  23.9464083
  76.1595433  24.4272753  28.9384083  75.9235433  24.4242753  29.7784083
  75.4115433  24.2792753  28.5144083  76.0135433  24.4042753  28.9994083
  71.0315433  21.4232753  18.0734083  70.5695433  21.0312753  17.4464083
  71.7315433  20.9102753  18.1654083  71.0665433  21.2902753  17.9944083
  75.5395433  17.0332753  23.4204083  76.2175433  17.0512753  22.8714083
  75.4945433  16.1972753  23.6654083  75.6325433  16.9122753  23.3754083
  76.1415433  27.6192753  26.2014083  76.2795433  28.3792753  25.7944083
  76.9325433  27.2542753  26.2284083  76.2785433  27.6782753  26.1454083
  73.0325433  19.5232753  18.0964083  73.8495433  19.3362753  18.3394083
  72.5555433  18.9092753  18.4924083  73.0825433  19.4052753  18.1914083
  77.2365433  25.5042753  20.7064083  77.5845433  24.7052753  20.7364083
  77.9015433  26.0082753  20.4514083  77.3865433  25.4602753  20.6734083
  77.2935433  24.9532753  16.9174083  77.6245433  24.3092753  17.4034083
  77.5335433  24.7422753  16.1064083  77.3775433  24.8272753  16.8694083
  73.6295433  14.6172753  17.3624083  73.3335433  15.1182753  16.7124083
  74.4965433  14.6952753  17.3054083  73.7135433  14.7032753  17.2584083
  76.6085433  13.7592753  19.5854083  76.6815433  14.6192753  19.7144083
  76.5705433  13.6842753  18.7174083  76.6135433  13.8752753  19.4764083
  69.4875433  19.1842753  21.0864083  69.2315433  20.0152753  21.0114083
  68.8235433  18.8012753  21.5034083  69.3515433  19.2502753  21.1374083
  69.3975433  28.8942753  18.9864083  68.8055433  29.4522753  18.6734083
  69.8235433  28.6252753  18.2744083  69.3735433  28.9362753  18.8354083
  75.2375433  26.7382753  16.4664083  74.6585433  26.4632753  17.0584083
  75.8615433  26.1292753  16.4914083  75.2445433  26.6082753  16.5574083
  72.5165433  14.0012753  21.5774083  71.9955433  13.3732753  21.2694083
  73.1075433  13.5642753  22.0484083  72.5275433  13.8432753  21.6014083
  75.8225433  16.1342753  30.8754083  75.9395433  15.6802753  30.1394083
  76.1105433  16.9322753  30.6724083  75.8825433  16.1852753  30.7364083
  70.9425433  27.5642753  16.9174083  71.5985433  26.9892753  16.9324083
  71.3315433  28.3132753  16.6964083  71.0975433  27.5892753  16.8874083
  71.5555433  15.7312753  29.8594083  70.7775433  15.3412753  29.7874083
  72.0465433  15.3192753  29.2684083  71.5125433  15.6122753  29.7614083
  71.7605433  26.0512753  20.4174083  72.1835433  25.6952753  19.7434083
  72.0845433  25.6292753  21.1094083  71.8705433  25.9362753  20.4204083
  74.9915433  28.9032753  19.7134083  75.8355433  29.0072753  19.5184083
  74.6945433  29.7212753  19.7814083  75.0725433  29.0392753  19.6944083
  78.2045433  13.3742753  29.0274083  78.3825433  12.5652753  28.7524083
  78.0615433  13.8152753  28.2884083  78.2095433  13.3202753  28.8774083
  73.9895433  30.1222753  25.4534083  74.2815433  30.0552753  26.2734083
  73.3635433  29.5172753  25.4084083  73.9405433  30.0232753  25.5684083
  68.9035433  16.2792753  27.4454083  68.8995433  16.8662753  28.0914083
  69.4975433  16.5912753  26.8884083  68.9905433  16.4122753  27.4584083
  78.3795433  26.8102753  12.7374083  78.1985433  27.3552753  13.3944083
  79.1455433  27.1002753  12.4364083  78.4655433  26.9342753  12.7904083
  69.8405433  15.8742753  16.3604083  69.7265433  15.0102753  16.3914083
  69.3655433  16.1682753  17.0304083  69.7535433  15.7902753  16.4634083
  71.9825433  28.2842753  24.5754083  71.2845433  27.7762753  24.7014083
  72.2425433  28.0792753  23.7674083  71.9175433  28.1792753  24.4744083
  79.1445433  17.0822753  15.1054083  78.6365433  16.4202753  14.8514083
  79.1965433  17.5862753  14.3954083  79.0775433  17.0592753  14.9634083
  77.7425433  16.3902753  19.5184083  77.8165433  16.9582753  18.8604083
  77.8635433  16.8822753  20.2284083  77.7705433  16.5472753  19.5264083
  73.3435433  27.1352753  27.1424083  74.1845433  27.1982753  26.9204083
  73.3065433  27.5322753  27.9184083  73.4625433  27.2032753  27.2244083
  72.3505433  12.2132753  17.8664083  72.8865433  12.9012753  17.8564083
  72.3535433  11.9392753  17.0384083  72.4295433  12.2742753  17.7424083
  75.3065433  22.6462753  21.8914083  75.4785433  22.4362753  22.7204083
  74.6515433  22.1122753  21.6754083  75.2355433  22.5362753  21.9824083
  76.0565433  22.5842753  24.4814083  76.1095433  23.4312753  24.6834083
  75.7715433  22.2142753  25.2184083  76.0225433  22.6542753  24.6194083
  68.8775433  26.9552753  30.6924083  69.6335433  27.3042753  30.9504083
  69.0545433  26.1022753  30.6354083  69.0155433  26.8802753  30.7224083
  72.7985433  16.0232753  19.5204083  73.0705433  15.5932753  18.8124083
  72.6225433  15.3872753  20.0914083  72.8125433  15.8662753  19.5004083
  72.6225433  23.4502753  19.0694083  73.4735433  23.3702753  18.8964083
  72.2655433  22.7682753  18.6574083  72.6955433  23.3372753  18.9824083
  71.3895433  30.1752753  20.3064083  70.7165433  29.6772753  20.0614083
  71.7925433  30.3602753  19.5554083  71.3495433  30.1292753  20.1594083
  70.9395433  17.1252753  22.6024083  71.7825433  17.3452753  22.5594083
  70.5505433  17.6982753  22.0714083  71.0065433  17.2422753  22.5174083
  74.9905433  23.4572753  17.3044083  75.7035433  23.9522753  17.3944083
  75.2125433  22.8902753  16.6784083  75.1285433  23.4462753  17.2254083
  69.1465433  25.1002753  20.6244083  68.4795433  25.5882753  20.9004083
  69.8265433  25.6452753  20.6534083  69.1485433  25.2522753  20.6694083
  76.7935433  18.8102753  30.7204083  76.3095433  19.3872753  31.1624083
  76.7655433  19.1052753  29.8994083  76.7175433  18.9392753  30.6644083
  69.2125433  21.7842753  15.7274083  69.0275433  20.9452753  15.8794083
  69.8715433  21.7482753  15.1574083  69.2825433  21.6552753  15.6654083
  69.3845433  25.9482753  15.3024083  69.9365433  26.5172753  15.6664083
  69.1525433  25.4332753  15.9674083  69.4315433  25.9562753  15.4544083
  73.5885433  24.9482753  22.3914083  74.0555433  25.2372753  23.0694083
  74.1605433  24.4702753  21.9374083  73.7425433  24.9202753  22.4244083
  69.2145433  24.3972753  12.9304083  69.9705433  23.9652753  12.9884083
  69.2295433  24.9292753  13.6214083  69.3285433  24.4122753  13.0414083
  70.1545433  22.6182753  20.9354083  70.5855433  22.4892753  20.1884083
  69.9495433  23.4662753  20.9094083  70.1875433  22.7242753  20.8214083
  76.5005433  16.1822753  14.5854083  76.4985433  16.0652753  13.7204083
  76.3195433  17.0302753  14.6774083  76.4735433  16.2902753  14.4714083
  74.2385433  26.1342753  19.2174083  74.3645433  26.9772753  19.4044083
  74.9065433  25.7352753  19.6134083  74.3565433  26.2002753  19.3034083
  72.3685433  19.6172753  29.0794083  71.8325433  19.1112753  29.5474083
  72.3885433  19.2272753  28.2994083  72.2915433  19.4842753  29.0334083
  72.8535433  19.0142753  14.2194083  72.7255433  18.5662753  14.9574083
  72.2715433  18.6722753  13.6674083  72.7485433  18.8972753  14.2474083
  73.0205433  20.8442753  20.8184083  72.2395433  20.7852753  20.4354083
  73.0925433  20.0922753  21.2554083  72.9155433  20.7252753  20.8264083
  73.4505433  20.5812753  24.2864083  73.4755433  19.9062753  23.7354083
  72.8045433  21.0772753  23.9744083  73.3595433  20.5542753  24.1594083
  77.5505433  29.3582753  23.6784083  77.2735433  28.7172753  23.1554083
  77.3425433  30.0842753  23.2404083  77.4795433  29.3712753  23.5364083
  71.2495433  21.9362753  29.8454083  71.2125433  22.4372753  29.1314083
  71.5805433  21.1842753  29.5504083  71.2925433  21.8982753  29.6964083
  77.1485433  26.9862753  29.2804083  77.5025433  26.8082753  30.0574083
  76.7125433  26.2572753  29.0814083  77.1365433  26.8522753  29.3664083
  78.1205433  17.7332753  21.9184083  78.6005433  18.4322753  22.1264083
  78.4935433  17.0862753  22.3694083  78.2465433  17.7412753  22.0154083
  75.2315433  29.5012753  15.8654083  75.0845433  28.7252753  16.2364083
  75.9205433  29.3542753  15.3504083  75.3115433  29.3642753  15.8444083
  74.9025433  13.2442753  13.8534083  74.9995433  13.1372753  14.7144083
  74.1945433  13.7502753  13.7884083  74.8125433  13.3032753  13.9714083
  77.5235433  29.0172753  14.2674083  78.1455433  29.1802753  14.8574083
  77.5595433  29.7082753  13.7354083  77.6205433  29.1432753  14.2764083
  72.0245433  21.5512753  15.0964083  72.3485433  20.7722753  14.8744083
  72.6705433  21.9192753  15.5514083  72.1675433  21.4902753  15.1304083
  69.0215433  13.2122753  16.0644083  69.1505433  12.5042753  15.5724083
  68.6545433  12.8942753  16.7894083  68.9865433  13.0602753  16.0994083
  78.7145433  20.8932753  16.5214083  78.7735433  21.5432753  17.1004083
  78.5255433  20.1972753  17.0124083  78.6955433  20.8862753  16.6794083
  73.2105433  15.4102753  13.0334083  72.6995433  15.4632753  12.3274083
  73.9945433  15.6502753  12.7374083  73.2505433  15.4532753  12.8854083
  77.9375433  22.9402753  20.9524083  77.0905433  22.7462753  21.0334083
  78.2615433  22.7752753  21.7454083  77.8595433  22.8872753  21.0814083
  74.6895433  29.6702753  11.8384083  75.1285433  28.9732753  12.1264083
  74.8965433  30.2942753  12.4114083  74.7855433  29.6592753  11.9654083
  71.7855433  22.6332753  23.2684083  72.5075433  23.1212753  23.2314083
  71.5155433  22.6032753  22.4394083  71.8525433  22.7012753  23.1404083
  75.0155433  17.8042753  20.0034083  75.8615433  17.6142753  20.1014083
  74.6455433  17.0272753  19.8654083  75.0855433  17.6612753  19.9974083
  69.8365433  19.1422753  16.6584083  70.3255433  18.8502753  17.3194083
  69.9655433  18.5492753  16.0314083  69.9275433  19.0112753  16.6634083
  74.3615433  20.5762753  12.1444083  73.7515433  20.1712753  12.6184083
  73.9755433  20.6942753  11.3714083  74.2145433  20.5332753  12.1004083
  71.1805433  23.6852753  27.5464083  70.7595433  23.1672753  26.9854083
  70.8285433  24.4712753  27.4034083  71.0665433  23.7252753  27.4424083
  75.8165433  19.0372753  14.8544083  76.0885433  19.8632753  14.9214083
  74.9535433  19.1122753  14.7584083  75.7295433  19.1702753  14.8494083
  69.2965433  15.0072753  21.3904083  69.3405433  15.3512753  20.5894083
  70.0515433  15.2442753  21.7574083  69.4145433  15.0932753  21.3264083
  75.9195433  25.4962753  24.1644083  75.6215433  26.0882753  24.7314083
  75.9745433  25.9382753  23.4154083  75.8835433  25.6492753  24.1374083
  73.8985433  24.4462753  27.5624083  73.0925433  24.1562753  27.7294083
  73.8095433  25.3142753  27.5684083  73.7665433  24.5312753  27.5874083
  78.4355433  21.9192753  23.6554083  78.9115433  22.2932753  24.2834083
  77.6125433  22.0532753  23.9144083  78.3845433  21.9942753  23.7864083
  75.1455433  17.5222753  26.3964083  75.3065433  16.7782753  26.8234083
  75.1005433  17.2732753  25.5614083  75.1625433  17.3752753  26.3364083
  77.6995433  29.3122753  18.8834083  78.2455433  29.9912753  18.9374083
  77.3495433  29.3942753  18.0884083  77.7285433  29.4252753  18.7734083
  76.8975433  13.3302753  26.2764083  77.6025433  13.6502753  25.8744083
  77.1385433  12.5232753  26.5034083  77.0365433  13.2582753  26.2504083
  75.8825433  27.5402753  22.2724083  75.2585433  28.1222753  22.0904083
  76.1305433  27.2542753  21.4864083  75.8265433  27.5842753  22.1294083
  77.4765433  22.3162753  12.1874083  76.6715433  22.1392753  11.9024083
  77.4435433  23.1672753  12.3794083  77.3525433  22.4152753  12.1744083
  73.4065433  18.3832753  22.3374083  73.8465433  18.2802753  21.5914083
  73.9515433  18.0702753  22.9424083  73.5515433  18.3222753  22.3164083
  78.5355433  29.1892753  28.1524083  79.0135433  28.5892753  27.7364083
  78.1845433  28.7462753  28.8174083  78.5545433  29.0352753  28.1894083
  76.9535433  13.3682753  22.3844083  76.1275433  13.2192753  22.6214083
  76.9135433  13.4032753  21.5134083  76.8255433  13.3512753  22.2904083
  78.5945433  24.4082753  27.1724083  77.7995433  24.3442753  27.5234083
  78.6655433  25.2552753  26.9774083  78.4875433  24.5232753  27.1954083
  69.5185433  13.7662753  28.4194083  69.3785433  14.5612753  28.0884083
  68.7325433  13.5232753  28.7084083  69.3815433  13.8482753  28.4134083
  74.4245433  30.6152753  22.4894083  74.4355433  30.6742753  23.3594083
  73.9995433  29.8682753  22.3394083  74.3635433  30.5132753  22.5954083
  72.5825433  16.5102753  15.6444083  72.7085433  16.1812753  14.8464083
  71.7705433  16.2612753  15.8434083  72.4815433  16.4252753  15.5564083
  71.1885433  30.1132753  27.9314083  70.5345433  29.5442753  28.0294083
  70.8135433  30.8862753  28.0824083  71.0365433  30.1432753  27.9684083
  72.5595433  18.5212753  26.0604083  72.9345433  19.1402753  25.5734083
  73.2335433  18.0472753  26.3454083  72.7145433  18.5432753  26.0304083
  70.3345433  16.9692753  25.3354083  70.4115433  16.8002753  24.4824083
  71.0805433  17.3752753  25.5324083  70.4555433  17.0042753  25.2384083
  72.8885433  14.3792753  27.7464083  72.8075433  13.5352753  27.9524083
  72.5745433  14.4232753  26.9334083  72.8305433  14.2612753  27.6564083
  69.7315433  22.1952753  25.5594083  70.0515433  22.4142753  24.7784083
  69.6315433  21.3302753  25.5044083  69.7635433  22.1002753  25.4364083
  71.1875433  18.1312753  12.1774083  70.5155433  18.1452753  12.7334083
  71.2825433  17.2832753  11.9934083  71.1025433  18.0082753  12.2324083
  75.1755433  26.8362753  13.2914083  75.6165433  26.9162753  14.0394083
  74.3705433  26.6202753  13.5494083  75.1215433  26.8162753  13.4404083
  74.4945433  21.4872753  26.9444083  74.0985433  22.2612753  27.0194083
  74.0885433  21.1142753  26.2684083  74.3765433  21.5462753  26.8554083
  72.5045433  25.9062753  13.8924083  72.2605433  25.5992753  14.6724083
  72.4715433  25.2032753  13.3764083  72.4635433  25.7572753  13.9314083
  75.3235433  24.1512753  12.6354083  74.5055433  23.8832753  12.7754083
  75.2955433  25.0032753  12.8204083  75.1985433  24.2382753  12.6834083
  74.9235433  14.4642753  24.3944083  74.0595433  14.5482753  24.4744083
  75.1435433  13.9502753  25.0634083  74.8285433  14.4012753  24.5054083
  76.5295433  19.5412753  27.9724083  76.2075433  18.9652753  27.4024083
  76.1705433  20.2962753  27.7264083  76.4295433  19.5672753  27.8524083
  77.3255433  12.7932753  12.5994083  77.4035433  13.0402753  11.7664083
  76.5825433  13.1702753  12.8574083  77.2275433  12.8852753  12.5144083
  74.9645433  29.8972753  28.2204083  75.0055433  30.0232753  29.0834083
  75.6155433  29.3372753  28.0644083  75.0665433  29.8332753  28.3254083
  72.1435433  14.5472753  25.0424083  71.8005433  13.7802753  24.8084083
  71.4485433  15.0712753  25.1064083  71.9905433  14.5112753  25.0174083
  72.5575433  28.2802753  29.5804083  73.1525433  28.7112753  30.0524083
  72.1935433  28.9042753  29.0914083  72.5915433  28.4362753  29.5774083
  70.7965433  17.8612753  18.9984083  70.4285433  18.1632753  19.7294083
  71.3305433  17.2322753  19.2824083  70.8205433  17.8132753  19.1484083
  70.4845433  26.2692753  26.5094083  69.9105433  26.6852753  27.0184083
  71.2175433  26.7342753  26.6044083  70.5085433  26.3992753  26.5984083
  72.2705433  29.5362753  15.2844083  72.1255433  29.6922753  14.4384083
  73.1365433  29.6152753  15.3624083  72.3775433  29.5712753  15.1714083
  76.4375433  21.9332753  15.0124083  76.5375433  22.0722753  14.1574083
  77.2555433  21.8732753  15.3084083  76.5725433  21.9442753  14.9294083
  75.5765433  14.9082753  28.1284083  75.8105433  14.3322753  27.5154083
  74.7345433  14.7272753  28.2694083  75.4865433  14.7962753  28.0584083
  72.9575433  28.3512753  21.7614083  72.8785433  27.5412753  21.4454083
  72.5135433  28.8382753  21.1894083  72.8805433  28.3032753  21.6304083
  70.5295433  30.5952753  25.3424083  71.0225433  30.5392753  26.0604083
  70.7175433  29.8622753  24.9074083  70.6305433  30.4782753  25.3844083
  69.5855433  26.9022753   4.8651673  69.7145433  26.6222753   5.6811673
  68.9755433  26.3612753   4.5561673  69.5145433  26.7812753   4.9401673
  76.1595433  24.4272753   9.9321673  75.9235433  24.4242753  10.7721673
  75.4115433  24.2792753   9.5081673  76.0135433  24.4042753   9.9931673
  75.5395433  17.0332753   4.4141673  76.2175433  17.0512753   3.8651673
  75.4945433  16.1972753   4.6591673  75.6325433  16.9122753   4.3691673
  76.1415433  27.6192753   7.1951673  76.2795433  28.3792753   6.7881673
  76.9325433  27.2542753   7.2221673  76.2785433  27.6782753   7.1391673
  69.4875433  19.1842753   2.0801673  69.2315433  20.0152753   2.0051673
  68.8235433  18.8012753   2.4971673  69.3515433  19.2502753   2.1311673
  72.5165433  14.0012753   2.5711673  71.9955433  13.3732753   2.2631673
  73.1075433  13.5642753   3.0421673  72.5275433  13.8432753   2.5951673
  75.8225433  16.1342753  11.8691673  75.9395433  15.6802753  11.1331673
  76.1105433  16.9322753  11.6661673  75.8825433  16.1852753  11.7301673
  71.5555433  15.7312753  10.8531673  70.7775433  15.3412753  10.7811673
  72.0465433  15.3192753  10.2621673  71.5125433  15.6122753  10.7551673
  78.2045433  13.3742753  10.0211673  78.3825433  12.5652753   9.7461673
  78.0615433  13.8152753   9.2821673  78.2095433  13.3202753   9.8711673
  73.9895433  30.1222753   6.4471673  74.2815433  30.0552753   7.2671673
  73.3635433  29.5172753   6.4021673  73.9405433  30.0232753   6.5621673
  68.9035433  16.2792753   8.4391673  68.8995433  16.8662753   9.0851673
  69.4975433  16.5912753   7.8821673  68.9905433  16.4122753   8.4521673
  71.9825433  28.2842753   5.5691673  71.2845433  27.7762753   5.6951673
  72.2425433  28.0792753   4.7611673  71.9175433  28.1792753   5.4681673
  73.3435433  27.1352753   8.1361673  74.1845433  27.1982753   7.9141673
  73.3065433  27.5322753   8.9121673  73.4625433  27.2032753   8.2181673
  75.3065433  22.6462753   2.8851673  75.4785433  22.4362753   3.7141673
  74.6515433  22.1122753   2.6691673  75.2355433  22.5362753   2.9761673
  76.0565433  22.5842753   5.4751673  76.1095433  23.4312753   5.6771673
  75.7715433  22.2142753   6.2121673  76.0225433  22.6542753   5.6131673
  68.8775433  26.9552753  11.6861673  69.6335433  27.3042753  11.9441673
  69.0545433  26.1022753  11.6291673  69.0155433  26.8802753  11.7161673
  70.9395433  17.1252753   3.5961673  71.7825433  17.3452753   3.5531673
  70.5505433  17.6982753   3.0651673  71.0065433  17.2422753   3.5111673
  76.7935433  18.8102753  11.7141673  76.3095433  19.3872753  12.1561673
  76.7655433  19.1052753  10.8931673  76.7175433  18.9392753  11.6581673
  73.5885433  24.9482753   3.3851673  74.0555433  25.2372753   4.0631673
  74.1605433  24.4702753   2.9311673  73.7425433  24.9202753   3.4181673
  72.3685433  19.6172753  10.0731673  71.8325433  19.1112753  10.5411673
  72.3885433  19.2272753   9.2931673  72.2915433  19.4842753  10.0271673
  73.4505433  20.5812753   5.2801673  73.4755433  19.9062753   4.7291673
  72.8045433  21.0772753   4.9681673  73.3595433  20.5542753   5.1531673
  77.5505433  29.3582753   4.6721673  77.2735433  28.7172753   4.1491673
  77.3425433  30.0842753   4.2341673  77.4795433  29.3712753   4.5301673
  71.2495433  21.9362753  10.8391673  71.2125433  22.4372753  10.1251673
  71.5805433  21.1842753  10.5441673  71.2925433  21.8982753  10.6901673
  77.1485433  26.9862753  10.2741673  77.5025433  26.8082753  11.0511673
  76.7125433  26.2572753  10.0751673  77.1365433  26.8522753  10.3601673
  78.1205433  17.7332753   2.9121673  78.6005433  18.4322753   3.1201673
  78.4935433  17.0862753   3.3631673  78.2465433  17.7412753   3.0091673
  77.9375433  22.9402753   1.9461673  77.0905433  22.7462753   2.0271673
  78.2615433  22.7752753   2.7391673  77.8595433  22.8872753   2.0751673
  71.7855433  22.6332753   4.2621673  72.5075433  23.1212753   4.2251673
  71.5155433  22.6032753   3.4331673  71.8525433  22.7012753   4.1341673
  71.1805433  23.6852753   8.5401673  70.7595433  23.1672753   7.9791673
  70.8285433  24.4712753   8.3971673  71.0665433  23.7252753   8.4361673
  75.9195433  25.4962753   5.1581673  75.6215433  26.0882753   5.7251673
  75.9745433  25.9382753   4.4091673  75.8835433  25.6492753   5.1311673
  73.8985433  24.4462753   8.5561673  73.0925433  24.1562753   8.7231673
  73.8095433  25.3142753   8.5621673  73.7665433  24.5312753   8.5811673
  78.4355433  21.9192753   4.6491673  78.9115433  22.2932753   5.2771673
  77.6125433  22.0532753   4.9081673  78.3845433  21.9942753   4.7801673
  75.1455433  17.5222753   7.3901673  75.3065433  16.7782753   7.8171673
  75.1005433  17.2732753   6.5551673  75.1625433  17.3752753   7.3301673
  76.8975433  13.3302753   7.2701673  77.6025433  13.6502753   6.8681673
  77.1385433  12.5232753   7.4971673  77.0365433  13.2582753   7.2441673
  75.8825433  27.5402753   3.2661673  75.2585433  28.1222753   3.0841673
  76.1305433  27.2542753   2.4801673  75.8265433  27.5842753   3.1231673
  73.4065433  18.3832753   3.3311673  73.8465433  18.2802753   2.5851673
  73.9515433  18.0702753   3.9361673  73.5515433  18.3222753   3.3101673
  78.5355433  29.1892753   9.1461673  79.0135433  28.5892753   8.7301673
  78.1845433  28.7462753   9.8111673  78.5545433  29.0352753   9.1831673
  76.9535433  13.3682753   3.3781673  76.1275433  13.2192753   3.6151673
  76.9135433  13.4032753   2.5071673  76.8255433  13.3512753   3.2841673
  78.5945433  24.4082753   8.1661673  77.7995433  24.3442753   8.5171673
  78.6655433  25.2552753   7.9711673  78.4875433  24.5232753   8.1891673
  69.5185433  13.7662753   9.4131673  69.3785433  14.5612753   9.0821673
  68.7325433  13.5232753   9.7021673  69.3815433  13.8482753   9.4071673
  74.4245433  30.6152753   3.4831673  74.4355433  30.6742753   4.3531673
  73.9995433  29.8682753   3.3331673  74.3635433  30.5132753   3.5891673
  71.1885433  30.1132753   8.9251673  70.5345433  29.5442753   9.0231673
  70.8135433  30.8862753   9.0761673  71.0365433  30.1432753   8.9621673
  72.5595433  18.5212753   7.0541673  72.9345433  19.1402753   6.5671673
  73.2335433  18.0472753   7.3391673  72.7145433  18.5432753   7.0241673
  70.3345433  16.9692753   6.3291673  70.4115433  16.8002753   5.4761673
  71.0805433  17.3752753   6.5261673  70.4555433  17.0042753   6.2321673
  72.8885433  14.3792753   8.7401673  72.8075433  13.5352753   8.9461673
  72.5745433  14.4232753   7.9271673  72.8305433  14.2612753   8.6501673
  69.7315433  22.1952753   6.5531673  70.0515433  22.4142753   5.7721673
  69.6315433  21.3302753   6.4981673  69.7635433  22.1002753   6.4301673
  74.4945433  21.4872753   7.9381673  74.0985433  22.2612753   8.0131673
  74.0885433  21.1142753   7.2621673  74.3765433  21.5462753   7.8491673
  74.9235433  14.4642753   5.3881673  74.0595433  14.5482753   5.4681673
  75.1435433  13.9502753   6.0571673  74.8285433  14.4012753   5.4991673
  76.5295433  19.5412753   8.9661673  76.2075433  18.9652753   8.3961673
  76.1705433  20.2962753   8.7201673  76.4295433  19.5672753   8.8461673
  74.9645433  29.8972753   9.2141673  75.0055433  30.0232753  10.0771673
  75.6155433  29.3372753   9.0581673  75.0665433  29.8332753   9.3191673
  72.1435433  14.5472753   6.0361673  71.8005433  13.7802753   5.8021673
  71.4485433  15.0712753   6.1001673  71.9905433  14.5112753   6.0111673
  72.5575433  28.2802753  10.5741673  73.1525433  28.7112753  11.0461673
  72.1935433  28.9042753  10.0851673  72.5915433  28.4362753  10.5711673
  70.4845433  26.2692753   7.5031673  69.9105433  26.6852753   8.0121673
  71.2175433  26.7342753   7.5981673  70.5085433  26.3992753   7.5921673
  75.5765433  14.9082753   9.1221673  75.8105433  14.3322753   8.5091673
  74.7345433  14.7272753   9.2631673  75.4865433  14.7962753   9.0521673
  72.9575433  28.3512753   2.7551673  72.8785433  27.5412753   2.4391673
  72.5135433  28.8382753   2.1831673  72.8805433  28.3032753   2.6241673
  70.5295433  30.5952753   6.3361673  71.0225433  30.5392753   7.0541673
  70.7175433  29.8622753   5.9011673  70.6305433  30.4782753   6.3781673
  69.6455433   5.6891673  74.6351313  69.2045433   5.8071673  75.3781313
  69.3625433   4.9141673  74.3501313  69.5385433   5.5921673  74.7031313
  72.5275433   4.7441673  69.8141313  72.1355433   4.3731673  69.1281313
  72.4475433   4.1461673  70.4431313  72.4575433   4.6011673  69.8051313
  72.1545433   6.3851673  73.7141313  72.7625433   6.2151673  74.3171313
  71.4035433   6.2451673  74.1351313  72.1335433   6.3391673  73.8651313
  71.0455433   9.4761673  69.7911313  71.5125433   9.5601673  69.0591313
  71.5005433   8.8981673  70.2601313  71.1815433   9.4031673  69.7521313
  71.0315433   2.9451673  75.0921313  70.5695433   2.5531673  74.4651313
  71.7315433   2.4321673  75.1841313  71.0665433   2.8121673  75.0131313
  77.2365433   7.0261673  77.7251313  77.5845433   6.2271673  77.7551313
  77.9015433   7.5301673  77.4701313  77.3865433   6.9821673  77.6921313
  77.2935433   6.4751673  73.9361313  77.6245433   5.8311673  74.4221313
  77.5335433   6.2641673  73.1251313  77.3775433   6.3491673  73.8881313
  69.3975433  10.4161673  76.0051313  68.8055433  10.9741673  75.6921313
  69.8235433  10.1471673  75.2931313  69.3735433  10.4581673  75.8541313
  75.2375433   8.2601673  73.4851313  74.6585433   7.9851673  74.0771313
  75.8615433   7.6511673  73.5101313  75.2445433   8.1301673  73.5761313
  70.9425433   9.0861673  73.9361313  71.5985433   8.5111673  73.9511313
  71.3315433   9.8351673  73.7151313  71.0975433   9.1111673  73.9061313
  71.7605433   7.5731673  77.4361313  72.1835433   7.2171673  76.7621313
  72.0845433   7.1511673  78.1281313  71.8705433   7.4581673  77.4391313
  74.9915433  10.4251673  76.7321313  75.8355433  10.5291673  76.5371313
  74.6945433  11.2431673  76.8001313  75.0725433  10.5611673  76.7131313
  78.3795433   8.3321673  69.7561313  78.1985433   8.8771673  70.4131313
  79.1455433   8.6221673  69.4551313  78.4655433   8.4561673  69.8091313
  72.6225433   4.9721673  76.0881313  73.4735433   4.8921673  75.9151313
  72.2655433   4.2901673  75.6761313  72.6955433   4.8591673  76.0011313
  71.3895433  11.6971673  77.3251313  70.7165433  11.1991673  77.0801313
  71.7925433  11.8821673  76.5741313  71.3495433  11.6511673  77.1781313
  74.9905433   4.9791673  74.3231313  75.7035433   5.4741673  74.4131313
  75.2125433   4.4121673  73.6971313  75.1285433   4.9681673  74.2441313
  69.1465433   6.6221673  77.6431313  68.4795433   7.1101673  77.9191313
  69.8265433   7.1671673  77.6721313  69.1485433   6.7741673  77.6881313
  69.2125433   3.3061673  72.7461313  69.0275433   2.4671673  72.8981313
  69.8715433   3.2701673  72.1761313  69.2825433   3.1771673  72.6841313
  69.3845433   7.4701673  72.3211313  69.9365433   8.0391673  72.6851313
  69.1525433   6.9551673  72.9861313  69.4315433   7.4781673  72.4731313
  69.2145433   5.9191673  69.9491313  69.9705433   5.4871673  70.0071313
  69.2295433   6.4511673  70.6401313  69.3285433   5.9341673  70.0601313
  70.1545433   4.1401673  77.9541313  70.5855433   4.0111673  77.2071313
  69.9495433   4.9881673  77.9281313  70.1875433   4.2461673  77.8401313
  74.2385433   7.6561673  76.2361313  74.3645433   8.4991673  76.4231313
  74.9065433   7.2571673  76.6321313  74.3565433   7.7221673  76.3221313
  73.0205433   2.3661673  77.8371313  72.2395433   2.3071673  77.4541313
  73.0925433   1.6141673  78.2741313  72.9155433   2.2471673  77.8451313
  75.2315433  11.0231673  72.8841313  75.0845433  10.2471673  73.2551313
  75.9205433  10.8761673  72.3691313  75.3115433  10.8861673  72.8631313
  77.5235433  10.5391673  71.2861313  78.1455433  10.7021673  71.8761313
  77.5595433  11.2301673  70.7541313  77.6205433  10.6651673  71.2951313
  72.0245433   3.0731673  72.1151313  72.3485433   2.2941673  71.8931313
  72.6705433   3.4411673  72.5701313  72.1675433   3.0121673  72.1491313
  78.7145433   2.4151673  73.5401313  78.7735433   3.0651673  74.1191313
  78.5255433   1.7191673  74.0311313  78.6955433   2.4081673  73.6981313
  77.9375433   4.4621673  77.9711313  77.0905433   4.2681673  78.0521313
  78.2615433   4.2971673  78.7641313  77.8595433   4.4091673  78.1001313
  74.6895433  11.1921673  68.8571313  75.1285433  10.4951673  69.1451313
  74.8965433  11.8161673  69.4301313  74.7855433  11.1811673  68.9841313
  74.3615433   2.0981673  69.1631313  73.7515433   1.6931673  69.6371313
  73.9755433   2.2161673  68.3901313  74.2145433   2.0551673  69.1191313
  77.6995433  10.8341673  75.9021313  78.2455433  11.5131673  75.9561313
  77.3495433  10.9161673  75.1071313  77.7285433  10.9471673  75.7921313
  77.4765433   3.8381673  69.2061313  76.6715433   3.6611673  68.9211313
  77.4435433   4.6891673  69.3981313  77.3525433   3.9371673  69.1931313
  75.1755433   8.3581673  70.3101313  75.6165433   8.4381673  71.0581313
  74.3705433   8.1421673  70.5681313  75.1215433   8.3381673  70.4591313
  72.5045433   7.4281673  70.9111313  72.2605433   7.1211673  71.6911313
  72.4715433   6.7251673  70.3951313  72.4635433   7.2791673  70.9501313
  75.3235433   5.6731673  69.6541313  74.5055433   5.4051673  69.7941313
  75.2955433   6.5251673  69.8391313  75.1985433   5.7601673  69.7021313
  72.2705433  11.0581673  72.3031313  72.1255433  11.2141673  71.4571313
  73.1365433  11.1371673  72.3811313  72.3775433  11.0931673  72.1901313
  76.4375433   3.4551673  72.0311313  76.5375433   3.5941673  71.1761313
  77.2555433   3.3951673  72.3271313  76.5725433   3.4661673  71.9481313
  72.9575433   9.8731673  78.7801313  72.8785433   9.0631673  78.4641313
  72.5135433  10.3601673  78.2081313  72.8805433   9.8251673  78.6491313
  69.6455433   5.6891673  55.6288903  69.2045433   5.8071673  56.3718903
  69.3625433   4.9141673  55.3438903  69.5385433   5.5921673  55.6968903
  72.5275433   4.7441673  50.8078903  72.1355433   4.3731673  50.1218903
  72.4475433   4.1461673  51.4368903  72.4575433   4.6011673  50.7988903
  72.1545433   6.3851673  54.7078903  72.7625433   6.2151673  55.3108903
  71.4035433   6.2451673  55.1288903  72.1335433   6.3391673  54.8588903
  71.0455433   9.4761673  50.7848903  71.5125433   9.5601673  50.0528903
  71.5005433   8.8981673  51.2538903  71.1815433   9.4031673  50.7458903
  69.5855433   8.4241673  61.8838903  69.7145433   8.1441673  62.6998903
  68.9755433   7.8831673  61.5748903  69.5145433   8.3031673  61.9588903
  76.1595433   5.9491673  66.9508903  75.9235433   5.9461673  67.7908903
  75.4115433   5.8011673  66.5268903  76.0135433   5.9261673  67.0118903
  71.0315433   2.9451673  56.0858903  70.5695433   2.5531673  55.4588903
  71.7315433   2.4321673  56.1778903  71.0665433   2.8121673  56.0068903
  76.1415433   9.1411673  64.2138903  76.2795433   9.9011673  63.8068903
  76.9325433   8.7761673  64.2408903  76.2785433   9.2001673  64.1578903
  77.2365433   7.0261673  58.7188903  77.5845433   6.2271673  58.7488903
  77.9015433   7.5301673  58.4638903  77.3865433   6.9821673  58.6858903
  77.2935433   6.4751673  54.9298903  77.6245433   5.8311673  55.4158903
  77.5335433   6.2641673  54.1188903  77.3775433   6.3491673  54.8818903
  69.3975433  10.4161673  56.9988903  68.8055433  10.9741673  56.6858903
  69.8235433  10.1471673  56.2868903  69.3735433  10.4581673  56.8478903
  75.2375433   8.2601673  54.4788903  74.6585433   7.9851673  55.0708903
  75.8615433   7.6511673  54.5038903  75.2445433   8.1301673  54.5698903
  70.9425433   9.0861673  54.9298903  71.5985433   8.5111673  54.9448903
  71.3315433   9.8351673  54.7088903  71.0975433   9.1111673  54.8998903
  71.7605433   7.5731673  58.4298903  72.1835433   7.2171673  57.7558903
  72.0845433   7.1511673  59.1218903  71.8705433   7.4581673  58.4328903
  74.9915433  10.4251673  57.7258903  75.8355433  10.5291673  57.5308903
  74.6945433  11.2431673  57.7938903  75.0725433  10.5611673  57.7068903
  73.9895433  11.6441673  63.4658903  74.2815433  11.5771673  64.2858903
  73.3635433  11.0391673  63.4208903  73.9405433  11.5451673  63.5808903
  78.3795433   8.3321673  50.7498903  78.1985433   8.8771673  51.4068903
  79.1455433   8.6221673  50.4488903  78.4655433   8.4561673  50.8028903
  71.9825433   9.8061673  62.5878903  71.2845433   9.2981673  62.7138903
  72.2425433   9.6011673  61.7798903  71.9175433   9.7011673  62.4868903
  73.3435433   8.6571673  65.1548903  74.1845433   8.7201673  64.9328903
  73.3065433   9.0541673  65.9308903  73.4625433   8.7251673  65.2368903
  75.3065433   4.1681673  59.9038903  75.4785433   3.9581673  60.7328903
  74.6515433   3.6341673  59.6878903  75.2355433   4.0581673  59.9948903
  76.0565433   4.1061673  62.4938903  76.1095433   4.9531673  62.6958903
  75.7715433   3.7361673  63.2308903  76.0225433   4.1761673  62.6318903
  68.8775433   8.4771673  68.7048903  69.6335433   8.8261673  68.9628903
  69.0545433   7.6241673  68.6478903  69.0155433   8.4021673  68.7348903
  72.6225433   4.9721673  57.0818903  73.4735433   4.8921673  56.9088903
  72.2655433   4.2901673  56.6698903  72.6955433   4.8591673  56.9948903
  71.3895433  11.6971673  58.3188903  70.7165433  11.1991673  58.0738903
  71.7925433  11.8821673  57.5678903  71.3495433  11.6511673  58.1718903
  74.9905433   4.9791673  55.3168903  75.7035433   5.4741673  55.4068903
  75.2125433   4.4121673  54.6908903  75.1285433   4.9681673  55.2378903
  69.1465433   6.6221673  58.6368903  68.4795433   7.1101673  58.9128903
  69.8265433   7.1671673  58.6658903  69.1485433   6.7741673  58.6818903
  69.2125433   3.3061673  53.7398903  69.0275433   2.4671673  53.8918903
  69.8715433   3.2701673  53.1698903  69.2825433   3.1771673  53.6778903
  69.3845433   7.4701673  53.3148903  69.9365433   8.0391673  53.6788903
  69.1525433   6.9551673  53.9798903  69.4315433   7.4781673  53.4668903
  73.5885433   6.4701673  60.4038903  74.0555433   6.7591673  61.0818903
  74.1605433   5.9921673  59.9498903  73.7425433   6.4421673  60.4368903
  69.2145433   5.9191673  50.9428903  69.9705433   5.4871673  51.0008903
  69.2295433   6.4511673  51.6338903  69.3285433   5.9341673  51.0538903
  70.1545433   4.1401673  58.9478903  70.5855433   4.0111673  58.2008903
  69.9495433   4.9881673  58.9218903  70.1875433   4.2461673  58.8338903
  74.2385433   7.6561673  57.2298903  74.3645433   8.4991673  57.4168903
  74.9065433   7.2571673  57.6258903  74.3565433   7.7221673  57.3158903
  73.0205433   2.3661673  58.8308903  72.2395433   2.3071673  58.4478903
  73.0925433   1.6141673  59.2678903  72.9155433   2.2471673  58.8388903
  77.5505433  10.8801673  61.6908903  77.2735433  10.2391673  61.1678903
  77.3425433  11.6061673  61.2528903  77.4795433  10.8931673  61.5488903
  71.2495433   3.4581673  67.8578903  71.2125433   3.9591673  67.1438903
  71.5805433   2.7061673  67.5628903  71.2925433   3.4201673  67.7088903
  77.1485433   8.5081673  67.2928903  77.5025433   8.3301673  68.0698903
  76.7125433   7.7791673  67.0938903  77.1365433   8.3741673  67.3788903
  75.2315433  11.0231673  53.8778903  75.0845433  10.2471673  54.2488903
  75.9205433  10.8761673  53.3628903  75.3115433  10.8861673  53.8568903
  77.5235433  10.5391673  52.2798903  78.1455433  10.7021673  52.8698903
  77.5595433  11.2301673  51.7478903  77.6205433  10.6651673  52.2888903
  72.0245433   3.0731673  53.1088903  72.3485433   2.2941673  52.8868903
  72.6705433   3.4411673  53.5638903  72.1675433   3.0121673  53.1428903
  78.7145433   2.4151673  54.5338903  78.7735433   3.0651673  55.1128903
  78.5255433   1.7191673  55.0248903  78.6955433   2.4081673  54.6918903
  77.9375433   4.4621673  58.9648903  77.0905433   4.2681673  59.0458903
  78.2615433   4.2971673  59.7578903  77.8595433   4.4091673  59.0938903
  74.6895433  11.1921673  49.8508903  75.1285433  10.4951673  50.1388903
  74.8965433  11.8161673  50.4238903  74.7855433  11.1811673  49.9778903
  71.7855433   4.1551673  61.2808903  72.5075433   4.6431673  61.2438903
  71.5155433   4.1251673  60.4518903  71.8525433   4.2231673  61.1528903
  74.3615433   2.0981673  50.1568903  73.7515433   1.6931673  50.6308903
  73.9755433   2.2161673  49.3838903  74.2145433   2.0551673  50.1128903
  71.1805433   5.2071673  65.5588903  70.7595433   4.6891673  64.9978903
  70.8285433   5.9931673  65.4158903  71.0665433   5.2471673  65.4548903
  75.9195433   7.0181673  62.1768903  75.6215433   7.6101673  62.7438903
  75.9745433   7.4601673  61.4278903  75.8835433   7.1711673  62.1498903
  73.8985433   5.9681673  65.5748903  73.0925433   5.6781673  65.7418903
  73.8095433   6.8361673  65.5808903  73.7665433   6.0531673  65.5998903
  78.4355433   3.4411673  61.6678903  78.9115433   3.8151673  62.2958903
  77.6125433   3.5751673  61.9268903  78.3845433   3.5161673  61.7988903
  77.6995433  10.8341673  56.8958903  78.2455433  11.5131673  56.9498903
  77.3495433  10.9161673  56.1008903  77.7285433  10.9471673  56.7858903
  75.8825433   9.0621673  60.2848903  75.2585433   9.6441673  60.1028903
  76.1305433   8.7761673  59.4988903  75.8265433   9.1061673  60.1418903
  77.4765433   3.8381673  50.1998903  76.6715433   3.6611673  49.9148903
  77.4435433   4.6891673  50.3918903  77.3525433   3.9371673  50.1868903
  78.5355433  10.7111673  66.1648903  79.0135433  10.1111673  65.7488903
  78.1845433  10.2681673  66.8298903  78.5545433  10.5571673  66.2018903
  78.5945433   5.9301673  65.1848903  77.7995433   5.8661673  65.5358903
  78.6655433   6.7771673  64.9898903  78.4875433   6.0451673  65.2078903
  74.4245433  12.1371673  60.5018903  74.4355433  12.1961673  61.3718903
  73.9995433  11.3901673  60.3518903  74.3635433  12.0351673  60.6078903
  71.1885433  11.6351673  65.9438903  70.5345433  11.0661673  66.0418903
  70.8135433  12.4081673  66.0948903  71.0365433  11.6651673  65.9808903
  69.7315433   3.7171673  63.5718903  70.0515433   3.9361673  62.7908903
  69.6315433   2.8521673  63.5168903  69.7635433   3.6221673  63.4488903
  75.1755433   8.3581673  51.3038903  75.6165433   8.4381673  52.0518903
  74.3705433   8.1421673  51.5618903  75.1215433   8.3381673  51.4528903
  74.4945433   3.0091673  64.9568903  74.0985433   3.7831673  65.0318903
  74.0885433   2.6361673  64.2808903  74.3765433   3.0681673  64.8678903
  72.5045433   7.4281673  51.9048903  72.2605433   7.1211673  52.6848903
  72.4715433   6.7251673  51.3888903  72.4635433   7.2791673  51.9438903
  75.3235433   5.6731673  50.6478903  74.5055433   5.4051673  50.7878903
  75.2955433   6.5251673  50.8328903  75.1985433   5.7601673  50.6958903
  74.9645433  11.4191673  66.2328903  75.0055433  11.5451673  67.0958903
  75.6155433  10.8591673  66.0768903  75.0665433  11.3551673  66.3378903
  72.5575433   9.8021673  67.5928903  73.1525433  10.2331673  68.0648903
  72.1935433  10.4261673  67.1038903  72.5915433   9.9581673  67.5898903
  70.4845433   7.7911673  64.5218903  69.9105433   8.2071673  65.0308903
  71.2175433   8.2561673  64.6168903  70.5085433   7.9211673  64.6108903
  72.2705433  11.0581673  53.2968903  72.1255433  11.2141673  52.4508903
  73.1365433  11.1371673  53.3748903  72.3775433  11.0931673  53.1838903
  76.4375433   3.4551673  53.0248903  76.5375433   3.5941673  52.1698903
  77.2555433   3.3951673  53.3208903  76.5725433   3.4661673  52.9418903
  72.9575433   9.8731673  59.7738903  72.8785433   9.0631673  59.4578903
  72.5135433  10.3601673  59.2018903  72.8805433   9.8251673  59.6428903
  70.5295433  12.1171673  63.3548903  71.0225433  12.0611673  64.0728903
  70.7175433  11.3841673  62.9198903  70.6305433  12.0001673  63.3968903
  69.6455433   5.6891673  36.6226493  69.2045433   5.8071673  37.3656493
  69.3625433   4.9141673  36.3376493  69.5385433   5.5921673  36.6906493
  72.5275433   4.7441673  31.8016493  72.1355433   4.3731673  31.1156493
  72.4475433   4.1461673  32.4306493  72.4575433   4.6011673  31.7926493
  72.1545433   6.3851673  35.7016493  72.7625433   6.2151673  36.3046493
  71.4035433   6.2451673  36.1226493  72.1335433   6.3391673  35.8526493
  71.0455433   9.4761673  31.7786493  71.5125433   9.5601673  31.0466493
  71.5005433   8.8981673  32.2476493  71.1815433   9.4031673  31.7396493
  69.5855433   8.4241673  42.8776493  69.7145433   8.1441673  43.6936493
  68.9755433   7.8831673  42.5686493  69.5145433   8.3031673  42.9526493
  76.1595433   5.9491673  47.9446493  75.9235433   5.9461673  48.7846493
  75.4115433   5.8011673  47.5206493  76.0135433   5.9261673  48.0056493
  71.0315433   2.9451673  37.0796493  70.5695433   2.5531673  36.4526493
  71.7315433   2.4321673  37.1716493  71.0665433   2.8121673  37.0006493
  76.1415433   9.1411673  45.2076493  76.2795433   9.9011673  44.8006493
  76.9325433   8.7761673  45.2346493  76.2785433   9.2001673  45.1516493
  77.2365433   7.0261673  39.7126493  77.5845433   6.2271673  39.7426493
  77.9015433   7.5301673  39.4576493  77.3865433   6.9821673  39.6796493
  77.2935433   6.4751673  35.9236493  77.6245433   5.8311673  36.4096493
  77.5335433   6.2641673  35.1126493  77.3775433   6.3491673  35.8756493
  69.3975433  10.4161673  37.9926493  68.8055433  10.9741673  37.6796493
  69.8235433  10.1471673  37.2806493  69.3735433  10.4581673  37.8416493
  75.2375433   8.2601673  35.4726493  74.6585433   7.9851673  36.0646493
  75.8615433   7.6511673  35.4976493  75.2445433   8.1301673  35.5636493
  70.9425433   9.0861673  35.9236493  71.5985433   8.5111673  35.9386493
  71.3315433   9.8351673  35.7026493  71.0975433   9.1111673  35.8936493
  71.7605433   7.5731673  39.4236493  72.1835433   7.2171673  38.7496493
  72.0845433   7.1511673  40.1156493  71.8705433   7.4581673  39.4266493
  74.9915433  10.4251673  38.7196493  75.8355433  10.5291673  38.5246493
  74.6945433  11.2431673  38.7876493  75.0725433  10.5611673  38.7006493
  73.9895433  11.6441673  44.4596493  74.2815433  11.5771673  45.2796493
  73.3635433  11.0391673  44.4146493  73.9405433  11.5451673  44.5746493
  78.3795433   8.3321673  31.7436493  78.1985433   8.8771673  32.4006493
  79.1455433   8.6221673  31.4426493  78.4655433   8.4561673  31.7966493
  71.9825433   9.8061673  43.5816493  71.2845433   9.2981673  43.7076493
  72.2425433   9.6011673  42.7736493  71.9175433   9.7011673  43.4806493
  73.3435433   8.6571673  46.1486493  74.1845433   8.7201673  45.9266493
  73.3065433   9.0541673  46.9246493  73.4625433   8.7251673  46.2306493
  75.3065433   4.1681673  40.8976493  75.4785433   3.9581673  41.7266493
  74.6515433   3.6341673  40.6816493  75.2355433   4.0581673  40.9886493
  76.0565433   4.1061673  43.4876493  76.1095433   4.9531673  43.6896493
  75.7715433   3.7361673  44.2246493  76.0225433   4.1761673  43.6256493
  68.8775433   8.4771673  49.6986493  69.6335433   8.8261673  49.9566493
  69.0545433   7.6241673  49.6416493  69.0155433   8.4021673  49.7286493
  72.6225433   4.9721673  38.0756493  73.4735433   4.8921673  37.9026493
  72.2655433   4.2901673  37.6636493  72.6955433   4.8591673  37.9886493
  71.3895433  11.6971673  39.3126493  70.7165433  11.1991673  39.0676493
  71.7925433  11.8821673  38.5616493  71.3495433  11.6511673  39.1656493
  74.9905433   4.9791673  36.3106493  75.7035433   5.4741673  36.4006493
  75.2125433   4.4121673  35.6846493  75.1285433   4.9681673  36.2316493
  69.1465433   6.6221673  39.6306493  68.4795433   7.1101673  39.9066493
  69.8265433   7.1671673  39.6596493  69.1485433   6.7741673  39.6756493
  69.2125433   3.3061673  34.7336493  69.0275433   2.4671673  34.8856493
  69.8715433   3.2701673  34.1636493  69.2825433   3.1771673  34.6716493
  69.3845433   7.4701673  34.3086493  69.9365433   8.0391673  34.6726493
  69.1525433   6.9551673  34.9736493  69.4315433   7.4781673  34.4606493
  73.5885433   6.4701673  41.3976493  74.0555433   6.7591673  42.0756493
  74.1605433   5.9921673  40.9436493  73.7425433   6.4421673  41.4306493
  69.2145433   5.9191673  31.9366493  69.9705433   5.4871673  31.9946493
  69.2295433   6.4511673  32.6276493  69.3285433   5.9341673  32.0476493
  70.1545433   4.1401673  39.9416493  70.5855433   4.0111673  39.1946493
  69.9495433   4.9881673  39.9156493  70.1875433   4.2461673  39.8276493
  74.2385433   7.6561673  38.2236493  74.3645433   8.4991673  38.4106493
  74.9065433   7.2571673  38.6196493  74.3565433   7.7221673  38.3096493
  73.0205433   2.3661673  39.8246493  72.2395433   2.3071673  39.4416493
  73.0925433   1.6141673  40.2616493  72.9155433   2.2471673  39.8326493
  77.5505433  10.8801673  42.6846493  77.2735433  10.2391673  42.1616493
  77.3425433  11.6061673  42.2466493  77.4795433  10.8931673  42.5426493
  71.2495433   3.4581673  48.8516493  71.2125433   3.9591673  48.1376493
  71.5805433   2.7061673  48.5566493  71.2925433   3.4201673  48.7026493
  77.1485433   8.5081673  48.2866493  77.5025433   8.3301673  49.0636493
  76.7125433   7.7791673  48.0876493  77.1365433   8.3741673  48.3726493
  75.2315433  11.0231673  34.8716493  75.0845433  10.2471673  35.2426493
  75.9205433  10.8761673  34.3566493  75.3115433  10.8861673  34.8506493
  77.5235433  10.5391673  33.2736493  78.1455433  10.7021673  33.8636493
  77.5595433  11.2301673  32.7416493  77.6205433  10.6651673  33.2826493
  72.0245433   3.0731673  34.1026493  72.3485433   2.2941673  33.8806493
  72.6705433   3.4411673  34.5576493  72.1675433   3.0121673  34.1366493
  78.7145433   2.4151673  35.5276493  78.7735433   3.0651673  36.1066493
  78.5255433   1.7191673  36.0186493  78.6955433   2.4081673  35.6856493
  77.9375433   4.4621673  39.9586493  77.0905433   4.2681673  40.0396493
  78.2615433   4.2971673  40.7516493  77.8595433   4.4091673  40.0876493
  74.6895433  11.1921673  30.8446493  75.1285433  10.4951673  31.1326493
  74.8965433  11.8161673  31.4176493  74.7855433  11.1811673  30.9716493
  71.7855433   4.1551673  42.2746493  72.5075433   4.6431673  42.2376493
  71.5155433   4.1251673  41.4456493  71.8525433   4.2231673  42.1466493
  74.3615433   2.0981673  31.1506493  73.7515433   1.6931673  31.6246493
  73.9755433   2.2161673  30.3776493  74.2145433   2.0551673  31.1066493
  71.1805433   5.2071673  46.5526493  70.7595433   4.6891673  45.9916493
  70.8285433   5.9931673  46.4096493  71.0665433   5.2471673  46.4486493
  75.9195433   7.0181673  43.1706493  75.6215433   7.6101673  43.7376493
  75.9745433   7.4601673  42.4216493  75.8835433   7.1711673  43.1436493
  73.8985433   5.9681673  46.5686493  73.0925433   5.6781673  46.7356493
  73.8095433   6.8361673  46.5746493  73.7665433   6.0531673  46.5936493
  78.4355433   3.4411673  42.6616493  78.9115433   3.8151673  43.2896493
  77.6125433   3.5751673  42.9206493  78.3845433   3.5161673  42.7926493
  77.6995433  10.8341673  37.8896493  78.2455433  11.5131673  37.9436493
  77.3495433  10.9161673  37.0946493  77.7285433  10.9471673  37.7796493
  75.8825433   9.0621673  41.2786493  75.2585433   9.6441673  41.0966493
  76.1305433   8.7761673  40.4926493  75.8265433   9.1061673  41.1356493
  77.4765433   3.8381673  31.1936493  76.6715433   3.6611673  30.9086493
  77.4435433   4.6891673  31.3856493  77.3525433   3.9371673  31.1806493
  78.5355433  10.7111673  47.1586493  79.0135433  10.1111673  46.7426493
  78.1845433  10.2681673  47.8236493  78.5545433  10.5571673  47.1956493
  78.5945433   5.9301673  46.1786493  77.7995433   5.8661673  46.5296493
  78.6655433   6.7771673  45.9836493  78.4875433   6.0451673  46.2016493
  74.4245433  12.1371673  41.4956493  74.4355433  12.1961673  42.3656493
  73.9995433  11.3901673  41.3456493  74.3635433  12.0351673  41.6016493
  71.1885433  11.6351673  46.9376493  70.5345433  11.0661673  47.0356493
  70.8135433  12.4081673  47.0886493  71.0365433  11.6651673  46.9746493
  69.7315433   3.7171673  44.5656493  70.0515433   3.9361673  43.7846493
  69.6315433   2.8521673  44.5106493  69.7635433   3.6221673  44.4426493
  75.1755433   8.3581673  32.2976493  75.6165433   8.4381673  33.0456493
  74.3705433   8.1421673  32.5556493  75.1215433   8.3381673  32.4466493
  74.4945433   3.0091673  45.9506493  74.0985433   3.7831673  46.0256493
  74.0885433   2.6361673  45.2746493  74.3765433   3.0681673  45.8616493
  72.5045433   7.4281673  32.8986493  72.2605433   7.1211673  33.6786493
  72.4715433   6.7251673  32.3826493  72.4635433   7.2791673  32.9376493
  75.3235433   5.6731673  31.6416493  74.5055433   5.4051673  31.7816493
  75.2955433   6.5251673  31.8266493  75.1985433   5.7601673  31.6896493
  74.9645433  11.4191673  47.2266493  75.0055433  11.5451673  48.0896493
  75.6155433  10.8591673  47.0706493  75.0665433  11.3551673  47.3316493
  72.5575433   9.8021673  48.5866493  73.1525433  10.2331673  49.0586493
  72.1935433  10.4261673  48.0976493  72.5915433   9.9581673  48.5836493
  70.4845433   7.7911673  45.5156493  69.9105433   8.2071673  46.0246493
  71.2175433   8.2561673  45.6106493  70.5085433   7.9211673  45.6046493
  72.2705433  11.0581673  34.2906493  72.1255433  11.2141673  33.4446493
  73.1365433  11.1371673  34.3686493  72.3775433  11.0931673  34.1776493
  76.4375433   3.4551673  34.0186493  76.5375433   3.5941673  33.1636493
  77.2555433   3.3951673  34.3146493  76.5725433   3.4661673  33.9356493
  72.9575433   9.8731673  40.7676493  72.8785433   9.0631673  40.4516493
  72.5135433  10.3601673  40.1956493  72.8805433   9.8251673  40.6366493
  70.5295433  12.1171673  44.3486493  71.0225433  12.0611673  45.0666493
  70.7175433  11.3841673  43.9136493  70.6305433  12.0001673  44.3906493
  69.6455433   5.6891673  17.6164083  69.2045433   5.8071673  18.3594083
  69.3625433   4.9141673  17.3314083  69.5385433   5.5921673  17.6844083
  72.5275433   4.7441673  12.7954083  72.1355433   4.3731673  12.1094083
  72.4475433   4.1461673  13.4244083  72.4575433   4.6011673  12.7864083
  72.1545433   6.3851673  16.6954083  72.7625433   6.2151673  17.2984083
  71.4035433   6.2451673  17.1164083  72.1335433   6.3391673  16.8464083
  71.0455433   9.4761673  12.7724083  71.5125433   9.5601673  12.0404083
  71.5005433   8.8981673  13.2414083  71.1815433   9.4031673  12.7334083
  69.5855433   8.4241673  23.8714083  69.7145433   8.1441673  24.6874083
  68.9755433   7.8831673  23.5624083  69.5145433   8.3031673  23.9464083
  76.1595433   5.9491673  28.9384083  75.9235433   5.9461673  29.7784083
  75.4115433   5.8011673  28.5144083  76.0135433   5.9261673  28.9994083
  71.0315433   2.9451673  18.0734083  70.5695433   2.5531673  17.4464083
  71.7315433   2.4321673  18.1654083  71.0665433   2.8121673  17.9944083
  76.1415433   9.1411673  26.2014083  76.2795433   9.9011673  25.7944083
  76.9325433   8.7761673  26.2284083  76.2785433   9.2001673  26.1454083
  77.2365433   7.0261673  20.7064083  77.5845433   6.2271673  20.7364083
  77.9015433   7.5301673  20.4514083  77.3865433   6.9821673  20.6734083
  77.2935433   6.4751673  16.9174083  77.6245433   5.8311673  17.4034083
  77.5335433   6.2641673  16.1064083  77.3775433   6.3491673  16.8694083
  69.3975433  10.4161673  18.9864083  68.8055433  10.9741673  18.6734083
  69.8235433  10.1471673  18.2744083  69.3735433  10.4581673  18.8354083
  75.2375433   8.2601673  16.4664083  74.6585433   7.9851673  17.0584083
  75.8615433   7.6511673  16.4914083  75.2445433   8.1301673  16.5574083
  70.9425433   9.0861673  16.9174083  71.5985433   8.5111673  16.9324083
  71.3315433   9.8351673  16.6964083  71.0975433   9.1111673  16.8874083
  71.7605433   7.5731673  20.4174083  72.1835433   7.2171673  19.7434083
  72.0845433   7.1511673  21.1094083  71.8705433   7.4581673  20.4204083
  74.9915433  10.4251673  19.7134083  75.8355433  10.5291673  19.5184083
  74.6945433  11.2431673  19.7814083  75.0725433  10.5611673  19.6944083
  73.9895433  11.6441673  25.4534083  74.2815433  11.5771673  26.2734083
  73.3635433  11.0391673  25.4084083  73.9405433  11.5451673  25.5684083
  78.3795433   8.3321673  12.7374083  78.1985433   8.8771673  13.3944083
  79.1455433   8.6221673  12.4364083  78.4655433   8.4561673  12.7904083
  71.9825433   9.8061673  24.5754083  71.2845433   9.2981673  24.7014083
  72.2425433   9.6011673  23.7674083  71.9175433   9.7011673  24.4744083
  73.3435433   8.6571673  27.1424083  74.1845433   8.7201673  26.9204083
  73.3065433   9.0541673  27.9184083  73.4625433   8.7251673  27.2244083
  75.3065433   4.1681673  21.8914083  75.4785433   3.9581673  22.7204083
  74.6515433   3.6341673  21.6754083  75.2355433   4.0581673  21.9824083
  76.0565433   4.1061673  24.4814083  76.1095433   4.9531673  24.6834083
  75.7715433   3.7361673  25.2184083  76.0225433   4.1761673  24.6194083
  68.8775433   8.4771673  30.6924083  69.6335433   8.8261673  30.9504083
  69.0545433   7.6241673  30.6354083  69.0155433   8.4021673  30.7224083
  72.6225433   4.9721673  19.0694083  73.4735433   4.8921673  18.8964083
  72.2655433   4.2901673  18.6574083  72.6955433   4.8591673  18.9824083
  71.3895433  11.6971673  20.3064083  70.7165433  11.1991673  20.0614083
  71.7925433  11.8821673  19.5554083  71.3495433  11.6511673  20.1594083
  74.9905433   4.9791673  17.3044083  75.7035433   5.4741673  17.3944083
  75.2125433   4.4121673  16.6784083  75.1285433   4.9681673  17.2254083
  69.1465433   6.6221673  20.6244083  68.4795433   7.1101673  20.9004083
  69.8265433   7.1671673  20.6534083  69.1485433   6.7741673  20.6694083
  69.2125433   3.3061673  15.7274083  69.0275433   2.4671673  15.8794083
  69.8715433   3.2701673  15.1574083  69.2825433   3.1771673  15.6654083
  69.3845433   7.4701673  15.3024083  69.9365433   8.0391673  15.6664083
  69.1525433   6.9551673  15.9674083  69.4315433   7.4781673  15.4544083
  73.5885433   6.4701673  22.3914083  74.0555433   6.7591673  23.0694083
  74.1605433   5.9921673  21.9374083  73.7425433   6.4421673  22.4244083
  69.2145433   5.9191673  12.9304083  69.9705433   5.4871673  12.9884083
  69.2295433   6.4511673  13.6214083  69.3285433   5.9341673  13.0414083
  70.1545433   4.1401673  20.9354083  70.5855433   4.0111673  20.1884083
  69.9495433   4.9881673  20.9094083  70.1875433   4.2461673  20.8214083
  74.2385433   7.6561673  19.2174083  74.3645433   8.4991673  19.4044083
  74.9065433   7.2571673  19.6134083  74.3565433   7.7221673  19.3034083
  73.0205433   2.3661673  20.8184083  72.2395433   2.3071673  20.4354083
  73.0925433   1.6141673  21.2554083  72.9155433   2.2471673  20.8264083
  77.5505433  10.8801673  23.6784083  77.2735433  10.2391673  23.1554083
  77.3425433  11.6061673  23.2404083  77.4795433  10.8931673  23.5364083
  71.2495433   3.4581673  29.8454083  71.2125433   3.9591673  29.1314083
  71.5805433   2.7061673  29.5504083  71.2925433   3.4201673  29.6964083
  77.1485433   8.5081673  29.2804083  77.5025433   8.3301673  30.0574083
  76.7125433   7.7791673  29.0814083  77.1365433   8.3741673  29.3664083
  75.2315433  11.0231673  15.8654083  75.0845433  10.2471673  16.2364083
  75.9205433  10.8761673  15.3504083  75.3115433  10.8861673  15.8444083
  77.5235433  10.5391673  14.2674083  78.1455433  10.7021673  14.8574083
  77.5595433  11.2301673  13.7354083  77.6205433  10.6651673  14.2764083
  72.0245433   3.0731673  15.0964083  72.3485433   2.2941673  14.8744083
  72.6705433   3.4411673  15.5514083  72.1675433   3.0121673  15.1304083
  78.7145433   2.4151673  16.5214083  78.7735433   3.0651673  17.1004083
  78.5255433   1.7191673  17.0124083  78.6955433   2.4081673  16.6794083
  77.9375433   4.4621673  20.9524083  77.0905433   4.2681673  21.0334083
  78.2615433   4.2971673  21.7454083  77.8595433   4.4091673  21.0814083
  74.6895433  11.1921673  11.8384083  75.1285433  10.4951673  12.1264083
  74.8965433  11.8161673  12.4114083  74.7855433  11.1811673  11.9654083
  71.7855433   4.1551673  23.2684083  72.5075433   4.6431673  23.2314083
  71.5155433   4.1251673  22.4394083  71.8525433   4.2231673  23.1404083
  74.3615433   2.0981673  12.1444083  73.7515433   1.6931673  12.6184083
  73.9755433   2.2161673  11.3714083  74.2145433   2.0551673  12.1004083
  71.1805433   5.2071673  27.5464083  70.7595433   4.6891673  26.9854083
  70.8285433   5.9931673  27.4034083  71.0665433   5.2471673  27.4424083
  75.9195433   7.0181673  24.1644083  75.6215433   7.6101673  24.7314083
  75.9745433   7.4601673  23.4154083  75.8835433   7.1711673  24.1374083
  73.8985433   5.9681673  27.5624083  73.0925433   5.6781673  27.7294083
  73.8095433   6.8361673  27.5684083  73.7665433   6.0531673  27.5874083
  78.4355433   3.4411673  23.6554083  78.9115433   3.8151673  24.2834083
  77.6125433   3.5751673  23.9144083  78.3845433   3.5161673  23.7864083
  77.6995433  10.8341673  18.8834083  78.2455433  11.5131673  18.9374083
  77.3495433  10.9161673  18.0884083  77.7285433  10.9471673  18.7734083
  75.8825433   9.0621673  22.2724083  75.2585433   9.6441673  22.0904083
  76.1305433   8.7761673  21.4864083  75.8265433   9.1061673  22.1294083
  77.4765433   3.8381673  12.1874083  76.6715433   3.6611673  11.9024083
  77.4435433   4.6891673  12.3794083  77.3525433   3.9371673  12.1744083
  78.5355433  10.7111673  28.1524083  79.0135433  10.1111673  27.7364083
  78.1845433  10.2681673  28.8174083  78.5545433  10.5571673  28.1894083
  78.5945433   5.9301673  27.1724083  77.7995433   5.8661673  27.5234083
  78.6655433   6.7771673  26.9774083  78.4875433   6.0451673  27.1954083
  74.4245433  12.1371673  22.4894083  74.4355433  12.1961673  23.3594083
  73.9995433  11.3901673  22.3394083  74.3635433  12.0351673  22.5954083
  71.1885433  11.6351673  27.9314083  70.5345433  11.0661673  28.0294083
  70.8135433  12.4081673  28.0824083  71.0365433  11.6651673  27.9684083
  69.7315433   3.7171673  25.5594083  70.0515433   3.9361673  24.7784083
  69.6315433   2.8521673  25.5044083  69.7635433   3.6221673  25.4364083
  75.1755433   8.3581673  13.2914083  75.6165433   8.4381673  14.0394083
  74.3705433   8.1421673  13.5494083  75.1215433   8.3381673  13.4404083
  74.4945433   3.0091673  26.9444083  74.0985433   3.7831673  27.0194083
  74.0885433   2.6361673  26.2684083  74.3765433   3.0681673  26.8554083
  72.5045433   7.4281673  13.8924083  72.2605433   7.1211673  14.6724083
  72.4715433   6.7251673  13.3764083  72.4635433   7.2791673  13.9314083
  75.3235433   5.6731673  12.6354083  74.5055433   5.4051673  12.7754083
  75.2955433   6.5251673  12.8204083  75.1985433   5.7601673  12.6834083
  74.9645433  11.4191673  28.2204083  75.0055433  11.5451673  29.0834083
  75.6155433  10.8591673  28.0644083  75.0665433  11.3551673  28.3254083
  72.5575433   9.8021673  29.5804083  73.1525433  10.2331673  30.0524083
  72.1935433  10.4261673  29.0914083  72.5915433   9.9581673  29.5774083
  70.4845433   7.7911673  26.5094083  69.9105433   8.2071673  27.0184083
  71.2175433   8.2561673  26.6044083  70.5085433   7.9211673  26.5984083
  72.2705433  11.0581673  15.2844083  72.1255433  11.2141673  14.4384083
  73.1365433  11.1371673  15.3624083  72.3775433  11.0931673  15.1714083
  76.4375433   3.4551673  15.0124083  76.5375433   3.5941673  14.1574083
  77.2555433   3.3951673  15.3084083  76.5725433   3.4661673  14.9294083
  72.9575433   9.8731673  21.7614083  72.8785433   9.0631673  21.4454083
  72.5135433  10.3601673  21.1894083  72.8805433   9.8251673  21.6304083
  70.5295433  12.1171673  25.3424083  71.0225433  12.0611673  26.0604083
  70.7175433  11.3841673  24.9074083  70.6305433  12.0001673  25.3844083
  69.5855433   8.4241673   4.8651673  69.7145433   8.1441673   5.6811673
  68.9755433   7.8831673   4.5561673  69.5145433   8.3031673   4.9401673
  76.1595433   5.9491673   9.9321673  75.9235433   5.9461673  10.7721673
  75.4115433   5.8011673   9.5081673  76.0135433   5.9261673   9.9931673
  76.1415433   9.1411673   7.1951673  76.2795433   9.9011673   6.7881673
  76.9325433   8.7761673   7.2221673  76.2785433   9.2001673   7.1391673
  73.9895433  11.6441673   6.4471673  74.2815433  11.5771673   7.2671673
  73.3635433  11.0391673   6.4021673  73.9405433  11.5451673   6.5621673
  71.9825433   9.8061673   5.5691673  71.2845433   9.2981673   5.6951673
  72.2425433   9.6011673   4.7611673  71.9175433   9.7011673   5.4681673
  73.3435433   8.6571673   8.1361673  74.1845433   8.7201673   7.9141673
  73.3065433   9.0541673   8.9121673  73.4625433   8.7251673   8.2181673
  75.3065433   4.1681673   2.8851673  75.4785433   3.9581673   3.7141673
  74.6515433   3.6341673   2.6691673  75.2355433   4.0581673   2.9761673
  76.0565433   4.1061673   5.4751673  76.1095433   4.9531673   5.6771673
  75.7715433   3.7361673   6.2121673  76.0225433   4.1761673   5.6131673
  68.8775433   8.4771673  11.6861673  69.6335433   8.8261673  11.9441673
  69.0545433   7.6241673  11.6291673  69.0155433   8.4021673  11.7161673
  73.5885433   6.4701673   3.3851673  74.0555433   6.7591673   4.0631673
  74.1605433   5.9921673   2.9311673  73.7425433   6.4421673   3.4181673
  77.5505433  10.8801673   4.6721673  77.2735433  10.2391673   4.1491673
  77.3425433  11.6061673   4.2341673  77.4795433  10.8931673   4.5301673
  71.2495433   3.4581673  10.8391673  71.2125433   3.9591673  10.1251673
  71.5805433   2.7061673  10.5441673  71.2925433   3.4201673  10.6901673
  77.1485433   8.5081673  10.2741673  77.5025433   8.3301673  11.0511673
  76.7125433   7.7791673  10.0751673  77.1365433   8.3741673  10.3601673
  77.9375433   4.4621673   1.9461673  77.0905433   4.2681673   2.0271673
  78.2615433   4.2971673   2.7391673  77.8595433   4.4091673   2.0751673
  71.7855433   4.1551673   4.2621673  72.5075433   4.6431673   4.2251673
  71.5155433   4.1251673   3.4331673  71.8525433   4.2231673   4.1341673
  71.1805433   5.2071673   8.5401673  70.7595433   4.6891673   7.9791673
  70.8285433   5.9931673   8.3971673  71.0665433   5.2471673   8.4361673
  75.9195433   7.0181673   5.1581673  75.6215433   7.6101673   5.7251673
  75.9745433   7.4601673   4.4091673  75.8835433   7.1711673   5.1311673
  73.8985433   5.9681673   8.5561673  73.0925433   5.6781673   8.7231673
  73.8095433   6.8361673   8.5621673  73.7665433   6.0531673   8.5811673
  78.4355433   3.4411673   4.6491673  78.9115433   3.8151673   5.2771673
  77.6125433   3.5751673   4.9081673  78.3845433   3.5161673   4.7801673
  75.8825433   9.0621673   3.2661673  75.2585433   9.6441673   3.0841673
  76.1305433   8.7761673   2.4801673  75.8265433   9.1061673   3.1231673
  78.5355433  10.7111673   9.1461673  79.0135433  10.1111673   8.7301673
  78.1845433  10.2681673   9.8111673  78.5545433  10.5571673   9.1831673
  78.5945433   5.9301673   8.1661673  77.7995433   5.8661673   8.5171673
  78.6655433   6.7771673   7.9711673  78.4875433   6.0451673   8.1891673
  74.4245433  12.1371673   3.4831673  74.4355433  12.1961673   4.3531673
  73.9995433  11.3901673   3.3331673  74.3635433  12.0351673   3.5891673
  71.1885433  11.6351673   8.9251673  70.5345433  11.0661673   9.0231673
  70.8135433  12.4081673   9.0761673  71.0365433  11.6651673   8.9621673
  69.7315433   3.7171673   6.5531673  70.0515433   3.9361673   5.7721673
  69.6315433   2.8521673   6.4981673  69.7635433   3.6221673   6.4301673
  74.4945433   3.0091673   7.9381673  74.0985433   3.7831673   8.0131673
  74.0885433   2.6361673   7.2621673  74.3765433   3.0681673   7.8491673
  74.9645433  11.4191673   9.2141673  75.0055433  11.5451673  10.0771673
  75.6155433  10.8591673   9.0581673  75.0665433  11.3551673   9.3191673
  72.5575433   9.8021673  10.5741673  73.1525433  10.2331673  11.0461673
  72.1935433  10.4261673  10.0851673  72.5915433   9.9581673  10.5711673
  70.4845433   7.7911673   7.5031673  69.9105433   8.2071673   8.0121673
  71.2175433   8.2561673   7.5981673  70.5085433   7.9211673   7.5921673
  72.9575433   9.8731673   2.7551673  72.8785433   9.0631673   2.4391673
  72.5135433  10.3601673   2.1831673  72.8805433   9.8251673   2.6241673
  70.5295433  12.1171673   6.3361673  71.0225433  12.0611673   7.0541673
  70.7175433  11.3841673   5.9011673  70.6305433  12.0001673   6.3781673
  61.1026993  68.5455993  74.5081313  60.8576993  69.0335993  73.8281313
  61.9656993  68.4725993  74.4081313  61.1936993  68.6065993  74.3931313
  50.5236993  73.3935993  71.1421313  49.7456993  73.5555993  70.7821313
  50.5626993  72.5225993  71.1641313  50.4146993  73.2885993  71.0921313
  53.6626993  78.6565993  69.8141313  53.2706993  78.2855993  69.1281313
  53.5826993  78.0585993  70.4431313  53.5926993  78.5135993  69.8051313
  63.5826993  76.5285993  75.8551313  63.6626993  76.5325993  74.9861313
  62.9986993  75.8965993  76.0041313  63.5076993  76.4355993  75.7491313
  57.5716993  69.6325993  73.6631313  57.5016993  70.3095993  73.1171313
  58.3126993  69.2445993  73.4141313  57.6706993  69.6755993  73.5451313
  52.1666993  76.8575993  75.0921313  51.7046993  76.4655993  74.4651313
  52.8666993  76.3445993  75.1841313  52.2016993  76.7245993  75.0131313
  54.1676993  74.9575993  75.1151313  54.9846993  74.7705993  75.3581313
  53.6906993  74.3435993  75.5111313  54.2176993  74.8395993  75.2101313
  54.7646993  70.0515993  74.3811313  54.4686993  70.5525993  73.7311313
  55.6316993  70.1295993  74.3241313  54.8486993  70.1375993  74.2771313
  57.7436993  69.1935993  76.6041313  57.8166993  70.0535993  76.7331313
  57.7056993  69.1185993  75.7361313  57.7486993  69.3095993  76.4951313
  62.4166993  72.1195993  68.9031313  61.9666993  72.8005993  69.2101313
  62.5306993  71.6155993  69.6061313  62.3676993  72.1455993  69.0521313
  50.6226993  74.6185993  78.1051313  50.3666993  75.4495993  78.0301313
  49.9586993  74.2355993  78.5221313  50.4866993  74.6845993  78.1561313
  67.8106993  72.0925993  75.1981313  67.4646993  72.7705993  75.6241313
  67.1746993  71.4945993  75.2141313  67.6656993  72.1045993  75.2631313
  59.9336993  73.7345993  74.8191313  60.2206993  73.5025993  74.0291313
  60.6656993  73.8135993  75.2881313  60.0836993  73.7115993  74.7721313
  60.6556993  74.0735993  69.9401313  60.9366993  74.8615993  70.1891313
  59.8796993  74.2385993  69.5771313  60.5826993  74.2145993  69.9231313
  63.0216993  70.1405993  70.8101313  63.5616993  69.4585993  70.8861313
  63.0836993  70.5385993  71.5841313  63.1106993  70.0985993  70.9361313
  50.9756993  71.3085993  73.3791313  50.8616993  70.4445993  73.4101313
  50.5006993  71.6025993  74.0491313  50.8886993  71.2245993  73.4821313
  60.2796993  72.5165993  72.1241313  59.7716993  71.8545993  71.8701313
  60.3316993  73.0205993  71.4141313  60.2126993  72.4935993  71.9821313
  60.2796993  69.4575993  72.0151313  59.8246993  69.0555993  71.3891313
  61.0526993  69.6125993  71.6401313  60.3266993  69.4215993  71.8671313
  58.8776993  71.8245993  76.5371313  58.9516993  72.3925993  75.8791313
  58.9986993  72.3165993  77.2471313  58.9056993  71.9815993  76.5451313
  53.4856993  67.6475993  74.8851313  54.0216993  68.3355993  74.8751313
  53.4886993  67.3735993  74.0571313  53.5646993  67.7085993  74.7611313
  63.9256993  67.9385993  75.2611313  63.9746993  67.6205993  76.0721313
  64.2486993  67.2945993  74.7681313  63.9806993  67.7965993  75.3081313
  53.9336993  71.4575993  76.5391313  54.2056993  71.0275993  75.8311313
  53.7576993  70.8215993  77.1101313  53.9476993  71.3005993  76.5191313
  64.5166993  75.6895993  70.3421313  64.2966993  76.4205993  69.9201313
  64.0686993  75.7405993  71.0891313  64.4176993  75.8045993  70.3901313
  68.7036993  70.5505993  69.7951313  68.0416993  69.9825993  69.8181313
  68.5106993  71.0625993  69.1151313  68.5776993  70.5425993  69.6981313
  50.3476993  77.2185993  72.7461313  50.1626993  76.3795993  72.8981313
  51.0066993  77.1825993  72.1761313  50.4176993  77.0895993  72.6841313
  66.7056993  70.1085993  72.0741313  67.4516993  69.7015993  72.2731313
  66.9686993  70.8235993  71.6491313  66.8546993  70.1545993  72.0411313
  63.1596993  72.3965993  77.1471313  63.5036993  72.5485993  77.9341313
  62.7066993  71.6585993  77.2601313  63.1436993  72.3095993  77.2801313
  57.6356993  71.6165993  71.6041313  57.6336993  71.4995993  70.7391313
  57.4546993  72.4645993  71.6961313  57.6086993  71.7245993  71.4901313
  53.9886993  74.4485993  71.2381313  53.8606993  74.0005993  71.9761313
  53.4066993  74.1065993  70.6861313  53.8836993  74.3315993  71.2661313
  54.1556993  76.2785993  77.8371313  53.3746993  76.2195993  77.4541313
  54.2276993  75.5265993  78.2741313  54.0506993  76.1595993  77.8451313
  62.6736993  71.6975993  73.2121313  63.1636993  72.4145993  73.1351313
  61.8836993  71.9585993  72.9491313  62.6296993  71.8415993  73.1621313
  61.4446993  76.3365993  71.2111313  61.4366993  77.0585993  70.7211313
  60.8056993  76.4715993  71.7881313  61.3496993  76.4635993  71.2241313
  56.0376993  68.6785993  70.8721313  56.1346993  68.5715993  71.7331313
  55.3296993  69.1845993  70.8071313  55.9476993  68.7375993  70.9901313
  53.1596993  76.9855993  72.1151313  53.4836993  76.2065993  71.8931313
  53.8056993  77.3535993  72.5701313  53.3026993  76.9245993  72.1491313
  50.1566993  68.6465993  73.0831313  50.2856993  67.9385993  72.5911313
  49.7896993  68.3285993  73.8081313  50.1216993  68.4945993  73.1181313
  59.8496993  76.3275993  73.5401313  59.9086993  76.9775993  74.1191313
  59.6606993  75.6315993  74.0311313  59.8306993  76.3205993  73.6981313
  54.3456993  70.8445993  70.0521313  53.8346993  70.8975993  69.3461313
  55.1296993  71.0845993  69.7561313  54.3856993  70.8875993  69.9041313
  59.0726993  78.3745993  77.9711313  58.2256993  78.1805993  78.0521313
  59.3966993  78.2095993  78.7641313  58.9946993  78.3215993  78.1001313
  56.1506993  73.2385993  77.0221313  56.9966993  73.0485993  77.1201313
  55.7806993  72.4615993  76.8841313  56.2206993  73.0955993  77.0161313
  50.9716993  74.5765993  73.6771313  51.4606993  74.2845993  74.3381313
  51.1006993  73.9835993  73.0501313  51.0626993  74.4455993  73.6821313
  55.4966993  76.0105993  69.1631313  54.8866993  75.6055993  69.6371313
  55.1106993  76.1285993  68.3901313  55.3496993  75.9675993  69.1191313
  67.2626993  77.6695993  77.9651313  66.9766993  78.0705993  78.6851313
  68.1226993  77.6075993  78.0921313  67.3476993  77.7195993  78.0901313
  56.9516993  74.4715993  71.8731313  57.2236993  75.2975993  71.9401313
  56.0886993  74.5465993  71.7771313  56.8646993  74.6045993  71.8681313
  50.4316993  70.4415993  78.4091313  50.4756993  70.7855993  77.6081313
  51.1866993  70.6785993  78.7761313  50.5496993  70.5275993  78.3451313
  65.4806993  73.7395993  76.1351313  64.7356993  73.4165993  76.4531313
  65.4826993  74.5655993  76.4151313  65.3706993  73.8135993  76.2231313
  67.0986993  74.3045993  70.1231313  67.4766993  74.9815993  69.7231313
  66.2566993  74.5285993  70.1541313  67.0296993  74.4375993  70.0681313
  58.6116993  77.7505993  69.2061313  57.8066993  77.5735993  68.9211313
  58.5786993  78.6015993  69.3981313  58.4876993  77.8495993  69.1931313
  64.7936993  73.9035993  73.4981313  65.0006993  73.7025993  74.3221313
  65.5496993  74.1715993  73.1561313  64.9356993  73.9135993  73.5691313
  65.8156993  69.9865993  74.9721313  65.1016993  69.5155993  75.1431313
  65.6536993  70.3275993  74.1861313  65.6866993  69.9675993  74.8811313
  66.2586993  77.9305993  73.3521313  66.7346993  77.2015993  73.3041313
  65.4376993  77.6445993  73.2761313  66.2076993  77.7805993  73.3331313
  53.7176993  71.9445993  72.6631313  53.8436993  71.6155993  71.8651313
  52.9056993  71.6955993  72.8621313  53.6166993  71.8595993  72.5751313
  67.0286993  75.0435993  72.7941313  67.1316993  74.9855993  71.9301313
  67.7696993  74.7115993  73.1121313  67.1536993  74.9865993  72.7131313
  52.3226993  73.5655993  69.1961313  51.6506993  73.5795993  69.7521313
  52.4176993  72.7175993  69.0121313  52.2376993  73.4425993  69.2511313
  61.0036993  70.1795993  76.7861313  60.3036993  70.6975993  76.7301313
  61.0416993  69.7995993  76.0021313  60.9056993  70.2005993  76.6621313
  64.9056993  75.9755993  78.0771313  65.5716993  76.5165993  78.2371313
  64.5606993  76.2865993  77.3381313  64.9526993  76.1015993  77.9921313
  58.4606993  68.2275993  69.6181313  58.5386993  68.4745993  68.7851313
  57.7176993  68.6045993  69.8761313  58.3626993  68.3195993  69.5331313
  61.6836993  74.6455993  76.5311313  62.2346993  74.0385993  76.8311313
  61.2586993  74.9085993  77.2461313  61.7026993  74.5945993  76.6801313
  51.9316993  73.2955993  76.0171313  51.5636993  73.5975993  76.7481313
  52.4656993  72.6665993  76.3011313  51.9556993  73.2475993  76.1671313
  63.6536993  76.4765993  73.0931313  63.7216993  75.6265993  73.2741313
  62.8306993  76.5625993  72.8151313  63.5416993  76.3635993  73.0791313
  57.5726993  77.3675993  72.0311313  57.6726993  77.5065993  71.1761313
  58.3906993  77.3075993  72.3271313  57.7076993  77.3785993  71.9481313
  61.1026993  68.5455993  55.5018903  60.8576993  69.0335993  54.8218903
  61.9656993  68.4725993  55.4018903  61.1936993  68.6065993  55.3868903
  60.9116993  75.4615993  60.1728903  60.3876993  76.0575993  60.5358903
  61.3086993  75.0935993  60.8568903  60.8926993  75.4955993  60.3278903
  50.5236993  73.3935993  52.1358903  49.7456993  73.5555993  51.7758903
  50.5626993  72.5225993  52.1578903  50.4146993  73.2885993  52.0858903
  53.6626993  78.6565993  50.8078903  53.2706993  78.2855993  50.1218903
  53.5826993  78.0585993  51.4368903  53.5926993  78.5135993  50.7988903
  63.5826993  76.5285993  56.8488903  63.6626993  76.5325993  55.9798903
  62.9986993  75.8965993  56.9978903  63.5076993  76.4355993  56.7428903
  57.5716993  69.6325993  54.6568903  57.5016993  70.3095993  54.1108903
  58.3126993  69.2445993  54.4078903  57.6706993  69.6755993  54.5388903
  52.1666993  76.8575993  56.0858903  51.7046993  76.4655993  55.4588903
  52.8666993  76.3445993  56.1778903  52.2016993  76.7245993  56.0068903
  56.6746993  72.4675993  61.4328903  57.3526993  72.4855993  60.8838903
  56.6296993  71.6315993  61.6778903  56.7676993  72.3465993  61.3878903
  54.1676993  74.9575993  56.1088903  54.9846993  74.7705993  56.3518903
  53.6906993  74.3435993  56.5048903  54.2176993  74.8395993  56.2038903
  60.3966993  74.5185993  66.2688903  59.5486993  74.4195993  66.0908903
  60.4256993  75.2635993  66.7228903  60.2756993  74.6145993  66.3098903
  54.7646993  70.0515993  55.3748903  54.4686993  70.5525993  54.7248903
  55.6316993  70.1295993  55.3178903  54.8486993  70.1375993  55.2708903
  64.9546993  67.4785993  65.3828903  64.7966993  68.2475993  65.0008903
  64.1826993  67.2585993  65.7268903  64.8166993  67.5595993  65.3778903
  57.7436993  69.1935993  57.5978903  57.8166993  70.0535993  57.7268903
  57.7056993  69.1185993  56.7298903  57.7486993  69.3095993  57.4888903
  62.4166993  72.1195993  49.8968903  61.9666993  72.8005993  50.2038903
  62.5306993  71.6155993  50.5998903  62.3676993  72.1455993  50.0458903
  50.6226993  74.6185993  59.0988903  50.3666993  75.4495993  59.0238903
  49.9586993  74.2355993  59.5158903  50.4866993  74.6845993  59.1498903
  53.6516993  69.4355993  59.5898903  53.1306993  68.8075993  59.2818903
  54.2426993  68.9985993  60.0608903  53.6626993  69.2775993  59.6138903
  56.9576993  71.5685993  68.8878903  57.0746993  71.1145993  68.1518903
  57.2456993  72.3665993  68.6848903  57.0176993  71.6195993  68.7488903
  67.8106993  72.0925993  56.1918903  67.4646993  72.7705993  56.6178903
  67.1746993  71.4945993  56.2078903  67.6656993  72.1045993  56.2568903
  52.6906993  71.1655993  67.8718903  51.9126993  70.7755993  67.7998903
  53.1816993  70.7535993  67.2808903  52.6476993  71.0465993  67.7738903
  59.3396993  68.8085993  67.0398903  59.5176993  67.9995993  66.7648903
  59.1966993  69.2495993  66.3008903  59.3446993  68.7545993  66.8898903
  59.9336993  73.7345993  55.8128903  60.2206993  73.5025993  55.0228903
  60.6656993  73.8135993  56.2818903  60.0836993  73.7115993  55.7658903
  60.6556993  74.0735993  50.9338903  60.9366993  74.8615993  51.1828903
  59.8796993  74.2385993  50.5708903  60.5826993  74.2145993  50.9168903
  67.4856993  70.4155993  61.5608903  68.2426993  70.4875993  61.1328903
  67.5486993  69.6425993  61.9598903  67.6066993  70.3125993  61.5558903
  50.0386993  71.7135993  65.4578903  50.0346993  72.3005993  66.1038903
  50.6326993  72.0255993  64.9008903  50.1256993  71.8465993  65.4708903
  63.0216993  70.1405993  51.8038903  63.5616993  69.4585993  51.8798903
  63.0836993  70.5385993  52.5778903  63.1106993  70.0985993  51.9298903
  50.9756993  71.3085993  54.3728903  50.8616993  70.4445993  54.4038903
  50.5006993  71.6025993  55.0428903  50.8886993  71.2245993  54.4758903
  60.2796993  72.5165993  53.1178903  59.7716993  71.8545993  52.8638903
  60.3316993  73.0205993  52.4078903  60.2126993  72.4935993  52.9758903
  60.2796993  69.4575993  53.0088903  59.8246993  69.0555993  52.3828903
  61.0526993  69.6125993  52.6338903  60.3266993  69.4215993  52.8608903
  58.8776993  71.8245993  57.5308903  58.9516993  72.3925993  56.8728903
  58.9986993  72.3165993  58.2408903  58.9056993  71.9815993  57.5388903
  53.4856993  67.6475993  55.8788903  54.0216993  68.3355993  55.8688903
  53.4886993  67.3735993  55.0508903  53.5646993  67.7085993  55.7548903
  56.4416993  78.0805993  59.9038903  56.6136993  77.8705993  60.7328903
  55.7866993  77.5465993  59.6878903  56.3706993  77.9705993  59.9948903
  62.6696993  71.9945993  63.4188903  62.5746993  72.3135993  64.2248903
  62.0766993  71.3555993  63.3808903  62.5676993  71.9465993  63.5328903
  63.9256993  67.9385993  56.2548903  63.9746993  67.6205993  57.0658903
  64.2486993  67.2945993  55.7618903  63.9806993  67.7965993  56.3018903
  66.3896993  72.1745993  64.5628903  67.1616993  71.9495993  64.8998903
  65.9146993  72.3915993  65.2628903  66.4336993  72.1735993  64.7158903
  53.9336993  71.4575993  57.5328903  54.2056993  71.0275993  56.8248903
  53.7576993  70.8215993  58.1038903  53.9476993  71.3005993  57.5128903
  52.0746993  72.5595993  60.6148903  52.9176993  72.7795993  60.5718903
  51.6856993  73.1325993  60.0838903  52.1416993  72.6765993  60.5298903
  64.5166993  75.6895993  51.3358903  64.2966993  76.4205993  50.9138903
  64.0686993  75.7405993  52.0828903  64.4176993  75.8045993  51.3838903
  68.7036993  70.5505993  50.7888903  68.0416993  69.9825993  50.8118903
  68.5106993  71.0625993  50.1088903  68.5776993  70.5425993  50.6918903
  57.9286993  74.2445993  68.7328903  57.4446993  74.8215993  69.1748903
  57.9006993  74.5395993  67.9118903  57.8526993  74.3735993  68.6768903
  69.0266993  74.9285993  63.3448903  69.2416993  74.1285993  63.0688903
  68.1766993  74.9885993  63.1558903  68.9326993  74.8195993  63.2758903
  50.3476993  77.2185993  53.7398903  50.1626993  76.3795993  53.8918903
  51.0066993  77.1825993  53.1698903  50.4176993  77.0895993  53.6778903
  66.7056993  70.1085993  53.0678903  67.4516993  69.7015993  53.2668903
  66.9686993  70.8235993  52.6428903  66.8546993  70.1545993  53.0348903
  63.1596993  72.3965993  58.1408903  63.5036993  72.5485993  58.9278903
  62.7066993  71.6585993  58.2538903  63.1436993  72.3095993  58.2738903
  57.6356993  71.6165993  52.5978903  57.6336993  71.4995993  51.7328903
  57.4546993  72.4645993  52.6898903  57.6086993  71.7245993  52.4838903
  53.5036993  75.0515993  67.0918903  52.9676993  74.5455993  67.5598903
  53.5236993  74.6615993  66.3118903  53.4266993  74.9185993  67.0458903
  53.9886993  74.4485993  52.2318903  53.8606993  74.0005993  52.9698903
  53.4066993  74.1065993  51.6798903  53.8836993  74.3315993  52.2598903
  54.1556993  76.2785993  58.8308903  53.3746993  76.2195993  58.4478903
  54.2276993  75.5265993  59.2678903  54.0506993  76.1595993  58.8388903
  54.5856993  76.0155993  62.2988903  54.6106993  75.3405993  61.7478903
  53.9396993  76.5115993  61.9868903  54.4946993  75.9885993  62.1718903
  64.4806993  73.7285993  60.6948903  63.8186993  74.0565993  61.1578903
  64.6676993  74.3625993  60.1258903  64.4106993  73.8705993  60.6788903
  61.1256993  69.6345993  64.1238903  61.2746993  68.8095993  63.8808903
  61.5046993  69.6895993  64.9078903  61.2036993  69.5205993  64.2038903
  62.6736993  71.6975993  54.2058903  63.1636993  72.4145993  54.1288903
  61.8836993  71.9585993  53.9428903  62.6296993  71.8415993  54.1558903
  52.3846993  77.3705993  67.8578903  52.3476993  77.8715993  67.1438903
  52.7156993  76.6185993  67.5628903  52.4276993  77.3325993  67.7088903
  59.2556993  73.1675993  59.9308903  59.7356993  73.8665993  60.1388903
  59.6286993  72.5205993  60.3818903  59.3816993  73.1755993  60.0278903
  61.4446993  76.3365993  52.2048903  61.4366993  77.0585993  51.7148903
  60.8056993  76.4715993  52.7818903  61.3496993  76.4635993  52.2178903
  56.0376993  68.6785993  51.8658903  56.1346993  68.5715993  52.7268903
  55.3296993  69.1845993  51.8008903  55.9476993  68.7375993  51.9838903
  65.7346993  78.1215993  64.2758903  65.7896993  78.2465993  63.4138903
  66.4876993  78.4415993  64.5778903  65.8536993  78.1865993  64.1928903
  66.7666993  68.4195993  67.2628903  66.1296993  68.0195993  66.8208903
  66.7926993  67.9885993  68.0208903  66.6766993  68.2975993  67.3088903
  53.1596993  76.9855993  53.1088903  53.4836993  76.2065993  52.8868903
  53.8056993  77.3535993  53.5638903  53.3026993  76.9245993  53.1428903
  61.4656993  77.9275993  63.8758903  61.3106993  78.5375993  64.4798903
  61.9996993  77.3695993  64.2818903  61.5216993  77.9355993  64.0248903
  50.1566993  68.6465993  54.0768903  50.2856993  67.9385993  53.5848903
  49.7896993  68.3285993  54.8018903  50.1216993  68.4945993  54.1118903
  59.8496993  76.3275993  54.5338903  59.9086993  76.9775993  55.1128903
  59.6606993  75.6315993  55.0248903  59.8306993  76.3205993  54.6918903
  54.3456993  70.8445993  51.0458903  53.8346993  70.8975993  50.3398903
  55.1296993  71.0845993  50.7498903  54.3856993  70.8875993  50.8978903
  59.0726993  78.3745993  58.9648903  58.2256993  78.1805993  59.0458903
  59.3966993  78.2095993  59.7578903  58.9946993  78.3215993  59.0938903
  52.9206993  78.0675993  61.2808903  53.6426993  78.5555993  61.2438903
  52.6506993  78.0375993  60.4518903  52.9876993  78.1355993  61.1528903
  56.1506993  73.2385993  58.0158903  56.9966993  73.0485993  58.1138903
  55.7806993  72.4615993  57.8778903  56.2206993  73.0955993  58.0098903
  50.9716993  74.5765993  54.6708903  51.4606993  74.2845993  55.3318903
  51.1006993  73.9835993  54.0438903  51.0626993  74.4455993  54.6758903
  66.0066993  77.5985993  61.5218903  65.9996993  76.8225993  61.9198903
  65.1656993  77.8325993  61.5148903  65.8816993  77.5185993  61.5798903
  55.4966993  76.0105993  50.1568903  54.8866993  75.6055993  50.6308903
  55.1106993  76.1285993  49.3838903  55.3496993  75.9675993  50.1128903
  67.2626993  77.6695993  58.9588903  66.9766993  78.0705993  59.6788903
  68.1226993  77.6075993  59.0858903  67.3476993  77.7195993  59.0838903
  56.9516993  74.4715993  52.8668903  57.2236993  75.2975993  52.9338903
  56.0886993  74.5465993  52.7708903  56.8646993  74.6045993  52.8618903
  64.9246993  71.5935993  67.4988903  64.3996993  72.0525993  68.0228903
  64.5636993  70.7985993  67.4928903  64.7936993  71.5435993  67.5748903
  50.4316993  70.4415993  59.4028903  50.4756993  70.7855993  58.6018903
  51.1866993  70.6785993  59.7698903  50.5496993  70.5275993  59.3388903
  63.4166993  75.1625993  67.5748903  63.4896993  75.2665993  68.4378903
  62.7826993  75.7205993  67.3538903  63.3336993  75.2605993  67.6698903
  65.6846993  75.4815993  65.9398903  66.0036993  76.2675993  66.1428903
  65.3146993  75.2115993  66.6828903  65.6776993  75.5575993  66.0798903
  65.4806993  73.7395993  57.1288903  64.7356993  73.4165993  57.4468903
  65.4826993  74.5655993  57.4088903  65.3706993  73.8135993  57.2168903
  68.3826993  76.0235993  68.6748903  68.3306993  75.6825993  67.8738903
  69.1196993  76.4905993  68.6528903  68.4836993  76.0425993  68.5528903
  64.3926993  70.0695993  64.5898903  65.1366993  70.5215993  64.5268903
  63.8266993  70.5395993  64.1208903  64.4196993  70.2065993  64.5118903
  59.5706993  77.3535993  61.6678903  60.0466993  77.7275993  62.2958903
  58.7476993  77.4875993  61.9268903  59.5196993  77.4285993  61.7988903
  56.2806993  72.9565993  64.4088903  56.4416993  72.2125993  64.8358903
  56.2356993  72.7075993  63.5738903  56.2976993  72.8095993  64.3488903
  65.6776993  68.0495993  62.2598903  65.3976993  68.8745993  62.2158903
  66.3936993  68.1025993  62.7558903  65.7426993  68.1795993  62.3268903
  58.0326993  68.7645993  64.2888903  58.7376993  69.0845993  63.8868903
  58.2736993  67.9575993  64.5158903  58.1716993  68.6925993  64.2628903
  67.0986993  74.3045993  51.1168903  67.4766993  74.9815993  50.7168903
  66.2566993  74.5285993  51.1478903  67.0296993  74.4375993  51.0618903
  58.6116993  77.7505993  50.1998903  57.8066993  77.5735993  49.9148903
  58.5786993  78.6015993  50.3918903  58.4876993  77.8495993  50.1868903
  54.5416993  73.8175993  60.3498903  54.9816993  73.7145993  59.6038903
  55.0866993  73.5045993  60.9548903  54.6866993  73.7565993  60.3288903
  62.5576993  72.9195993  65.9418903  61.9096993  73.3895993  66.2898903
  63.1226993  72.8305993  66.6008903  62.5456993  72.9755993  66.0908903
  62.2456993  74.4565993  62.2398903  62.5476993  74.8765993  62.9428903
  62.2816993  73.6165993  62.4718903  62.2956993  74.3945993  62.3778903
  64.7936993  73.9035993  54.4918903  65.0006993  73.7025993  55.3158903
  65.5496993  74.1715993  54.1498903  64.9356993  73.9135993  54.5628903
  58.0886993  68.8025993  60.3968903  57.2626993  68.6535993  60.6338903
  58.0486993  68.8375993  59.5258903  57.9606993  68.7855993  60.3028903
  65.8156993  69.9865993  55.9658903  65.1016993  69.5155993  56.1368903
  65.6536993  70.3275993  55.1798903  65.6866993  69.9675993  55.8748903
  66.2586993  77.9305993  54.3458903  66.7346993  77.2015993  54.2978903
  65.4376993  77.6445993  54.2698903  66.2076993  77.7805993  54.3268903
  50.6536993  69.2005993  66.4318903  50.5136993  69.9955993  66.1008903
  49.8676993  68.9575993  66.7208903  50.5166993  69.2825993  66.4258903
  53.7176993  71.9445993  53.6568903  53.8436993  71.6155993  52.8588903
  52.9056993  71.6955993  53.8558903  53.6166993  71.8595993  53.5688903
  68.3946993  75.0985993  66.1038903  67.5396993  74.9765993  66.2298903
  68.5476993  74.7035993  65.3408903  68.2906993  75.0215993  66.0098903
  62.9076993  75.7635993  64.6798903  62.6526993  75.0445993  65.1018903
  63.7286993  75.8795993  64.9498903  62.9916993  75.6745993  64.7818903
  60.8416993  76.9535993  67.8668903  61.1646993  77.6395993  67.4348903
  60.1376993  77.2765993  68.2688903  60.7846993  77.1025993  67.8618903
  53.6946993  73.9555993  64.0728903  54.0696993  74.5745993  63.5858903
  54.3686993  73.4815993  64.3578903  53.8496993  73.9775993  64.0428903
  51.4696993  72.4035993  63.3478903  51.5466993  72.2345993  62.4948903
  52.2156993  72.8095993  63.5448903  51.5906993  72.4385993  63.2508903
  67.0286993  75.0435993  53.7878903  67.1316993  74.9855993  52.9238903
  67.7696993  74.7115993  54.1058903  67.1536993  74.9865993  53.7068903
  54.0236993  69.8135993  65.7588903  53.9426993  68.9695993  65.9648903
  53.7096993  69.8575993  64.9458903  53.9656993  69.6955993  65.6688903
  66.1306993  75.1895993  63.1438903  66.1286993  74.3265993  63.2678903
  66.1976993  75.5135993  63.9508903  66.1406993  75.1095993  63.2808903
  50.8666993  77.6295993  63.5718903  51.1866993  77.8485993  62.7908903
  50.7666993  76.7645993  63.5168903  50.8986993  77.5345993  63.4488903
  52.3226993  73.5655993  50.1898903  51.6506993  73.5795993  50.7458903
  52.4176993  72.7175993  50.0058903  52.2376993  73.4425993  50.2448903
  62.0096993  69.9895993  66.9258903  62.1016993  70.7015993  67.4198903
  61.3726993  69.5445993  67.3228903  61.9286993  70.0285993  67.0578903
  61.0036993  70.1795993  57.7798903  60.3036993  70.6975993  57.7238903
  61.0416993  69.7995993  56.9958903  60.9056993  70.2005993  57.6558903
  64.6016993  70.6955993  60.5798903  65.4566993  70.7945993  60.7248903
  64.2326993  71.2485993  61.1448903  64.6736993  70.7925993  60.6848903
  55.6296993  76.9215993  64.9568903  55.2336993  77.6955993  65.0318903
  55.2236993  76.5485993  64.2808903  55.5116993  76.9805993  64.8678903
  64.9056993  75.9755993  59.0708903  65.5716993  76.5165993  59.2308903
  64.5606993  76.2865993  58.3318903  64.9526993  76.1015993  58.9858903
  56.0586993  69.8985993  62.4068903  55.1946993  69.9825993  62.4868903
  56.2786993  69.3845993  63.0758903  55.9636993  69.8355993  62.5178903
  68.0766993  68.5335993  63.7358903  68.0246993  68.4895993  64.6058903
  68.7636993  68.0305993  63.5458903  68.1706993  68.4535993  63.8358903
  60.1616993  70.6465993  60.7808903  59.4246993  70.1925993  60.8938903
  60.7326993  70.2445993  61.3038903  60.1366993  70.5195993  60.8748903
  57.6646993  74.9755993  65.9848903  57.3426993  74.3995993  65.4148903
  57.3056993  75.7305993  65.7388903  57.5646993  75.0015993  65.8648903
  58.4606993  68.2275993  50.6118903  58.5386993  68.4745993  49.7788903
  57.7176993  68.6045993  50.8698903  58.3626993  68.3195993  50.5268903
  53.2786993  69.9815993  63.0548903  52.9356993  69.2145993  62.8208903
  52.5836993  70.5055993  63.1188903  53.1256993  69.9455993  63.0298903
  62.3246993  68.8375993  60.0318903  62.9946993  69.3815993  60.1588903
  61.8216993  69.2615993  59.4588903  62.3496993  68.9805993  59.9658903
  61.6836993  74.6455993  57.5248903  62.2346993  74.0385993  57.8248903
  61.2586993  74.9085993  58.2398903  61.7026993  74.5945993  57.6738903
  51.9316993  73.2955993  57.0108903  51.5636993  73.5975993  57.7418903
  52.4656993  72.6665993  57.2948903  51.9556993  73.2475993  57.1608903
  63.6536993  76.4765993  54.0868903  63.7216993  75.6265993  54.2678903
  62.8306993  76.5625993  53.8088903  63.5416993  76.3635993  54.0728903
  57.5726993  77.3675993  53.0248903  57.6726993  77.5065993  52.1698903
  58.3906993  77.3075993  53.3208903  57.7076993  77.3785993  52.9418903
  66.9276993  77.8495993  67.2378903  67.5616993  77.6795993  67.8118903
  67.3446993  78.2525993  66.5858903  67.0826993  77.8845993  67.2268903
  67.5526993  72.4135993  67.9758903  67.3566993  73.0575993  68.5308903
  66.8306993  71.9235993  67.9678903  67.4176993  72.4365993  68.0568903
  67.4516993  73.3545993  60.9468903  66.6186993  73.6045993  60.8748903
  67.3956993  72.5145993  61.1758903  67.3206993  73.2675993  60.9698903
  56.7116993  70.3425993  66.1408903  56.9456993  69.7665993  65.5278903
  55.8696993  70.1615993  66.2818903  56.6216993  70.2305993  66.0708903
  64.3386993  77.9605993  68.5928903  65.2096993  77.9245993  68.5568903
  64.1196993  78.3805993  67.8608903  64.4356993  78.0165993  68.4798903
  61.1026993  68.5455993  36.4956493  60.8576993  69.0335993  35.8156493
  61.9656993  68.4725993  36.3956493  61.1936993  68.6065993  36.3806493
  60.9116993  75.4615993  41.1666493  60.3876993  76.0575993  41.5296493
  61.3086993  75.0935993  41.8506493  60.8926993  75.4955993  41.3216493
  50.5236993  73.3935993  33.1296493  49.7456993  73.5555993  32.7696493
  50.5626993  72.5225993  33.1516493  50.4146993  73.2885993  33.0796493
  53.6626993  78.6565993  31.8016493  53.2706993  78.2855993  31.1156493
  53.5826993  78.0585993  32.4306493  53.5926993  78.5135993  31.7926493
  63.5826993  76.5285993  37.8426493  63.6626993  76.5325993  36.9736493
  62.9986993  75.8965993  37.9916493  63.5076993  76.4355993  37.7366493
  57.5716993  69.6325993  35.6506493  57.5016993  70.3095993  35.1046493
  58.3126993  69.2445993  35.4016493  57.6706993  69.6755993  35.5326493
  52.1666993  76.8575993  37.0796493  51.7046993  76.4655993  36.4526493
  52.8666993  76.3445993  37.1716493  52.2016993  76.7245993  37.0006493
  56.6746993  72.4675993  42.4266493  57.3526993  72.4855993  41.8776493
  56.6296993  71.6315993  42.6716493  56.7676993  72.3465993  42.3816493
  54.1676993  74.9575993  37.1026493  54.9846993  74.7705993  37.3456493
  53.6906993  74.3435993  37.4986493  54.2176993  74.8395993  37.1976493
  60.3966993  74.5185993  47.2626493  59.5486993  74.4195993  47.0846493
  60.4256993  75.2635993  47.7166493  60.2756993  74.6145993  47.3036493
  54.7646993  70.0515993  36.3686493  54.4686993  70.5525993  35.7186493
  55.6316993  70.1295993  36.3116493  54.8486993  70.1375993  36.2646493
  64.9546993  67.4785993  46.3766493  64.7966993  68.2475993  45.9946493
  64.1826993  67.2585993  46.7206493  64.8166993  67.5595993  46.3716493
  57.7436993  69.1935993  38.5916493  57.8166993  70.0535993  38.7206493
  57.7056993  69.1185993  37.7236493  57.7486993  69.3095993  38.4826493
  62.4166993  72.1195993  30.8906493  61.9666993  72.8005993  31.1976493
  62.5306993  71.6155993  31.5936493  62.3676993  72.1455993  31.0396493
  50.6226993  74.6185993  40.0926493  50.3666993  75.4495993  40.0176493
  49.9586993  74.2355993  40.5096493  50.4866993  74.6845993  40.1436493
  53.6516993  69.4355993  40.5836493  53.1306993  68.8075993  40.2756493
  54.2426993  68.9985993  41.0546493  53.6626993  69.2775993  40.6076493
  56.9576993  71.5685993  49.8816493  57.0746993  71.1145993  49.1456493
  57.2456993  72.3665993  49.6786493  57.0176993  71.6195993  49.7426493
  67.8106993  72.0925993  37.1856493  67.4646993  72.7705993  37.6116493
  67.1746993  71.4945993  37.2016493  67.6656993  72.1045993  37.2506493
  52.6906993  71.1655993  48.8656493  51.9126993  70.7755993  48.7936493
  53.1816993  70.7535993  48.2746493  52.6476993  71.0465993  48.7676493
  59.3396993  68.8085993  48.0336493  59.5176993  67.9995993  47.7586493
  59.1966993  69.2495993  47.2946493  59.3446993  68.7545993  47.8836493
  59.9336993  73.7345993  36.8066493  60.2206993  73.5025993  36.0166493
  60.6656993  73.8135993  37.2756493  60.0836993  73.7115993  36.7596493
  60.6556993  74.0735993  31.9276493  60.9366993  74.8615993  32.1766493
  59.8796993  74.2385993  31.5646493  60.5826993  74.2145993  31.9106493
  67.4856993  70.4155993  42.5546493  68.2426993  70.4875993  42.1266493
  67.5486993  69.6425993  42.9536493  67.6066993  70.3125993  42.5496493
  50.0386993  71.7135993  46.4516493  50.0346993  72.3005993  47.0976493
  50.6326993  72.0255993  45.8946493  50.1256993  71.8465993  46.4646493
  63.0216993  70.1405993  32.7976493  63.5616993  69.4585993  32.8736493
  63.0836993  70.5385993  33.5716493  63.1106993  70.0985993  32.9236493
  50.9756993  71.3085993  35.3666493  50.8616993  70.4445993  35.3976493
  50.5006993  71.6025993  36.0366493  50.8886993  71.2245993  35.4696493
  60.2796993  72.5165993  34.1116493  59.7716993  71.8545993  33.8576493
  60.3316993  73.0205993  33.4016493  60.2126993  72.4935993  33.9696493
  60.2796993  69.4575993  34.0026493  59.8246993  69.0555993  33.3766493
  61.0526993  69.6125993  33.6276493  60.3266993  69.4215993  33.8546493
  58.8776993  71.8245993  38.5246493  58.9516993  72.3925993  37.8666493
  58.9986993  72.3165993  39.2346493  58.9056993  71.9815993  38.5326493
  53.4856993  67.6475993  36.8726493  54.0216993  68.3355993  36.8626493
  53.4886993  67.3735993  36.0446493  53.5646993  67.7085993  36.7486493
  56.4416993  78.0805993  40.8976493  56.6136993  77.8705993  41.7266493
  55.7866993  77.5465993  40.6816493  56.3706993  77.9705993  40.9886493
  62.6696993  71.9945993  44.4126493  62.5746993  72.3135993  45.2186493
  62.0766993  71.3555993  44.3746493  62.5676993  71.9465993  44.5266493
  63.9256993  67.9385993  37.2486493  63.9746993  67.6205993  38.0596493
  64.2486993  67.2945993  36.7556493  63.9806993  67.7965993  37.2956493
  66.3896993  72.1745993  45.5566493  67.1616993  71.9495993  45.8936493
  65.9146993  72.3915993  46.2566493  66.4336993  72.1735993  45.7096493
  53.9336993  71.4575993  38.5266493  54.2056993  71.0275993  37.8186493
  53.7576993  70.8215993  39.0976493  53.9476993  71.3005993  38.5066493
  52.0746993  72.5595993  41.6086493  52.9176993  72.7795993  41.5656493
  51.6856993  73.1325993  41.0776493  52.1416993  72.6765993  41.5236493
  64.5166993  75.6895993  32.3296493  64.2966993  76.4205993  31.9076493
  64.0686993  75.7405993  33.0766493  64.4176993  75.8045993  32.3776493
  68.7036993  70.5505993  31.7826493  68.0416993  69.9825993  31.8056493
  68.5106993  71.0625993  31.1026493  68.5776993  70.5425993  31.6856493
  57.9286993  74.2445993  49.7266493  57.4446993  74.8215993  50.1686493
  57.9006993  74.5395993  48.9056493  57.8526993  74.3735993  49.6706493
  69.0266993  74.9285993  44.3386493  69.2416993  74.1285993  44.0626493
  68.1766993  74.9885993  44.1496493  68.9326993  74.8195993  44.2696493
  50.3476993  77.2185993  34.7336493  50.1626993  76.3795993  34.8856493
  51.0066993  77.1825993  34.1636493  50.4176993  77.0895993  34.6716493
  66.7056993  70.1085993  34.0616493  67.4516993  69.7015993  34.2606493
  66.9686993  70.8235993  33.6366493  66.8546993  70.1545993  34.0286493
  63.1596993  72.3965993  39.1346493  63.5036993  72.5485993  39.9216493
  62.7066993  71.6585993  39.2476493  63.1436993  72.3095993  39.2676493
  57.6356993  71.6165993  33.5916493  57.6336993  71.4995993  32.7266493
  57.4546993  72.4645993  33.6836493  57.6086993  71.7245993  33.4776493
  53.5036993  75.0515993  48.0856493  52.9676993  74.5455993  48.5536493
  53.5236993  74.6615993  47.3056493  53.4266993  74.9185993  48.0396493
  53.9886993  74.4485993  33.2256493  53.8606993  74.0005993  33.9636493
  53.4066993  74.1065993  32.6736493  53.8836993  74.3315993  33.2536493
  54.1556993  76.2785993  39.8246493  53.3746993  76.2195993  39.4416493
  54.2276993  75.5265993  40.2616493  54.0506993  76.1595993  39.8326493
  54.5856993  76.0155993  43.2926493  54.6106993  75.3405993  42.7416493
  53.9396993  76.5115993  42.9806493  54.4946993  75.9885993  43.1656493
  64.4806993  73.7285993  41.6886493  63.8186993  74.0565993  42.1516493
  64.6676993  74.3625993  41.1196493  64.4106993  73.8705993  41.6726493
  61.1256993  69.6345993  45.1176493  61.2746993  68.8095993  44.8746493
  61.5046993  69.6895993  45.9016493  61.2036993  69.5205993  45.1976493
  62.6736993  71.6975993  35.1996493  63.1636993  72.4145993  35.1226493
  61.8836993  71.9585993  34.9366493  62.6296993  71.8415993  35.1496493
  52.3846993  77.3705993  48.8516493  52.3476993  77.8715993  48.1376493
  52.7156993  76.6185993  48.5566493  52.4276993  77.3325993  48.7026493
  59.2556993  73.1675993  40.9246493  59.7356993  73.8665993  41.1326493
  59.6286993  72.5205993  41.3756493  59.3816993  73.1755993  41.0216493
  61.4446993  76.3365993  33.1986493  61.4366993  77.0585993  32.7086493
  60.8056993  76.4715993  33.7756493  61.3496993  76.4635993  33.2116493
  56.0376993  68.6785993  32.8596493  56.1346993  68.5715993  33.7206493
  55.3296993  69.1845993  32.7946493  55.9476993  68.7375993  32.9776493
  65.7346993  78.1215993  45.2696493  65.7896993  78.2465993  44.4076493
  66.4876993  78.4415993  45.5716493  65.8536993  78.1865993  45.1866493
  66.7666993  68.4195993  48.2566493  66.1296993  68.0195993  47.8146493
  66.7926993  67.9885993  49.0146493  66.6766993  68.2975993  48.3026493
  53.1596993  76.9855993  34.1026493  53.4836993  76.2065993  33.8806493
  53.8056993  77.3535993  34.5576493  53.3026993  76.9245993  34.1366493
  61.4656993  77.9275993  44.8696493  61.3106993  78.5375993  45.4736493
  61.9996993  77.3695993  45.2756493  61.5216993  77.9355993  45.0186493
  50.1566993  68.6465993  35.0706493  50.2856993  67.9385993  34.5786493
  49.7896993  68.3285993  35.7956493  50.1216993  68.4945993  35.1056493
  59.8496993  76.3275993  35.5276493  59.9086993  76.9775993  36.1066493
  59.6606993  75.6315993  36.0186493  59.8306993  76.3205993  35.6856493
  54.3456993  70.8445993  32.0396493  53.8346993  70.8975993  31.3336493
  55.1296993  71.0845993  31.7436493  54.3856993  70.8875993  31.8916493
  59.0726993  78.3745993  39.9586493  58.2256993  78.1805993  40.0396493
  59.3966993  78.2095993  40.7516493  58.9946993  78.3215993  40.0876493
  52.9206993  78.0675993  42.2746493  53.6426993  78.5555993  42.2376493
  52.6506993  78.0375993  41.4456493  52.9876993  78.1355993  42.1466493
  56.1506993  73.2385993  39.0096493  56.9966993  73.0485993  39.1076493
  55.7806993  72.4615993  38.8716493  56.2206993  73.0955993  39.0036493
  50.9716993  74.5765993  35.6646493  51.4606993  74.2845993  36.3256493
  51.1006993  73.9835993  35.0376493  51.0626993  74.4455993  35.6696493
  66.0066993  77.5985993  42.5156493  65.9996993  76.8225993  42.9136493
  65.1656993  77.8325993  42.5086493  65.8816993  77.5185993  42.5736493
  55.4966993  76.0105993  31.1506493  54.8866993  75.6055993  31.6246493
  55.1106993  76.1285993  30.3776493  55.3496993  75.9675993  31.1066493
  67.2626993  77.6695993  39.9526493  66.9766993  78.0705993  40.6726493
  68.1226993  77.6075993  40.0796493  67.3476993  77.7195993  40.0776493
  56.9516993  74.4715993  33.8606493  57.2236993  75.2975993  33.9276493
  56.0886993  74.5465993  33.7646493  56.8646993  74.6045993  33.8556493
  64.9246993  71.5935993  48.4926493  64.3996993  72.0525993  49.0166493
  64.5636993  70.7985993  48.4866493  64.7936993  71.5435993  48.5686493
  50.4316993  70.4415993  40.3966493  50.4756993  70.7855993  39.5956493
  51.1866993  70.6785993  40.7636493  50.5496993  70.5275993  40.3326493
  63.4166993  75.1625993  48.5686493  63.4896993  75.2665993  49.4316493
  62.7826993  75.7205993  48.3476493  63.3336993  75.2605993  48.6636493
  65.6846993  75.4815993  46.9336493  66.0036993  76.2675993  47.1366493
  65.3146993  75.2115993  47.6766493  65.6776993  75.5575993  47.0736493
  65.4806993  73.7395993  38.1226493  64.7356993  73.4165993  38.4406493
  65.4826993  74.5655993  38.4026493  65.3706993  73.8135993  38.2106493
  68.3826993  76.0235993  49.6686493  68.3306993  75.6825993  48.8676493
  69.1196993  76.4905993  49.6466493  68.4836993  76.0425993  49.5466493
  64.3926993  70.0695993  45.5836493  65.1366993  70.5215993  45.5206493
  63.8266993  70.5395993  45.1146493  64.4196993  70.2065993  45.5056493
  59.5706993  77.3535993  42.6616493  60.0466993  77.7275993  43.2896493
  58.7476993  77.4875993  42.9206493  59.5196993  77.4285993  42.7926493
  56.2806993  72.9565993  45.4026493  56.4416993  72.2125993  45.8296493
  56.2356993  72.7075993  44.5676493  56.2976993  72.8095993  45.3426493
  65.6776993  68.0495993  43.2536493  65.3976993  68.8745993  43.2096493
  66.3936993  68.1025993  43.7496493  65.7426993  68.1795993  43.3206493
  58.0326993  68.7645993  45.2826493  58.7376993  69.0845993  44.8806493
  58.2736993  67.9575993  45.5096493  58.1716993  68.6925993  45.2566493
  67.0986993  74.3045993  32.1106493  67.4766993  74.9815993  31.7106493
  66.2566993  74.5285993  32.1416493  67.0296993  74.4375993  32.0556493
  58.6116993  77.7505993  31.1936493  57.8066993  77.5735993  30.9086493
  58.5786993  78.6015993  31.3856493  58.4876993  77.8495993  31.1806493
  54.5416993  73.8175993  41.3436493  54.9816993  73.7145993  40.5976493
  55.0866993  73.5045993  41.9486493  54.6866993  73.7565993  41.3226493
  62.5576993  72.9195993  46.9356493  61.9096993  73.3895993  47.2836493
  63.1226993  72.8305993  47.5946493  62.5456993  72.9755993  47.0846493
  62.2456993  74.4565993  43.2336493  62.5476993  74.8765993  43.9366493
  62.2816993  73.6165993  43.4656493  62.2956993  74.3945993  43.3716493
  64.7936993  73.9035993  35.4856493  65.0006993  73.7025993  36.3096493
  65.5496993  74.1715993  35.1436493  64.9356993  73.9135993  35.5566493
  58.0886993  68.8025993  41.3906493  57.2626993  68.6535993  41.6276493
  58.0486993  68.8375993  40.5196493  57.9606993  68.7855993  41.2966493
  65.8156993  69.9865993  36.9596493  65.1016993  69.5155993  37.1306493
  65.6536993  70.3275993  36.1736493  65.6866993  69.9675993  36.8686493
  66.2586993  77.9305993  35.3396493  66.7346993  77.2015993  35.2916493
  65.4376993  77.6445993  35.2636493  66.2076993  77.7805993  35.3206493
  50.6536993  69.2005993  47.4256493  50.5136993  69.9955993  47.0946493
  49.8676993  68.9575993  47.7146493  50.5166993  69.2825993  47.4196493
  53.7176993  71.9445993  34.6506493  53.8436993  71.6155993  33.8526493
  52.9056993  71.6955993  34.8496493  53.6166993  71.8595993  34.5626493
  68.3946993  75.0985993  47.0976493  67.5396993  74.9765993  47.2236493
  68.5476993  74.7035993  46.3346493  68.2906993  75.0215993  47.0036493
  62.9076993  75.7635993  45.6736493  62.6526993  75.0445993  46.0956493
  63.7286993  75.8795993  45.9436493  62.9916993  75.6745993  45.7756493
  60.8416993  76.9535993  48.8606493  61.1646993  77.6395993  48.4286493
  60.1376993  77.2765993  49.2626493  60.7846993  77.1025993  48.8556493
  53.6946993  73.9555993  45.0666493  54.0696993  74.5745993  44.5796493
  54.3686993  73.4815993  45.3516493  53.8496993  73.9775993  45.0366493
  51.4696993  72.4035993  44.3416493  51.5466993  72.2345993  43.4886493
  52.2156993  72.8095993  44.5386493  51.5906993  72.4385993  44.2446493
  67.0286993  75.0435993  34.7816493  67.1316993  74.9855993  33.9176493
  67.7696993  74.7115993  35.0996493  67.1536993  74.9865993  34.7006493
  54.0236993  69.8135993  46.7526493  53.9426993  68.9695993  46.9586493
  53.7096993  69.8575993  45.9396493  53.9656993  69.6955993  46.6626493
  66.1306993  75.1895993  44.1376493  66.1286993  74.3265993  44.2616493
  66.1976993  75.5135993  44.9446493  66.1406993  75.1095993  44.2746493
  50.8666993  77.6295993  44.5656493  51.1866993  77.8485993  43.7846493
  50.7666993  76.7645993  44.5106493  50.8986993  77.5345993  44.4426493
  52.3226993  73.5655993  31.1836493  51.6506993  73.5795993  31.7396493
  52.4176993  72.7175993  30.9996493  52.2376993  73.4425993  31.2386493
  62.0096993  69.9895993  47.9196493  62.1016993  70.7015993  48.4136493
  61.3726993  69.5445993  48.3166493  61.9286993  70.0285993  48.0516493
  61.0036993  70.1795993  38.7736493  60.3036993  70.6975993  38.7176493
  61.0416993  69.7995993  37.9896493  60.9056993  70.2005993  38.6496493
  64.6016993  70.6955993  41.5736493  65.4566993  70.7945993  41.7186493
  64.2326993  71.2485993  42.1386493  64.6736993  70.7925993  41.6786493
  55.6296993  76.9215993  45.9506493  55.2336993  77.6955993  46.0256493
  55.2236993  76.5485993  45.2746493  55.5116993  76.9805993  45.8616493
  64.9056993  75.9755993  40.0646493  65.5716993  76.5165993  40.2246493
  64.5606993  76.2865993  39.3256493  64.9526993  76.1015993  39.9796493
  56.0586993  69.8985993  43.4006493  55.1946993  69.9825993  43.4806493
  56.2786993  69.3845993  44.0696493  55.9636993  69.8355993  43.5116493
  68.0766993  68.5335993  44.7296493  68.0246993  68.4895993  45.5996493
  68.7636993  68.0305993  44.5396493  68.1706993  68.4535993  44.8296493
  60.1616993  70.6465993  41.7746493  59.4246993  70.1925993  41.8876493
  60.7326993  70.2445993  42.2976493  60.1366993  70.5195993  41.8686493
  57.6646993  74.9755993  46.9786493  57.3426993  74.3995993  46.4086493
  57.3056993  75.7305993  46.7326493  57.5646993  75.0015993  46.8586493
  58.4606993  68.2275993  31.6056493  58.5386993  68.4745993  30.7726493
  57.7176993  68.6045993  31.8636493  58.3626993  68.3195993  31.5206493
  53.2786993  69.9815993  44.0486493  52.9356993  69.2145993  43.8146493
  52.5836993  70.5055993  44.1126493  53.1256993  69.9455993  44.0236493
  62.3246993  68.8375993  41.0256493  62.9946993  69.3815993  41.1526493
  61.8216993  69.2615993  40.4526493  62.3496993  68.9805993  40.9596493
  61.6836993  74.6455993  38.5186493  62.2346993  74.0385993  38.8186493
  61.2586993  74.9085993  39.2336493  61.7026993  74.5945993  38.6676493
  51.9316993  73.2955993  38.0046493  51.5636993  73.5975993  38.7356493
  52.4656993  72.6665993  38.2886493  51.9556993  73.2475993  38.1546493
  63.6536993  76.4765993  35.0806493  63.7216993  75.6265993  35.2616493
  62.8306993  76.5625993  34.8026493  63.5416993  76.3635993  35.0666493
  57.5726993  77.3675993  34.0186493  57.6726993  77.5065993  33.1636493
  58.3906993  77.3075993  34.3146493  57.7076993  77.3785993  33.9356493
  66.9276993  77.8495993  48.2316493  67.5616993  77.6795993  48.8056493
  67.3446993  78.2525993  47.5796493  67.0826993  77.8845993  48.2206493
  67.5526993  72.4135993  48.9696493  67.3566993  73.0575993  49.5246493
  66.8306993  71.9235993  48.9616493  67.4176993  72.4365993  49.0506493
  67.4516993  73.3545993  41.9406493  66.6186993  73.6045993  41.8686493
  67.3956993  72.5145993  42.1696493  67.3206993  73.2675993  41.9636493
  56.7116993  70.3425993  47.1346493  56.9456993  69.7665993  46.5216493
  55.8696993  70.1615993  47.2756493  56.6216993  70.2305993  47.0646493
  64.3386993  77.9605993  49.5866493  65.2096993  77.9245993  49.5506493
  64.1196993  78.3805993  48.8546493  64.4356993  78.0165993  49.4736493
  61.1026993  68.5455993  17.4894083  60.8576993  69.0335993  16.8094083
  61.9656993  68.4725993  17.3894083  61.1936993  68.6065993  17.3744083
  60.9116993  75.4615993  22.1604083  60.3876993  76.0575993  22.5234083
  61.3086993  75.0935993  22.8444083  60.8926993  75.4955993  22.3154083
  50.5236993  73.3935993  14.1234083  49.7456993  73.5555993  13.7634083
  50.5626993  72.5225993  14.1454083  50.4146993  73.2885993  14.0734083
  53.6626993  78.6565993  12.7954083  53.2706993  78.2855993  12.1094083
  53.5826993  78.0585993  13.4244083  53.5926993  78.5135993  12.7864083
  63.5826993  76.5285993  18.8364083  63.6626993  76.5325993  17.9674083
  62.9986993  75.8965993  18.9854083  63.5076993  76.4355993  18.7304083
  57.5716993  69.6325993  16.6444083  57.5016993  70.3095993  16.0984083
  58.3126993  69.2445993  16.3954083  57.6706993  69.6755993  16.5264083
  52.1666993  76.8575993  18.0734083  51.7046993  76.4655993  17.4464083
  52.8666993  76.3445993  18.1654083  52.2016993  76.7245993  17.9944083
  56.6746993  72.4675993  23.4204083  57.3526993  72.4855993  22.8714083
  56.6296993  71.6315993  23.6654083  56.7676993  72.3465993  23.3754083
  54.1676993  74.9575993  18.0964083  54.9846993  74.7705993  18.3394083
  53.6906993  74.3435993  18.4924083  54.2176993  74.8395993  18.1914083
  60.3966993  74.5185993  28.2564083  59.5486993  74.4195993  28.0784083
  60.4256993  75.2635993  28.7104083  60.2756993  74.6145993  28.2974083
  54.7646993  70.0515993  17.3624083  54.4686993  70.5525993  16.7124083
  55.6316993  70.1295993  17.3054083  54.8486993  70.1375993  17.2584083
  64.9546993  67.4785993  27.3704083  64.7966993  68.2475993  26.9884083
  64.1826993  67.2585993  27.7144083  64.8166993  67.5595993  27.3654083
  57.7436993  69.1935993  19.5854083  57.8166993  70.0535993  19.7144083
  57.7056993  69.1185993  18.7174083  57.7486993  69.3095993  19.4764083
  62.4166993  72.1195993  11.8844083  61.9666993  72.8005993  12.1914083
  62.5306993  71.6155993  12.5874083  62.3676993  72.1455993  12.0334083
  50.6226993  74.6185993  21.0864083  50.3666993  75.4495993  21.0114083
  49.9586993  74.2355993  21.5034083  50.4866993  74.6845993  21.1374083
  53.6516993  69.4355993  21.5774083  53.1306993  68.8075993  21.2694083
  54.2426993  68.9985993  22.0484083  53.6626993  69.2775993  21.6014083
  56.9576993  71.5685993  30.8754083  57.0746993  71.1145993  30.1394083
  57.2456993  72.3665993  30.6724083  57.0176993  71.6195993  30.7364083
  67.8106993  72.0925993  18.1794083  67.4646993  72.7705993  18.6054083
  67.1746993  71.4945993  18.1954083  67.6656993  72.1045993  18.2444083
  52.6906993  71.1655993  29.8594083  51.9126993  70.7755993  29.7874083
  53.1816993  70.7535993  29.2684083  52.6476993  71.0465993  29.7614083
  59.3396993  68.8085993  29.0274083  59.5176993  67.9995993  28.7524083
  59.1966993  69.2495993  28.2884083  59.3446993  68.7545993  28.8774083
  59.9336993  73.7345993  17.8004083  60.2206993  73.5025993  17.0104083
  60.6656993  73.8135993  18.2694083  60.0836993  73.7115993  17.7534083
  60.6556993  74.0735993  12.9214083  60.9366993  74.8615993  13.1704083
  59.8796993  74.2385993  12.5584083  60.5826993  74.2145993  12.9044083
  67.4856993  70.4155993  23.5484083  68.2426993  70.4875993  23.1204083
  67.5486993  69.6425993  23.9474083  67.6066993  70.3125993  23.5434083
  50.0386993  71.7135993  27.4454083  50.0346993  72.3005993  28.0914083
  50.6326993  72.0255993  26.8884083  50.1256993  71.8465993  27.4584083
  63.0216993  70.1405993  13.7914083  63.5616993  69.4585993  13.8674083
  63.0836993  70.5385993  14.5654083  63.1106993  70.0985993  13.9174083
  50.9756993  71.3085993  16.3604083  50.8616993  70.4445993  16.3914083
  50.5006993  71.6025993  17.0304083  50.8886993  71.2245993  16.4634083
  60.2796993  72.5165993  15.1054083  59.7716993  71.8545993  14.8514083
  60.3316993  73.0205993  14.3954083  60.2126993  72.4935993  14.9634083
  60.2796993  69.4575993  14.9964083  59.8246993  69.0555993  14.3704083
  61.0526993  69.6125993  14.6214083  60.3266993  69.4215993  14.8484083
  58.8776993  71.8245993  19.5184083  58.9516993  72.3925993  18.8604083
  58.9986993  72.3165993  20.2284083  58.9056993  71.9815993  19.5264083
  53.4856993  67.6475993  17.8664083  54.0216993  68.3355993  17.8564083
  53.4886993  67.3735993  17.0384083  53.5646993  67.7085993  17.7424083
  56.4416993  78.0805993  21.8914083  56.6136993  77.8705993  22.7204083
  55.7866993  77.5465993  21.6754083  56.3706993  77.9705993  21.9824083
  62.6696993  71.9945993  25.4064083  62.5746993  72.3135993  26.2124083
  62.0766993  71.3555993  25.3684083  62.5676993  71.9465993  25.5204083
  63.9256993  67.9385993  18.2424083  63.9746993  67.6205993  19.0534083
  64.2486993  67.2945993  17.7494083  63.9806993  67.7965993  18.2894083
  66.3896993  72.1745993  26.5504083  67.1616993  71.9495993  26.8874083
  65.9146993  72.3915993  27.2504083  66.4336993  72.1735993  26.7034083
  53.9336993  71.4575993  19.5204083  54.2056993  71.0275993  18.8124083
  53.7576993  70.8215993  20.0914083  53.9476993  71.3005993  19.5004083
  52.0746993  72.5595993  22.6024083  52.9176993  72.7795993  22.5594083
  51.6856993  73.1325993  22.0714083  52.1416993  72.6765993  22.5174083
  64.5166993  75.6895993  13.3234083  64.2966993  76.4205993  12.9014083
  64.0686993  75.7405993  14.0704083  64.4176993  75.8045993  13.3714083
  68.7036993  70.5505993  12.7764083  68.0416993  69.9825993  12.7994083
  68.5106993  71.0625993  12.0964083  68.5776993  70.5425993  12.6794083
  57.9286993  74.2445993  30.7204083  57.4446993  74.8215993  31.1624083
  57.9006993  74.5395993  29.8994083  57.8526993  74.3735993  30.6644083
  69.0266993  74.9285993  25.3324083  69.2416993  74.1285993  25.0564083
  68.1766993  74.9885993  25.1434083  68.9326993  74.8195993  25.2634083
  50.3476993  77.2185993  15.7274083  50.1626993  76.3795993  15.8794083
  51.0066993  77.1825993  15.1574083  50.4176993  77.0895993  15.6654083
  66.7056993  70.1085993  15.0554083  67.4516993  69.7015993  15.2544083
  66.9686993  70.8235993  14.6304083  66.8546993  70.1545993  15.0224083
  63.1596993  72.3965993  20.1284083  63.5036993  72.5485993  20.9154083
  62.7066993  71.6585993  20.2414083  63.1436993  72.3095993  20.2614083
  57.6356993  71.6165993  14.5854083  57.6336993  71.4995993  13.7204083
  57.4546993  72.4645993  14.6774083  57.6086993  71.7245993  14.4714083
  53.5036993  75.0515993  29.0794083  52.9676993  74.5455993  29.5474083
  53.5236993  74.6615993  28.2994083  53.4266993  74.9185993  29.0334083
  53.9886993  74.4485993  14.2194083  53.8606993  74.0005993  14.9574083
  53.4066993  74.1065993  13.6674083  53.8836993  74.3315993  14.2474083
  54.1556993  76.2785993  20.8184083  53.3746993  76.2195993  20.4354083
  54.2276993  75.5265993  21.2554083  54.0506993  76.1595993  20.8264083
  54.5856993  76.0155993  24.2864083  54.6106993  75.3405993  23.7354083
  53.9396993  76.5115993  23.9744083  54.4946993  75.9885993  24.1594083
  64.4806993  73.7285993  22.6824083  63.8186993  74.0565993  23.1454083
  64.6676993  74.3625993  22.1134083  64.4106993  73.8705993  22.6664083
  61.1256993  69.6345993  26.1114083  61.2746993  68.8095993  25.8684083
  61.5046993  69.6895993  26.8954083  61.2036993  69.5205993  26.1914083
  62.6736993  71.6975993  16.1934083  63.1636993  72.4145993  16.1164083
  61.8836993  71.9585993  15.9304083  62.6296993  71.8415993  16.1434083
  52.3846993  77.3705993  29.8454083  52.3476993  77.8715993  29.1314083
  52.7156993  76.6185993  29.5504083  52.4276993  77.3325993  29.6964083
  59.2556993  73.1675993  21.9184083  59.7356993  73.8665993  22.1264083
  59.6286993  72.5205993  22.3694083  59.3816993  73.1755993  22.0154083
  61.4446993  76.3365993  14.1924083  61.4366993  77.0585993  13.7024083
  60.8056993  76.4715993  14.7694083  61.3496993  76.4635993  14.2054083
  56.0376993  68.6785993  13.8534083  56.1346993  68.5715993  14.7144083
  55.3296993  69.1845993  13.7884083  55.9476993  68.7375993  13.9714083
  65.7346993  78.1215993  26.2634083  65.7896993  78.2465993  25.4014083
  66.4876993  78.4415993  26.5654083  65.8536993  78.1865993  26.1804083
  66.7666993  68.4195993  29.2504083  66.1296993  68.0195993  28.8084083
  66.7926993  67.9885993  30.0084083  66.6766993  68.2975993  29.2964083
  53.1596993  76.9855993  15.0964083  53.4836993  76.2065993  14.8744083
  53.8056993  77.3535993  15.5514083  53.3026993  76.9245993  15.1304083
  61.4656993  77.9275993  25.8634083  61.3106993  78.5375993  26.4674083
  61.9996993  77.3695993  26.2694083  61.5216993  77.9355993  26.0124083
  50.1566993  68.6465993  16.0644083  50.2856993  67.9385993  15.5724083
  49.7896993  68.3285993  16.7894083  50.1216993  68.4945993  16.0994083
  59.8496993  76.3275993  16.5214083  59.9086993  76.9775993  17.1004083
  59.6606993  75.6315993  17.0124083  59.8306993  76.3205993  16.6794083
  54.3456993  70.8445993  13.0334083  53.8346993  70.8975993  12.3274083
  55.1296993  71.0845993  12.7374083  54.3856993  70.8875993  12.8854083
  59.0726993  78.3745993  20.9524083  58.2256993  78.1805993  21.0334083
  59.3966993  78.2095993  21.7454083  58.9946993  78.3215993  21.0814083
  52.9206993  78.0675993  23.2684083  53.6426993  78.5555993  23.2314083
  52.6506993  78.0375993  22.4394083  52.9876993  78.1355993  23.1404083
  56.1506993  73.2385993  20.0034083  56.9966993  73.0485993  20.1014083
  55.7806993  72.4615993  19.8654083  56.2206993  73.0955993  19.9974083
  50.9716993  74.5765993  16.6584083  51.4606993  74.2845993  17.3194083
  51.1006993  73.9835993  16.0314083  51.0626993  74.4455993  16.6634083
  66.0066993  77.5985993  23.5094083  65.9996993  76.8225993  23.9074083
  65.1656993  77.8325993  23.5024083  65.8816993  77.5185993  23.5674083
  55.4966993  76.0105993  12.1444083  54.8866993  75.6055993  12.6184083
  55.1106993  76.1285993  11.3714083  55.3496993  75.9675993  12.1004083
  67.2626993  77.6695993  20.9464083  66.9766993  78.0705993  21.6664083
  68.1226993  77.6075993  21.0734083  67.3476993  77.7195993  21.0714083
  56.9516993  74.4715993  14.8544083  57.2236993  75.2975993  14.9214083
  56.0886993  74.5465993  14.7584083  56.8646993  74.6045993  14.8494083
  64.9246993  71.5935993  29.4864083  64.3996993  72.0525993  30.0104083
  64.5636993  70.7985993  29.4804083  64.7936993  71.5435993  29.5624083
  50.4316993  70.4415993  21.3904083  50.4756993  70.7855993  20.5894083
  51.1866993  70.6785993  21.7574083  50.5496993  70.5275993  21.3264083
  63.4166993  75.1625993  29.5624083  63.4896993  75.2665993  30.4254083
  62.7826993  75.7205993  29.3414083  63.3336993  75.2605993  29.6574083
  65.6846993  75.4815993  27.9274083  66.0036993  76.2675993  28.1304083
  65.3146993  75.2115993  28.6704083  65.6776993  75.5575993  28.0674083
  65.4806993  73.7395993  19.1164083  64.7356993  73.4165993  19.4344083
  65.4826993  74.5655993  19.3964083  65.3706993  73.8135993  19.2044083
  68.3826993  76.0235993  30.6624083  68.3306993  75.6825993  29.8614083
  69.1196993  76.4905993  30.6404083  68.4836993  76.0425993  30.5404083
  64.3926993  70.0695993  26.5774083  65.1366993  70.5215993  26.5144083
  63.8266993  70.5395993  26.1084083  64.4196993  70.2065993  26.4994083
  59.5706993  77.3535993  23.6554083  60.0466993  77.7275993  24.2834083
  58.7476993  77.4875993  23.9144083  59.5196993  77.4285993  23.7864083
  56.2806993  72.9565993  26.3964083  56.4416993  72.2125993  26.8234083
  56.2356993  72.7075993  25.5614083  56.2976993  72.8095993  26.3364083
  65.6776993  68.0495993  24.2474083  65.3976993  68.8745993  24.2034083
  66.3936993  68.1025993  24.7434083  65.7426993  68.1795993  24.3144083
  58.0326993  68.7645993  26.2764083  58.7376993  69.0845993  25.8744083
  58.2736993  67.9575993  26.5034083  58.1716993  68.6925993  26.2504083
  67.0986993  74.3045993  13.1044083  67.4766993  74.9815993  12.7044083
  66.2566993  74.5285993  13.1354083  67.0296993  74.4375993  13.0494083
  58.6116993  77.7505993  12.1874083  57.8066993  77.5735993  11.9024083
  58.5786993  78.6015993  12.3794083  58.4876993  77.8495993  12.1744083
  54.5416993  73.8175993  22.3374083  54.9816993  73.7145993  21.5914083
  55.0866993  73.5045993  22.9424083  54.6866993  73.7565993  22.3164083
  62.5576993  72.9195993  27.9294083  61.9096993  73.3895993  28.2774083
  63.1226993  72.8305993  28.5884083  62.5456993  72.9755993  28.0784083
  62.2456993  74.4565993  24.2274083  62.5476993  74.8765993  24.9304083
  62.2816993  73.6165993  24.4594083  62.2956993  74.3945993  24.3654083
  64.7936993  73.9035993  16.4794083  65.0006993  73.7025993  17.3034083
  65.5496993  74.1715993  16.1374083  64.9356993  73.9135993  16.5504083
  58.0886993  68.8025993  22.3844083  57.2626993  68.6535993  22.6214083
  58.0486993  68.8375993  21.5134083  57.9606993  68.7855993  22.2904083
  65.8156993  69.9865993  17.9534083  65.1016993  69.5155993  18.1244083
  65.6536993  70.3275993  17.1674083  65.6866993  69.9675993  17.8624083
  66.2586993  77.9305993  16.3334083  66.7346993  77.2015993  16.2854083
  65.4376993  77.6445993  16.2574083  66.2076993  77.7805993  16.3144083
  50.6536993  69.2005993  28.4194083  50.5136993  69.9955993  28.0884083
  49.8676993  68.9575993  28.7084083  50.5166993  69.2825993  28.4134083
  53.7176993  71.9445993  15.6444083  53.8436993  71.6155993  14.8464083
  52.9056993  71.6955993  15.8434083  53.6166993  71.8595993  15.5564083
  68.3946993  75.0985993  28.0914083  67.5396993  74.9765993  28.2174083
  68.5476993  74.7035993  27.3284083  68.2906993  75.0215993  27.9974083
  62.9076993  75.7635993  26.6674083  62.6526993  75.0445993  27.0894083
  63.7286993  75.8795993  26.9374083  62.9916993  75.6745993  26.7694083
  60.8416993  76.9535993  29.8544083  61.1646993  77.6395993  29.4224083
  60.1376993  77.2765993  30.2564083  60.7846993  77.1025993  29.8494083
  53.6946993  73.9555993  26.0604083  54.0696993  74.5745993  25.5734083
  54.3686993  73.4815993  26.3454083  53.8496993  73.9775993  26.0304083
  51.4696993  72.4035993  25.3354083  51.5466993  72.2345993  24.4824083
  52.2156993  72.8095993  25.5324083  51.5906993  72.4385993  25.2384083
  67.0286993  75.0435993  15.7754083  67.1316993  74.9855993  14.9114083
  67.7696993  74.7115993  16.0934083  67.1536993  74.9865993  15.6944083
  54.0236993  69.8135993  27.7464083  53.9426993  68.9695993  27.9524083
  53.7096993  69.8575993  26.9334083  53.9656993  69.6955993  27.6564083
  66.1306993  75.1895993  25.1314083  66.1286993  74.3265993  25.2554083
  66.1976993  75.5135993  25.9384083  66.1406993  75.1095993  25.2684083
  50.8666993  77.6295993  25.5594083  51.1866993  77.8485993  24.7784083
  50.7666993  76.7645993  25.5044083  50.8986993  77.5345993  25.4364083
  52.3226993  73.5655993  12.1774083  51.6506993  73.5795993  12.7334083
  52.4176993  72.7175993  11.9934083  52.2376993  73.4425993  12.2324083
  62.0096993  69.9895993  28.9134083  62.1016993  70.7015993  29.4074083
  61.3726993  69.5445993  29.3104083  61.9286993  70.0285993  29.0454083
  61.0036993  70.1795993  19.7674083  60.3036993  70.6975993  19.7114083
  61.0416993  69.7995993  18.9834083  60.9056993  70.2005993  19.6434083
  64.6016993  70.6955993  22.5674083  65.4566993  70.7945993  22.7124083
  64.2326993  71.2485993  23.1324083  64.6736993  70.7925993  22.6724083
  55.6296993  76.9215993  26.9444083  55.2336993  77.6955993  27.0194083
  55.2236993  76.5485993  26.2684083  55.5116993  76.9805993  26.8554083
  64.9056993  75.9755993  21.0584083  65.5716993  76.5165993  21.2184083
  64.5606993  76.2865993  20.3194083  64.9526993  76.1015993  20.9734083
  56.0586993  69.8985993  24.3944083  55.1946993  69.9825993  24.4744083
  56.2786993  69.3845993  25.0634083  55.9636993  69.8355993  24.5054083
  68.0766993  68.5335993  25.7234083  68.0246993  68.4895993  26.5934083
  68.7636993  68.0305993  25.5334083  68.1706993  68.4535993  25.8234083
  60.1616993  70.6465993  22.7684083  59.4246993  70.1925993  22.8814083
  60.7326993  70.2445993  23.2914083  60.1366993  70.5195993  22.8624083
  57.6646993  74.9755993  27.9724083  57.3426993  74.3995993  27.4024083
  57.3056993  75.7305993  27.7264083  57.5646993  75.0015993  27.8524083
  58.4606993  68.2275993  12.5994083  58.5386993  68.4745993  11.7664083
  57.7176993  68.6045993  12.8574083  58.3626993  68.3195993  12.5144083
  53.2786993  69.9815993  25.0424083  52.9356993  69.2145993  24.8084083
  52.5836993  70.5055993  25.1064083  53.1256993  69.9455993  25.0174083
  62.3246993  68.8375993  22.0194083  62.9946993  69.3815993  22.1464083
  61.8216993  69.2615993  21.4464083  62.3496993  68.9805993  21.9534083
  61.6836993  74.6455993  19.5124083  62.2346993  74.0385993  19.8124083
  61.2586993  74.9085993  20.2274083  61.7026993  74.5945993  19.6614083
  51.9316993  73.2955993  18.9984083  51.5636993  73.5975993  19.7294083
  52.4656993  72.6665993  19.2824083  51.9556993  73.2475993  19.1484083
  63.6536993  76.4765993  16.0744083  63.7216993  75.6265993  16.2554083
  62.8306993  76.5625993  15.7964083  63.5416993  76.3635993  16.0604083
  57.5726993  77.3675993  15.0124083  57.6726993  77.5065993  14.1574083
  58.3906993  77.3075993  15.3084083  57.7076993  77.3785993  14.9294083
  66.9276993  77.8495993  29.2254083  67.5616993  77.6795993  29.7994083
  67.3446993  78.2525993  28.5734083  67.0826993  77.8845993  29.2144083
  67.5526993  72.4135993  29.9634083  67.3566993  73.0575993  30.5184083
  66.8306993  71.9235993  29.9554083  67.4176993  72.4365993  30.0444083
  67.4516993  73.3545993  22.9344083  66.6186993  73.6045993  22.8624083
  67.3956993  72.5145993  23.1634083  67.3206993  73.2675993  22.9574083
  56.7116993  70.3425993  28.1284083  56.9456993  69.7665993  27.5154083
  55.8696993  70.1615993  28.2694083  56.6216993  70.2305993  28.0584083
  64.3386993  77.9605993  30.5804083  65.2096993  77.9245993  30.5444083
  64.1196993  78.3805993  29.8484083  64.4356993  78.0165993  30.4674083
  60.9116993  75.4615993   3.1541673  60.3876993  76.0575993   3.5171673
  61.3086993  75.0935993   3.8381673  60.8926993  75.4955993   3.3091673
  56.6746993  72.4675993   4.4141673  57.3526993  72.4855993   3.8651673
  56.6296993  71.6315993   4.6591673  56.7676993  72.3465993   4.3691673
  60.3966993  74.5185993   9.2501673  59.5486993  74.4195993   9.0721673
  60.4256993  75.2635993   9.7041673  60.2756993  74.6145993   9.2911673
  64.9546993  67.4785993   8.3641673  64.7966993  68.2475993   7.9821673
  64.1826993  67.2585993   8.7081673  64.8166993  67.5595993   8.3591673
  50.6226993  74.6185993   2.0801673  50.3666993  75.4495993   2.0051673
  49.9586993  74.2355993   2.4971673  50.4866993  74.6845993   2.1311673
  53.6516993  69.4355993   2.5711673  53.1306993  68.8075993   2.2631673
  54.2426993  68.9985993   3.0421673  53.6626993  69.2775993   2.5951673
  56.9576993  71.5685993  11.8691673  57.0746993  71.1145993  11.1331673
  57.2456993  72.3665993  11.6661673  57.0176993  71.6195993  11.7301673
  52.6906993  71.1655993  10.8531673  51.9126993  70.7755993  10.7811673
  53.1816993  70.7535993  10.2621673  52.6476993  71.0465993  10.7551673
  59.3396993  68.8085993  10.0211673  59.5176993  67.9995993   9.7461673
  59.1966993  69.2495993   9.2821673  59.3446993  68.7545993   9.8711673
  67.4856993  70.4155993   4.5421673  68.2426993  70.4875993   4.1141673
  67.5486993  69.6425993   4.9411673  67.6066993  70.3125993   4.5371673
  50.0386993  71.7135993   8.4391673  50.0346993  72.3005993   9.0851673
  50.6326993  72.0255993   7.8821673  50.1256993  71.8465993   8.4521673
  56.4416993  78.0805993   2.8851673  56.6136993  77.8705993   3.7141673
  55.7866993  77.5465993   2.6691673  56.3706993  77.9705993   2.9761673
  62.6696993  71.9945993   6.4001673  62.5746993  72.3135993   7.2061673
  62.0766993  71.3555993   6.3621673  62.5676993  71.9465993   6.5141673
  66.3896993  72.1745993   7.5441673  67.1616993  71.9495993   7.8811673
  65.9146993  72.3915993   8.2441673  66.4336993  72.1735993   7.6971673
  52.0746993  72.5595993   3.5961673  52.9176993  72.7795993   3.5531673
  51.6856993  73.1325993   3.0651673  52.1416993  72.6765993   3.5111673
  57.9286993  74.2445993  11.7141673  57.4446993  74.8215993  12.1561673
  57.9006993  74.5395993  10.8931673  57.8526993  74.3735993  11.6581673
  69.0266993  74.9285993   6.3261673  69.2416993  74.1285993   6.0501673
  68.1766993  74.9885993   6.1371673  68.9326993  74.8195993   6.2571673
  53.5036993  75.0515993  10.0731673  52.9676993  74.5455993  10.5411673
  53.5236993  74.6615993   9.2931673  53.4266993  74.9185993  10.0271673
  54.5856993  76.0155993   5.2801673  54.6106993  75.3405993   4.7291673
  53.9396993  76.5115993   4.9681673  54.4946993  75.9885993   5.1531673
  64.4806993  73.7285993   3.6761673  63.8186993  74.0565993   4.1391673
  64.6676993  74.3625993   3.1071673  64.4106993  73.8705993   3.6601673
  61.1256993  69.6345993   7.1051673  61.2746993  68.8095993   6.8621673
  61.5046993  69.6895993   7.8891673  61.2036993  69.5205993   7.1851673
  52.3846993  77.3705993  10.8391673  52.3476993  77.8715993  10.1251673
  52.7156993  76.6185993  10.5441673  52.4276993  77.3325993  10.6901673
  59.2556993  73.1675993   2.9121673  59.7356993  73.8665993   3.1201673
  59.6286993  72.5205993   3.3631673  59.3816993  73.1755993   3.0091673
  65.7346993  78.1215993   7.2571673  65.7896993  78.2465993   6.3951673
  66.4876993  78.4415993   7.5591673  65.8536993  78.1865993   7.1741673
  66.7666993  68.4195993  10.2441673  66.1296993  68.0195993   9.8021673
  66.7926993  67.9885993  11.0021673  66.6766993  68.2975993  10.2901673
  61.4656993  77.9275993   6.8571673  61.3106993  78.5375993   7.4611673
  61.9996993  77.3695993   7.2631673  61.5216993  77.9355993   7.0061673
  59.0726993  78.3745993   1.9461673  58.2256993  78.1805993   2.0271673
  59.3966993  78.2095993   2.7391673  58.9946993  78.3215993   2.0751673
  52.9206993  78.0675993   4.2621673  53.6426993  78.5555993   4.2251673
  52.6506993  78.0375993   3.4331673  52.9876993  78.1355993   4.1341673
  66.0066993  77.5985993   4.5031673  65.9996993  76.8225993   4.9011673
  65.1656993  77.8325993   4.4961673  65.8816993  77.5185993   4.5611673
  67.2626993  77.6695993   1.9401673  66.9766993  78.0705993   2.6601673
  68.1226993  77.6075993   2.0671673  67.3476993  77.7195993   2.0651673
  64.9246993  71.5935993  10.4801673  64.3996993  72.0525993  11.0041673
  64.5636993  70.7985993  10.4741673  64.7936993  71.5435993  10.5561673
  63.4166993  75.1625993  10.5561673  63.4896993  75.2665993  11.4191673
  62.7826993  75.7205993  10.3351673  63.3336993  75.2605993  10.6511673
  65.6846993  75.4815993   8.9211673  66.0036993  76.2675993   9.1241673
  65.3146993  75.2115993   9.6641673  65.6776993  75.5575993   9.0611673
  68.3826993  76.0235993  11.6561673  68.3306993  75.6825993  10.8551673
  69.1196993  76.4905993  11.6341673  68.4836993  76.0425993  11.5341673
  64.3926993  70.0695993   7.5711673  65.1366993  70.5215993   7.5081673
  63.8266993  70.5395993   7.1021673  64.4196993  70.2065993   7.4931673
  59.5706993  77.3535993   4.6491673  60.0466993  77.7275993   5.2771673
  58.7476993  77.4875993   4.9081673  59.5196993  77.4285993   4.7801673
  56.2806993  72.9565993   7.3901673  56.4416993  72.2125993   7.8171673
  56.2356993  72.7075993   6.5551673  56.2976993  72.8095993   7.3301673
  65.6776993  68.0495993   5.2411673  65.3976993  68.8745993   5.1971673
  66.3936993  68.1025993   5.7371673  65.7426993  68.1795993   5.3081673
  58.0326993  68.7645993   7.2701673  58.7376993  69.0845993   6.8681673
  58.2736993  67.9575993   7.4971673  58.1716993  68.6925993   7.2441673
  54.5416993  73.8175993   3.3311673  54.9816993  73.7145993   2.5851673
  55.0866993  73.5045993   3.9361673  54.6866993  73.7565993   3.3101673
  62.5576993  72.9195993   8.9231673  61.9096993  73.3895993   9.2711673
  63.1226993  72.8305993   9.5821673  62.5456993  72.9755993   9.0721673
  62.2456993  74.4565993   5.2211673  62.5476993  74.8765993   5.9241673
  62.2816993  73.6165993   5.4531673  62.2956993  74.3945993   5.3591673
  58.0886993  68.8025993   3.3781673  57.2626993  68.6535993   3.6151673
  58.0486993  68.8375993   2.5071673  57.9606993  68.7855993   3.2841673
  50.6536993  69.2005993   9.4131673  50.5136993  69.9955993   9.0821673
  49.8676993  68.9575993   9.7021673  50.5166993  69.2825993   9.4071673
  68.3946993  75.0985993   9.0851673  67.5396993  74.9765993   9.2111673
  68.5476993  74.7035993   8.3221673  68.2906993  75.0215993   8.9911673
  62.9076993  75.7635993   7.6611673  62.6526993  75.0445993   8.0831673
  63.7286993  75.8795993   7.9311673  62.9916993  75.6745993   7.7631673
  60.8416993  76.9535993  10.8481673  61.1646993  77.6395993  10.4161673
  60.1376993  77.2765993  11.2501673  60.7846993  77.1025993  10.8431673
  53.6946993  73.9555993   7.0541673  54.0696993  74.5745993   6.5671673
  54.3686993  73.4815993   7.3391673  53.8496993  73.9775993   7.0241673
  51.4696993  72.4035993   6.3291673  51.5466993  72.2345993   5.4761673
  52.2156993  72.8095993   6.5261673  51.5906993  72.4385993   6.2321673
  54.0236993  69.8135993   8.7401673  53.9426993  68.9695993   8.9461673
  53.7096993  69.8575993   7.9271673  53.9656993  69.6955993   8.6501673
  66.1306993  75.1895993   6.1251673  66.1286993  74.3265993   6.2491673
  66.1976993  75.5135993   6.9321673  66.1406993  75.1095993   6.2621673
  50.8666993  77.6295993   6.5531673  51.1866993  77.8485993   5.7721673
  50.7666993  76.7645993   6.4981673  50.8986993  77.5345993   6.4301673
  62.0096993  69.9895993   9.9071673  62.1016993  70.7015993  10.4011673
  61.3726993  69.5445993  10.3041673  61.9286993  70.0285993  10.0391673
  64.6016993  70.6955993   3.5611673  65.4566993  70.7945993   3.7061673
  64.2326993  71.2485993   4.1261673  64.6736993  70.7925993   3.6661673
  55.6296993  76.9215993   7.9381673  55.2336993  77.6955993   8.0131673
  55.2236993  76.5485993   7.2621673  55.5116993  76.9805993   7.8491673
  56.0586993  69.8985993   5.3881673  55.1946993  69.9825993   5.4681673
  56.2786993  69.3845993   6.0571673  55.9636993  69.8355993   5.4991673
  68.0766993  68.5335993   6.7171673  68.0246993  68.4895993   7.5871673
  68.7636993  68.0305993   6.5271673  68.1706993  68.4535993   6.8171673
  60.1616993  70.6465993   3.7621673  59.4246993  70.1925993   3.8751673
  60.7326993  70.2445993   4.2851673  60.1366993  70.5195993   3.8561673
  57.6646993  74.9755993   8.9661673  57.3426993  74.3995993   8.3961673
  57.3056993  75.7305993   8.7201673  57.5646993  75.0015993   8.8461673
  53.2786993  69.9815993   6.0361673  52.9356993  69.2145993   5.8021673
  52.5836993  70.5055993   6.1001673  53.1256993  69.9455993   6.0111673
  62.3246993  68.8375993   3.0131673  62.9946993  69.3815993   3.1401673
  61.8216993  69.2615993   2.4401673  62.3496993  68.9805993   2.9471673
  66.9276993  77.8495993  10.2191673  67.5616993  77.6795993  10.7931673
  67.3446993  78.2525993   9.5671673  67.0826993  77.8845993  10.2081673
  67.5526993  72.4135993  10.9571673  67.3566993  73.0575993  11.5121673
  66.8306993  71.9235993  10.9491673  67.4176993  72.4365993  11.0381673
  67.4516993  73.3545993   3.9281673  66.6186993  73.6045993   3.8561673
  67.3956993  72.5145993   4.1571673  67.3206993  73.2675993   3.9511673
  56.7116993  70.3425993   9.1221673  56.9456993  69.7665993   8.5091673
  55.8696993  70.1615993   9.2631673  56.6216993  70.2305993   9.0521673
  64.3386993  77.9605993  11.5741673  65.2096993  77.9245993  11.5381673
  64.1196993  78.3805993  10.8421673  64.4356993  78.0165993  11.4611673
  61.1026993  50.0674913  74.5081313  60.8576993  50.5554913  73.8281313
  61.9656993  49.9944913  74.4081313  61.1936993  50.1284913  74.3931313
  50.7806993  61.1234913  74.6351313  50.3396993  61.2414913  75.3781313
  50.4976993  60.3484913  74.3501313  50.6736993  61.0264913  74.7031313
  67.0556993  64.4244913  72.1501313  67.7566993  63.9054913  72.1461313
  66.4686993  63.9794913  71.6811313  67.0726993  64.2814913  72.0801313
  50.5236993  54.9154913  71.1421313  49.7456993  55.0774913  70.7821313
  50.5626993  54.0444913  71.1641313  50.4146993  54.8104913  71.0921313
  53.6626993  60.1784913  69.8141313  53.2706993  59.8074913  69.1281313
  53.5826993  59.5804913  70.4431313  53.5926993  60.0354913  69.8051313
  63.5826993  58.0504913  75.8551313  63.6626993  58.0544913  74.9861313
  62.9986993  57.4184913  76.0041313  63.5076993  57.9574913  75.7491313
  53.2896993  61.8194913  73.7141313  53.8976993  61.6494913  74.3171313
  52.5386993  61.6794913  74.1351313  53.2686993  61.7734913  73.8651313
  57.5716993  51.1544913  73.6631313  57.5016993  51.8314913  73.1171313
  58.3126993  50.7664913  73.4141313  57.6706993  51.1974913  73.5451313
  52.1806993  64.9104913  69.7911313  52.6476993  64.9944913  69.0591313
  52.6356993  64.3324913  70.2601313  52.3166993  64.8374913  69.7521313
  52.1666993  58.3794913  75.0921313  51.7046993  57.9874913  74.4651313
  52.8666993  57.8664913  75.1841313  52.2016993  58.2464913  75.0131313
  54.1676993  56.4794913  75.1151313  54.9846993  56.2924913  75.3581313
  53.6906993  55.8654913  75.5111313  54.2176993  56.3614913  75.2101313
  58.3716993  62.4604913  77.7251313  58.7196993  61.6614913  77.7551313
  59.0366993  62.9644913  77.4701313  58.5216993  62.4164913  77.6921313
  58.4286993  61.9094913  73.9361313  58.7596993  61.2654913  74.4221313
  58.6686993  61.6984913  73.1251313  58.5126993  61.7834913  73.8881313
  54.7646993  51.5734913  74.3811313  54.4686993  52.0744913  73.7311313
  55.6316993  51.6514913  74.3241313  54.8486993  51.6594913  74.2771313
  57.7436993  50.7154913  76.6041313  57.8166993  51.5754913  76.7331313
  57.7056993  50.6404913  75.7361313  57.7486993  50.8314913  76.4951313
  62.4166993  53.6414913  68.9031313  61.9666993  54.3224913  69.2101313
  62.5306993  53.1374913  69.6061313  62.3676993  53.6674913  69.0521313
  50.6226993  56.1404913  78.1051313  50.3666993  56.9714913  78.0301313
  49.9586993  55.7574913  78.5221313  50.4866993  56.2064913  78.1561313
  50.5326993  65.8504913  76.0051313  49.9406993  66.4084913  75.6921313
  50.9586993  65.5814913  75.2931313  50.5086993  65.8924913  75.8541313
  56.3726993  63.6944913  73.4851313  55.7936993  63.4194913  74.0771313
  56.9966993  63.0854913  73.5101313  56.3796993  63.5644913  73.5761313
  62.5156993  65.9824913  71.0071313  63.2426993  66.4544913  71.1091313
  62.7446993  65.1884913  71.2871313  62.6576993  65.9354913  71.0641313
  60.6836993  66.3744913  72.9971313  60.8976993  66.9014913  73.6591313
  61.4506993  66.2004913  72.6181313  60.8286993  66.4264913  73.0391313
  52.0776993  64.5204913  73.9361313  52.7336993  63.9454913  73.9511313
  52.4666993  65.2694913  73.7151313  52.2326993  64.5454913  73.9061313
  67.8106993  53.6144913  75.1981313  67.4646993  54.2924913  75.6241313
  67.1746993  53.0164913  75.2141313  67.6656993  53.6264913  75.2631313
  52.8956993  63.0074913  77.4361313  53.3186993  62.6514913  76.7621313
  53.2196993  62.5854913  78.1281313  53.0056993  62.8924913  77.4391313
  56.1266993  65.8594913  76.7321313  56.9706993  65.9634913  76.5371313
  55.8296993  66.6774913  76.8001313  56.2076993  65.9954913  76.7131313
  59.9336993  55.2564913  74.8191313  60.2206993  55.0244913  74.0291313
  60.6656993  55.3354913  75.2881313  60.0836993  55.2334913  74.7721313
  60.6556993  55.5954913  69.9401313  60.9366993  56.3834913  70.1891313
  59.8796993  55.7604913  69.5771313  60.5826993  55.7364913  69.9231313
  64.6966993  67.5694913  71.4071313  65.3616993  67.4214913  70.8621313
  65.0566993  67.4864913  72.1971313  64.8486993  67.5354913  71.4431313
  59.5146993  63.7664913  69.7561313  59.3336993  64.3114913  70.4131313
  60.2806993  64.0564913  69.4551313  59.6006993  63.8904913  69.8091313
  63.0216993  51.6624913  70.8101313  63.5616993  50.9804913  70.8861313
  63.0836993  52.0604913  71.5841313  63.1106993  51.6204913  70.9361313
  50.9756993  52.8304913  73.3791313  50.8616993  51.9664913  73.4101313
  50.5006993  53.1244913  74.0491313  50.8886993  52.7464913  73.4821313
  60.2796993  54.0384913  72.1241313  59.7716993  53.3764913  71.8701313
  60.3316993  54.5424913  71.4141313  60.2126993  54.0154913  71.9821313
  60.2796993  50.9794913  72.0151313  59.8246993  50.5774913  71.3891313
  61.0526993  51.1344913  71.6401313  60.3266993  50.9434913  71.8671313
  67.1056993  67.3364913  75.4051313  66.6506993  68.0534913  75.6061313
  66.4916993  66.7654913  75.1631313  66.9476993  67.3584913  75.3991313
  58.8776993  53.3464913  76.5371313  58.9516993  53.9144913  75.8791313
  58.9986993  53.8384913  77.2471313  58.9056993  53.5034913  76.5451313
  64.1026993  63.1814913  74.9491313  64.8036993  62.6994913  75.1381313
  63.4426993  62.6124913  74.9941313  64.1086993  63.0264913  74.9831313
  53.4856993  49.1694913  74.8851313  54.0216993  49.8574913  74.8751313
  53.4886993  48.8954913  74.0571313  53.5646993  49.2304913  74.7611313
  63.9256993  49.4604913  75.2611313  63.9746993  49.1424913  76.0721313
  64.2486993  48.8164913  74.7681313  63.9806993  49.3184913  75.3081313
  53.9336993  52.9794913  76.5391313  54.2056993  52.5494913  75.8311313
  53.7576993  52.3434913  77.1101313  53.9476993  52.8224913  76.5191313
  66.6216993  60.6744913  70.7571313  66.7406993  60.3874913  71.5721313
  67.4286993  60.6954913  70.4271313  66.7576993  60.6354913  70.8291313
  53.7576993  60.4064913  76.0881313  54.6086993  60.3264913  75.9151313
  53.4006993  59.7244913  75.6761313  53.8306993  60.2934913  76.0011313
  52.5246993  67.1314913  77.3251313  51.8516993  66.6334913  77.0801313
  52.9276993  67.3164913  76.5741313  52.4846993  67.0854913  77.1781313
  64.5166993  57.2114913  70.3421313  64.2966993  57.9424913  69.9201313
  64.0686993  57.2624913  71.0891313  64.4176993  57.3264913  70.3901313
  56.1256993  60.4134913  74.3231313  56.8386993  60.9084913  74.4131313
  56.3476993  59.8464913  73.6971313  56.2636993  60.4024913  74.2441313
  68.7036993  52.0724913  69.7951313  68.0416993  51.5044913  69.8181313
  68.5106993  52.5844913  69.1151313  68.5776993  52.0644913  69.6981313
  50.2816993  62.0564913  77.6431313  49.6146993  62.5444913  77.9191313
  50.9616993  62.6014913  77.6721313  50.2836993  62.2084913  77.6881313
  50.3476993  58.7404913  72.7461313  50.1626993  57.9014913  72.8981313
  51.0066993  58.7044913  72.1761313  50.4176993  58.6114913  72.6841313
  66.7056993  51.6304913  72.0741313  67.4516993  51.2234913  72.2731313
  66.9686993  52.3454913  71.6491313  66.8546993  51.6764913  72.0411313
  60.6486993  64.1164913  76.6501313  60.1256993  64.7504913  76.3571313
  60.9586993  63.7524913  75.9211313  60.6166993  64.1564913  76.4991313
  50.5196993  62.9044913  72.3211313  51.0716993  63.4734913  72.6851313
  50.2876993  62.3894913  72.9861313  50.5666993  62.9124913  72.4731313
  63.1596993  53.9184913  77.1471313  63.5036993  54.0704913  77.9341313
  62.7066993  53.1804913  77.2601313  63.1436993  53.8314913  77.2801313
  50.3496993  61.3534913  69.9491313  51.1056993  60.9214913  70.0071313
  50.3646993  61.8854913  70.6401313  50.4636993  61.3684913  70.0601313
  51.2896993  59.5744913  77.9541313  51.7206993  59.4454913  77.2071313
  51.0846993  60.4224913  77.9281313  51.3226993  59.6804913  77.8401313
  57.6356993  53.1384913  71.6041313  57.6336993  53.0214913  70.7391313
  57.4546993  53.9864913  71.6961313  57.6086993  53.2464913  71.4901313
  55.3736993  63.0904913  76.2361313  55.4996993  63.9334913  76.4231313
  56.0416993  62.6914913  76.6321313  55.4916993  63.1564913  76.3221313
  53.9886993  55.9704913  71.2381313  53.8606993  55.5224913  71.9761313
  53.4066993  55.6284913  70.6861313  53.8836993  55.8534913  71.2661313
  54.1556993  57.8004913  77.8371313  53.3746993  57.7414913  77.4541313
  54.2276993  57.0484913  78.2741313  54.0506993  57.6814913  77.8451313
  62.6736993  53.2194913  73.2121313  63.1636993  53.9364913  73.1351313
  61.8836993  53.4804913  72.9491313  62.6296993  53.3634913  73.1621313
  61.4446993  57.8584913  71.2111313  61.4366993  58.5804913  70.7211313
  60.8056993  57.9934913  71.7881313  61.3496993  57.9854913  71.2241313
  66.4166993  61.7284913  75.1921313  66.7726993  61.3784913  75.9071313
  66.4086993  61.0674913  74.6221313  66.4686993  61.5784913  75.2131313
  62.4746993  61.6454913  78.4361313  61.6776993  61.8694913  78.7101313
  62.7326993  61.0514913  79.0211313  62.3946993  61.5904913  78.5631313
  56.3666993  66.4574913  72.8841313  56.2196993  65.6814913  73.2551313
  57.0556993  66.3104913  72.3691313  56.4466993  66.3204913  72.8631313
  56.0376993  50.2004913  70.8721313  56.1346993  50.0934913  71.7331313
  55.3296993  50.7064913  70.8071313  55.9476993  50.2594913  70.9901313
  58.6586993  65.9734913  71.2861313  59.2806993  66.1364913  71.8761313
  58.6946993  66.6644913  70.7541313  58.7556993  66.0994913  71.2951313
  53.1596993  58.5074913  72.1151313  53.4836993  57.7284913  71.8931313
  53.8056993  58.8754913  72.5701313  53.3026993  58.4464913  72.1491313
  50.1566993  50.1684913  73.0831313  50.2856993  49.4604913  72.5911313
  49.7896993  49.8504913  73.8081313  50.1216993  50.0164913  73.1181313
  59.8496993  57.8494913  73.5401313  59.9086993  58.4994913  74.1191313
  59.6606993  57.1534913  74.0311313  59.8306993  57.8424913  73.6981313
  54.3456993  52.3664913  70.0521313  53.8346993  52.4194913  69.3461313
  55.1296993  52.6064913  69.7561313  54.3856993  52.4094913  69.9041313
  59.0726993  59.8964913  77.9711313  58.2256993  59.7024913  78.0521313
  59.3966993  59.7314913  78.7641313  58.9946993  59.8434913  78.1001313
  55.8246993  66.6264913  68.8571313  56.2636993  65.9294913  69.1451313
  56.0316993  67.2504913  69.4301313  55.9206993  66.6154913  68.9841313
  56.1506993  54.7604913  77.0221313  56.9966993  54.5704913  77.1201313
  55.7806993  53.9834913  76.8841313  56.2206993  54.6174913  77.0161313
  68.7676993  66.3444913  71.3491313  69.4616993  65.8774913  71.1011313
  68.2286993  65.7464913  71.6861313  68.7906993  66.1864913  71.3621313
  50.9716993  56.0984913  73.6771313  51.4606993  55.8064913  74.3381313
  51.1006993  55.5054913  73.0501313  51.0626993  55.9674913  73.6821313
  55.4966993  57.5324913  69.1631313  54.8866993  57.1274913  69.6371313
  55.1106993  57.6504913  68.3901313  55.3496993  57.4894913  69.1191313
  67.2626993  59.1914913  77.9651313  66.9766993  59.5924913  78.6851313
  68.1226993  59.1294913  78.0921313  67.3476993  59.2414913  78.0901313
  56.9516993  55.9934913  71.8731313  57.2236993  56.8194913  71.9401313
  56.0886993  56.0684913  71.7771313  56.8646993  56.1264913  71.8681313
  50.4316993  51.9634913  78.4091313  50.4756993  52.3074913  77.6081313
  51.1866993  52.2004913  78.7761313  50.5496993  52.0494913  78.3451313
  68.3936993  64.8244913  78.4941313  68.6836993  65.0814913  77.7131313
  69.0886993  64.9204913  79.0131313  68.5396993  64.8764913  78.4551313
  64.9986993  63.4274913  70.4761313  65.3326993  62.6214913  70.5111313
  64.2436993  63.3554913  70.9061313  64.9366993  63.2974913  70.5451313
  65.4806993  55.2614913  76.1351313  64.7356993  54.9384913  76.4531313
  65.4826993  56.0874913  76.4151313  65.3706993  55.3354913  76.2231313
  62.3726993  61.3024913  69.8791313  63.0566993  60.7884913  69.7101313
  61.9556993  61.3484913  69.1141313  62.4116993  61.2334913  69.7411313
  58.8346993  66.2684913  75.9021313  59.3806993  66.9474913  75.9561313
  58.4846993  66.3504913  75.1071313  58.8636993  66.3814913  75.7921313
  67.0986993  55.8264913  70.1231313  67.4766993  56.5034913  69.7231313
  66.2566993  56.0504913  70.1541313  67.0296993  55.9594913  70.0681313
  58.6116993  59.2724913  69.2061313  57.8066993  59.0954913  68.9211313
  58.5786993  60.1234913  69.3981313  58.4876993  59.3714913  69.1931313
  64.7936993  55.4254913  73.4981313  65.0006993  55.2244913  74.3221313
  65.5496993  55.6934913  73.1561313  64.9356993  55.4354913  73.5691313
  65.8156993  51.5084913  74.9721313  65.1016993  51.0374913  75.1431313
  65.6536993  51.8494913  74.1861313  65.6866993  51.4894913  74.8811313
  66.2586993  59.4524913  73.3521313  66.7346993  58.7234913  73.3041313
  65.4376993  59.1664913  73.2761313  66.2076993  59.3024913  73.3331313
  53.7176993  53.4664913  72.6631313  53.8436993  53.1374913  71.8651313
  52.9056993  53.2174913  72.8621313  53.6166993  53.3814913  72.5751313
  62.4746993  60.6194913  75.7071313  62.5506993  60.9604913  76.5061313
  62.6436993  59.7724913  75.8281313  62.5106993  60.5444913  75.8431313
  59.9966993  59.8934913  75.2721313  59.6986993  59.5784913  76.0291313
  60.6916993  60.3664913  75.5071313  60.0556993  59.9164913  75.4191313
  63.9256993  66.8494913  77.8021313  63.4746993  67.4924913  78.1811313
  64.6336993  66.7704913  78.3071313  63.9636993  66.9324913  77.9331313
  67.0286993  56.5654913  72.7941313  67.1316993  56.5074913  71.9301313
  67.7696993  56.2334913  73.1121313  67.1536993  56.5084913  72.7131313
  60.9486993  63.5304913  73.9011313  60.7436993  64.3634913  73.7421313
  60.1736993  63.1484913  74.0231313  60.8036993  63.5974913  73.8961313
  52.3226993  55.0874913  69.1961313  51.6506993  55.1014913  69.7521313
  52.4176993  54.2394913  69.0121313  52.2376993  54.9644913  69.2511313
  61.0036993  51.7014913  76.7861313  60.3036993  52.2194913  76.7301313
  61.0416993  51.3214913  76.0021313  60.9056993  51.7224913  76.6621313
  56.3106993  63.7924913  70.3101313  56.7516993  63.8724913  71.0581313
  55.5056993  63.5764913  70.5681313  56.2566993  63.7724913  70.4591313
  64.9056993  57.4974913  78.0771313  65.5716993  58.0384913  78.2371313
  64.5606993  57.8084913  77.3381313  64.9526993  57.6234913  77.9921313
  65.2186993  65.5634913  73.8841313  65.0446993  64.9094913  74.4341313
  65.9316993  65.2924913  73.4611313  65.2986993  65.4264913  73.9031313
  53.6396993  62.8624913  70.9111313  53.3956993  62.5554913  71.6911313
  53.6066993  62.1594913  70.3951313  53.5986993  62.7134913  70.9501313
  56.4586993  61.1074913  69.6541313  55.6406993  60.8394913  69.7941313
  56.4306993  61.9594913  69.8391313  56.3336993  61.1944913  69.7021313
  58.4606993  49.7494913  69.6181313  58.5386993  49.9964913  68.7851313
  57.7176993  50.1264913  69.8761313  58.3626993  49.8414913  69.5331313
  61.6836993  56.1674913  76.5311313  62.2346993  55.5604913  76.8311313
  61.2586993  56.4304913  77.2461313  61.7026993  56.1164913  76.6801313
  51.9316993  54.8174913  76.0171313  51.5636993  55.1194913  76.7481313
  52.4656993  54.1884913  76.3011313  51.9556993  54.7694913  76.1671313
  63.6536993  57.9984913  73.0931313  63.7216993  57.1484913  73.2741313
  62.8306993  58.0844913  72.8151313  63.5416993  57.8854913  73.0791313
  53.4056993  66.4924913  72.3031313  53.2606993  66.6484913  71.4571313
  54.2716993  66.5714913  72.3811313  53.5126993  66.5274913  72.1901313
  57.5726993  58.8894913  72.0311313  57.6726993  59.0284913  71.1761313
  58.3906993  58.8294913  72.3271313  57.7076993  58.9004913  71.9481313
  66.7326993  66.9534913  69.5111313  67.3696993  66.8194913  70.0921313
  66.3916993  66.1594913  69.3941313  66.7766993  66.8164913  69.5791313
  62.8076993  63.2184913  71.8331313  62.5566993  63.0904913  72.6591313
  62.4906993  62.5234913  71.4121313  62.7236993  63.0974913  71.8931313
  54.0926993  65.3074913  78.7801313  54.0136993  64.4974913  78.4641313
  53.6486993  65.7944913  78.2081313  54.0156993  65.2594913  78.6491313
  59.6936993  61.4264913  71.2631313  60.4106993  61.0794913  70.9071313
  59.6596993  62.2264913  70.9151313  59.7946993  61.4934913  71.1591313
  61.1026993  50.0674913  55.5018903  60.8576993  50.5554913  54.8218903
  61.9656993  49.9944913  55.4018903  61.1936993  50.1284913  55.3868903
  60.9116993  56.9834913  60.1728903  60.3876993  57.5794913  60.5358903
  61.3086993  56.6154913  60.8568903  60.8926993  57.0174913  60.3278903
  50.7806993  61.1234913  55.6288903  50.3396993  61.2414913  56.3718903
  50.4976993  60.3484913  55.3438903  50.6736993  61.0264913  55.6968903
  67.0556993  64.4244913  53.1438903  67.7566993  63.9054913  53.1398903
  66.4686993  63.9794913  52.6748903  67.0726993  64.2814913  53.0738903
  50.5236993  54.9154913  52.1358903  49.7456993  55.0774913  51.7758903
  50.5626993  54.0444913  52.1578903  50.4146993  54.8104913  52.0858903
  53.6626993  60.1784913  50.8078903  53.2706993  59.8074913  50.1218903
  53.5826993  59.5804913  51.4368903  53.5926993  60.0354913  50.7988903
  63.5826993  58.0504913  56.8488903  63.6626993  58.0544913  55.9798903
  62.9986993  57.4184913  56.9978903  63.5076993  57.9574913  56.7428903
  53.2896993  61.8194913  54.7078903  53.8976993  61.6494913  55.3108903
  52.5386993  61.6794913  55.1288903  53.2686993  61.7734913  54.8588903
  57.5716993  51.1544913  54.6568903  57.5016993  51.8314913  54.1108903
  58.3126993  50.7664913  54.4078903  57.6706993  51.1974913  54.5388903
  52.1806993  64.9104913  50.7848903  52.6476993  64.9944913  50.0528903
  52.6356993  64.3324913  51.2538903  52.3166993  64.8374913  50.7458903
  50.7206993  63.8584913  61.8838903  50.8496993  63.5784913  62.6998903
  50.1106993  63.3174913  61.5748903  50.6496993  63.7374913  61.9588903
  57.2946993  61.3834913  66.9508903  57.0586993  61.3804913  67.7908903
  56.5466993  61.2354913  66.5268903  57.1486993  61.3604913  67.0118903
  52.1666993  58.3794913  56.0858903  51.7046993  57.9874913  55.4588903
  52.8666993  57.8664913  56.1778903  52.2016993  58.2464913  56.0068903
  56.6746993  53.9894913  61.4328903  57.3526993  54.0074913  60.8838903
  56.6296993  53.1534913  61.6778903  56.7676993  53.8684913  61.3878903
  57.2766993  64.5754913  64.2138903  57.4146993  65.3354913  63.8068903
  58.0676993  64.2104913  64.2408903  57.4136993  64.6344913  64.1578903
  54.1676993  56.4794913  56.1088903  54.9846993  56.2924913  56.3518903
  53.6906993  55.8654913  56.5048903  54.2176993  56.3614913  56.2038903
  58.3716993  62.4604913  58.7188903  58.7196993  61.6614913  58.7488903
  59.0366993  62.9644913  58.4638903  58.5216993  62.4164913  58.6858903
  58.4286993  61.9094913  54.9298903  58.7596993  61.2654913  55.4158903
  58.6686993  61.6984913  54.1188903  58.5126993  61.7834913  54.8818903
  60.3966993  56.0404913  66.2688903  59.5486993  55.9414913  66.0908903
  60.4256993  56.7854913  66.7228903  60.2756993  56.1364913  66.3098903
  54.7646993  51.5734913  55.3748903  54.4686993  52.0744913  54.7248903
  55.6316993  51.6514913  55.3178903  54.8486993  51.6594913  55.2708903
  64.9546993  49.0004913  65.3828903  64.7966993  49.7694913  65.0008903
  64.1826993  48.7804913  65.7268903  64.8166993  49.0814913  65.3778903
  57.7436993  50.7154913  57.5978903  57.8166993  51.5754913  57.7268903
  57.7056993  50.6404913  56.7298903  57.7486993  50.8314913  57.4888903
  62.4166993  53.6414913  49.8968903  61.9666993  54.3224913  50.2038903
  62.5306993  53.1374913  50.5998903  62.3676993  53.6674913  50.0458903
  50.6226993  56.1404913  59.0988903  50.3666993  56.9714913  59.0238903
  49.9586993  55.7574913  59.5158903  50.4866993  56.2064913  59.1498903
  50.5326993  65.8504913  56.9988903  49.9406993  66.4084913  56.6858903
  50.9586993  65.5814913  56.2868903  50.5086993  65.8924913  56.8478903
  56.3726993  63.6944913  54.4788903  55.7936993  63.4194913  55.0708903
  56.9966993  63.0854913  54.5038903  56.3796993  63.5644913  54.5698903
  62.5156993  65.9824913  52.0008903  63.2426993  66.4544913  52.1028903
  62.7446993  65.1884913  52.2808903  62.6576993  65.9354913  52.0578903
  60.6836993  66.3744913  53.9908903  60.8976993  66.9014913  54.6528903
  61.4506993  66.2004913  53.6118903  60.8286993  66.4264913  54.0328903
  53.6516993  50.9574913  59.5898903  53.1306993  50.3294913  59.2818903
  54.2426993  50.5204913  60.0608903  53.6626993  50.7994913  59.6138903
  56.9576993  53.0904913  68.8878903  57.0746993  52.6364913  68.1518903
  57.2456993  53.8884913  68.6848903  57.0176993  53.1414913  68.7488903
  52.0776993  64.5204913  54.9298903  52.7336993  63.9454913  54.9448903
  52.4666993  65.2694913  54.7088903  52.2326993  64.5454913  54.8998903
  67.8106993  53.6144913  56.1918903  67.4646993  54.2924913  56.6178903
  67.1746993  53.0164913  56.2078903  67.6656993  53.6264913  56.2568903
  63.1226993  66.3844913  62.2958903  63.8666993  66.8404913  62.2858903
  63.0016993  66.1704913  61.4588903  63.2146993  66.4204913  62.1708903
  52.6906993  52.6874913  67.8718903  51.9126993  52.2974913  67.7998903
  53.1816993  52.2754913  67.2808903  52.6476993  52.5684913  67.7738903
  52.8956993  63.0074913  58.4298903  53.3186993  62.6514913  57.7558903
  53.2196993  62.5854913  59.1218903  53.0056993  62.8924913  58.4328903
  56.1266993  65.8594913  57.7258903  56.9706993  65.9634913  57.5308903
  55.8296993  66.6774913  57.7938903  56.2076993  65.9954913  57.7068903
  59.3396993  50.3304913  67.0398903  59.5176993  49.5214913  66.7648903
  59.1966993  50.7714913  66.3008903  59.3446993  50.2764913  66.8898903
  59.9336993  55.2564913  55.8128903  60.2206993  55.0244913  55.0228903
  60.6656993  55.3354913  56.2818903  60.0836993  55.2334913  55.7658903
  60.6556993  55.5954913  50.9338903  60.9366993  56.3834913  51.1828903
  59.8796993  55.7604913  50.5708903  60.5826993  55.7364913  50.9168903
  64.6966993  67.5694913  52.4008903  65.3616993  67.4214913  51.8558903
  65.0566993  67.4864913  53.1908903  64.8486993  67.5354913  52.4368903
  55.1246993  67.0784913  63.4658903  55.4166993  67.0114913  64.2858903
  54.4986993  66.4734913  63.4208903  55.0756993  66.9794913  63.5808903
  67.4856993  51.9374913  61.5608903  68.2426993  52.0094913  61.1328903
  67.5486993  51.1644913  61.9598903  67.6066993  51.8344913  61.5558903
  50.0386993  53.2354913  65.4578903  50.0346993  53.8224913  66.1038903
  50.6326993  53.5474913  64.9008903  50.1256993  53.3684913  65.4708903
  62.3766993  63.5694913  65.9998903  62.3426993  63.9514913  66.7838903
  63.2306993  63.5274913  65.8288903  62.4976993  63.6194913  66.0908903
  59.5146993  63.7664913  50.7498903  59.3336993  64.3114913  51.4068903
  60.2806993  64.0564913  50.4488903  59.6006993  63.8904913  50.8028903
  63.0216993  51.6624913  51.8038903  63.5616993  50.9804913  51.8798903
  63.0836993  52.0604913  52.5778903  63.1106993  51.6204913  51.9298903
  50.9756993  52.8304913  54.3728903  50.8616993  51.9664913  54.4038903
  50.5006993  53.1244913  55.0428903  50.8886993  52.7464913  54.4758903
  53.1176993  65.2404913  62.5878903  52.4196993  64.7324913  62.7138903
  53.3776993  65.0354913  61.7798903  53.0526993  65.1354913  62.4868903
  60.2796993  54.0384913  53.1178903  59.7716993  53.3764913  52.8638903
  60.3316993  54.5424913  52.4078903  60.2126993  54.0154913  52.9758903
  60.8286993  66.7334913  63.4978903  61.5966993  66.6534913  63.0918903
  60.2456993  66.6124913  62.8598903  60.8556993  66.7034913  63.3438903
  60.2796993  50.9794913  53.0088903  59.8246993  50.5774913  52.3828903
  61.0526993  51.1344913  52.6338903  60.3266993  50.9434913  52.8608903
  67.1056993  67.3364913  56.3988903  66.6506993  68.0534913  56.5998903
  66.4916993  66.7654913  56.1568903  66.9476993  67.3584913  56.3928903
  58.8776993  53.3464913  57.5308903  58.9516993  53.9144913  56.8728903
  58.9986993  53.8384913  58.2408903  58.9056993  53.5034913  57.5388903
  64.1026993  63.1814913  55.9428903  64.8036993  62.6994913  56.1318903
  63.4426993  62.6124913  55.9878903  64.1086993  63.0264913  55.9768903
  54.4786993  64.0914913  65.1548903  55.3196993  64.1544913  64.9328903
  54.4416993  64.4884913  65.9308903  54.5976993  64.1594913  65.2368903
  53.4856993  49.1694913  55.8788903  54.0216993  49.8574913  55.8688903
  53.4886993  48.8954913  55.0508903  53.5646993  49.2304913  55.7548903
  56.4416993  59.6024913  59.9038903  56.6136993  59.3924913  60.7328903
  55.7866993  59.0684913  59.6878903  56.3706993  59.4924913  59.9948903
  62.6696993  53.5164913  63.4188903  62.5746993  53.8354913  64.2248903
  62.0766993  52.8774913  63.3808903  62.5676993  53.4684913  63.5328903
  57.1916993  59.5404913  62.4938903  57.2446993  60.3874913  62.6958903
  56.9066993  59.1704913  63.2308903  57.1576993  59.6104913  62.6318903
  63.3686993  60.2354913  61.6238903  62.8546993  59.8234913  62.1948903
  63.2426993  61.0794913  61.8048903  63.2746993  60.2994913  61.7348903
  63.9256993  49.4604913  56.2548903  63.9746993  49.1424913  57.0658903
  64.2486993  48.8164913  55.7618903  63.9806993  49.3184913  56.3018903
  50.0126993  63.9114913  68.7048903  50.7686993  64.2604913  68.9628903
  50.1896993  63.0584913  68.6478903  50.1506993  63.8364913  68.7348903
  66.3896993  53.6964913  64.5628903  67.1616993  53.4714913  64.8998903
  65.9146993  53.9134913  65.2628903  66.4336993  53.6954913  64.7158903
  53.9336993  52.9794913  57.5328903  54.2056993  52.5494913  56.8248903
  53.7576993  52.3434913  58.1038903  53.9476993  52.8224913  57.5128903
  66.6216993  60.6744913  51.7508903  66.7406993  60.3874913  52.5658903
  67.4286993  60.6954913  51.4208903  66.7576993  60.6354913  51.8228903
  53.7576993  60.4064913  57.0818903  54.6086993  60.3264913  56.9088903
  53.4006993  59.7244913  56.6698903  53.8306993  60.2934913  56.9948903
  52.5246993  67.1314913  58.3188903  51.8516993  66.6334913  58.0738903
  52.9276993  67.3164913  57.5678903  52.4846993  67.0854913  58.1718903
  52.0746993  54.0814913  60.6148903  52.9176993  54.3014913  60.5718903
  51.6856993  54.6544913  60.0838903  52.1416993  54.1984913  60.5298903
  68.8556993  65.1834913  66.0048903  68.1736993  65.4934913  65.5578903
  68.4866993  64.7254913  66.6498903  68.6996993  65.1614913  66.0338903
  64.5166993  57.2114913  51.3358903  64.2966993  57.9424913  50.9138903
  64.0686993  57.2624913  52.0828903  64.4176993  57.3264913  51.3838903
  56.1256993  60.4134913  55.3168903  56.8386993  60.9084913  55.4068903
  56.3476993  59.8464913  54.6908903  56.2636993  60.4024913  55.2378903
  68.7036993  52.0724913  50.7888903  68.0416993  51.5044913  50.8118903
  68.5106993  52.5844913  50.1088903  68.5776993  52.0644913  50.6918903
  50.2816993  62.0564913  58.6368903  49.6146993  62.5444913  58.9128903
  50.9616993  62.6014913  58.6658903  50.2836993  62.2084913  58.6818903
  57.9286993  55.7664913  68.7328903  57.4446993  56.3434913  69.1748903
  57.9006993  56.0614913  67.9118903  57.8526993  55.8954913  68.6768903
  69.0266993  56.4504913  63.3448903  69.2416993  55.6504913  63.0688903
  68.1766993  56.5104913  63.1558903  68.9326993  56.3414913  63.2758903
  50.3476993  58.7404913  53.7398903  50.1626993  57.9014913  53.8918903
  51.0066993  58.7044913  53.1698903  50.4176993  58.6114913  53.6778903
  66.7056993  51.6304913  53.0678903  67.4516993  51.2234913  53.2668903
  66.9686993  52.3454913  52.6428903  66.8546993  51.6764913  53.0348903
  60.6486993  64.1164913  57.6438903  60.1256993  64.7504913  57.3508903
  60.9586993  63.7524913  56.9148903  60.6166993  64.1564913  57.4928903
  54.7236993  61.9044913  60.4038903  55.1906993  62.1934913  61.0818903
  55.2956993  61.4264913  59.9498903  54.8776993  61.8764913  60.4368903
  63.1596993  53.9184913  58.1408903  63.5036993  54.0704913  58.9278903
  62.7066993  53.1804913  58.2538903  63.1436993  53.8314913  58.2738903
  50.3496993  61.3534913  50.9428903  51.1056993  60.9214913  51.0008903
  50.3646993  61.8854913  51.6338903  50.4636993  61.3684913  51.0538903
  51.2896993  59.5744913  58.9478903  51.7206993  59.4454913  58.2008903
  51.0846993  60.4224913  58.9218903  51.3226993  59.6804913  58.8338903
  57.6356993  53.1384913  52.5978903  57.6336993  53.0214913  51.7328903
  57.4546993  53.9864913  52.6898903  57.6086993  53.2464913  52.4838903
  66.6896993  65.5654913  64.0948903  66.0186993  66.0794913  64.3128903
  66.7526993  65.6654913  63.2308903  66.5996993  65.6564913  63.9998903
  55.3736993  63.0904913  57.2298903  55.4996993  63.9334913  57.4168903
  56.0416993  62.6914913  57.6258903  55.4916993  63.1564913  57.3158903
  53.5036993  56.5734913  67.0918903  52.9676993  56.0674913  67.5598903
  53.5236993  56.1834913  66.3118903  53.4266993  56.4404913  67.0458903
  53.9886993  55.9704913  52.2318903  53.8606993  55.5224913  52.9698903
  53.4066993  55.6284913  51.6798903  53.8836993  55.8534913  52.2598903
  54.1556993  57.8004913  58.8308903  53.3746993  57.7414913  58.4478903
  54.2276993  57.0484913  59.2678903  54.0506993  57.6814913  58.8388903
  54.5856993  57.5374913  62.2988903  54.6106993  56.8624913  61.7478903
  53.9396993  58.0334913  61.9868903  54.4946993  57.5104913  62.1718903
  64.4806993  55.2504913  60.6948903  63.8186993  55.5784913  61.1578903
  64.6676993  55.8844913  60.1258903  64.4106993  55.3924913  60.6788903
  58.6856993  66.3144913  61.6908903  58.4086993  65.6734913  61.1678903
  58.4776993  67.0404913  61.2528903  58.6146993  66.3274913  61.5488903
  61.1256993  51.1564913  64.1238903  61.2746993  50.3314913  63.8808903
  61.5046993  51.2114913  64.9078903  61.2036993  51.0424913  64.2038903
  62.6736993  53.2194913  54.2058903  63.1636993  53.9364913  54.1288903
  61.8836993  53.4804913  53.9428903  62.6296993  53.3634913  54.1558903
  52.3846993  58.8924913  67.8578903  52.3476993  59.3934913  67.1438903
  52.7156993  58.1404913  67.5628903  52.4276993  58.8544913  67.7088903
  63.9876993  61.0974913  66.1158903  64.4716993  61.8154913  66.2138903
  64.3816993  60.6704913  65.4648903  64.1176993  61.1404913  66.0338903
  58.2836993  63.9424913  67.2928903  58.6376993  63.7644913  68.0698903
  57.8476993  63.2134913  67.0938903  58.2716993  63.8084913  67.3788903
  59.2556993  54.6894913  59.9308903  59.7356993  55.3884913  60.1388903
  59.6286993  54.0424913  60.3818903  59.3816993  54.6974913  60.0278903
  61.4446993  57.8584913  52.2048903  61.4366993  58.5804913  51.7148903
  60.8056993  57.9934913  52.7818903  61.3496993  57.9854913  52.2178903
  66.4166993  61.7284913  56.1858903  66.7726993  61.3784913  56.9008903
  66.4086993  61.0674913  55.6158903  66.4686993  61.5784913  56.2068903
  62.4616993  64.7944913  60.0298903  61.8586993  64.4984913  59.4728903
  63.0066993  65.2464913  59.5208903  62.4526993  64.8174913  59.8718903
  62.4746993  61.6454913  59.4298903  61.6776993  61.8694913  59.7038903
  62.7326993  61.0514913  60.0148903  62.3946993  61.5904913  59.5568903
  56.3666993  66.4574913  53.8778903  56.2196993  65.6814913  54.2488903
  57.0556993  66.3104913  53.3628903  56.4466993  66.3204913  53.8568903
  56.0376993  50.2004913  51.8658903  56.1346993  50.0934913  52.7268903
  55.3296993  50.7064913  51.8008903  55.9476993  50.2594913  51.9838903
  58.6586993  65.9734913  52.2798903  59.2806993  66.1364913  52.8698903
  58.6946993  66.6644913  51.7478903  58.7556993  66.0994913  52.2888903
  65.7346993  59.6434913  64.2758903  65.7896993  59.7684913  63.4138903
  66.4876993  59.9634913  64.5778903  65.8536993  59.7084913  64.1928903
  61.9256993  64.9924913  68.5528903  62.0896993  65.2754913  69.3618903
  62.1886993  65.6534913  68.0478903  61.9886993  65.1324913  68.5978903
  66.7666993  49.9414913  67.2628903  66.1296993  49.5414913  66.8208903
  66.7926993  49.5104913  68.0208903  66.6766993  49.8194913  67.3088903
  53.1596993  58.5074913  53.1088903  53.4836993  57.7284913  52.8868903
  53.8056993  58.8754913  53.5638903  53.3026993  58.4464913  53.1428903
  61.4656993  59.4494913  63.8758903  61.3106993  60.0594913  64.4798903
  61.9996993  58.8914913  64.2818903  61.5216993  59.4574913  64.0248903
  50.1566993  50.1684913  54.0768903  50.2856993  49.4604913  53.5848903
  49.7896993  49.8504913  54.8018903  50.1216993  50.0164913  54.1118903
  59.8496993  57.8494913  54.5338903  59.9086993  58.4994913  55.1128903
  59.6606993  57.1534913  55.0248903  59.8306993  57.8424913  54.6918903
  65.0756993  62.1784913  60.4028903  64.5966993  62.4764913  59.7368903
  64.7196993  61.4024913  60.5808903  64.9526993  62.1074913  60.3308903
  54.3456993  52.3664913  51.0458903  53.8346993  52.4194913  50.3398903
  55.1296993  52.6064913  50.7498903  54.3856993  52.4094913  50.8978903
  59.0726993  59.8964913  58.9648903  58.2256993  59.7024913  59.0458903
  59.3966993  59.7314913  59.7578903  58.9946993  59.8434913  59.0938903
  55.8246993  66.6264913  49.8508903  56.2636993  65.9294913  50.1388903
  56.0316993  67.2504913  50.4238903  55.9206993  66.6154913  49.9778903
  52.9206993  59.5894913  61.2808903  53.6426993  60.0774913  61.2438903
  52.6506993  59.5594913  60.4518903  52.9876993  59.6574913  61.1528903
  56.1506993  54.7604913  58.0158903  56.9966993  54.5704913  58.1138903
  55.7806993  53.9834913  57.8778903  56.2206993  54.6174913  58.0098903
  68.7676993  66.3444913  52.3428903  69.4616993  65.8774913  52.0948903
  68.2286993  65.7464913  52.6798903  68.7906993  66.1864913  52.3558903
  50.9716993  56.0984913  54.6708903  51.4606993  55.8064913  55.3318903
  51.1006993  55.5054913  54.0438903  51.0626993  55.9674913  54.6758903
  66.0066993  59.1204913  61.5218903  65.9996993  58.3444913  61.9198903
  65.1656993  59.3544913  61.5148903  65.8816993  59.0404913  61.5798903
  55.4966993  57.5324913  50.1568903  54.8866993  57.1274913  50.6308903
  55.1106993  57.6504913  49.3838903  55.3496993  57.4894913  50.1128903
  52.3156993  60.6414913  65.5588903  51.8946993  60.1234913  64.9978903
  51.9636993  61.4274913  65.4158903  52.2016993  60.6814913  65.4548903
  67.2626993  59.1914913  58.9588903  66.9766993  59.5924913  59.6788903
  68.1226993  59.1294913  59.0858903  67.3476993  59.2414913  59.0838903
  56.9516993  55.9934913  52.8668903  57.2236993  56.8194913  52.9338903
  56.0886993  56.0684913  52.7708903  56.8646993  56.1264913  52.8618903
  64.9246993  53.1154913  67.4988903  64.3996993  53.5744913  68.0228903
  64.5636993  52.3204913  67.4928903  64.7936993  53.0654913  67.5748903
  50.4316993  51.9634913  59.4028903  50.4756993  52.3074913  58.6018903
  51.1866993  52.2004913  59.7698903  50.5496993  52.0494913  59.3388903
  68.3936993  64.8244913  59.4878903  68.6836993  65.0814913  58.7068903
  69.0886993  64.9204913  60.0068903  68.5396993  64.8764913  59.4488903
  63.4166993  56.6844913  67.5748903  63.4896993  56.7884913  68.4378903
  62.7826993  57.2424913  67.3538903  63.3336993  56.7824913  67.6698903
  65.6846993  57.0034913  65.9398903  66.0036993  57.7894913  66.1428903
  65.3146993  56.7334913  66.6828903  65.6776993  57.0794913  66.0798903
  64.9986993  63.4274913  51.4698903  65.3326993  62.6214913  51.5048903
  64.2436993  63.3554913  51.8998903  64.9366993  63.2974913  51.5388903
  65.4806993  55.2614913  57.1288903  64.7356993  54.9384913  57.4468903
  65.4826993  56.0874913  57.4088903  65.3706993  55.3354913  57.2168903
  68.3826993  57.5454913  68.6748903  68.3306993  57.2044913  67.8738903
  69.1196993  58.0124913  68.6528903  68.4836993  57.5644913  68.5528903
  67.9206993  61.2214913  64.8808903  68.5486993  60.6724913  64.6248903
  67.8596993  61.7864913  64.2188903  68.0046993  61.2244913  64.7448903
  62.3726993  61.3024913  50.8728903  63.0566993  60.7884913  50.7038903
  61.9556993  61.3484913  50.1078903  62.4116993  61.2334913  50.7348903
  57.0546993  62.4524913  62.1768903  56.7566993  63.0444913  62.7438903
  57.1096993  62.8944913  61.4278903  57.0186993  62.6054913  62.1498903
  55.0336993  61.4024913  65.5748903  54.2276993  61.1124913  65.7418903
  54.9446993  62.2704913  65.5808903  54.9016993  61.4874913  65.5998903
  64.3926993  51.5914913  64.5898903  65.1366993  52.0434913  64.5268903
  63.8266993  52.0614913  64.1208903  64.4196993  51.7284913  64.5118903
  59.5706993  58.8754913  61.6678903  60.0466993  59.2494913  62.2958903
  58.7476993  59.0094913  61.9268903  59.5196993  58.9504913  61.7988903
  56.2806993  54.4784913  64.4088903  56.4416993  53.7344913  64.8358903
  56.2356993  54.2294913  63.5738903  56.2976993  54.3314913  64.3488903
  58.8346993  66.2684913  56.8958903  59.3806993  66.9474913  56.9498903
  58.4846993  66.3504913  56.1008903  58.8636993  66.3814913  56.7858903
  65.6776993  49.5714913  62.2598903  65.3976993  50.3964913  62.2158903
  66.3936993  49.6244913  62.7558903  65.7426993  49.7014913  62.3268903
  58.0326993  50.2864913  64.2888903  58.7376993  50.6064913  63.8868903
  58.2736993  49.4794913  64.5158903  58.1716993  50.2144913  64.2628903
  57.0176993  64.4964913  60.2848903  56.3936993  65.0784913  60.1028903
  57.2656993  64.2104913  59.4988903  56.9616993  64.5404913  60.1418903
  61.3266993  61.1304913  67.2738903  62.0836993  61.4164913  66.9478903
  60.7796993  61.1824913  66.5958903  61.3576993  61.1804913  67.1248903
  65.2356993  63.6804913  65.7778903  65.5816993  63.9504913  66.5318903
  65.5296993  64.2624913  65.1978903  65.3306993  63.8064913  65.8038903
  67.0986993  55.8264913  51.1168903  67.4766993  56.5034913  50.7168903
  66.2566993  56.0504913  51.1478903  67.0296993  55.9594913  51.0618903
  58.6116993  59.2724913  50.1998903  57.8066993  59.0954913  49.9148903
  58.5786993  60.1234913  50.3918903  58.4876993  59.3714913  50.1868903
  54.5416993  55.3394913  60.3498903  54.9816993  55.2364913  59.6038903
  55.0866993  55.0264913  60.9548903  54.6866993  55.2784913  60.3288903
  62.5576993  54.4414913  65.9418903  61.9096993  54.9114913  66.2898903
  63.1226993  54.3524913  66.6008903  62.5456993  54.4974913  66.0908903
  62.2456993  55.9784913  62.2398903  62.5476993  56.3984913  62.9428903
  62.2816993  55.1384913  62.4718903  62.2956993  55.9164913  62.3778903
  59.6706993  66.1454913  66.1648903  60.1486993  65.5454913  65.7488903
  59.3196993  65.7024913  66.8298903  59.6896993  65.9914913  66.2018903
  64.7936993  55.4254913  54.4918903  65.0006993  55.2244913  55.3158903
  65.5496993  55.6934913  54.1498903  64.9356993  55.4354913  54.5628903
  58.0886993  50.3244913  60.3968903  57.2626993  50.1754913  60.6338903
  58.0486993  50.3594913  59.5258903  57.9606993  50.3074913  60.3028903
  65.8156993  51.5084913  55.9658903  65.1016993  51.0374913  56.1368903
  65.6536993  51.8494913  55.1798903  65.6866993  51.4894913  55.8748903
  66.2586993  59.4524913  54.3458903  66.7346993  58.7234913  54.2978903
  65.4376993  59.1664913  54.2698903  66.2076993  59.3024913  54.3268903
  59.7296993  61.3644913  65.1848903  58.9346993  61.3004913  65.5358903
  59.8006993  62.2114913  64.9898903  59.6226993  61.4794913  65.2078903
  50.6536993  50.7224913  66.4318903  50.5136993  51.5174913  66.1008903
  49.8676993  50.4794913  66.7208903  50.5166993  50.8044913  66.4258903
  55.5596993  67.5714913  60.5018903  55.5706993  67.6304913  61.3718903
  55.1346993  66.8244913  60.3518903  55.4986993  67.4694913  60.6078903
  53.7176993  53.4664913  53.6568903  53.8436993  53.1374913  52.8588903
  52.9056993  53.2174913  53.8558903  53.6166993  53.3814913  53.5688903
  62.4746993  60.6194913  56.7008903  62.5506993  60.9604913  57.4998903
  62.6436993  59.7724913  56.8218903  62.5106993  60.5444913  56.8368903
  59.9966993  59.8934913  56.2658903  59.6986993  59.5784913  57.0228903
  60.6916993  60.3664913  56.5008903  60.0556993  59.9164913  56.4128903
  60.2186993  64.0114913  64.2928903  60.9056993  63.8974913  64.8178903
  60.3526993  64.8024913  63.9488903  60.3396993  64.1114913  64.3198903
  68.3946993  56.6204913  66.1038903  67.5396993  56.4984913  66.2298903
  68.5476993  56.2254913  65.3408903  68.2906993  56.5434913  66.0098903
  62.9076993  57.2854913  64.6798903  62.6526993  56.5664913  65.1018903
  63.7286993  57.4014913  64.9498903  62.9916993  57.1964913  64.7818903
  52.3236993  67.0694913  65.9438903  51.6696993  66.5004913  66.0418903
  51.9486993  67.8424913  66.0948903  52.1716993  67.0994913  65.9808903
  60.8416993  58.4754913  67.8668903  61.1646993  59.1614913  67.4348903
  60.1376993  58.7984913  68.2688903  60.7846993  58.6244913  67.8618903
  63.9256993  66.8494913  58.7958903  63.4746993  67.4924913  59.1748903
  64.6336993  66.7704913  59.3008903  63.9636993  66.9324913  58.9268903
  60.6266993  61.9394913  61.7258903  59.9326993  62.3414913  62.0688903
  61.3036993  62.3724913  62.0648903  60.6236993  62.0624913  61.8268903
  66.0036993  64.5324913  68.3058903  66.7796993  64.1424913  68.3888903
  65.5346993  64.1964913  68.9608903  66.0486993  64.4254913  68.4148903
  53.6946993  55.4774913  64.0728903  54.0696993  56.0964913  63.5858903
  54.3686993  55.0034913  64.3578903  53.8496993  55.4994913  64.0428903
  51.4696993  53.9254913  63.3478903  51.5466993  53.7564913  62.4948903
  52.2156993  54.3314913  63.5448903  51.5906993  53.9604913  63.2508903
  67.0286993  56.5654913  53.7878903  67.1316993  56.5074913  52.9238903
  67.7696993  56.2334913  54.1058903  67.1536993  56.5084913  53.7068903
  54.0236993  51.3354913  65.7588903  53.9426993  50.4914913  65.9648903
  53.7096993  51.3794913  64.9458903  53.9656993  51.2174913  65.6688903
  60.9486993  63.5304913  54.8948903  60.7436993  64.3634913  54.7358903
  60.1736993  63.1484913  55.0168903  60.8036993  63.5974913  54.8898903
  66.1306993  56.7114913  63.1438903  66.1286993  55.8484913  63.2678903
  66.1976993  57.0354913  63.9508903  66.1406993  56.6314913  63.2808903
  50.8666993  59.1514913  63.5718903  51.1866993  59.3704913  62.7908903
  50.7666993  58.2864913  63.5168903  50.8986993  59.0564913  63.4488903
  52.3226993  55.0874913  50.1898903  51.6506993  55.1014913  50.7458903
  52.4176993  54.2394913  50.0058903  52.2376993  54.9644913  50.2448903
  62.0096993  51.5114913  66.9258903  62.1016993  52.2234913  67.4198903
  61.3726993  51.0664913  67.3228903  61.9286993  51.5504913  67.0578903
  61.0036993  51.7014913  57.7798903  60.3036993  52.2194913  57.7238903
  61.0416993  51.3214913  56.9958903  60.9056993  51.7224913  57.6558903
  56.3106993  63.7924913  51.3038903  56.7516993  63.8724913  52.0518903
  55.5056993  63.5764913  51.5618903  56.2566993  63.7724913  51.4528903
  64.6016993  52.2174913  60.5798903  65.4566993  52.3164913  60.7248903
  64.2326993  52.7704913  61.1448903  64.6736993  52.3144913  60.6848903
  55.6296993  58.4434913  64.9568903  55.2336993  59.2174913  65.0318903
  55.2236993  58.0704913  64.2808903  55.5116993  58.5024913  64.8678903
  64.9056993  57.4974913  59.0708903  65.5716993  58.0384913  59.2308903
  64.5606993  57.8084913  58.3318903  64.9526993  57.6234913  58.9858903
  65.2186993  65.5634913  54.8778903  65.0446993  64.9094913  55.4278903
  65.9316993  65.2924913  54.4548903  65.2986993  65.4264913  54.8968903
  53.6396993  62.8624913  51.9048903  53.3956993  62.5554913  52.6848903
  53.6066993  62.1594913  51.3888903  53.5986993  62.7134913  51.9438903
  56.4586993  61.1074913  50.6478903  55.6406993  60.8394913  50.7878903
  56.4306993  61.9594913  50.8328903  56.3336993  61.1944913  50.6958903
  56.0586993  51.4204913  62.4068903  55.1946993  51.5044913  62.4868903
  56.2786993  50.9064913  63.0758903  55.9636993  51.3574913  62.5178903
  68.0766993  50.0554913  63.7358903  68.0246993  50.0114913  64.6058903
  68.7636993  49.5524913  63.5458903  68.1706993  49.9754913  63.8358903
  60.1616993  52.1684913  60.7808903  59.4246993  51.7144913  60.8938903
  60.7326993  51.7664913  61.3038903  60.1366993  52.0414913  60.8748903
  62.8936993  63.0164913  62.5688903  63.0996993  63.3174913  63.3608903
  62.8326993  63.7384913  62.0838903  62.9146993  63.1674913  62.6138903
  62.4276993  67.2304913  66.8148903  61.6746993  67.2124913  66.3738903
  62.5956993  68.0824913  66.8988903  62.3416993  67.3534913  66.7618903
  57.6646993  56.4974913  65.9848903  57.3426993  55.9214913  65.4148903
  57.3056993  57.2524913  65.7388903  57.5646993  56.5234913  65.8648903
  58.4606993  49.7494913  50.6118903  58.5386993  49.9964913  49.7788903
  57.7176993  50.1264913  50.8698903  58.3626993  49.8414913  50.5268903
  67.7056993  61.6554913  62.0268903  67.6736993  60.7934913  61.8918903
  67.0126993  61.9574913  61.5928903  67.5986993  61.5724913  61.9428903
  56.0996993  66.8534913  66.2328903  56.1406993  66.9794913  67.0958903
  56.7506993  66.2934913  66.0768903  56.2016993  66.7894913  66.3378903
  65.8106993  64.9154913  60.8238903  66.3376993  64.8324913  60.1328903
  65.4196993  64.1374913  60.8778903  65.8306993  64.7884913  60.7298903
  53.2786993  51.5034913  63.0548903  52.9356993  50.7364913  62.8208903
  52.5836993  52.0274913  63.1188903  53.1256993  51.4674913  63.0298903
  62.3246993  50.3594913  60.0318903  62.9946993  50.9034913  60.1588903
  61.8216993  50.7834913  59.4588903  62.3496993  50.5024913  59.9658903
  53.6926993  65.2364913  67.5928903  54.2876993  65.6674913  68.0648903
  53.3286993  65.8604913  67.1038903  53.7266993  65.3924913  67.5898903
  61.6836993  56.1674913  57.5248903  62.2346993  55.5604913  57.8248903
  61.2586993  56.4304913  58.2398903  61.7026993  56.1164913  57.6738903
  51.9316993  54.8174913  57.0108903  51.5636993  55.1194913  57.7418903
  52.4656993  54.1884913  57.2948903  51.9556993  54.7694913  57.1608903
  51.6196993  63.2254913  64.5218903  51.0456993  63.6414913  65.0308903
  52.3526993  63.6904913  64.6168903  51.6436993  63.3554913  64.6108903
  63.6536993  57.9984913  54.0868903  63.7216993  57.1484913  54.2678903
  62.8306993  58.0844913  53.8088903  63.5416993  57.8854913  54.0728903
  53.4056993  66.4924913  53.2968903  53.2606993  66.6484913  52.4508903
  54.2716993  66.5714913  53.3748903  53.5126993  66.5274913  53.1838903
  57.5726993  58.8894913  53.0248903  57.6726993  59.0284913  52.1698903
  58.3906993  58.8294913  53.3208903  57.7076993  58.9004913  52.9418903
  66.7326993  66.9534913  50.5048903  67.3696993  66.8194913  51.0858903
  66.3916993  66.1594913  50.3878903  66.7766993  66.8164913  50.5728903
  66.9276993  59.3714913  67.2378903  67.5616993  59.2014913  67.8118903
  67.3446993  59.7744913  66.5858903  67.0826993  59.4064913  67.2268903
  62.8076993  63.2184913  52.8268903  62.5566993  63.0904913  53.6528903
  62.4906993  62.5234913  52.4058903  62.7236993  63.0974913  52.8868903
  67.5526993  53.9354913  67.9758903  67.3566993  54.5794913  68.5308903
  66.8306993  53.4454913  67.9678903  67.4176993  53.9584913  68.0568903
  67.4516993  54.8764913  60.9468903  66.6186993  55.1264913  60.8748903
  67.3956993  54.0364913  61.1758903  67.3206993  54.7894913  60.9698903
  56.7116993  51.8644913  66.1408903  56.9456993  51.2884913  65.5278903
  55.8696993  51.6834913  66.2818903  56.6216993  51.7524913  66.0708903
  64.3386993  59.4824913  68.5928903  65.2096993  59.4464913  68.5568903
  64.1196993  59.9024913  67.8608903  64.4356993  59.5384913  68.4798903
  54.0926993  65.3074913  59.7738903  54.0136993  64.4974913  59.4578903
  53.6486993  65.7944913  59.2018903  54.0156993  65.2594913  59.6428903
  59.6936993  61.4264913  52.2568903  60.4106993  61.0794913  51.9008903
  59.6596993  62.2264913  51.9088903  59.7946993  61.4934913  52.1528903
  51.6646993  67.5514913  63.3548903  52.1576993  67.4954913  64.0728903
  51.8526993  66.8184913  62.9198903  51.7656993  67.4344913  63.3968903
  61.1026993  50.0674913  36.4956493  60.8576993  50.5554913  35.8156493
  61.9656993  49.9944913  36.3956493  61.1936993  50.1284913  36.3806493
  60.9116993  56.9834913  41.1666493  60.3876993  57.5794913  41.5296493
  61.3086993  56.6154913  41.8506493  60.8926993  57.0174913  41.3216493
  50.7806993  61.1234913  36.6226493  50.3396993  61.2414913  37.3656493
  50.4976993  60.3484913  36.3376493  50.6736993  61.0264913  36.6906493
  67.0556993  64.4244913  34.1376493  67.7566993  63.9054913  34.1336493
  66.4686993  63.9794913  33.6686493  67.0726993  64.2814913  34.0676493
  50.5236993  54.9154913  33.1296493  49.7456993  55.0774913  32.7696493
  50.5626993  54.0444913  33.1516493  50.4146993  54.8104913  33.0796493
  53.6626993  60.1784913  31.8016493  53.2706993  59.8074913  31.1156493
  53.5826993  59.5804913  32.4306493  53.5926993  60.0354913  31.7926493
  63.5826993  58.0504913  37.8426493  63.6626993  58.0544913  36.9736493
  62.9986993  57.4184913  37.9916493  63.5076993  57.9574913  37.7366493
  53.2896993  61.8194913  35.7016493  53.8976993  61.6494913  36.3046493
  52.5386993  61.6794913  36.1226493  53.2686993  61.7734913  35.8526493
  57.5716993  51.1544913  35.6506493  57.5016993  51.8314913  35.1046493
  58.3126993  50.7664913  35.4016493  57.6706993  51.1974913  35.5326493
  52.1806993  64.9104913  31.7786493  52.6476993  64.9944913  31.0466493
  52.6356993  64.3324913  32.2476493  52.3166993  64.8374913  31.7396493
  50.7206993  63.8584913  42.8776493  50.8496993  63.5784913  43.6936493
  50.1106993  63.3174913  42.5686493  50.6496993  63.7374913  42.9526493
  57.2946993  61.3834913  47.9446493  57.0586993  61.3804913  48.7846493
  56.5466993  61.2354913  47.5206493  57.1486993  61.3604913  48.0056493
  52.1666993  58.3794913  37.0796493  51.7046993  57.9874913  36.4526493
  52.8666993  57.8664913  37.1716493  52.2016993  58.2464913  37.0006493
  56.6746993  53.9894913  42.4266493  57.3526993  54.0074913  41.8776493
  56.6296993  53.1534913  42.6716493  56.7676993  53.8684913  42.3816493
  57.2766993  64.5754913  45.2076493  57.4146993  65.3354913  44.8006493
  58.0676993  64.2104913  45.2346493  57.4136993  64.6344913  45.1516493
  54.1676993  56.4794913  37.1026493  54.9846993  56.2924913  37.3456493
  53.6906993  55.8654913  37.4986493  54.2176993  56.3614913  37.1976493
  58.3716993  62.4604913  39.7126493  58.7196993  61.6614913  39.7426493
  59.0366993  62.9644913  39.4576493  58.5216993  62.4164913  39.6796493
  58.4286993  61.9094913  35.9236493  58.7596993  61.2654913  36.4096493
  58.6686993  61.6984913  35.1126493  58.5126993  61.7834913  35.8756493
  60.3966993  56.0404913  47.2626493  59.5486993  55.9414913  47.0846493
  60.4256993  56.7854913  47.7166493  60.2756993  56.1364913  47.3036493
  54.7646993  51.5734913  36.3686493  54.4686993  52.0744913  35.7186493
  55.6316993  51.6514913  36.3116493  54.8486993  51.6594913  36.2646493
  64.9546993  49.0004913  46.3766493  64.7966993  49.7694913  45.9946493
  64.1826993  48.7804913  46.7206493  64.8166993  49.0814913  46.3716493
  57.7436993  50.7154913  38.5916493  57.8166993  51.5754913  38.7206493
  57.7056993  50.6404913  37.7236493  57.7486993  50.8314913  38.4826493
  62.4166993  53.6414913  30.8906493  61.9666993  54.3224913  31.1976493
  62.5306993  53.1374913  31.5936493  62.3676993  53.6674913  31.0396493
  50.6226993  56.1404913  40.0926493  50.3666993  56.9714913  40.0176493
  49.9586993  55.7574913  40.5096493  50.4866993  56.2064913  40.1436493
  50.5326993  65.8504913  37.9926493  49.9406993  66.4084913  37.6796493
  50.9586993  65.5814913  37.2806493  50.5086993  65.8924913  37.8416493
  56.3726993  63.6944913  35.4726493  55.7936993  63.4194913  36.0646493
  56.9966993  63.0854913  35.4976493  56.3796993  63.5644913  35.5636493
  62.5156993  65.9824913  32.9946493  63.2426993  66.4544913  33.0966493
  62.7446993  65.1884913  33.2746493  62.6576993  65.9354913  33.0516493
  60.6836993  66.3744913  34.9846493  60.8976993  66.9014913  35.6466493
  61.4506993  66.2004913  34.6056493  60.8286993  66.4264913  35.0266493
  56.9576993  53.0904913  49.8816493  57.0746993  52.6364913  49.1456493
  57.2456993  53.8884913  49.6786493  57.0176993  53.1414913  49.7426493
  52.0776993  64.5204913  35.9236493  52.7336993  63.9454913  35.9386493
  52.4666993  65.2694913  35.7026493  52.2326993  64.5454913  35.8936493
  67.8106993  53.6144913  37.1856493  67.4646993  54.2924913  37.6116493
  67.1746993  53.0164913  37.2016493  67.6656993  53.6264913  37.2506493
  63.1226993  66.3844913  43.2896493  63.8666993  66.8404913  43.2796493
  63.0016993  66.1704913  42.4526493  63.2146993  66.4204913  43.1646493
  52.6906993  52.6874913  48.8656493  51.9126993  52.2974913  48.7936493
  53.1816993  52.2754913  48.2746493  52.6476993  52.5684913  48.7676493
  52.8956993  63.0074913  39.4236493  53.3186993  62.6514913  38.7496493
  53.2196993  62.5854913  40.1156493  53.0056993  62.8924913  39.4266493
  56.1266993  65.8594913  38.7196493  56.9706993  65.9634913  38.5246493
  55.8296993  66.6774913  38.7876493  56.2076993  65.9954913  38.7006493
  59.3396993  50.3304913  48.0336493  59.5176993  49.5214913  47.7586493
  59.1966993  50.7714913  47.2946493  59.3446993  50.2764913  47.8836493
  59.9336993  55.2564913  36.8066493  60.2206993  55.0244913  36.0166493
  60.6656993  55.3354913  37.2756493  60.0836993  55.2334913  36.7596493
  60.6556993  55.5954913  31.9276493  60.9366993  56.3834913  32.1766493
  59.8796993  55.7604913  31.5646493  60.5826993  55.7364913  31.9106493
  64.6966993  67.5694913  33.3946493  65.3616993  67.4214913  32.8496493
  65.0566993  67.4864913  34.1846493  64.8486993  67.5354913  33.4306493
  55.1246993  67.0784913  44.4596493  55.4166993  67.0114913  45.2796493
  54.4986993  66.4734913  44.4146493  55.0756993  66.9794913  44.5746493
  67.4856993  51.9374913  42.5546493  68.2426993  52.0094913  42.1266493
  67.5486993  51.1644913  42.9536493  67.6066993  51.8344913  42.5496493
  50.0386993  53.2354913  46.4516493  50.0346993  53.8224913  47.0976493
  50.6326993  53.5474913  45.8946493  50.1256993  53.3684913  46.4646493
  62.3766993  63.5694913  46.9936493  62.3426993  63.9514913  47.7776493
  63.2306993  63.5274913  46.8226493  62.4976993  63.6194913  47.0846493
  59.5146993  63.7664913  31.7436493  59.3336993  64.3114913  32.4006493
  60.2806993  64.0564913  31.4426493  59.6006993  63.8904913  31.7966493
  63.0216993  51.6624913  32.7976493  63.5616993  50.9804913  32.8736493
  63.0836993  52.0604913  33.5716493  63.1106993  51.6204913  32.9236493
  50.9756993  52.8304913  35.3666493  50.8616993  51.9664913  35.3976493
  50.5006993  53.1244913  36.0366493  50.8886993  52.7464913  35.4696493
  53.1176993  65.2404913  43.5816493  52.4196993  64.7324913  43.7076493
  53.3776993  65.0354913  42.7736493  53.0526993  65.1354913  43.4806493
  60.2796993  54.0384913  34.1116493  59.7716993  53.3764913  33.8576493
  60.3316993  54.5424913  33.4016493  60.2126993  54.0154913  33.9696493
  60.8286993  66.7334913  44.4916493  61.5966993  66.6534913  44.0856493
  60.2456993  66.6124913  43.8536493  60.8556993  66.7034913  44.3376493
  60.2796993  50.9794913  34.0026493  59.8246993  50.5774913  33.3766493
  61.0526993  51.1344913  33.6276493  60.3266993  50.9434913  33.8546493
  67.1056993  67.3364913  37.3926493  66.6506993  68.0534913  37.5936493
  66.4916993  66.7654913  37.1506493  66.9476993  67.3584913  37.3866493
  58.8776993  53.3464913  38.5246493  58.9516993  53.9144913  37.8666493
  58.9986993  53.8384913  39.2346493  58.9056993  53.5034913  38.5326493
  64.1026993  63.1814913  36.9366493  64.8036993  62.6994913  37.1256493
  63.4426993  62.6124913  36.9816493  64.1086993  63.0264913  36.9706493
  54.4786993  64.0914913  46.1486493  55.3196993  64.1544913  45.9266493
  54.4416993  64.4884913  46.9246493  54.5976993  64.1594913  46.2306493
  53.4856993  49.1694913  36.8726493  54.0216993  49.8574913  36.8626493
  53.4886993  48.8954913  36.0446493  53.5646993  49.2304913  36.7486493
  56.4416993  59.6024913  40.8976493  56.6136993  59.3924913  41.7266493
  55.7866993  59.0684913  40.6816493  56.3706993  59.4924913  40.9886493
  62.6696993  53.5164913  44.4126493  62.5746993  53.8354913  45.2186493
  62.0766993  52.8774913  44.3746493  62.5676993  53.4684913  44.5266493
  57.1916993  59.5404913  43.4876493  57.2446993  60.3874913  43.6896493
  56.9066993  59.1704913  44.2246493  57.1576993  59.6104913  43.6256493
  63.3686993  60.2354913  42.6176493  62.8546993  59.8234913  43.1886493
  63.2426993  61.0794913  42.7986493  63.2746993  60.2994913  42.7286493
  63.9256993  49.4604913  37.2486493  63.9746993  49.1424913  38.0596493
  64.2486993  48.8164913  36.7556493  63.9806993  49.3184913  37.2956493
  50.0126993  63.9114913  49.6986493  50.7686993  64.2604913  49.9566493
  50.1896993  63.0584913  49.6416493  50.1506993  63.8364913  49.7286493
  66.3896993  53.6964913  45.5566493  67.1616993  53.4714913  45.8936493
  65.9146993  53.9134913  46.2566493  66.4336993  53.6954913  45.7096493
  53.9336993  52.9794913  38.5266493  54.2056993  52.5494913  37.8186493
  53.7576993  52.3434913  39.0976493  53.9476993  52.8224913  38.5066493
  66.6216993  60.6744913  32.7446493  66.7406993  60.3874913  33.5596493
  67.4286993  60.6954913  32.4146493  66.7576993  60.6354913  32.8166493
  53.7576993  60.4064913  38.0756493  54.6086993  60.3264913  37.9026493
  53.4006993  59.7244913  37.6636493  53.8306993  60.2934913  37.9886493
  52.5246993  67.1314913  39.3126493  51.8516993  66.6334913  39.0676493
  52.9276993  67.3164913  38.5616493  52.4846993  67.0854913  39.1656493
  52.0746993  54.0814913  41.6086493  52.9176993  54.3014913  41.5656493
  51.6856993  54.6544913  41.0776493  52.1416993  54.1984913  41.5236493
  68.8556993  65.1834913  46.9986493  68.1736993  65.4934913  46.5516493
  68.4866993  64.7254913  47.6436493  68.6996993  65.1614913  47.0276493
  64.5166993  57.2114913  32.3296493  64.2966993  57.9424913  31.9076493
  64.0686993  57.2624913  33.0766493  64.4176993  57.3264913  32.3776493
  56.1256993  60.4134913  36.3106493  56.8386993  60.9084913  36.4006493
  56.3476993  59.8464913  35.6846493  56.2636993  60.4024913  36.2316493
  68.7036993  52.0724913  31.7826493  68.0416993  51.5044913  31.8056493
  68.5106993  52.5844913  31.1026493  68.5776993  52.0644913  31.6856493
  50.2816993  62.0564913  39.6306493  49.6146993  62.5444913  39.9066493
  50.9616993  62.6014913  39.6596493  50.2836993  62.2084913  39.6756493
  57.9286993  55.7664913  49.7266493  57.4446993  56.3434913  50.1686493
  57.9006993  56.0614913  48.9056493  57.8526993  55.8954913  49.6706493
  69.0266993  56.4504913  44.3386493  69.2416993  55.6504913  44.0626493
  68.1766993  56.5104913  44.1496493  68.9326993  56.3414913  44.2696493
  50.3476993  58.7404913  34.7336493  50.1626993  57.9014913  34.8856493
  51.0066993  58.7044913  34.1636493  50.4176993  58.6114913  34.6716493
  66.7056993  51.6304913  34.0616493  67.4516993  51.2234913  34.2606493
  66.9686993  52.3454913  33.6366493  66.8546993  51.6764913  34.0286493
  60.6486993  64.1164913  38.6376493  60.1256993  64.7504913  38.3446493
  60.9586993  63.7524913  37.9086493  60.6166993  64.1564913  38.4866493
  50.5196993  62.9044913  34.3086493  51.0716993  63.4734913  34.6726493
  50.2876993  62.3894913  34.9736493  50.5666993  62.9124913  34.4606493
  54.7236993  61.9044913  41.3976493  55.1906993  62.1934913  42.0756493
  55.2956993  61.4264913  40.9436493  54.8776993  61.8764913  41.4306493
  63.1596993  53.9184913  39.1346493  63.5036993  54.0704913  39.9216493
  62.7066993  53.1804913  39.2476493  63.1436993  53.8314913  39.2676493
  50.3496993  61.3534913  31.9366493  51.1056993  60.9214913  31.9946493
  50.3646993  61.8854913  32.6276493  50.4636993  61.3684913  32.0476493
  51.2896993  59.5744913  39.9416493  51.7206993  59.4454913  39.1946493
  51.0846993  60.4224913  39.9156493  51.3226993  59.6804913  39.8276493
  57.6356993  53.1384913  33.5916493  57.6336993  53.0214913  32.7266493
  57.4546993  53.9864913  33.6836493  57.6086993  53.2464913  33.4776493
  66.6896993  65.5654913  45.0886493  66.0186993  66.0794913  45.3066493
  66.7526993  65.6654913  44.2246493  66.5996993  65.6564913  44.9936493
  55.3736993  63.0904913  38.2236493  55.4996993  63.9334913  38.4106493
  56.0416993  62.6914913  38.6196493  55.4916993  63.1564913  38.3096493
  53.5036993  56.5734913  48.0856493  52.9676993  56.0674913  48.5536493
  53.5236993  56.1834913  47.3056493  53.4266993  56.4404913  48.0396493
  53.9886993  55.9704913  33.2256493  53.8606993  55.5224913  33.9636493
  53.4066993  55.6284913  32.6736493  53.8836993  55.8534913  33.2536493
  54.1556993  57.8004913  39.8246493  53.3746993  57.7414913  39.4416493
  54.2276993  57.0484913  40.2616493  54.0506993  57.6814913  39.8326493
  54.5856993  57.5374913  43.2926493  54.6106993  56.8624913  42.7416493
  53.9396993  58.0334913  42.9806493  54.4946993  57.5104913  43.1656493
  64.4806993  55.2504913  41.6886493  63.8186993  55.5784913  42.1516493
  64.6676993  55.8844913  41.1196493  64.4106993  55.3924913  41.6726493
  58.6856993  66.3144913  42.6846493  58.4086993  65.6734913  42.1616493
  58.4776993  67.0404913  42.2466493  58.6146993  66.3274913  42.5426493
  61.1256993  51.1564913  45.1176493  61.2746993  50.3314913  44.8746493
  61.5046993  51.2114913  45.9016493  61.2036993  51.0424913  45.1976493
  62.6736993  53.2194913  35.1996493  63.1636993  53.9364913  35.1226493
  61.8836993  53.4804913  34.9366493  62.6296993  53.3634913  35.1496493
  52.3846993  58.8924913  48.8516493  52.3476993  59.3934913  48.1376493
  52.7156993  58.1404913  48.5566493  52.4276993  58.8544913  48.7026493
  63.9876993  61.0974913  47.1096493  64.4716993  61.8154913  47.2076493
  64.3816993  60.6704913  46.4586493  64.1176993  61.1404913  47.0276493
  58.2836993  63.9424913  48.2866493  58.6376993  63.7644913  49.0636493
  57.8476993  63.2134913  48.0876493  58.2716993  63.8084913  48.3726493
  59.2556993  54.6894913  40.9246493  59.7356993  55.3884913  41.1326493
  59.6286993  54.0424913  41.3756493  59.3816993  54.6974913  41.0216493
  61.4446993  57.8584913  33.1986493  61.4366993  58.5804913  32.7086493
  60.8056993  57.9934913  33.7756493  61.3496993  57.9854913  33.2116493
  66.4166993  61.7284913  37.1796493  66.7726993  61.3784913  37.8946493
  66.4086993  61.0674913  36.6096493  66.4686993  61.5784913  37.2006493
  62.4616993  64.7944913  41.0236493  61.8586993  64.4984913  40.4666493
  63.0066993  65.2464913  40.5146493  62.4526993  64.8174913  40.8656493
  62.4746993  61.6454913  40.4236493  61.6776993  61.8694913  40.6976493
  62.7326993  61.0514913  41.0086493  62.3946993  61.5904913  40.5506493
  56.3666993  66.4574913  34.8716493  56.2196993  65.6814913  35.2426493
  57.0556993  66.3104913  34.3566493  56.4466993  66.3204913  34.8506493
  56.0376993  50.2004913  32.8596493  56.1346993  50.0934913  33.7206493
  55.3296993  50.7064913  32.7946493  55.9476993  50.2594913  32.9776493
  58.6586993  65.9734913  33.2736493  59.2806993  66.1364913  33.8636493
  58.6946993  66.6644913  32.7416493  58.7556993  66.0994913  33.2826493
  65.7346993  59.6434913  45.2696493  65.7896993  59.7684913  44.4076493
  66.4876993  59.9634913  45.5716493  65.8536993  59.7084913  45.1866493
  61.9256993  64.9924913  49.5466493  62.0896993  65.2754913  50.3556493
  62.1886993  65.6534913  49.0416493  61.9886993  65.1324913  49.5916493
  66.7666993  49.9414913  48.2566493  66.1296993  49.5414913  47.8146493
  66.7926993  49.5104913  49.0146493  66.6766993  49.8194913  48.3026493
  53.1596993  58.5074913  34.1026493  53.4836993  57.7284913  33.8806493
  53.8056993  58.8754913  34.5576493  53.3026993  58.4464913  34.1366493
  61.4656993  59.4494913  44.8696493  61.3106993  60.0594913  45.4736493
  61.9996993  58.8914913  45.2756493  61.5216993  59.4574913  45.0186493
  50.1566993  50.1684913  35.0706493  50.2856993  49.4604913  34.5786493
  49.7896993  49.8504913  35.7956493  50.1216993  50.0164913  35.1056493
  59.8496993  57.8494913  35.5276493  59.9086993  58.4994913  36.1066493
  59.6606993  57.1534913  36.0186493  59.8306993  57.8424913  35.6856493
  65.0756993  62.1784913  41.3966493  64.5966993  62.4764913  40.7306493
  64.7196993  61.4024913  41.5746493  64.9526993  62.1074913  41.3246493
  54.3456993  52.3664913  32.0396493  53.8346993  52.4194913  31.3336493
  55.1296993  52.6064913  31.7436493  54.3856993  52.4094913  31.8916493
  59.0726993  59.8964913  39.9586493  58.2256993  59.7024913  40.0396493
  59.3966993  59.7314913  40.7516493  58.9946993  59.8434913  40.0876493
  55.8246993  66.6264913  30.8446493  56.2636993  65.9294913  31.1326493
  56.0316993  67.2504913  31.4176493  55.9206993  66.6154913  30.9716493
  52.9206993  59.5894913  42.2746493  53.6426993  60.0774913  42.2376493
  52.6506993  59.5594913  41.4456493  52.9876993  59.6574913  42.1466493
  56.1506993  54.7604913  39.0096493  56.9966993  54.5704913  39.1076493
  55.7806993  53.9834913  38.8716493  56.2206993  54.6174913  39.0036493
  68.7676993  66.3444913  33.3366493  69.4616993  65.8774913  33.0886493
  68.2286993  65.7464913  33.6736493  68.7906993  66.1864913  33.3496493
  50.9716993  56.0984913  35.6646493  51.4606993  55.8064913  36.3256493
  51.1006993  55.5054913  35.0376493  51.0626993  55.9674913  35.6696493
  66.0066993  59.1204913  42.5156493  65.9996993  58.3444913  42.9136493
  65.1656993  59.3544913  42.5086493  65.8816993  59.0404913  42.5736493
  55.4966993  57.5324913  31.1506493  54.8866993  57.1274913  31.6246493
  55.1106993  57.6504913  30.3776493  55.3496993  57.4894913  31.1066493
  52.3156993  60.6414913  46.5526493  51.8946993  60.1234913  45.9916493
  51.9636993  61.4274913  46.4096493  52.2016993  60.6814913  46.4486493
  67.2626993  59.1914913  39.9526493  66.9766993  59.5924913  40.6726493
  68.1226993  59.1294913  40.0796493  67.3476993  59.2414913  40.0776493
  56.9516993  55.9934913  33.8606493  57.2236993  56.8194913  33.9276493
  56.0886993  56.0684913  33.7646493  56.8646993  56.1264913  33.8556493
  64.9246993  53.1154913  48.4926493  64.3996993  53.5744913  49.0166493
  64.5636993  52.3204913  48.4866493  64.7936993  53.0654913  48.5686493
  50.4316993  51.9634913  40.3966493  50.4756993  52.3074913  39.5956493
  51.1866993  52.2004913  40.7636493  50.5496993  52.0494913  40.3326493
  68.3936993  64.8244913  40.4816493  68.6836993  65.0814913  39.7006493
  69.0886993  64.9204913  41.0006493  68.5396993  64.8764913  40.4426493
  63.4166993  56.6844913  48.5686493  63.4896993  56.7884913  49.4316493
  62.7826993  57.2424913  48.3476493  63.3336993  56.7824913  48.6636493
  65.6846993  57.0034913  46.9336493  66.0036993  57.7894913  47.1366493
  65.3146993  56.7334913  47.6766493  65.6776993  57.0794913  47.0736493
  64.9986993  63.4274913  32.4636493  65.3326993  62.6214913  32.4986493
  64.2436993  63.3554913  32.8936493  64.9366993  63.2974913  32.5326493
  65.4806993  55.2614913  38.1226493  64.7356993  54.9384913  38.4406493
  65.4826993  56.0874913  38.4026493  65.3706993  55.3354913  38.2106493
  68.3826993  57.5454913  49.6686493  68.3306993  57.2044913  48.8676493
  69.1196993  58.0124913  49.6466493  68.4836993  57.5644913  49.5466493
  67.9206993  61.2214913  45.8746493  68.5486993  60.6724913  45.6186493
  67.8596993  61.7864913  45.2126493  68.0046993  61.2244913  45.7386493
  62.3726993  61.3024913  31.8666493  63.0566993  60.7884913  31.6976493
  61.9556993  61.3484913  31.1016493  62.4116993  61.2334913  31.7286493
  57.0546993  62.4524913  43.1706493  56.7566993  63.0444913  43.7376493
  57.1096993  62.8944913  42.4216493  57.0186993  62.6054913  43.1436493
  55.0336993  61.4024913  46.5686493  54.2276993  61.1124913  46.7356493
  54.9446993  62.2704913  46.5746493  54.9016993  61.4874913  46.5936493
  64.3926993  51.5914913  45.5836493  65.1366993  52.0434913  45.5206493
  63.8266993  52.0614913  45.1146493  64.4196993  51.7284913  45.5056493
  59.5706993  58.8754913  42.6616493  60.0466993  59.2494913  43.2896493
  58.7476993  59.0094913  42.9206493  59.5196993  58.9504913  42.7926493
  56.2806993  54.4784913  45.4026493  56.4416993  53.7344913  45.8296493
  56.2356993  54.2294913  44.5676493  56.2976993  54.3314913  45.3426493
  58.8346993  66.2684913  37.8896493  59.3806993  66.9474913  37.9436493
  58.4846993  66.3504913  37.0946493  58.8636993  66.3814913  37.7796493
  65.6776993  49.5714913  43.2536493  65.3976993  50.3964913  43.2096493
  66.3936993  49.6244913  43.7496493  65.7426993  49.7014913  43.3206493
  58.0326993  50.2864913  45.2826493  58.7376993  50.6064913  44.8806493
  58.2736993  49.4794913  45.5096493  58.1716993  50.2144913  45.2566493
  57.0176993  64.4964913  41.2786493  56.3936993  65.0784913  41.0966493
  57.2656993  64.2104913  40.4926493  56.9616993  64.5404913  41.1356493
  61.3266993  61.1304913  48.2676493  62.0836993  61.4164913  47.9416493
  60.7796993  61.1824913  47.5896493  61.3576993  61.1804913  48.1186493
  65.2356993  63.6804913  46.7716493  65.5816993  63.9504913  47.5256493
  65.5296993  64.2624913  46.1916493  65.3306993  63.8064913  46.7976493
  67.0986993  55.8264913  32.1106493  67.4766993  56.5034913  31.7106493
  66.2566993  56.0504913  32.1416493  67.0296993  55.9594913  32.0556493
  58.6116993  59.2724913  31.1936493  57.8066993  59.0954913  30.9086493
  58.5786993  60.1234913  31.3856493  58.4876993  59.3714913  31.1806493
  54.5416993  55.3394913  41.3436493  54.9816993  55.2364913  40.5976493
  55.0866993  55.0264913  41.9486493  54.6866993  55.2784913  41.3226493
  62.5576993  54.4414913  46.9356493  61.9096993  54.9114913  47.2836493
  63.1226993  54.3524913  47.5946493  62.5456993  54.4974913  47.0846493
  62.2456993  55.9784913  43.2336493  62.5476993  56.3984913  43.9366493
  62.2816993  55.1384913  43.4656493  62.2956993  55.9164913  43.3716493
  59.6706993  66.1454913  47.1586493  60.1486993  65.5454913  46.7426493
  59.3196993  65.7024913  47.8236493  59.6896993  65.9914913  47.1956493
  64.7936993  55.4254913  35.4856493  65.0006993  55.2244913  36.3096493
  65.5496993  55.6934913  35.1436493  64.9356993  55.4354913  35.5566493
  58.0886993  50.3244913  41.3906493  57.2626993  50.1754913  41.6276493
  58.0486993  50.3594913  40.5196493  57.9606993  50.3074913  41.2966493
  65.8156993  51.5084913  36.9596493  65.1016993  51.0374913  37.1306493
  65.6536993  51.8494913  36.1736493  65.6866993  51.4894913  36.8686493
  66.2586993  59.4524913  35.3396493  66.7346993  58.7234913  35.2916493
  65.4376993  59.1664913  35.2636493  66.2076993  59.3024913  35.3206493
  59.7296993  61.3644913  46.1786493  58.9346993  61.3004913  46.5296493
  59.8006993  62.2114913  45.9836493  59.6226993  61.4794913  46.2016493
  50.6536993  50.7224913  47.4256493  50.5136993  51.5174913  47.0946493
  49.8676993  50.4794913  47.7146493  50.5166993  50.8044913  47.4196493
  55.5596993  67.5714913  41.4956493  55.5706993  67.6304913  42.3656493
  55.1346993  66.8244913  41.3456493  55.4986993  67.4694913  41.6016493
  53.7176993  53.4664913  34.6506493  53.8436993  53.1374913  33.8526493
  52.9056993  53.2174913  34.8496493  53.6166993  53.3814913  34.5626493
  62.4746993  60.6194913  37.6946493  62.5506993  60.9604913  38.4936493
  62.6436993  59.7724913  37.8156493  62.5106993  60.5444913  37.8306493
  59.9966993  59.8934913  37.2596493  59.6986993  59.5784913  38.0166493
  60.6916993  60.3664913  37.4946493  60.0556993  59.9164913  37.4066493
  60.2186993  64.0114913  45.2866493  60.9056993  63.8974913  45.8116493
  60.3526993  64.8024913  44.9426493  60.3396993  64.1114913  45.3136493
  68.3946993  56.6204913  47.0976493  67.5396993  56.4984913  47.2236493
  68.5476993  56.2254913  46.3346493  68.2906993  56.5434913  47.0036493
  62.9076993  57.2854913  45.6736493  62.6526993  56.5664913  46.0956493
  63.7286993  57.4014913  45.9436493  62.9916993  57.1964913  45.7756493
  52.3236993  67.0694913  46.9376493  51.6696993  66.5004913  47.0356493
  51.9486993  67.8424913  47.0886493  52.1716993  67.0994913  46.9746493
  60.8416993  58.4754913  48.8606493  61.1646993  59.1614913  48.4286493
  60.1376993  58.7984913  49.2626493  60.7846993  58.6244913  48.8556493
  63.9256993  66.8494913  39.7896493  63.4746993  67.4924913  40.1686493
  64.6336993  66.7704913  40.2946493  63.9636993  66.9324913  39.9206493
  60.6266993  61.9394913  42.7196493  59.9326993  62.3414913  43.0626493
  61.3036993  62.3724913  43.0586493  60.6236993  62.0624913  42.8206493
  66.0036993  64.5324913  49.2996493  66.7796993  64.1424913  49.3826493
  65.5346993  64.1964913  49.9546493  66.0486993  64.4254913  49.4086493
  53.6946993  55.4774913  45.0666493  54.0696993  56.0964913  44.5796493
  54.3686993  55.0034913  45.3516493  53.8496993  55.4994913  45.0366493
  51.4696993  53.9254913  44.3416493  51.5466993  53.7564913  43.4886493
  52.2156993  54.3314913  44.5386493  51.5906993  53.9604913  44.2446493
  67.0286993  56.5654913  34.7816493  67.1316993  56.5074913  33.9176493
  67.7696993  56.2334913  35.0996493  67.1536993  56.5084913  34.7006493
  54.0236993  51.3354913  46.7526493  53.9426993  50.4914913  46.9586493
  53.7096993  51.3794913  45.9396493  53.9656993  51.2174913  46.6626493
  60.9486993  63.5304913  35.8886493  60.7436993  64.3634913  35.7296493
  60.1736993  63.1484913  36.0106493  60.8036993  63.5974913  35.8836493
  66.1306993  56.7114913  44.1376493  66.1286993  55.8484913  44.2616493
  66.1976993  57.0354913  44.9446493  66.1406993  56.6314913  44.2746493
  50.8666993  59.1514913  44.5656493  51.1866993  59.3704913  43.7846493
  50.7666993  58.2864913  44.5106493  50.8986993  59.0564913  44.4426493
  52.3226993  55.0874913  31.1836493  51.6506993  55.1014913  31.7396493
  52.4176993  54.2394913  30.9996493  52.2376993  54.9644913  31.2386493
  62.0096993  51.5114913  47.9196493  62.1016993  52.2234913  48.4136493
  61.3726993  51.0664913  48.3166493  61.9286993  51.5504913  48.0516493
  61.0036993  51.7014913  38.7736493  60.3036993  52.2194913  38.7176493
  61.0416993  51.3214913  37.9896493  60.9056993  51.7224913  38.6496493
  56.3106993  63.7924913  32.2976493  56.7516993  63.8724913  33.0456493
  55.5056993  63.5764913  32.5556493  56.2566993  63.7724913  32.4466493
  64.6016993  52.2174913  41.5736493  65.4566993  52.3164913  41.7186493
  64.2326993  52.7704913  42.1386493  64.6736993  52.3144913  41.6786493
  55.6296993  58.4434913  45.9506493  55.2336993  59.2174913  46.0256493
  55.2236993  58.0704913  45.2746493  55.5116993  58.5024913  45.8616493
  64.9056993  57.4974913  40.0646493  65.5716993  58.0384913  40.2246493
  64.5606993  57.8084913  39.3256493  64.9526993  57.6234913  39.9796493
  65.2186993  65.5634913  35.8716493  65.0446993  64.9094913  36.4216493
  65.9316993  65.2924913  35.4486493  65.2986993  65.4264913  35.8906493
  53.6396993  62.8624913  32.8986493  53.3956993  62.5554913  33.6786493
  53.6066993  62.1594913  32.3826493  53.5986993  62.7134913  32.9376493
  56.4586993  61.1074913  31.6416493  55.6406993  60.8394913  31.7816493
  56.4306993  61.9594913  31.8266493  56.3336993  61.1944913  31.6896493
  56.0586993  51.4204913  43.4006493  55.1946993  51.5044913  43.4806493
  56.2786993  50.9064913  44.0696493  55.9636993  51.3574913  43.5116493
  68.0766993  50.0554913  44.7296493  68.0246993  50.0114913  45.5996493
  68.7636993  49.5524913  44.5396493  68.1706993  49.9754913  44.8296493
  60.1616993  52.1684913  41.7746493  59.4246993  51.7144913  41.8876493
  60.7326993  51.7664913  42.2976493  60.1366993  52.0414913  41.8686493
  62.8936993  63.0164913  43.5626493  63.0996993  63.3174913  44.3546493
  62.8326993  63.7384913  43.0776493  62.9146993  63.1674913  43.6076493
  62.4276993  67.2304913  47.8086493  61.6746993  67.2124913  47.3676493
  62.5956993  68.0824913  47.8926493  62.3416993  67.3534913  47.7556493
  57.6646993  56.4974913  46.9786493  57.3426993  55.9214913  46.4086493
  57.3056993  57.2524913  46.7326493  57.5646993  56.5234913  46.8586493
  58.4606993  49.7494913  31.6056493  58.5386993  49.9964913  30.7726493
  57.7176993  50.1264913  31.8636493  58.3626993  49.8414913  31.5206493
  67.7056993  61.6554913  43.0206493  67.6736993  60.7934913  42.8856493
  67.0126993  61.9574913  42.5866493  67.5986993  61.5724913  42.9366493
  56.0996993  66.8534913  47.2266493  56.1406993  66.9794913  48.0896493
  56.7506993  66.2934913  47.0706493  56.2016993  66.7894913  47.3316493
  65.8106993  64.9154913  41.8176493  66.3376993  64.8324913  41.1266493
  65.4196993  64.1374913  41.8716493  65.8306993  64.7884913  41.7236493
  53.2786993  51.5034913  44.0486493  52.9356993  50.7364913  43.8146493
  52.5836993  52.0274913  44.1126493  53.1256993  51.4674913  44.0236493
  62.3246993  50.3594913  41.0256493  62.9946993  50.9034913  41.1526493
  61.8216993  50.7834913  40.4526493  62.3496993  50.5024913  40.9596493
  53.6926993  65.2364913  48.5866493  54.2876993  65.6674913  49.0586493
  53.3286993  65.8604913  48.0976493  53.7266993  65.3924913  48.5836493
  61.6836993  56.1674913  38.5186493  62.2346993  55.5604913  38.8186493
  61.2586993  56.4304913  39.2336493  61.7026993  56.1164913  38.6676493
  51.9316993  54.8174913  38.0046493  51.5636993  55.1194913  38.7356493
  52.4656993  54.1884913  38.2886493  51.9556993  54.7694913  38.1546493
  51.6196993  63.2254913  45.5156493  51.0456993  63.6414913  46.0246493
  52.3526993  63.6904913  45.6106493  51.6436993  63.3554913  45.6046493
  63.6536993  57.9984913  35.0806493  63.7216993  57.1484913  35.2616493
  62.8306993  58.0844913  34.8026493  63.5416993  57.8854913  35.0666493
  53.4056993  66.4924913  34.2906493  53.2606993  66.6484913  33.4446493
  54.2716993  66.5714913  34.3686493  53.5126993  66.5274913  34.1776493
  57.5726993  58.8894913  34.0186493  57.6726993  59.0284913  33.1636493
  58.3906993  58.8294913  34.3146493  57.7076993  58.9004913  33.9356493
  66.7326993  66.9534913  31.4986493  67.3696993  66.8194913  32.0796493
  66.3916993  66.1594913  31.3816493  66.7766993  66.8164913  31.5666493
  66.9276993  59.3714913  48.2316493  67.5616993  59.2014913  48.8056493
  67.3446993  59.7744913  47.5796493  67.0826993  59.4064913  48.2206493
  62.8076993  63.2184913  33.8206493  62.5566993  63.0904913  34.6466493
  62.4906993  62.5234913  33.3996493  62.7236993  63.0974913  33.8806493
  67.5526993  53.9354913  48.9696493  67.3566993  54.5794913  49.5246493
  66.8306993  53.4454913  48.9616493  67.4176993  53.9584913  49.0506493
  67.4516993  54.8764913  41.9406493  66.6186993  55.1264913  41.8686493
  67.3956993  54.0364913  42.1696493  67.3206993  54.7894913  41.9636493
  56.7116993  51.8644913  47.1346493  56.9456993  51.2884913  46.5216493
  55.8696993  51.6834913  47.2756493  56.6216993  51.7524913  47.0646493
  64.3386993  59.4824913  49.5866493  65.2096993  59.4464913  49.5506493
  64.1196993  59.9024913  48.8546493  64.4356993  59.5384913  49.4736493
  54.0926993  65.3074913  40.7676493  54.0136993  64.4974913  40.4516493
  53.6486993  65.7944913  40.1956493  54.0156993  65.2594913  40.6366493
  59.6936993  61.4264913  33.2506493  60.4106993  61.0794913  32.8946493
  59.6596993  62.2264913  32.9026493  59.7946993  61.4934913  33.1466493
  51.6646993  67.5514913  44.3486493  52.1576993  67.4954913  45.0666493
  51.8526993  66.8184913  43.9136493  51.7656993  67.4344913  44.3906493
  61.1026993  50.0674913  17.4894083  60.8576993  50.5554913  16.8094083
  61.9656993  49.9944913  17.3894083  61.1936993  50.1284913  17.3744083
  60.9116993  56.9834913  22.1604083  60.3876993  57.5794913  22.5234083
  61.3086993  56.6154913  22.8444083  60.8926993  57.0174913  22.3154083
  50.7806993  61.1234913  17.6164083  50.3396993  61.2414913  18.3594083
  50.4976993  60.3484913  17.3314083  50.6736993  61.0264913  17.6844083
  67.0556993  64.4244913  15.1314083  67.7566993  63.9054913  15.1274083
  66.4686993  63.9794913  14.6624083  67.0726993  64.2814913  15.0614083
  50.5236993  54.9154913  14.1234083  49.7456993  55.0774913  13.7634083
  50.5626993  54.0444913  14.1454083  50.4146993  54.8104913  14.0734083
  53.6626993  60.1784913  12.7954083  53.2706993  59.8074913  12.1094083
  53.5826993  59.5804913  13.4244083  53.5926993  60.0354913  12.7864083
  63.5826993  58.0504913  18.8364083  63.6626993  58.0544913  17.9674083
  62.9986993  57.4184913  18.9854083  63.5076993  57.9574913  18.7304083
  53.2896993  61.8194913  16.6954083  53.8976993  61.6494913  17.2984083
  52.5386993  61.6794913  17.1164083  53.2686993  61.7734913  16.8464083
  57.5716993  51.1544913  16.6444083  57.5016993  51.8314913  16.0984083
  58.3126993  50.7664913  16.3954083  57.6706993  51.1974913  16.5264083
  52.1806993  64.9104913  12.7724083  52.6476993  64.9944913  12.0404083
  52.6356993  64.3324913  13.2414083  52.3166993  64.8374913  12.7334083
  50.7206993  63.8584913  23.8714083  50.8496993  63.5784913  24.6874083
  50.1106993  63.3174913  23.5624083  50.6496993  63.7374913  23.9464083
  57.2946993  61.3834913  28.9384083  57.0586993  61.3804913  29.7784083
  56.5466993  61.2354913  28.5144083  57.1486993  61.3604913  28.9994083
  52.1666993  58.3794913  18.0734083  51.7046993  57.9874913  17.4464083
  52.8666993  57.8664913  18.1654083  52.2016993  58.2464913  17.9944083
  56.6746993  53.9894913  23.4204083  57.3526993  54.0074913  22.8714083
  56.6296993  53.1534913  23.6654083  56.7676993  53.8684913  23.3754083
  57.2766993  64.5754913  26.2014083  57.4146993  65.3354913  25.7944083
  58.0676993  64.2104913  26.2284083  57.4136993  64.6344913  26.1454083
  54.1676993  56.4794913  18.0964083  54.9846993  56.2924913  18.3394083
  53.6906993  55.8654913  18.4924083  54.2176993  56.3614913  18.1914083
  58.3716993  62.4604913  20.7064083  58.7196993  61.6614913  20.7364083
  59.0366993  62.9644913  20.4514083  58.5216993  62.4164913  20.6734083
  58.4286993  61.9094913  16.9174083  58.7596993  61.2654913  17.4034083
  58.6686993  61.6984913  16.1064083  58.5126993  61.7834913  16.8694083
  60.3966993  56.0404913  28.2564083  59.5486993  55.9414913  28.0784083
  60.4256993  56.7854913  28.7104083  60.2756993  56.1364913  28.2974083
  54.7646993  51.5734913  17.3624083  54.4686993  52.0744913  16.7124083
  55.6316993  51.6514913  17.3054083  54.8486993  51.6594913  17.2584083
  64.9546993  49.0004913  27.3704083  64.7966993  49.7694913  26.9884083
  64.1826993  48.7804913  27.7144083  64.8166993  49.0814913  27.3654083
  57.7436993  50.7154913  19.5854083  57.8166993  51.5754913  19.7144083
  57.7056993  50.6404913  18.7174083  57.7486993  50.8314913  19.4764083
  62.4166993  53.6414913  11.8844083  61.9666993  54.3224913  12.1914083
  62.5306993  53.1374913  12.5874083  62.3676993  53.6674913  12.0334083
  50.6226993  56.1404913  21.0864083  50.3666993  56.9714913  21.0114083
  49.9586993  55.7574913  21.5034083  50.4866993  56.2064913  21.1374083
  50.5326993  65.8504913  18.9864083  49.9406993  66.4084913  18.6734083
  50.9586993  65.5814913  18.2744083  50.5086993  65.8924913  18.8354083
  56.3726993  63.6944913  16.4664083  55.7936993  63.4194913  17.0584083
  56.9966993  63.0854913  16.4914083  56.3796993  63.5644913  16.5574083
  62.5156993  65.9824913  13.9884083  63.2426993  66.4544913  14.0904083
  62.7446993  65.1884913  14.2684083  62.6576993  65.9354913  14.0454083
  60.6836993  66.3744913  15.9784083  60.8976993  66.9014913  16.6404083
  61.4506993  66.2004913  15.5994083  60.8286993  66.4264913  16.0204083
  53.6516993  50.9574913  21.5774083  53.1306993  50.3294913  21.2694083
  54.2426993  50.5204913  22.0484083  53.6626993  50.7994913  21.6014083
  56.9576993  53.0904913  30.8754083  57.0746993  52.6364913  30.1394083
  57.2456993  53.8884913  30.6724083  57.0176993  53.1414913  30.7364083
  52.0776993  64.5204913  16.9174083  52.7336993  63.9454913  16.9324083
  52.4666993  65.2694913  16.6964083  52.2326993  64.5454913  16.8874083
  67.8106993  53.6144913  18.1794083  67.4646993  54.2924913  18.6054083
  67.1746993  53.0164913  18.1954083  67.6656993  53.6264913  18.2444083
  63.1226993  66.3844913  24.2834083  63.8666993  66.8404913  24.2734083
  63.0016993  66.1704913  23.4464083  63.2146993  66.4204913  24.1584083
  52.6906993  52.6874913  29.8594083  51.9126993  52.2974913  29.7874083
  53.1816993  52.2754913  29.2684083  52.6476993  52.5684913  29.7614083
  52.8956993  63.0074913  20.4174083  53.3186993  62.6514913  19.7434083
  53.2196993  62.5854913  21.1094083  53.0056993  62.8924913  20.4204083
  56.1266993  65.8594913  19.7134083  56.9706993  65.9634913  19.5184083
  55.8296993  66.6774913  19.7814083  56.2076993  65.9954913  19.6944083
  59.3396993  50.3304913  29.0274083  59.5176993  49.5214913  28.7524083
  59.1966993  50.7714913  28.2884083  59.3446993  50.2764913  28.8774083
  59.9336993  55.2564913  17.8004083  60.2206993  55.0244913  17.0104083
  60.6656993  55.3354913  18.2694083  60.0836993  55.2334913  17.7534083
  60.6556993  55.5954913  12.9214083  60.9366993  56.3834913  13.1704083
  59.8796993  55.7604913  12.5584083  60.5826993  55.7364913  12.9044083
  64.6966993  67.5694913  14.3884083  65.3616993  67.4214913  13.8434083
  65.0566993  67.4864913  15.1784083  64.8486993  67.5354913  14.4244083
  55.1246993  67.0784913  25.4534083  55.4166993  67.0114913  26.2734083
  54.4986993  66.4734913  25.4084083  55.0756993  66.9794913  25.5684083
  67.4856993  51.9374913  23.5484083  68.2426993  52.0094913  23.1204083
  67.5486993  51.1644913  23.9474083  67.6066993  51.8344913  23.5434083
  50.0386993  53.2354913  27.4454083  50.0346993  53.8224913  28.0914083
  50.6326993  53.5474913  26.8884083  50.1256993  53.3684913  27.4584083
  62.3766993  63.5694913  27.9874083  62.3426993  63.9514913  28.7714083
  63.2306993  63.5274913  27.8164083  62.4976993  63.6194913  28.0784083
  59.5146993  63.7664913  12.7374083  59.3336993  64.3114913  13.3944083
  60.2806993  64.0564913  12.4364083  59.6006993  63.8904913  12.7904083
  63.0216993  51.6624913  13.7914083  63.5616993  50.9804913  13.8674083
  63.0836993  52.0604913  14.5654083  63.1106993  51.6204913  13.9174083
  50.9756993  52.8304913  16.3604083  50.8616993  51.9664913  16.3914083
  50.5006993  53.1244913  17.0304083  50.8886993  52.7464913  16.4634083
  53.1176993  65.2404913  24.5754083  52.4196993  64.7324913  24.7014083
  53.3776993  65.0354913  23.7674083  53.0526993  65.1354913  24.4744083
  60.2796993  54.0384913  15.1054083  59.7716993  53.3764913  14.8514083
  60.3316993  54.5424913  14.3954083  60.2126993  54.0154913  14.9634083
  60.8286993  66.7334913  25.4854083  61.5966993  66.6534913  25.0794083
  60.2456993  66.6124913  24.8474083  60.8556993  66.7034913  25.3314083
  60.2796993  50.9794913  14.9964083  59.8246993  50.5774913  14.3704083
  61.0526993  51.1344913  14.6214083  60.3266993  50.9434913  14.8484083
  67.1056993  67.3364913  18.3864083  66.6506993  68.0534913  18.5874083
  66.4916993  66.7654913  18.1444083  66.9476993  67.3584913  18.3804083
  58.8776993  53.3464913  19.5184083  58.9516993  53.9144913  18.8604083
  58.9986993  53.8384913  20.2284083  58.9056993  53.5034913  19.5264083
  64.1026993  63.1814913  17.9304083  64.8036993  62.6994913  18.1194083
  63.4426993  62.6124913  17.9754083  64.1086993  63.0264913  17.9644083
  54.4786993  64.0914913  27.1424083  55.3196993  64.1544913  26.9204083
  54.4416993  64.4884913  27.9184083  54.5976993  64.1594913  27.2244083
  53.4856993  49.1694913  17.8664083  54.0216993  49.8574913  17.8564083
  53.4886993  48.8954913  17.0384083  53.5646993  49.2304913  17.7424083
  56.4416993  59.6024913  21.8914083  56.6136993  59.3924913  22.7204083
  55.7866993  59.0684913  21.6754083  56.3706993  59.4924913  21.9824083
  57.1916993  59.5404913  24.4814083  57.2446993  60.3874913  24.6834083
  56.9066993  59.1704913  25.2184083  57.1576993  59.6104913  24.6194083
  63.3686993  60.2354913  23.6114083  62.8546993  59.8234913  24.1824083
  63.2426993  61.0794913  23.7924083  63.2746993  60.2994913  23.7224083
  63.9256993  49.4604913  18.2424083  63.9746993  49.1424913  19.0534083
  64.2486993  48.8164913  17.7494083  63.9806993  49.3184913  18.2894083
  50.0126993  63.9114913  30.6924083  50.7686993  64.2604913  30.9504083
  50.1896993  63.0584913  30.6354083  50.1506993  63.8364913  30.7224083
  66.3896993  53.6964913  26.5504083  67.1616993  53.4714913  26.8874083
  65.9146993  53.9134913  27.2504083  66.4336993  53.6954913  26.7034083
  53.9336993  52.9794913  19.5204083  54.2056993  52.5494913  18.8124083
  53.7576993  52.3434913  20.0914083  53.9476993  52.8224913  19.5004083
  66.6216993  60.6744913  13.7384083  66.7406993  60.3874913  14.5534083
  67.4286993  60.6954913  13.4084083  66.7576993  60.6354913  13.8104083
  53.7576993  60.4064913  19.0694083  54.6086993  60.3264913  18.8964083
  53.4006993  59.7244913  18.6574083  53.8306993  60.2934913  18.9824083
  52.5246993  67.1314913  20.3064083  51.8516993  66.6334913  20.0614083
  52.9276993  67.3164913  19.5554083  52.4846993  67.0854913  20.1594083
  52.0746993  54.0814913  22.6024083  52.9176993  54.3014913  22.5594083
  51.6856993  54.6544913  22.0714083  52.1416993  54.1984913  22.5174083
  68.8556993  65.1834913  27.9924083  68.1736993  65.4934913  27.5454083
  68.4866993  64.7254913  28.6374083  68.6996993  65.1614913  28.0214083
  64.5166993  57.2114913  13.3234083  64.2966993  57.9424913  12.9014083
  64.0686993  57.2624913  14.0704083  64.4176993  57.3264913  13.3714083
  56.1256993  60.4134913  17.3044083  56.8386993  60.9084913  17.3944083
  56.3476993  59.8464913  16.6784083  56.2636993  60.4024913  17.2254083
  68.7036993  52.0724913  12.7764083  68.0416993  51.5044913  12.7994083
  68.5106993  52.5844913  12.0964083  68.5776993  52.0644913  12.6794083
  50.2816993  62.0564913  20.6244083  49.6146993  62.5444913  20.9004083
  50.9616993  62.6014913  20.6534083  50.2836993  62.2084913  20.6694083
  57.9286993  55.7664913  30.7204083  57.4446993  56.3434913  31.1624083
  57.9006993  56.0614913  29.8994083  57.8526993  55.8954913  30.6644083
  69.0266993  56.4504913  25.3324083  69.2416993  55.6504913  25.0564083
  68.1766993  56.5104913  25.1434083  68.9326993  56.3414913  25.2634083
  50.3476993  58.7404913  15.7274083  50.1626993  57.9014913  15.8794083
  51.0066993  58.7044913  15.1574083  50.4176993  58.6114913  15.6654083
  66.7056993  51.6304913  15.0554083  67.4516993  51.2234913  15.2544083
  66.9686993  52.3454913  14.6304083  66.8546993  51.6764913  15.0224083
  60.6486993  64.1164913  19.6314083  60.1256993  64.7504913  19.3384083
  60.9586993  63.7524913  18.9024083  60.6166993  64.1564913  19.4804083
  50.5196993  62.9044913  15.3024083  51.0716993  63.4734913  15.6664083
  50.2876993  62.3894913  15.9674083  50.5666993  62.9124913  15.4544083
  54.7236993  61.9044913  22.3914083  55.1906993  62.1934913  23.0694083
  55.2956993  61.4264913  21.9374083  54.8776993  61.8764913  22.4244083
  63.1596993  53.9184913  20.1284083  63.5036993  54.0704913  20.9154083
  62.7066993  53.1804913  20.2414083  63.1436993  53.8314913  20.2614083
  50.3496993  61.3534913  12.9304083  51.1056993  60.9214913  12.9884083
  50.3646993  61.8854913  13.6214083  50.4636993  61.3684913  13.0414083
  51.2896993  59.5744913  20.9354083  51.7206993  59.4454913  20.1884083
  51.0846993  60.4224913  20.9094083  51.3226993  59.6804913  20.8214083
  57.6356993  53.1384913  14.5854083  57.6336993  53.0214913  13.7204083
  57.4546993  53.9864913  14.6774083  57.6086993  53.2464913  14.4714083
  66.6896993  65.5654913  26.0824083  66.0186993  66.0794913  26.3004083
  66.7526993  65.6654913  25.2184083  66.5996993  65.6564913  25.9874083
  55.3736993  63.0904913  19.2174083  55.4996993  63.9334913  19.4044083
  56.0416993  62.6914913  19.6134083  55.4916993  63.1564913  19.3034083
  53.5036993  56.5734913  29.0794083  52.9676993  56.0674913  29.5474083
  53.5236993  56.1834913  28.2994083  53.4266993  56.4404913  29.0334083
  53.9886993  55.9704913  14.2194083  53.8606993  55.5224913  14.9574083
  53.4066993  55.6284913  13.6674083  53.8836993  55.8534913  14.2474083
  54.1556993  57.8004913  20.8184083  53.3746993  57.7414913  20.4354083
  54.2276993  57.0484913  21.2554083  54.0506993  57.6814913  20.8264083
  54.5856993  57.5374913  24.2864083  54.6106993  56.8624913  23.7354083
  53.9396993  58.0334913  23.9744083  54.4946993  57.5104913  24.1594083
  64.4806993  55.2504913  22.6824083  63.8186993  55.5784913  23.1454083
  64.6676993  55.8844913  22.1134083  64.4106993  55.3924913  22.6664083
  58.6856993  66.3144913  23.6784083  58.4086993  65.6734913  23.1554083
  58.4776993  67.0404913  23.2404083  58.6146993  66.3274913  23.5364083
  61.1256993  51.1564913  26.1114083  61.2746993  50.3314913  25.8684083
  61.5046993  51.2114913  26.8954083  61.2036993  51.0424913  26.1914083
  62.6736993  53.2194913  16.1934083  63.1636993  53.9364913  16.1164083
  61.8836993  53.4804913  15.9304083  62.6296993  53.3634913  16.1434083
  52.3846993  58.8924913  29.8454083  52.3476993  59.3934913  29.1314083
  52.7156993  58.1404913  29.5504083  52.4276993  58.8544913  29.6964083
  63.9876993  61.0974913  28.1034083  64.4716993  61.8154913  28.2014083
  64.3816993  60.6704913  27.4524083  64.1176993  61.1404913  28.0214083
  58.2836993  63.9424913  29.2804083  58.6376993  63.7644913  30.0574083
  57.8476993  63.2134913  29.0814083  58.2716993  63.8084913  29.3664083
  59.2556993  54.6894913  21.9184083  59.7356993  55.3884913  22.1264083
  59.6286993  54.0424913  22.3694083  59.3816993  54.6974913  22.0154083
  61.4446993  57.8584913  14.1924083  61.4366993  58.5804913  13.7024083
  60.8056993  57.9934913  14.7694083  61.3496993  57.9854913  14.2054083
  66.4166993  61.7284913  18.1734083  66.7726993  61.3784913  18.8884083
  66.4086993  61.0674913  17.6034083  66.4686993  61.5784913  18.1944083
  62.4616993  64.7944913  22.0174083  61.8586993  64.4984913  21.4604083
  63.0066993  65.2464913  21.5084083  62.4526993  64.8174913  21.8594083
  62.4746993  61.6454913  21.4174083  61.6776993  61.8694913  21.6914083
  62.7326993  61.0514913  22.0024083  62.3946993  61.5904913  21.5444083
  56.3666993  66.4574913  15.8654083  56.2196993  65.6814913  16.2364083
  57.0556993  66.3104913  15.3504083  56.4466993  66.3204913  15.8444083
  56.0376993  50.2004913  13.8534083  56.1346993  50.0934913  14.7144083
  55.3296993  50.7064913  13.7884083  55.9476993  50.2594913  13.9714083
  58.6586993  65.9734913  14.2674083  59.2806993  66.1364913  14.8574083
  58.6946993  66.6644913  13.7354083  58.7556993  66.0994913  14.2764083
  65.7346993  59.6434913  26.2634083  65.7896993  59.7684913  25.4014083
  66.4876993  59.9634913  26.5654083  65.8536993  59.7084913  26.1804083
  61.9256993  64.9924913  30.5404083  62.0896993  65.2754913  31.3494083
  62.1886993  65.6534913  30.0354083  61.9886993  65.1324913  30.5854083
  66.7666993  49.9414913  29.2504083  66.1296993  49.5414913  28.8084083
  66.7926993  49.5104913  30.0084083  66.6766993  49.8194913  29.2964083
  53.1596993  58.5074913  15.0964083  53.4836993  57.7284913  14.8744083
  53.8056993  58.8754913  15.5514083  53.3026993  58.4464913  15.1304083
  61.4656993  59.4494913  25.8634083  61.3106993  60.0594913  26.4674083
  61.9996993  58.8914913  26.2694083  61.5216993  59.4574913  26.0124083
  50.1566993  50.1684913  16.0644083  50.2856993  49.4604913  15.5724083
  49.7896993  49.8504913  16.7894083  50.1216993  50.0164913  16.0994083
  59.8496993  57.8494913  16.5214083  59.9086993  58.4994913  17.1004083
  59.6606993  57.1534913  17.0124083  59.8306993  57.8424913  16.6794083
  65.0756993  62.1784913  22.3904083  64.5966993  62.4764913  21.7244083
  64.7196993  61.4024913  22.5684083  64.9526993  62.1074913  22.3184083
  54.3456993  52.3664913  13.0334083  53.8346993  52.4194913  12.3274083
  55.1296993  52.6064913  12.7374083  54.3856993  52.4094913  12.8854083
  59.0726993  59.8964913  20.9524083  58.2256993  59.7024913  21.0334083
  59.3966993  59.7314913  21.7454083  58.9946993  59.8434913  21.0814083
  55.8246993  66.6264913  11.8384083  56.2636993  65.9294913  12.1264083
  56.0316993  67.2504913  12.4114083  55.9206993  66.6154913  11.9654083
  52.9206993  59.5894913  23.2684083  53.6426993  60.0774913  23.2314083
  52.6506993  59.5594913  22.4394083  52.9876993  59.6574913  23.1404083
  56.1506993  54.7604913  20.0034083  56.9966993  54.5704913  20.1014083
  55.7806993  53.9834913  19.8654083  56.2206993  54.6174913  19.9974083
  68.7676993  66.3444913  14.3304083  69.4616993  65.8774913  14.0824083
  68.2286993  65.7464913  14.6674083  68.7906993  66.1864913  14.3434083
  50.9716993  56.0984913  16.6584083  51.4606993  55.8064913  17.3194083
  51.1006993  55.5054913  16.0314083  51.0626993  55.9674913  16.6634083
  66.0066993  59.1204913  23.5094083  65.9996993  58.3444913  23.9074083
  65.1656993  59.3544913  23.5024083  65.8816993  59.0404913  23.5674083
  55.4966993  57.5324913  12.1444083  54.8866993  57.1274913  12.6184083
  55.1106993  57.6504913  11.3714083  55.3496993  57.4894913  12.1004083
  52.3156993  60.6414913  27.5464083  51.8946993  60.1234913  26.9854083
  51.9636993  61.4274913  27.4034083  52.2016993  60.6814913  27.4424083
  67.2626993  59.1914913  20.9464083  66.9766993  59.5924913  21.6664083
  68.1226993  59.1294913  21.0734083  67.3476993  59.2414913  21.0714083
  56.9516993  55.9934913  14.8544083  57.2236993  56.8194913  14.9214083
  56.0886993  56.0684913  14.7584083  56.8646993  56.1264913  14.8494083
  64.9246993  53.1154913  29.4864083  64.3996993  53.5744913  30.0104083
  64.5636993  52.3204913  29.4804083  64.7936993  53.0654913  29.5624083
  50.4316993  51.9634913  21.3904083  50.4756993  52.3074913  20.5894083
  51.1866993  52.2004913  21.7574083  50.5496993  52.0494913  21.3264083
  68.3936993  64.8244913  21.4754083  68.6836993  65.0814913  20.6944083
  69.0886993  64.9204913  21.9944083  68.5396993  64.8764913  21.4364083
  63.4166993  56.6844913  29.5624083  63.4896993  56.7884913  30.4254083
  62.7826993  57.2424913  29.3414083  63.3336993  56.7824913  29.6574083
  65.6846993  57.0034913  27.9274083  66.0036993  57.7894913  28.1304083
  65.3146993  56.7334913  28.6704083  65.6776993  57.0794913  28.0674083
  64.9986993  63.4274913  13.4574083  65.3326993  62.6214913  13.4924083
  64.2436993  63.3554913  13.8874083  64.9366993  63.2974913  13.5264083
  65.4806993  55.2614913  19.1164083  64.7356993  54.9384913  19.4344083
  65.4826993  56.0874913  19.3964083  65.3706993  55.3354913  19.2044083
  68.3826993  57.5454913  30.6624083  68.3306993  57.2044913  29.8614083
  69.1196993  58.0124913  30.6404083  68.4836993  57.5644913  30.5404083
  67.9206993  61.2214913  26.8684083  68.5486993  60.6724913  26.6124083
  67.8596993  61.7864913  26.2064083  68.0046993  61.2244913  26.7324083
  62.3726993  61.3024913  12.8604083  63.0566993  60.7884913  12.6914083
  61.9556993  61.3484913  12.0954083  62.4116993  61.2334913  12.7224083
  57.0546993  62.4524913  24.1644083  56.7566993  63.0444913  24.7314083
  57.1096993  62.8944913  23.4154083  57.0186993  62.6054913  24.1374083
  55.0336993  61.4024913  27.5624083  54.2276993  61.1124913  27.7294083
  54.9446993  62.2704913  27.5684083  54.9016993  61.4874913  27.5874083
  64.3926993  51.5914913  26.5774083  65.1366993  52.0434913  26.5144083
  63.8266993  52.0614913  26.1084083  64.4196993  51.7284913  26.4994083
  59.5706993  58.8754913  23.6554083  60.0466993  59.2494913  24.2834083
  58.7476993  59.0094913  23.9144083  59.5196993  58.9504913  23.7864083
  56.2806993  54.4784913  26.3964083  56.4416993  53.7344913  26.8234083
  56.2356993  54.2294913  25.5614083  56.2976993  54.3314913  26.3364083
  58.8346993  66.2684913  18.8834083  59.3806993  66.9474913  18.9374083
  58.4846993  66.3504913  18.0884083  58.8636993  66.3814913  18.7734083
  65.6776993  49.5714913  24.2474083  65.3976993  50.3964913  24.2034083
  66.3936993  49.6244913  24.7434083  65.7426993  49.7014913  24.3144083
  58.0326993  50.2864913  26.2764083  58.7376993  50.6064913  25.8744083
  58.2736993  49.4794913  26.5034083  58.1716993  50.2144913  26.2504083
  57.0176993  64.4964913  22.2724083  56.3936993  65.0784913  22.0904083
  57.2656993  64.2104913  21.4864083  56.9616993  64.5404913  22.1294083
  61.3266993  61.1304913  29.2614083  62.0836993  61.4164913  28.9354083
  60.7796993  61.1824913  28.5834083  61.3576993  61.1804913  29.1124083
  65.2356993  63.6804913  27.7654083  65.5816993  63.9504913  28.5194083
  65.5296993  64.2624913  27.1854083  65.3306993  63.8064913  27.7914083
  67.0986993  55.8264913  13.1044083  67.4766993  56.5034913  12.7044083
  66.2566993  56.0504913  13.1354083  67.0296993  55.9594913  13.0494083
  58.6116993  59.2724913  12.1874083  57.8066993  59.0954913  11.9024083
  58.5786993  60.1234913  12.3794083  58.4876993  59.3714913  12.1744083
  54.5416993  55.3394913  22.3374083  54.9816993  55.2364913  21.5914083
  55.0866993  55.0264913  22.9424083  54.6866993  55.2784913  22.3164083
  62.5576993  54.4414913  27.9294083  61.9096993  54.9114913  28.2774083
  63.1226993  54.3524913  28.5884083  62.5456993  54.4974913  28.0784083
  62.2456993  55.9784913  24.2274083  62.5476993  56.3984913  24.9304083
  62.2816993  55.1384913  24.4594083  62.2956993  55.9164913  24.3654083
  59.6706993  66.1454913  28.1524083  60.1486993  65.5454913  27.7364083
  59.3196993  65.7024913  28.8174083  59.6896993  65.9914913  28.1894083
  64.7936993  55.4254913  16.4794083  65.0006993  55.2244913  17.3034083
  65.5496993  55.6934913  16.1374083  64.9356993  55.4354913  16.5504083
  58.0886993  50.3244913  22.3844083  57.2626993  50.1754913  22.6214083
  58.0486993  50.3594913  21.5134083  57.9606993  50.3074913  22.2904083
  65.8156993  51.5084913  17.9534083  65.1016993  51.0374913  18.1244083
  65.6536993  51.8494913  17.1674083  65.6866993  51.4894913  17.8624083
  66.2586993  59.4524913  16.3334083  66.7346993  58.7234913  16.2854083
  65.4376993  59.1664913  16.2574083  66.2076993  59.3024913  16.3144083
  59.7296993  61.3644913  27.1724083  58.9346993  61.3004913  27.5234083
  59.8006993  62.2114913  26.9774083  59.6226993  61.4794913  27.1954083
  50.6536993  50.7224913  28.4194083  50.5136993  51.5174913  28.0884083
  49.8676993  50.4794913  28.7084083  50.5166993  50.8044913  28.4134083
  55.5596993  67.5714913  22.4894083  55.5706993  67.6304913  23.3594083
  55.1346993  66.8244913  22.3394083  55.4986993  67.4694913  22.5954083
  53.7176993  53.4664913  15.6444083  53.8436993  53.1374913  14.8464083
  52.9056993  53.2174913  15.8434083  53.6166993  53.3814913  15.5564083
  62.4746993  60.6194913  18.6884083  62.5506993  60.9604913  19.4874083
  62.6436993  59.7724913  18.8094083  62.5106993  60.5444913  18.8244083
  59.9966993  59.8934913  18.2534083  59.6986993  59.5784913  19.0104083
  60.6916993  60.3664913  18.4884083  60.0556993  59.9164913  18.4004083
  60.2186993  64.0114913  26.2804083  60.9056993  63.8974913  26.8054083
  60.3526993  64.8024913  25.9364083  60.3396993  64.1114913  26.3074083
  68.3946993  56.6204913  28.0914083  67.5396993  56.4984913  28.2174083
  68.5476993  56.2254913  27.3284083  68.2906993  56.5434913  27.9974083
  62.9076993  57.2854913  26.6674083  62.6526993  56.5664913  27.0894083
  63.7286993  57.4014913  26.9374083  62.9916993  57.1964913  26.7694083
  52.3236993  67.0694913  27.9314083  51.6696993  66.5004913  28.0294083
  51.9486993  67.8424913  28.0824083  52.1716993  67.0994913  27.9684083
  60.8416993  58.4754913  29.8544083  61.1646993  59.1614913  29.4224083
  60.1376993  58.7984913  30.2564083  60.7846993  58.6244913  29.8494083
  63.9256993  66.8494913  20.7834083  63.4746993  67.4924913  21.1624083
  64.6336993  66.7704913  21.2884083  63.9636993  66.9324913  20.9144083
  60.6266993  61.9394913  23.7134083  59.9326993  62.3414913  24.0564083
  61.3036993  62.3724913  24.0524083  60.6236993  62.0624913  23.8144083
  66.0036993  64.5324913  30.2934083  66.7796993  64.1424913  30.3764083
  65.5346993  64.1964913  30.9484083  66.0486993  64.4254913  30.4024083
  53.6946993  55.4774913  26.0604083  54.0696993  56.0964913  25.5734083
  54.3686993  55.0034913  26.3454083  53.8496993  55.4994913  26.0304083
  51.4696993  53.9254913  25.3354083  51.5466993  53.7564913  24.4824083
  52.2156993  54.3314913  25.5324083  51.5906993  53.9604913  25.2384083
  67.0286993  56.5654913  15.7754083  67.1316993  56.5074913  14.9114083
  67.7696993  56.2334913  16.0934083  67.1536993  56.5084913  15.6944083
  54.0236993  51.3354913  27.7464083  53.9426993  50.4914913  27.9524083
  53.7096993  51.3794913  26.9334083  53.9656993  51.2174913  27.6564083
  60.9486993  63.5304913  16.8824083  60.7436993  64.3634913  16.7234083
  60.1736993  63.1484913  17.0044083  60.8036993  63.5974913  16.8774083
  66.1306993  56.7114913  25.1314083  66.1286993  55.8484913  25.2554083
  66.1976993  57.0354913  25.9384083  66.1406993  56.6314913  25.2684083
  50.8666993  59.1514913  25.5594083  51.1866993  59.3704913  24.7784083
  50.7666993  58.2864913  25.5044083  50.8986993  59.0564913  25.4364083
  52.3226993  55.0874913  12.1774083  51.6506993  55.1014913  12.7334083
  52.4176993  54.2394913  11.9934083  52.2376993  54.9644913  12.2324083
  62.0096993  51.5114913  28.9134083  62.1016993  52.2234913  29.4074083
  61.3726993  51.0664913  29.3104083  61.9286993  51.5504913  29.0454083
  61.0036993  51.7014913  19.7674083  60.3036993  52.2194913  19.7114083
  61.0416993  51.3214913  18.9834083  60.9056993  51.7224913  19.6434083
  56.3106993  63.7924913  13.2914083  56.7516993  63.8724913  14.0394083
  55.5056993  63.5764913  13.5494083  56.2566993  63.7724913  13.4404083
  64.6016993  52.2174913  22.5674083  65.4566993  52.3164913  22.7124083
  64.2326993  52.7704913  23.1324083  64.6736993  52.3144913  22.6724083
  55.6296993  58.4434913  26.9444083  55.2336993  59.2174913  27.0194083
  55.2236993  58.0704913  26.2684083  55.5116993  58.5024913  26.8554083
  64.9056993  57.4974913  21.0584083  65.5716993  58.0384913  21.2184083
  64.5606993  57.8084913  20.3194083  64.9526993  57.6234913  20.9734083
  65.2186993  65.5634913  16.8654083  65.0446993  64.9094913  17.4154083
  65.9316993  65.2924913  16.4424083  65.2986993  65.4264913  16.8844083
  53.6396993  62.8624913  13.8924083  53.3956993  62.5554913  14.6724083
  53.6066993  62.1594913  13.3764083  53.5986993  62.7134913  13.9314083
  56.4586993  61.1074913  12.6354083  55.6406993  60.8394913  12.7754083
  56.4306993  61.9594913  12.8204083  56.3336993  61.1944913  12.6834083
  56.0586993  51.4204913  24.3944083  55.1946993  51.5044913  24.4744083
  56.2786993  50.9064913  25.0634083  55.9636993  51.3574913  24.5054083
  68.0766993  50.0554913  25.7234083  68.0246993  50.0114913  26.5934083
  68.7636993  49.5524913  25.5334083  68.1706993  49.9754913  25.8234083
  60.1616993  52.1684913  22.7684083  59.4246993  51.7144913  22.8814083
  60.7326993  51.7664913  23.2914083  60.1366993  52.0414913  22.8624083
  62.8936993  63.0164913  24.5564083  63.0996993  63.3174913  25.3484083
  62.8326993  63.7384913  24.0714083  62.9146993  63.1674913  24.6014083
  62.4276993  67.2304913  28.8024083  61.6746993  67.2124913  28.3614083
  62.5956993  68.0824913  28.8864083  62.3416993  67.3534913  28.7494083
  57.6646993  56.4974913  27.9724083  57.3426993  55.9214913  27.4024083
  57.3056993  57.2524913  27.7264083  57.5646993  56.5234913  27.8524083
  58.4606993  49.7494913  12.5994083  58.5386993  49.9964913  11.7664083
  57.7176993  50.1264913  12.8574083  58.3626993  49.8414913  12.5144083
  67.7056993  61.6554913  24.0144083  67.6736993  60.7934913  23.8794083
  67.0126993  61.9574913  23.5804083  67.5986993  61.5724913  23.9304083
  56.0996993  66.8534913  28.2204083  56.1406993  66.9794913  29.0834083
  56.7506993  66.2934913  28.0644083  56.2016993  66.7894913  28.3254083
  65.8106993  64.9154913  22.8114083  66.3376993  64.8324913  22.1204083
  65.4196993  64.1374913  22.8654083  65.8306993  64.7884913  22.7174083
  53.2786993  51.5034913  25.0424083  52.9356993  50.7364913  24.8084083
  52.5836993  52.0274913  25.1064083  53.1256993  51.4674913  25.0174083
  62.3246993  50.3594913  22.0194083  62.9946993  50.9034913  22.1464083
  61.8216993  50.7834913  21.4464083  62.3496993  50.5024913  21.9534083
  53.6926993  65.2364913  29.5804083  54.2876993  65.6674913  30.0524083
  53.3286993  65.8604913  29.0914083  53.7266993  65.3924913  29.5774083
  61.6836993  56.1674913  19.5124083  62.2346993  55.5604913  19.8124083
  61.2586993  56.4304913  20.2274083  61.7026993  56.1164913  19.6614083
  51.9316993  54.8174913  18.9984083  51.5636993  55.1194913  19.7294083
  52.4656993  54.1884913  19.2824083  51.9556993  54.7694913  19.1484083
  51.6196993  63.2254913  26.5094083  51.0456993  63.6414913  27.0184083
  52.3526993  63.6904913  26.6044083  51.6436993  63.3554913  26.5984083
  63.6536993  57.9984913  16.0744083  63.7216993  57.1484913  16.2554083
  62.8306993  58.0844913  15.7964083  63.5416993  57.8854913  16.0604083
  53.4056993  66.4924913  15.2844083  53.2606993  66.6484913  14.4384083
  54.2716993  66.5714913  15.3624083  53.5126993  66.5274913  15.1714083
  57.5726993  58.8894913  15.0124083  57.6726993  59.0284913  14.1574083
  58.3906993  58.8294913  15.3084083  57.7076993  58.9004913  14.9294083
  66.7326993  66.9534913  12.4924083  67.3696993  66.8194913  13.0734083
  66.3916993  66.1594913  12.3754083  66.7766993  66.8164913  12.5604083
  66.9276993  59.3714913  29.2254083  67.5616993  59.2014913  29.7994083
  67.3446993  59.7744913  28.5734083  67.0826993  59.4064913  29.2144083
  62.8076993  63.2184913  14.8144083  62.5566993  63.0904913  15.6404083
  62.4906993  62.5234913  14.3934083  62.7236993  63.0974913  14.8744083
  67.5526993  53.9354913  29.9634083  67.3566993  54.5794913  30.5184083
  66.8306993  53.4454913  29.9554083  67.4176993  53.9584913  30.0444083
  67.4516993  54.8764913  22.9344083  66.6186993  55.1264913  22.8624083
  67.3956993  54.0364913  23.1634083  67.3206993  54.7894913  22.9574083
  56.7116993  51.8644913  28.1284083  56.9456993  51.2884913  27.5154083
  55.8696993  51.6834913  28.2694083  56.6216993  51.7524913  28.0584083
  64.3386993  59.4824913  30.5804083  65.2096993  59.4464913  30.5444083
  64.1196993  59.9024913  29.8484083  64.4356993  59.5384913  30.4674083
  54.0926993  65.3074913  21.7614083  54.0136993  64.4974913  21.4454083
  53.6486993  65.7944913  21.1894083  54.0156993  65.2594913  21.6304083
  59.6936993  61.4264913  14.2444083  60.4106993  61.0794913  13.8884083
  59.6596993  62.2264913  13.8964083  59.7946993  61.4934913  14.1404083
  51.6646993  67.5514913  25.3424083  52.1576993  67.4954913  26.0604083
  51.8526993  66.8184913  24.9074083  51.7656993  67.4344913  25.3844083
  60.9116993  56.9834913   3.1541673  60.3876993  57.5794913   3.5171673
  61.3086993  56.6154913   3.8381673  60.8926993  57.0174913   3.3091673
  50.7206993  63.8584913   4.8651673  50.8496993  63.5784913   5.6811673
  50.1106993  63.3174913   4.5561673  50.6496993  63.7374913   4.9401673
  57.2946993  61.3834913   9.9321673  57.0586993  61.3804913  10.7721673
  56.5466993  61.2354913   9.5081673  57.1486993  61.3604913   9.9931673
  56.6746993  53.9894913   4.4141673  57.3526993  54.0074913   3.8651673
  56.6296993  53.1534913   4.6591673  56.7676993  53.8684913   4.3691673
  57.2766993  64.5754913   7.1951673  57.4146993  65.3354913   6.7881673
  58.0676993  64.2104913   7.2221673  57.4136993  64.6344913   7.1391673
  60.3966993  56.0404913   9.2501673  59.5486993  55.9414913   9.0721673
  60.4256993  56.7854913   9.7041673  60.2756993  56.1364913   9.2911673
  64.9546993  49.0004913   8.3641673  64.7966993  49.7694913   7.9821673
  64.1826993  48.7804913   8.7081673  64.8166993  49.0814913   8.3591673
  50.6226993  56.1404913   2.0801673  50.3666993  56.9714913   2.0051673
  49.9586993  55.7574913   2.4971673  50.4866993  56.2064913   2.1311673
  53.6516993  50.9574913   2.5711673  53.1306993  50.3294913   2.2631673
  54.2426993  50.5204913   3.0421673  53.6626993  50.7994913   2.5951673
  56.9576993  53.0904913  11.8691673  57.0746993  52.6364913  11.1331673
  57.2456993  53.8884913  11.6661673  57.0176993  53.1414913  11.7301673
  63.1226993  66.3844913   5.2771673  63.8666993  66.8404913   5.2671673
  63.0016993  66.1704913   4.4401673  63.2146993  66.4204913   5.1521673
  52.6906993  52.6874913  10.8531673  51.9126993  52.2974913  10.7811673
  53.1816993  52.2754913  10.2621673  52.6476993  52.5684913  10.7551673
  59.3396993  50.3304913  10.0211673  59.5176993  49.5214913   9.7461673
  59.1966993  50.7714913   9.2821673  59.3446993  50.2764913   9.8711673
  55.1246993  67.0784913   6.4471673  55.4166993  67.0114913   7.2671673
  54.4986993  66.4734913   6.4021673  55.0756993  66.9794913   6.5621673
  67.4856993  51.9374913   4.5421673  68.2426993  52.0094913   4.1141673
  67.5486993  51.1644913   4.9411673  67.6066993  51.8344913   4.5371673
  50.0386993  53.2354913   8.4391673  50.0346993  53.8224913   9.0851673
  50.6326993  53.5474913   7.8821673  50.1256993  53.3684913   8.4521673
  62.3766993  63.5694913   8.9811673  62.3426993  63.9514913   9.7651673
  63.2306993  63.5274913   8.8101673  62.4976993  63.6194913   9.0721673
  53.1176993  65.2404913   5.5691673  52.4196993  64.7324913   5.6951673
  53.3776993  65.0354913   4.7611673  53.0526993  65.1354913   5.4681673
  60.8286993  66.7334913   6.4791673  61.5966993  66.6534913   6.0731673
  60.2456993  66.6124913   5.8411673  60.8556993  66.7034913   6.3251673
  54.4786993  64.0914913   8.1361673  55.3196993  64.1544913   7.9141673
  54.4416993  64.4884913   8.9121673  54.5976993  64.1594913   8.2181673
  56.4416993  59.6024913   2.8851673  56.6136993  59.3924913   3.7141673
  55.7866993  59.0684913   2.6691673  56.3706993  59.4924913   2.9761673
  62.6696993  53.5164913   6.4001673  62.5746993  53.8354913   7.2061673
  62.0766993  52.8774913   6.3621673  62.5676993  53.4684913   6.5141673
  57.1916993  59.5404913   5.4751673  57.2446993  60.3874913   5.6771673
  56.9066993  59.1704913   6.2121673  57.1576993  59.6104913   5.6131673
  63.3686993  60.2354913   4.6051673  62.8546993  59.8234913   5.1761673
  63.2426993  61.0794913   4.7861673  63.2746993  60.2994913   4.7161673
  50.0126993  63.9114913  11.6861673  50.7686993  64.2604913  11.9441673
  50.1896993  63.0584913  11.6291673  50.1506993  63.8364913  11.7161673
  66.3896993  53.6964913   7.5441673  67.1616993  53.4714913   7.8811673
  65.9146993  53.9134913   8.2441673  66.4336993  53.6954913   7.6971673
  52.0746993  54.0814913   3.5961673  52.9176993  54.3014913   3.5531673
  51.6856993  54.6544913   3.0651673  52.1416993  54.1984913   3.5111673
  68.8556993  65.1834913   8.9861673  68.1736993  65.4934913   8.5391673
  68.4866993  64.7254913   9.6311673  68.6996993  65.1614913   9.0151673
  57.9286993  55.7664913  11.7141673  57.4446993  56.3434913  12.1561673
  57.9006993  56.0614913  10.8931673  57.8526993  55.8954913  11.6581673
  69.0266993  56.4504913   6.3261673  69.2416993  55.6504913   6.0501673
  68.1766993  56.5104913   6.1371673  68.9326993  56.3414913   6.2571673
  54.7236993  61.9044913   3.3851673  55.1906993  62.1934913   4.0631673
  55.2956993  61.4264913   2.9311673  54.8776993  61.8764913   3.4181673
  66.6896993  65.5654913   7.0761673  66.0186993  66.0794913   7.2941673
  66.7526993  65.6654913   6.2121673  66.5996993  65.6564913   6.9811673
  53.5036993  56.5734913  10.0731673  52.9676993  56.0674913  10.5411673
  53.5236993  56.1834913   9.2931673  53.4266993  56.4404913  10.0271673
  54.5856993  57.5374913   5.2801673  54.6106993  56.8624913   4.7291673
  53.9396993  58.0334913   4.9681673  54.4946993  57.5104913   5.1531673
  64.4806993  55.2504913   3.6761673  63.8186993  55.5784913   4.1391673
  64.6676993  55.8844913   3.1071673  64.4106993  55.3924913   3.6601673
  58.6856993  66.3144913   4.6721673  58.4086993  65.6734913   4.1491673
  58.4776993  67.0404913   4.2341673  58.6146993  66.3274913   4.5301673
  61.1256993  51.1564913   7.1051673  61.2746993  50.3314913   6.8621673
  61.5046993  51.2114913   7.8891673  61.2036993  51.0424913   7.1851673
  52.3846993  58.8924913  10.8391673  52.3476993  59.3934913  10.1251673
  52.7156993  58.1404913  10.5441673  52.4276993  58.8544913  10.6901673
  63.9876993  61.0974913   9.0971673  64.4716993  61.8154913   9.1951673
  64.3816993  60.6704913   8.4461673  64.1176993  61.1404913   9.0151673
  58.2836993  63.9424913  10.2741673  58.6376993  63.7644913  11.0511673
  57.8476993  63.2134913  10.0751673  58.2716993  63.8084913  10.3601673
  59.2556993  54.6894913   2.9121673  59.7356993  55.3884913   3.1201673
  59.6286993  54.0424913   3.3631673  59.3816993  54.6974913   3.0091673
  62.4616993  64.7944913   3.0111673  61.8586993  64.4984913   2.4541673
  63.0066993  65.2464913   2.5021673  62.4526993  64.8174913   2.8531673
  62.4746993  61.6454913   2.4111673  61.6776993  61.8694913   2.6851673
  62.7326993  61.0514913   2.9961673  62.3946993  61.5904913   2.5381673
  65.7346993  59.6434913   7.2571673  65.7896993  59.7684913   6.3951673
  66.4876993  59.9634913   7.5591673  65.8536993  59.7084913   7.1741673
  61.9256993  64.9924913  11.5341673  62.0896993  65.2754913  12.3431673
  62.1886993  65.6534913  11.0291673  61.9886993  65.1324913  11.5791673
  66.7666993  49.9414913  10.2441673  66.1296993  49.5414913   9.8021673
  66.7926993  49.5104913  11.0021673  66.6766993  49.8194913  10.2901673
  61.4656993  59.4494913   6.8571673  61.3106993  60.0594913   7.4611673
  61.9996993  58.8914913   7.2631673  61.5216993  59.4574913   7.0061673
  65.0756993  62.1784913   3.3841673  64.5966993  62.4764913   2.7181673
  64.7196993  61.4024913   3.5621673  64.9526993  62.1074913   3.3121673
  59.0726993  59.8964913   1.9461673  58.2256993  59.7024913   2.0271673
  59.3966993  59.7314913   2.7391673  58.9946993  59.8434913   2.0751673
  52.9206993  59.5894913   4.2621673  53.6426993  60.0774913   4.2251673
  52.6506993  59.5594913   3.4331673  52.9876993  59.6574913   4.1341673
  66.0066993  59.1204913   4.5031673  65.9996993  58.3444913   4.9011673
  65.1656993  59.3544913   4.4961673  65.8816993  59.0404913   4.5611673
  52.3156993  60.6414913   8.5401673  51.8946993  60.1234913   7.9791673
  51.9636993  61.4274913   8.3971673  52.2016993  60.6814913   8.4361673
  67.2626993  59.1914913   1.9401673  66.9766993  59.5924913   2.6601673
  68.1226993  59.1294913   2.0671673  67.3476993  59.2414913   2.0651673
  64.9246993  53.1154913  10.4801673  64.3996993  53.5744913  11.0041673
  64.5636993  52.3204913  10.4741673  64.7936993  53.0654913  10.5561673
  68.3936993  64.8244913   2.4691673  68.6836993  65.0814913   1.6881673
  69.0886993  64.9204913   2.9881673  68.5396993  64.8764913   2.4301673
  63.4166993  56.6844913  10.5561673  63.4896993  56.7884913  11.4191673
  62.7826993  57.2424913  10.3351673  63.3336993  56.7824913  10.6511673
  65.6846993  57.0034913   8.9211673  66.0036993  57.7894913   9.1241673
  65.3146993  56.7334913   9.6641673  65.6776993  57.0794913   9.0611673
  68.3826993  57.5454913  11.6561673  68.3306993  57.2044913  10.8551673
  69.1196993  58.0124913  11.6341673  68.4836993  57.5644913  11.5341673
  67.9206993  61.2214913   7.8621673  68.5486993  60.6724913   7.6061673
  67.8596993  61.7864913   7.2001673  68.0046993  61.2244913   7.7261673
  57.0546993  62.4524913   5.1581673  56.7566993  63.0444913   5.7251673
  57.1096993  62.8944913   4.4091673  57.0186993  62.6054913   5.1311673
  55.0336993  61.4024913   8.5561673  54.2276993  61.1124913   8.7231673
  54.9446993  62.2704913   8.5621673  54.9016993  61.4874913   8.5811673
  64.3926993  51.5914913   7.5711673  65.1366993  52.0434913   7.5081673
  63.8266993  52.0614913   7.1021673  64.4196993  51.7284913   7.4931673
  59.5706993  58.8754913   4.6491673  60.0466993  59.2494913   5.2771673
  58.7476993  59.0094913   4.9081673  59.5196993  58.9504913   4.7801673
  56.2806993  54.4784913   7.3901673  56.4416993  53.7344913   7.8171673
  56.2356993  54.2294913   6.5551673  56.2976993  54.3314913   7.3301673
  65.6776993  49.5714913   5.2411673  65.3976993  50.3964913   5.1971673
  66.3936993  49.6244913   5.7371673  65.7426993  49.7014913   5.3081673
  58.0326993  50.2864913   7.2701673  58.7376993  50.6064913   6.8681673
  58.2736993  49.4794913   7.4971673  58.1716993  50.2144913   7.2441673
  57.0176993  64.4964913   3.2661673  56.3936993  65.0784913   3.0841673
  57.2656993  64.2104913   2.4801673  56.9616993  64.5404913   3.1231673
  61.3266993  61.1304913  10.2551673  62.0836993  61.4164913   9.9291673
  60.7796993  61.1824913   9.5771673  61.3576993  61.1804913  10.1061673
  65.2356993  63.6804913   8.7591673  65.5816993  63.9504913   9.5131673
  65.5296993  64.2624913   8.1791673  65.3306993  63.8064913   8.7851673
  54.5416993  55.3394913   3.3311673  54.9816993  55.2364913   2.5851673
  55.0866993  55.0264913   3.9361673  54.6866993  55.2784913   3.3101673
  62.5576993  54.4414913   8.9231673  61.9096993  54.9114913   9.2711673
  63.1226993  54.3524913   9.5821673  62.5456993  54.4974913   9.0721673
  62.2456993  55.9784913   5.2211673  62.5476993  56.3984913   5.9241673
  62.2816993  55.1384913   5.4531673  62.2956993  55.9164913   5.3591673
  59.6706993  66.1454913   9.1461673  60.1486993  65.5454913   8.7301673
  59.3196993  65.7024913   9.8111673  59.6896993  65.9914913   9.1831673
  58.0886993  50.3244913   3.3781673  57.2626993  50.1754913   3.6151673
  58.0486993  50.3594913   2.5071673  57.9606993  50.3074913   3.2841673
  59.7296993  61.3644913   8.1661673  58.9346993  61.3004913   8.5171673
  59.8006993  62.2114913   7.9711673  59.6226993  61.4794913   8.1891673
  50.6536993  50.7224913   9.4131673  50.5136993  51.5174913   9.0821673
  49.8676993  50.4794913   9.7021673  50.5166993  50.8044913   9.4071673
  55.5596993  67.5714913   3.4831673  55.5706993  67.6304913   4.3531673
  55.1346993  66.8244913   3.3331673  55.4986993  67.4694913   3.5891673
  60.2186993  64.0114913   7.2741673  60.9056993  63.8974913   7.7991673
  60.3526993  64.8024913   6.9301673  60.3396993  64.1114913   7.3011673
  68.3946993  56.6204913   9.0851673  67.5396993  56.4984913   9.2111673
  68.5476993  56.2254913   8.3221673  68.2906993  56.5434913   8.9911673
  62.9076993  57.2854913   7.6611673  62.6526993  56.5664913   8.0831673
  63.7286993  57.4014913   7.9311673  62.9916993  57.1964913   7.7631673
  52.3236993  67.0694913   8.9251673  51.6696993  66.5004913   9.0231673
  51.9486993  67.8424913   9.0761673  52.1716993  67.0994913   8.9621673
  60.8416993  58.4754913  10.8481673  61.1646993  59.1614913  10.4161673
  60.1376993  58.7984913  11.2501673  60.7846993  58.6244913  10.8431673
  63.9256993  66.8494913   1.7771673  63.4746993  67.4924913   2.1561673
  64.6336993  66.7704913   2.2821673  63.9636993  66.9324913   1.9081673
  60.6266993  61.9394913   4.7071673  59.9326993  62.3414913   5.0501673
  61.3036993  62.3724913   5.0461673  60.6236993  62.0624913   4.8081673
  66.0036993  64.5324913  11.2871673  66.7796993  64.1424913  11.3701673
  65.5346993  64.1964913  11.9421673  66.0486993  64.4254913  11.3961673
  53.6946993  55.4774913   7.0541673  54.0696993  56.0964913   6.5671673
  54.3686993  55.0034913   7.3391673  53.8496993  55.4994913   7.0241673
  51.4696993  53.9254913   6.3291673  51.5466993  53.7564913   5.4761673
  52.2156993  54.3314913   6.5261673  51.5906993  53.9604913   6.2321673
  54.0236993  51.3354913   8.7401673  53.9426993  50.4914913   8.9461673
  53.7096993  51.3794913   7.9271673  53.9656993  51.2174913   8.6501673
  66.1306993  56.7114913   6.1251673  66.1286993  55.8484913   6.2491673
  66.1976993  57.0354913   6.9321673  66.1406993  56.6314913   6.2621673
  50.8666993  59.1514913   6.5531673  51.1866993  59.3704913   5.7721673
  50.7666993  58.2864913   6.4981673  50.8986993  59.0564913   6.4301673
  62.0096993  51.5114913   9.9071673  62.1016993  52.2234913  10.4011673
  61.3726993  51.0664913  10.3041673  61.9286993  51.5504913  10.0391673
  64.6016993  52.2174913   3.5611673  65.4566993  52.3164913   3.7061673
  64.2326993  52.7704913   4.1261673  64.6736993  52.3144913   3.6661673
  55.6296993  58.4434913   7.9381673  55.2336993  59.2174913   8.0131673
  55.2236993  58.0704913   7.2621673  55.5116993  58.5024913   7.8491673
  56.0586993  51.4204913   5.3881673  55.1946993  51.5044913   5.4681673
  56.2786993  50.9064913   6.0571673  55.9636993  51.3574913   5.4991673
  68.0766993  50.0554913   6.7171673  68.0246993  50.0114913   7.5871673
  68.7636993  49.5524913   6.5271673  68.1706993  49.9754913   6.8171673
  60.1616993  52.1684913   3.7621673  59.4246993  51.7144913   3.8751673
  60.7326993  51.7664913   4.2851673  60.1366993  52.0414913   3.8561673
  62.8936993  63.0164913   5.5501673  63.0996993  63.3174913   6.3421673
  62.8326993  63.7384913   5.0651673  62.9146993  63.1674913   5.5951673
  62.4276993  67.2304913   9.7961673  61.6746993  67.2124913   9.3551673
  62.5956993  68.0824913   9.8801673  62.3416993  67.3534913   9.7431673
  57.6646993  56.4974913   8.9661673  57.3426993  55.9214913   8.3961673
  57.3056993  57.2524913   8.7201673  57.5646993  56.5234913   8.8461673
  67.7056993  61.6554913   5.0081673  67.6736993  60.7934913   4.8731673
  67.0126993  61.9574913   4.5741673  67.5986993  61.5724913   4.9241673
  56.0996993  66.8534913   9.2141673  56.1406993  66.9794913  10.0771673
  56.7506993  66.2934913   9.0581673  56.2016993  66.7894913   9.3191673
  65.8106993  64.9154913   3.8051673  66.3376993  64.8324913   3.1141673
  65.4196993  64.1374913   3.8591673  65.8306993  64.7884913   3.7111673
  53.2786993  51.5034913   6.0361673  52.9356993  50.7364913   5.8021673
  52.5836993  52.0274913   6.1001673  53.1256993  51.4674913   6.0111673
  62.3246993  50.3594913   3.0131673  62.9946993  50.9034913   3.1401673
  61.8216993  50.7834913   2.4401673  62.3496993  50.5024913   2.9471673
  53.6926993  65.2364913  10.5741673  54.2876993  65.6674913  11.0461673
  53.3286993  65.8604913  10.0851673  53.7266993  65.3924913  10.5711673
  51.6196993  63.2254913   7.5031673  51.0456993  63.6414913   8.0121673
  52.3526993  63.6904913   7.5981673  51.6436993  63.3554913   7.5921673
  66.9276993  59.3714913  10.2191673  67.5616993  59.2014913  10.7931673
  67.3446993  59.7744913   9.5671673  67.0826993  59.4064913  10.2081673
  67.5526993  53.9354913  10.9571673  67.3566993  54.5794913  11.5121673
  66.8306993  53.4454913  10.9491673  67.4176993  53.9584913  11.0381673
  67.4516993  54.8764913   3.9281673  66.6186993  55.1264913   3.8561673
  67.3956993  54.0364913   4.1571673  67.3206993  54.7894913   3.9511673
  56.7116993  51.8644913   9.1221673  56.9456993  51.2884913   8.5091673
  55.8696993  51.6834913   9.2631673  56.6216993  51.7524913   9.0521673
  64.3386993  59.4824913  11.5741673  65.2096993  59.4464913  11.5381673
  64.1196993  59.9024913  10.8421673  64.4356993  59.5384913  11.4611673
  54.0926993  65.3074913   2.7551673  54.0136993  64.4974913   2.4391673
  53.6486993  65.7944913   2.1831673  54.0156993  65.2594913   2.6241673
  51.6646993  67.5514913   6.3361673  52.1576993  67.4954913   7.0541673
  51.8526993  66.8184913   5.9011673  51.7656993  67.4344913   6.3781673
  61.1026993  31.5893833  74.5081313  60.8576993  32.0773833  73.8281313
  61.9656993  31.5163833  74.4081313  61.1936993  31.6503833  74.3931313
  50.7806993  42.6453833  74.6351313  50.3396993  42.7633833  75.3781313
  50.4976993  41.8703833  74.3501313  50.6736993  42.5483833  74.7031313
  67.0556993  45.9463833  72.1501313  67.7566993  45.4273833  72.1461313
  66.4686993  45.5013833  71.6811313  67.0726993  45.8033833  72.0801313
  50.5236993  36.4373833  71.1421313  49.7456993  36.5993833  70.7821313
  50.5626993  35.5663833  71.1641313  50.4146993  36.3323833  71.0921313
  53.6626993  41.7003833  69.8141313  53.2706993  41.3293833  69.1281313
  53.5826993  41.1023833  70.4431313  53.5926993  41.5573833  69.8051313
  63.5826993  39.5723833  75.8551313  63.6626993  39.5763833  74.9861313
  62.9986993  38.9403833  76.0041313  63.5076993  39.4793833  75.7491313
  53.2896993  43.3413833  73.7141313  53.8976993  43.1713833  74.3171313
  52.5386993  43.2013833  74.1351313  53.2686993  43.2953833  73.8651313
  57.5716993  32.6763833  73.6631313  57.5016993  33.3533833  73.1171313
  58.3126993  32.2883833  73.4141313  57.6706993  32.7193833  73.5451313
  52.1806993  46.4323833  69.7911313  52.6476993  46.5163833  69.0591313
  52.6356993  45.8543833  70.2601313  52.3166993  46.3593833  69.7521313
  52.1666993  39.9013833  75.0921313  51.7046993  39.5093833  74.4651313
  52.8666993  39.3883833  75.1841313  52.2016993  39.7683833  75.0131313
  54.1676993  38.0013833  75.1151313  54.9846993  37.8143833  75.3581313
  53.6906993  37.3873833  75.5111313  54.2176993  37.8833833  75.2101313
  58.3716993  43.9823833  77.7251313  58.7196993  43.1833833  77.7551313
  59.0366993  44.4863833  77.4701313  58.5216993  43.9383833  77.6921313
  58.4286993  43.4313833  73.9361313  58.7596993  42.7873833  74.4221313
  58.6686993  43.2203833  73.1251313  58.5126993  43.3053833  73.8881313
  54.7646993  33.0953833  74.3811313  54.4686993  33.5963833  73.7311313
  55.6316993  33.1733833  74.3241313  54.8486993  33.1813833  74.2771313
  57.7436993  32.2373833  76.6041313  57.8166993  33.0973833  76.7331313
  57.7056993  32.1623833  75.7361313  57.7486993  32.3533833  76.4951313
  62.4166993  35.1633833  68.9031313  61.9666993  35.8443833  69.2101313
  62.5306993  34.6593833  69.6061313  62.3676993  35.1893833  69.0521313
  50.6226993  37.6623833  78.1051313  50.3666993  38.4933833  78.0301313
  49.9586993  37.2793833  78.5221313  50.4866993  37.7283833  78.1561313
  50.5326993  47.3723833  76.0051313  49.9406993  47.9303833  75.6921313
  50.9586993  47.1033833  75.2931313  50.5086993  47.4143833  75.8541313
  56.3726993  45.2163833  73.4851313  55.7936993  44.9413833  74.0771313
  56.9966993  44.6073833  73.5101313  56.3796993  45.0863833  73.5761313
  62.5156993  47.5043833  71.0071313  63.2426993  47.9763833  71.1091313
  62.7446993  46.7103833  71.2871313  62.6576993  47.4573833  71.0641313
  60.6836993  47.8963833  72.9971313  60.8976993  48.4233833  73.6591313
  61.4506993  47.7223833  72.6181313  60.8286993  47.9483833  73.0391313
  52.0776993  46.0423833  73.9361313  52.7336993  45.4673833  73.9511313
  52.4666993  46.7913833  73.7151313  52.2326993  46.0673833  73.9061313
  67.8106993  35.1363833  75.1981313  67.4646993  35.8143833  75.6241313
  67.1746993  34.5383833  75.2141313  67.6656993  35.1483833  75.2631313
  52.8956993  44.5293833  77.4361313  53.3186993  44.1733833  76.7621313
  53.2196993  44.1073833  78.1281313  53.0056993  44.4143833  77.4391313
  56.1266993  47.3813833  76.7321313  56.9706993  47.4853833  76.5371313
  55.8296993  48.1993833  76.8001313  56.2076993  47.5173833  76.7131313
  59.9336993  36.7783833  74.8191313  60.2206993  36.5463833  74.0291313
  60.6656993  36.8573833  75.2881313  60.0836993  36.7553833  74.7721313
  60.6556993  37.1173833  69.9401313  60.9366993  37.9053833  70.1891313
  59.8796993  37.2823833  69.5771313  60.5826993  37.2583833  69.9231313
  64.6966993  49.0913833  71.4071313  65.3616993  48.9433833  70.8621313
  65.0566993  49.0083833  72.1971313  64.8486993  49.0573833  71.4431313
  59.5146993  45.2883833  69.7561313  59.3336993  45.8333833  70.4131313
  60.2806993  45.5783833  69.4551313  59.6006993  45.4123833  69.8091313
  63.0216993  33.1843833  70.8101313  63.5616993  32.5023833  70.8861313
  63.0836993  33.5823833  71.5841313  63.1106993  33.1423833  70.9361313
  50.9756993  34.3523833  73.3791313  50.8616993  33.4883833  73.4101313
  50.5006993  34.6463833  74.0491313  50.8886993  34.2683833  73.4821313
  60.2796993  35.5603833  72.1241313  59.7716993  34.8983833  71.8701313
  60.3316993  36.0643833  71.4141313  60.2126993  35.5373833  71.9821313
  60.2796993  32.5013833  72.0151313  59.8246993  32.0993833  71.3891313
  61.0526993  32.6563833  71.6401313  60.3266993  32.4653833  71.8671313
  67.1056993  48.8583833  75.4051313  66.6506993  49.5753833  75.6061313
  66.4916993  48.2873833  75.1631313  66.9476993  48.8803833  75.3991313
  58.8776993  34.8683833  76.5371313  58.9516993  35.4363833  75.8791313
  58.9986993  35.3603833  77.2471313  58.9056993  35.0253833  76.5451313
  64.1026993  44.7033833  74.9491313  64.8036993  44.2213833  75.1381313
  63.4426993  44.1343833  74.9941313  64.1086993  44.5483833  74.9831313
  53.4856993  30.6913833  74.8851313  54.0216993  31.3793833  74.8751313
  53.4886993  30.4173833  74.0571313  53.5646993  30.7523833  74.7611313
  63.9256993  30.9823833  75.2611313  63.9746993  30.6643833  76.0721313
  64.2486993  30.3383833  74.7681313  63.9806993  30.8403833  75.3081313
  53.9336993  34.5013833  76.5391313  54.2056993  34.0713833  75.8311313
  53.7576993  33.8653833  77.1101313  53.9476993  34.3443833  76.5191313
  66.6216993  42.1963833  70.7571313  66.7406993  41.9093833  71.5721313
  67.4286993  42.2173833  70.4271313  66.7576993  42.1573833  70.8291313
  53.7576993  41.9283833  76.0881313  54.6086993  41.8483833  75.9151313
  53.4006993  41.2463833  75.6761313  53.8306993  41.8153833  76.0011313
  52.5246993  48.6533833  77.3251313  51.8516993  48.1553833  77.0801313
  52.9276993  48.8383833  76.5741313  52.4846993  48.6073833  77.1781313
  64.5166993  38.7333833  70.3421313  64.2966993  39.4643833  69.9201313
  64.0686993  38.7843833  71.0891313  64.4176993  38.8483833  70.3901313
  56.1256993  41.9353833  74.3231313  56.8386993  42.4303833  74.4131313
  56.3476993  41.3683833  73.6971313  56.2636993  41.9243833  74.2441313
  68.7036993  33.5943833  69.7951313  68.0416993  33.0263833  69.8181313
  68.5106993  34.1063833  69.1151313  68.5776993  33.5863833  69.6981313
  50.2816993  43.5783833  77.6431313  49.6146993  44.0663833  77.9191313
  50.9616993  44.1233833  77.6721313  50.2836993  43.7303833  77.6881313
  50.3476993  40.2623833  72.7461313  50.1626993  39.4233833  72.8981313
  51.0066993  40.2263833  72.1761313  50.4176993  40.1333833  72.6841313
  66.7056993  33.1523833  72.0741313  67.4516993  32.7453833  72.2731313
  66.9686993  33.8673833  71.6491313  66.8546993  33.1983833  72.0411313
  60.6486993  45.6383833  76.6501313  60.1256993  46.2723833  76.3571313
  60.9586993  45.2743833  75.9211313  60.6166993  45.6783833  76.4991313
  50.5196993  44.4263833  72.3211313  51.0716993  44.9953833  72.6851313
  50.2876993  43.9113833  72.9861313  50.5666993  44.4343833  72.4731313
  63.1596993  35.4403833  77.1471313  63.5036993  35.5923833  77.9341313
  62.7066993  34.7023833  77.2601313  63.1436993  35.3533833  77.2801313
  50.3496993  42.8753833  69.9491313  51.1056993  42.4433833  70.0071313
  50.3646993  43.4073833  70.6401313  50.4636993  42.8903833  70.0601313
  51.2896993  41.0963833  77.9541313  51.7206993  40.9673833  77.2071313
  51.0846993  41.9443833  77.9281313  51.3226993  41.2023833  77.8401313
  57.6356993  34.6603833  71.6041313  57.6336993  34.5433833  70.7391313
  57.4546993  35.5083833  71.6961313  57.6086993  34.7683833  71.4901313
  55.3736993  44.6123833  76.2361313  55.4996993  45.4553833  76.4231313
  56.0416993  44.2133833  76.6321313  55.4916993  44.6783833  76.3221313
  53.9886993  37.4923833  71.2381313  53.8606993  37.0443833  71.9761313
  53.4066993  37.1503833  70.6861313  53.8836993  37.3753833  71.2661313
  54.1556993  39.3223833  77.8371313  53.3746993  39.2633833  77.4541313
  54.2276993  38.5703833  78.2741313  54.0506993  39.2033833  77.8451313
  62.6736993  34.7413833  73.2121313  63.1636993  35.4583833  73.1351313
  61.8836993  35.0023833  72.9491313  62.6296993  34.8853833  73.1621313
  61.4446993  39.3803833  71.2111313  61.4366993  40.1023833  70.7211313
  60.8056993  39.5153833  71.7881313  61.3496993  39.5073833  71.2241313
  66.4166993  43.2503833  75.1921313  66.7726993  42.9003833  75.9071313
  66.4086993  42.5893833  74.6221313  66.4686993  43.1003833  75.2131313
  62.4746993  43.1673833  78.4361313  61.6776993  43.3913833  78.7101313
  62.7326993  42.5733833  79.0211313  62.3946993  43.1123833  78.5631313
  56.3666993  47.9793833  72.8841313  56.2196993  47.2033833  73.2551313
  57.0556993  47.8323833  72.3691313  56.4466993  47.8423833  72.8631313
  56.0376993  31.7223833  70.8721313  56.1346993  31.6153833  71.7331313
  55.3296993  32.2283833  70.8071313  55.9476993  31.7813833  70.9901313
  58.6586993  47.4953833  71.2861313  59.2806993  47.6583833  71.8761313
  58.6946993  48.1863833  70.7541313  58.7556993  47.6213833  71.2951313
  53.1596993  40.0293833  72.1151313  53.4836993  39.2503833  71.8931313
  53.8056993  40.3973833  72.5701313  53.3026993  39.9683833  72.1491313
  50.1566993  31.6903833  73.0831313  50.2856993  30.9823833  72.5911313
  49.7896993  31.3723833  73.8081313  50.1216993  31.5383833  73.1181313
  59.8496993  39.3713833  73.5401313  59.9086993  40.0213833  74.1191313
  59.6606993  38.6753833  74.0311313  59.8306993  39.3643833  73.6981313
  54.3456993  33.8883833  70.0521313  53.8346993  33.9413833  69.3461313
  55.1296993  34.1283833  69.7561313  54.3856993  33.9313833  69.9041313
  59.0726993  41.4183833  77.9711313  58.2256993  41.2243833  78.0521313
  59.3966993  41.2533833  78.7641313  58.9946993  41.3653833  78.1001313
  55.8246993  48.1483833  68.8571313  56.2636993  47.4513833  69.1451313
  56.0316993  48.7723833  69.4301313  55.9206993  48.1373833  68.9841313
  56.1506993  36.2823833  77.0221313  56.9966993  36.0923833  77.1201313
  55.7806993  35.5053833  76.8841313  56.2206993  36.1393833  77.0161313
  68.7676993  47.8663833  71.3491313  69.4616993  47.3993833  71.1011313
  68.2286993  47.2683833  71.6861313  68.7906993  47.7083833  71.3621313
  50.9716993  37.6203833  73.6771313  51.4606993  37.3283833  74.3381313
  51.1006993  37.0273833  73.0501313  51.0626993  37.4893833  73.6821313
  55.4966993  39.0543833  69.1631313  54.8866993  38.6493833  69.6371313
  55.1106993  39.1723833  68.3901313  55.3496993  39.0113833  69.1191313
  67.2626993  40.7133833  77.9651313  66.9766993  41.1143833  78.6851313
  68.1226993  40.6513833  78.0921313  67.3476993  40.7633833  78.0901313
  56.9516993  37.5153833  71.8731313  57.2236993  38.3413833  71.9401313
  56.0886993  37.5903833  71.7771313  56.8646993  37.6483833  71.8681313
  50.4316993  33.4853833  78.4091313  50.4756993  33.8293833  77.6081313
  51.1866993  33.7223833  78.7761313  50.5496993  33.5713833  78.3451313
  68.3936993  46.3463833  78.4941313  68.6836993  46.6033833  77.7131313
  69.0886993  46.4423833  79.0131313  68.5396993  46.3983833  78.4551313
  64.9986993  44.9493833  70.4761313  65.3326993  44.1433833  70.5111313
  64.2436993  44.8773833  70.9061313  64.9366993  44.8193833  70.5451313
  65.4806993  36.7833833  76.1351313  64.7356993  36.4603833  76.4531313
  65.4826993  37.6093833  76.4151313  65.3706993  36.8573833  76.2231313
  62.3726993  42.8243833  69.8791313  63.0566993  42.3103833  69.7101313
  61.9556993  42.8703833  69.1141313  62.4116993  42.7553833  69.7411313
  58.8346993  47.7903833  75.9021313  59.3806993  48.4693833  75.9561313
  58.4846993  47.8723833  75.1071313  58.8636993  47.9033833  75.7921313
  67.0986993  37.3483833  70.1231313  67.4766993  38.0253833  69.7231313
  66.2566993  37.5723833  70.1541313  67.0296993  37.4813833  70.0681313
  58.6116993  40.7943833  69.2061313  57.8066993  40.6173833  68.9211313
  58.5786993  41.6453833  69.3981313  58.4876993  40.8933833  69.1931313
  64.7936993  36.9473833  73.4981313  65.0006993  36.7463833  74.3221313
  65.5496993  37.2153833  73.1561313  64.9356993  36.9573833  73.5691313
  65.8156993  33.0303833  74.9721313  65.1016993  32.5593833  75.1431313
  65.6536993  33.3713833  74.1861313  65.6866993  33.0113833  74.8811313
  66.2586993  40.9743833  73.3521313  66.7346993  40.2453833  73.3041313
  65.4376993  40.6883833  73.2761313  66.2076993  40.8243833  73.3331313
  53.7176993  34.9883833  72.6631313  53.8436993  34.6593833  71.8651313
  52.9056993  34.7393833  72.8621313  53.6166993  34.9033833  72.5751313
  62.4746993  42.1413833  75.7071313  62.5506993  42.4823833  76.5061313
  62.6436993  41.2943833  75.8281313  62.5106993  42.0663833  75.8431313
  59.9966993  41.4153833  75.2721313  59.6986993  41.1003833  76.0291313
  60.6916993  41.8883833  75.5071313  60.0556993  41.4383833  75.4191313
  63.9256993  48.3713833  77.8021313  63.4746993  49.0143833  78.1811313
  64.6336993  48.2923833  78.3071313  63.9636993  48.4543833  77.9331313
  67.0286993  38.0873833  72.7941313  67.1316993  38.0293833  71.9301313
  67.7696993  37.7553833  73.1121313  67.1536993  38.0303833  72.7131313
  60.9486993  45.0523833  73.9011313  60.7436993  45.8853833  73.7421313
  60.1736993  44.6703833  74.0231313  60.8036993  45.1193833  73.8961313
  52.3226993  36.6093833  69.1961313  51.6506993  36.6233833  69.7521313
  52.4176993  35.7613833  69.0121313  52.2376993  36.4863833  69.2511313
  61.0036993  33.2233833  76.7861313  60.3036993  33.7413833  76.7301313
  61.0416993  32.8433833  76.0021313  60.9056993  33.2443833  76.6621313
  56.3106993  45.3143833  70.3101313  56.7516993  45.3943833  71.0581313
  55.5056993  45.0983833  70.5681313  56.2566993  45.2943833  70.4591313
  64.9056993  39.0193833  78.0771313  65.5716993  39.5603833  78.2371313
  64.5606993  39.3303833  77.3381313  64.9526993  39.1453833  77.9921313
  65.2186993  47.0853833  73.8841313  65.0446993  46.4313833  74.4341313
  65.9316993  46.8143833  73.4611313  65.2986993  46.9483833  73.9031313
  53.6396993  44.3843833  70.9111313  53.3956993  44.0773833  71.6911313
  53.6066993  43.6813833  70.3951313  53.5986993  44.2353833  70.9501313
  56.4586993  42.6293833  69.6541313  55.6406993  42.3613833  69.7941313
  56.4306993  43.4813833  69.8391313  56.3336993  42.7163833  69.7021313
  58.4606993  31.2713833  69.6181313  58.5386993  31.5183833  68.7851313
  57.7176993  31.6483833  69.8761313  58.3626993  31.3633833  69.5331313
  61.6836993  37.6893833  76.5311313  62.2346993  37.0823833  76.8311313
  61.2586993  37.9523833  77.2461313  61.7026993  37.6383833  76.6801313
  51.9316993  36.3393833  76.0171313  51.5636993  36.6413833  76.7481313
  52.4656993  35.7103833  76.3011313  51.9556993  36.2913833  76.1671313
  63.6536993  39.5203833  73.0931313  63.7216993  38.6703833  73.2741313
  62.8306993  39.6063833  72.8151313  63.5416993  39.4073833  73.0791313
  53.4056993  48.0143833  72.3031313  53.2606993  48.1703833  71.4571313
  54.2716993  48.0933833  72.3811313  53.5126993  48.0493833  72.1901313
  57.5726993  40.4113833  72.0311313  57.6726993  40.5503833  71.1761313
  58.3906993  40.3513833  72.3271313  57.7076993  40.4223833  71.9481313
  66.7326993  48.4753833  69.5111313  67.3696993  48.3413833  70.0921313
  66.3916993  47.6813833  69.3941313  66.7766993  48.3383833  69.5791313
  62.8076993  44.7403833  71.8331313  62.5566993  44.6123833  72.6591313
  62.4906993  44.0453833  71.4121313  62.7236993  44.6193833  71.8931313
  54.0926993  46.8293833  78.7801313  54.0136993  46.0193833  78.4641313
  53.6486993  47.3163833  78.2081313  54.0156993  46.7813833  78.6491313
  59.6936993  42.9483833  71.2631313  60.4106993  42.6013833  70.9071313
  59.6596993  43.7483833  70.9151313  59.7946993  43.0153833  71.1591313
  61.1026993  31.5893833  55.5018903  60.8576993  32.0773833  54.8218903
  61.9656993  31.5163833  55.4018903  61.1936993  31.6503833  55.3868903
  60.9116993  38.5053833  60.1728903  60.3876993  39.1013833  60.5358903
  61.3086993  38.1373833  60.8568903  60.8926993  38.5393833  60.3278903
  50.7806993  42.6453833  55.6288903  50.3396993  42.7633833  56.3718903
  50.4976993  41.8703833  55.3438903  50.6736993  42.5483833  55.6968903
  67.0556993  45.9463833  53.1438903  67.7566993  45.4273833  53.1398903
  66.4686993  45.5013833  52.6748903  67.0726993  45.8033833  53.0738903
  50.5236993  36.4373833  52.1358903  49.7456993  36.5993833  51.7758903
  50.5626993  35.5663833  52.1578903  50.4146993  36.3323833  52.0858903
  53.6626993  41.7003833  50.8078903  53.2706993  41.3293833  50.1218903
  53.5826993  41.1023833  51.4368903  53.5926993  41.5573833  50.7988903
  63.5826993  39.5723833  56.8488903  63.6626993  39.5763833  55.9798903
  62.9986993  38.9403833  56.9978903  63.5076993  39.4793833  56.7428903
  53.2896993  43.3413833  54.7078903  53.8976993  43.1713833  55.3108903
  52.5386993  43.2013833  55.1288903  53.2686993  43.2953833  54.8588903
  57.5716993  32.6763833  54.6568903  57.5016993  33.3533833  54.1108903
  58.3126993  32.2883833  54.4078903  57.6706993  32.7193833  54.5388903
  52.1806993  46.4323833  50.7848903  52.6476993  46.5163833  50.0528903
  52.6356993  45.8543833  51.2538903  52.3166993  46.3593833  50.7458903
  50.7206993  45.3803833  61.8838903  50.8496993  45.1003833  62.6998903
  50.1106993  44.8393833  61.5748903  50.6496993  45.2593833  61.9588903
  57.2946993  42.9053833  66.9508903  57.0586993  42.9023833  67.7908903
  56.5466993  42.7573833  66.5268903  57.1486993  42.8823833  67.0118903
  52.1666993  39.9013833  56.0858903  51.7046993  39.5093833  55.4588903
  52.8666993  39.3883833  56.1778903  52.2016993  39.7683833  56.0068903
  56.6746993  35.5113833  61.4328903  57.3526993  35.5293833  60.8838903
  56.6296993  34.6753833  61.6778903  56.7676993  35.3903833  61.3878903
  57.2766993  46.0973833  64.2138903  57.4146993  46.8573833  63.8068903
  58.0676993  45.7323833  64.2408903  57.4136993  46.1563833  64.1578903
  54.1676993  38.0013833  56.1088903  54.9846993  37.8143833  56.3518903
  53.6906993  37.3873833  56.5048903  54.2176993  37.8833833  56.2038903
  58.3716993  43.9823833  58.7188903  58.7196993  43.1833833  58.7488903
  59.0366993  44.4863833  58.4638903  58.5216993  43.9383833  58.6858903
  58.4286993  43.4313833  54.9298903  58.7596993  42.7873833  55.4158903
  58.6686993  43.2203833  54.1188903  58.5126993  43.3053833  54.8818903
  60.3966993  37.5623833  66.2688903  59.5486993  37.4633833  66.0908903
  60.4256993  38.3073833  66.7228903  60.2756993  37.6583833  66.3098903
  54.7646993  33.0953833  55.3748903  54.4686993  33.5963833  54.7248903
  55.6316993  33.1733833  55.3178903  54.8486993  33.1813833  55.2708903
  64.9546993  30.5223833  65.3828903  64.7966993  31.2913833  65.0008903
  64.1826993  30.3023833  65.7268903  64.8166993  30.6033833  65.3778903
  57.7436993  32.2373833  57.5978903  57.8166993  33.0973833  57.7268903
  57.7056993  32.1623833  56.7298903  57.7486993  32.3533833  57.4888903
  62.4166993  35.1633833  49.8968903  61.9666993  35.8443833  50.2038903
  62.5306993  34.6593833  50.5998903  62.3676993  35.1893833  50.0458903
  50.6226993  37.6623833  59.0988903  50.3666993  38.4933833  59.0238903
  49.9586993  37.2793833  59.5158903  50.4866993  37.7283833  59.1498903
  50.5326993  47.3723833  56.9988903  49.9406993  47.9303833  56.6858903
  50.9586993  47.1033833  56.2868903  50.5086993  47.4143833  56.8478903
  56.3726993  45.2163833  54.4788903  55.7936993  44.9413833  55.0708903
  56.9966993  44.6073833  54.5038903  56.3796993  45.0863833  54.5698903
  62.5156993  47.5043833  52.0008903  63.2426993  47.9763833  52.1028903
  62.7446993  46.7103833  52.2808903  62.6576993  47.4573833  52.0578903
  60.6836993  47.8963833  53.9908903  60.8976993  48.4233833  54.6528903
  61.4506993  47.7223833  53.6118903  60.8286993  47.9483833  54.0328903
  53.6516993  32.4793833  59.5898903  53.1306993  31.8513833  59.2818903
  54.2426993  32.0423833  60.0608903  53.6626993  32.3213833  59.6138903
  56.9576993  34.6123833  68.8878903  57.0746993  34.1583833  68.1518903
  57.2456993  35.4103833  68.6848903  57.0176993  34.6633833  68.7488903
  52.0776993  46.0423833  54.9298903  52.7336993  45.4673833  54.9448903
  52.4666993  46.7913833  54.7088903  52.2326993  46.0673833  54.8998903
  67.8106993  35.1363833  56.1918903  67.4646993  35.8143833  56.6178903
  67.1746993  34.5383833  56.2078903  67.6656993  35.1483833  56.2568903
  63.1226993  47.9063833  62.2958903  63.8666993  48.3623833  62.2858903
  63.0016993  47.6923833  61.4588903  63.2146993  47.9423833  62.1708903
  52.6906993  34.2093833  67.8718903  51.9126993  33.8193833  67.7998903
  53.1816993  33.7973833  67.2808903  52.6476993  34.0903833  67.7738903
  52.8956993  44.5293833  58.4298903  53.3186993  44.1733833  57.7558903
  53.2196993  44.1073833  59.1218903  53.0056993  44.4143833  58.4328903
  56.1266993  47.3813833  57.7258903  56.9706993  47.4853833  57.5308903
  55.8296993  48.1993833  57.7938903  56.2076993  47.5173833  57.7068903
  59.3396993  31.8523833  67.0398903  59.5176993  31.0433833  66.7648903
  59.1966993  32.2933833  66.3008903  59.3446993  31.7983833  66.8898903
  59.9336993  36.7783833  55.8128903  60.2206993  36.5463833  55.0228903
  60.6656993  36.8573833  56.2818903  60.0836993  36.7553833  55.7658903
  60.6556993  37.1173833  50.9338903  60.9366993  37.9053833  51.1828903
  59.8796993  37.2823833  50.5708903  60.5826993  37.2583833  50.9168903
  64.6966993  49.0913833  52.4008903  65.3616993  48.9433833  51.8558903
  65.0566993  49.0083833  53.1908903  64.8486993  49.0573833  52.4368903
  55.1246993  48.6003833  63.4658903  55.4166993  48.5333833  64.2858903
  54.4986993  47.9953833  63.4208903  55.0756993  48.5013833  63.5808903
  67.4856993  33.4593833  61.5608903  68.2426993  33.5313833  61.1328903
  67.5486993  32.6863833  61.9598903  67.6066993  33.3563833  61.5558903
  50.0386993  34.7573833  65.4578903  50.0346993  35.3443833  66.1038903
  50.6326993  35.0693833  64.9008903  50.1256993  34.8903833  65.4708903
  62.3766993  45.0913833  65.9998903  62.3426993  45.4733833  66.7838903
  63.2306993  45.0493833  65.8288903  62.4976993  45.1413833  66.0908903
  59.5146993  45.2883833  50.7498903  59.3336993  45.8333833  51.4068903
  60.2806993  45.5783833  50.4488903  59.6006993  45.4123833  50.8028903
  63.0216993  33.1843833  51.8038903  63.5616993  32.5023833  51.8798903
  63.0836993  33.5823833  52.5778903  63.1106993  33.1423833  51.9298903
  50.9756993  34.3523833  54.3728903  50.8616993  33.4883833  54.4038903
  50.5006993  34.6463833  55.0428903  50.8886993  34.2683833  54.4758903
  53.1176993  46.7623833  62.5878903  52.4196993  46.2543833  62.7138903
  53.3776993  46.5573833  61.7798903  53.0526993  46.6573833  62.4868903
  60.2796993  35.5603833  53.1178903  59.7716993  34.8983833  52.8638903
  60.3316993  36.0643833  52.4078903  60.2126993  35.5373833  52.9758903
  60.8286993  48.2553833  63.4978903  61.5966993  48.1753833  63.0918903
  60.2456993  48.1343833  62.8598903  60.8556993  48.2253833  63.3438903
  60.2796993  32.5013833  53.0088903  59.8246993  32.0993833  52.3828903
  61.0526993  32.6563833  52.6338903  60.3266993  32.4653833  52.8608903
  67.1056993  48.8583833  56.3988903  66.6506993  49.5753833  56.5998903
  66.4916993  48.2873833  56.1568903  66.9476993  48.8803833  56.3928903
  58.8776993  34.8683833  57.5308903  58.9516993  35.4363833  56.8728903
  58.9986993  35.3603833  58.2408903  58.9056993  35.0253833  57.5388903
  64.1026993  44.7033833  55.9428903  64.8036993  44.2213833  56.1318903
  63.4426993  44.1343833  55.9878903  64.1086993  44.5483833  55.9768903
  54.4786993  45.6133833  65.1548903  55.3196993  45.6763833  64.9328903
  54.4416993  46.0103833  65.9308903  54.5976993  45.6813833  65.2368903
  53.4856993  30.6913833  55.8788903  54.0216993  31.3793833  55.8688903
  53.4886993  30.4173833  55.0508903  53.5646993  30.7523833  55.7548903
  56.4416993  41.1243833  59.9038903  56.6136993  40.9143833  60.7328903
  55.7866993  40.5903833  59.6878903  56.3706993  41.0143833  59.9948903
  62.6696993  35.0383833  63.4188903  62.5746993  35.3573833  64.2248903
  62.0766993  34.3993833  63.3808903  62.5676993  34.9903833  63.5328903
  57.1916993  41.0623833  62.4938903  57.2446993  41.9093833  62.6958903
  56.9066993  40.6923833  63.2308903  57.1576993  41.1323833  62.6318903
  63.3686993  41.7573833  61.6238903  62.8546993  41.3453833  62.1948903
  63.2426993  42.6013833  61.8048903  63.2746993  41.8213833  61.7348903
  63.9256993  30.9823833  56.2548903  63.9746993  30.6643833  57.0658903
  64.2486993  30.3383833  55.7618903  63.9806993  30.8403833  56.3018903
  50.0126993  45.4333833  68.7048903  50.7686993  45.7823833  68.9628903
  50.1896993  44.5803833  68.6478903  50.1506993  45.3583833  68.7348903
  66.3896993  35.2183833  64.5628903  67.1616993  34.9933833  64.8998903
  65.9146993  35.4353833  65.2628903  66.4336993  35.2173833  64.7158903
  53.9336993  34.5013833  57.5328903  54.2056993  34.0713833  56.8248903
  53.7576993  33.8653833  58.1038903  53.9476993  34.3443833  57.5128903
  66.6216993  42.1963833  51.7508903  66.7406993  41.9093833  52.5658903
  67.4286993  42.2173833  51.4208903  66.7576993  42.1573833  51.8228903
  53.7576993  41.9283833  57.0818903  54.6086993  41.8483833  56.9088903
  53.4006993  41.2463833  56.6698903  53.8306993  41.8153833  56.9948903
  52.5246993  48.6533833  58.3188903  51.8516993  48.1553833  58.0738903
  52.9276993  48.8383833  57.5678903  52.4846993  48.6073833  58.1718903
  52.0746993  35.6033833  60.6148903  52.9176993  35.8233833  60.5718903
  51.6856993  36.1763833  60.0838903  52.1416993  35.7203833  60.5298903
  68.8556993  46.7053833  66.0048903  68.1736993  47.0153833  65.5578903
  68.4866993  46.2473833  66.6498903  68.6996993  46.6833833  66.0338903
  64.5166993  38.7333833  51.3358903  64.2966993  39.4643833  50.9138903
  64.0686993  38.7843833  52.0828903  64.4176993  38.8483833  51.3838903
  56.1256993  41.9353833  55.3168903  56.8386993  42.4303833  55.4068903
  56.3476993  41.3683833  54.6908903  56.2636993  41.9243833  55.2378903
  68.7036993  33.5943833  50.7888903  68.0416993  33.0263833  50.8118903
  68.5106993  34.1063833  50.1088903  68.5776993  33.5863833  50.6918903
  50.2816993  43.5783833  58.6368903  49.6146993  44.0663833  58.9128903
  50.9616993  44.1233833  58.6658903  50.2836993  43.7303833  58.6818903
  57.9286993  37.2883833  68.7328903  57.4446993  37.8653833  69.1748903
  57.9006993  37.5833833  67.9118903  57.8526993  37.4173833  68.6768903
  69.0266993  37.9723833  63.3448903  69.2416993  37.1723833  63.0688903
  68.1766993  38.0323833  63.1558903  68.9326993  37.8633833  63.2758903
  50.3476993  40.2623833  53.7398903  50.1626993  39.4233833  53.8918903
  51.0066993  40.2263833  53.1698903  50.4176993  40.1333833  53.6778903
  66.7056993  33.1523833  53.0678903  67.4516993  32.7453833  53.2668903
  66.9686993  33.8673833  52.6428903  66.8546993  33.1983833  53.0348903
  60.6486993  45.6383833  57.6438903  60.1256993  46.2723833  57.3508903
  60.9586993  45.2743833  56.9148903  60.6166993  45.6783833  57.4928903
  50.5196993  44.4263833  53.3148903  51.0716993  44.9953833  53.6788903
  50.2876993  43.9113833  53.9798903  50.5666993  44.4343833  53.4668903
  54.7236993  43.4263833  60.4038903  55.1906993  43.7153833  61.0818903
  55.2956993  42.9483833  59.9498903  54.8776993  43.3983833  60.4368903
  63.1596993  35.4403833  58.1408903  63.5036993  35.5923833  58.9278903
  62.7066993  34.7023833  58.2538903  63.1436993  35.3533833  58.2738903
  50.3496993  42.8753833  50.9428903  51.1056993  42.4433833  51.0008903
  50.3646993  43.4073833  51.6338903  50.4636993  42.8903833  51.0538903
  51.2896993  41.0963833  58.9478903  51.7206993  40.9673833  58.2008903
  51.0846993  41.9443833  58.9218903  51.3226993  41.2023833  58.8338903
  57.6356993  34.6603833  52.5978903  57.6336993  34.5433833  51.7328903
  57.4546993  35.5083833  52.6898903  57.6086993  34.7683833  52.4838903
  66.6896993  47.0873833  64.0948903  66.0186993  47.6013833  64.3128903
  66.7526993  47.1873833  63.2308903  66.5996993  47.1783833  63.9998903
  55.3736993  44.6123833  57.2298903  55.4996993  45.4553833  57.4168903
  56.0416993  44.2133833  57.6258903  55.4916993  44.6783833  57.3158903
  53.5036993  38.0953833  67.0918903  52.9676993  37.5893833  67.5598903
  53.5236993  37.7053833  66.3118903  53.4266993  37.9623833  67.0458903
  53.9886993  37.4923833  52.2318903  53.8606993  37.0443833  52.9698903
  53.4066993  37.1503833  51.6798903  53.8836993  37.3753833  52.2598903
  54.1556993  39.3223833  58.8308903  53.3746993  39.2633833  58.4478903
  54.2276993  38.5703833  59.2678903  54.0506993  39.2033833  58.8388903
  54.5856993  39.0593833  62.2988903  54.6106993  38.3843833  61.7478903
  53.9396993  39.5553833  61.9868903  54.4946993  39.0323833  62.1718903
  64.4806993  36.7723833  60.6948903  63.8186993  37.1003833  61.1578903
  64.6676993  37.4063833  60.1258903  64.4106993  36.9143833  60.6788903
  58.6856993  47.8363833  61.6908903  58.4086993  47.1953833  61.1678903
  58.4776993  48.5623833  61.2528903  58.6146993  47.8493833  61.5488903
  61.1256993  32.6783833  64.1238903  61.2746993  31.8533833  63.8808903
  61.5046993  32.7333833  64.9078903  61.2036993  32.5643833  64.2038903
  62.6736993  34.7413833  54.2058903  63.1636993  35.4583833  54.1288903
  61.8836993  35.0023833  53.9428903  62.6296993  34.8853833  54.1558903
  52.3846993  40.4143833  67.8578903  52.3476993  40.9153833  67.1438903
  52.7156993  39.6623833  67.5628903  52.4276993  40.3763833  67.7088903
  63.9876993  42.6193833  66.1158903  64.4716993  43.3373833  66.2138903
  64.3816993  42.1923833  65.4648903  64.1176993  42.6623833  66.0338903
  58.2836993  45.4643833  67.2928903  58.6376993  45.2863833  68.0698903
  57.8476993  44.7353833  67.0938903  58.2716993  45.3303833  67.3788903
  59.2556993  36.2113833  59.9308903  59.7356993  36.9103833  60.1388903
  59.6286993  35.5643833  60.3818903  59.3816993  36.2193833  60.0278903
  61.4446993  39.3803833  52.2048903  61.4366993  40.1023833  51.7148903
  60.8056993  39.5153833  52.7818903  61.3496993  39.5073833  52.2178903
  66.4166993  43.2503833  56.1858903  66.7726993  42.9003833  56.9008903
  66.4086993  42.5893833  55.6158903  66.4686993  43.1003833  56.2068903
  62.4616993  46.3163833  60.0298903  61.8586993  46.0203833  59.4728903
  63.0066993  46.7683833  59.5208903  62.4526993  46.3393833  59.8718903
  62.4746993  43.1673833  59.4298903  61.6776993  43.3913833  59.7038903
  62.7326993  42.5733833  60.0148903  62.3946993  43.1123833  59.5568903
  56.3666993  47.9793833  53.8778903  56.2196993  47.2033833  54.2488903
  57.0556993  47.8323833  53.3628903  56.4466993  47.8423833  53.8568903
  56.0376993  31.7223833  51.8658903  56.1346993  31.6153833  52.7268903
  55.3296993  32.2283833  51.8008903  55.9476993  31.7813833  51.9838903
  58.6586993  47.4953833  52.2798903  59.2806993  47.6583833  52.8698903
  58.6946993  48.1863833  51.7478903  58.7556993  47.6213833  52.2888903
  65.7346993  41.1653833  64.2758903  65.7896993  41.2903833  63.4138903
  66.4876993  41.4853833  64.5778903  65.8536993  41.2303833  64.1928903
  61.9256993  46.5143833  68.5528903  62.0896993  46.7973833  69.3618903
  62.1886993  47.1753833  68.0478903  61.9886993  46.6543833  68.5978903
  66.7666993  31.4633833  67.2628903  66.1296993  31.0633833  66.8208903
  66.7926993  31.0323833  68.0208903  66.6766993  31.3413833  67.3088903
  53.1596993  40.0293833  53.1088903  53.4836993  39.2503833  52.8868903
  53.8056993  40.3973833  53.5638903  53.3026993  39.9683833  53.1428903
  61.4656993  40.9713833  63.8758903  61.3106993  41.5813833  64.4798903
  61.9996993  40.4133833  64.2818903  61.5216993  40.9793833  64.0248903
  50.1566993  31.6903833  54.0768903  50.2856993  30.9823833  53.5848903
  49.7896993  31.3723833  54.8018903  50.1216993  31.5383833  54.1118903
  59.8496993  39.3713833  54.5338903  59.9086993  40.0213833  55.1128903
  59.6606993  38.6753833  55.0248903  59.8306993  39.3643833  54.6918903
  65.0756993  43.7003833  60.4028903  64.5966993  43.9983833  59.7368903
  64.7196993  42.9243833  60.5808903  64.9526993  43.6293833  60.3308903
  54.3456993  33.8883833  51.0458903  53.8346993  33.9413833  50.3398903
  55.1296993  34.1283833  50.7498903  54.3856993  33.9313833  50.8978903
  59.0726993  41.4183833  58.9648903  58.2256993  41.2243833  59.0458903
  59.3966993  41.2533833  59.7578903  58.9946993  41.3653833  59.0938903
  55.8246993  48.1483833  49.8508903  56.2636993  47.4513833  50.1388903
  56.0316993  48.7723833  50.4238903  55.9206993  48.1373833  49.9778903
  52.9206993  41.1113833  61.2808903  53.6426993  41.5993833  61.2438903
  52.6506993  41.0813833  60.4518903  52.9876993  41.1793833  61.1528903
  56.1506993  36.2823833  58.0158903  56.9966993  36.0923833  58.1138903
  55.7806993  35.5053833  57.8778903  56.2206993  36.1393833  58.0098903
  68.7676993  47.8663833  52.3428903  69.4616993  47.3993833  52.0948903
  68.2286993  47.2683833  52.6798903  68.7906993  47.7083833  52.3558903
  50.9716993  37.6203833  54.6708903  51.4606993  37.3283833  55.3318903
  51.1006993  37.0273833  54.0438903  51.0626993  37.4893833  54.6758903
  66.0066993  40.6423833  61.5218903  65.9996993  39.8663833  61.9198903
  65.1656993  40.8763833  61.5148903  65.8816993  40.5623833  61.5798903
  55.4966993  39.0543833  50.1568903  54.8866993  38.6493833  50.6308903
  55.1106993  39.1723833  49.3838903  55.3496993  39.0113833  50.1128903
  52.3156993  42.1633833  65.5588903  51.8946993  41.6453833  64.9978903
  51.9636993  42.9493833  65.4158903  52.2016993  42.2033833  65.4548903
  67.2626993  40.7133833  58.9588903  66.9766993  41.1143833  59.6788903
  68.1226993  40.6513833  59.0858903  67.3476993  40.7633833  59.0838903
  56.9516993  37.5153833  52.8668903  57.2236993  38.3413833  52.9338903
  56.0886993  37.5903833  52.7708903  56.8646993  37.6483833  52.8618903
  64.9246993  34.6373833  67.4988903  64.3996993  35.0963833  68.0228903
  64.5636993  33.8423833  67.4928903  64.7936993  34.5873833  67.5748903
  50.4316993  33.4853833  59.4028903  50.4756993  33.8293833  58.6018903
  51.1866993  33.7223833  59.7698903  50.5496993  33.5713833  59.3388903
  68.3936993  46.3463833  59.4878903  68.6836993  46.6033833  58.7068903
  69.0886993  46.4423833  60.0068903  68.5396993  46.3983833  59.4488903
  63.4166993  38.2063833  67.5748903  63.4896993  38.3103833  68.4378903
  62.7826993  38.7643833  67.3538903  63.3336993  38.3043833  67.6698903
  65.6846993  38.5253833  65.9398903  66.0036993  39.3113833  66.1428903
  65.3146993  38.2553833  66.6828903  65.6776993  38.6013833  66.0798903
  64.9986993  44.9493833  51.4698903  65.3326993  44.1433833  51.5048903
  64.2436993  44.8773833  51.8998903  64.9366993  44.8193833  51.5388903
  65.4806993  36.7833833  57.1288903  64.7356993  36.4603833  57.4468903
  65.4826993  37.6093833  57.4088903  65.3706993  36.8573833  57.2168903
  68.3826993  39.0673833  68.6748903  68.3306993  38.7263833  67.8738903
  69.1196993  39.5343833  68.6528903  68.4836993  39.0863833  68.5528903
  67.9206993  42.7433833  64.8808903  68.5486993  42.1943833  64.6248903
  67.8596993  43.3083833  64.2188903  68.0046993  42.7463833  64.7448903
  62.3726993  42.8243833  50.8728903  63.0566993  42.3103833  50.7038903
  61.9556993  42.8703833  50.1078903  62.4116993  42.7553833  50.7348903
  57.0546993  43.9743833  62.1768903  56.7566993  44.5663833  62.7438903
  57.1096993  44.4163833  61.4278903  57.0186993  44.1273833  62.1498903
  55.0336993  42.9243833  65.5748903  54.2276993  42.6343833  65.7418903
  54.9446993  43.7923833  65.5808903  54.9016993  43.0093833  65.5998903
  64.3926993  33.1133833  64.5898903  65.1366993  33.5653833  64.5268903
  63.8266993  33.5833833  64.1208903  64.4196993  33.2503833  64.5118903
  59.5706993  40.3973833  61.6678903  60.0466993  40.7713833  62.2958903
  58.7476993  40.5313833  61.9268903  59.5196993  40.4723833  61.7988903
  56.2806993  36.0003833  64.4088903  56.4416993  35.2563833  64.8358903
  56.2356993  35.7513833  63.5738903  56.2976993  35.8533833  64.3488903
  58.8346993  47.7903833  56.8958903  59.3806993  48.4693833  56.9498903
  58.4846993  47.8723833  56.1008903  58.8636993  47.9033833  56.7858903
  65.6776993  31.0933833  62.2598903  65.3976993  31.9183833  62.2158903
  66.3936993  31.1463833  62.7558903  65.7426993  31.2233833  62.3268903
  58.0326993  31.8083833  64.2888903  58.7376993  32.1283833  63.8868903
  58.2736993  31.0013833  64.5158903  58.1716993  31.7363833  64.2628903
  57.0176993  46.0183833  60.2848903  56.3936993  46.6003833  60.1028903
  57.2656993  45.7323833  59.4988903  56.9616993  46.0623833  60.1418903
  61.3266993  42.6523833  67.2738903  62.0836993  42.9383833  66.9478903
  60.7796993  42.7043833  66.5958903  61.3576993  42.7023833  67.1248903
  65.2356993  45.2023833  65.7778903  65.5816993  45.4723833  66.5318903
  65.5296993  45.7843833  65.1978903  65.3306993  45.3283833  65.8038903
  67.0986993  37.3483833  51.1168903  67.4766993  38.0253833  50.7168903
  66.2566993  37.5723833  51.1478903  67.0296993  37.4813833  51.0618903
  58.6116993  40.7943833  50.1998903  57.8066993  40.6173833  49.9148903
  58.5786993  41.6453833  50.3918903  58.4876993  40.8933833  50.1868903
  54.5416993  36.8613833  60.3498903  54.9816993  36.7583833  59.6038903
  55.0866993  36.5483833  60.9548903  54.6866993  36.8003833  60.3288903
  62.5576993  35.9633833  65.9418903  61.9096993  36.4333833  66.2898903
  63.1226993  35.8743833  66.6008903  62.5456993  36.0193833  66.0908903
  62.2456993  37.5003833  62.2398903  62.5476993  37.9203833  62.9428903
  62.2816993  36.6603833  62.4718903  62.2956993  37.4383833  62.3778903
  59.6706993  47.6673833  66.1648903  60.1486993  47.0673833  65.7488903
  59.3196993  47.2243833  66.8298903  59.6896993  47.5133833  66.2018903
  64.7936993  36.9473833  54.4918903  65.0006993  36.7463833  55.3158903
  65.5496993  37.2153833  54.1498903  64.9356993  36.9573833  54.5628903
  58.0886993  31.8463833  60.3968903  57.2626993  31.6973833  60.6338903
  58.0486993  31.8813833  59.5258903  57.9606993  31.8293833  60.3028903
  65.8156993  33.0303833  55.9658903  65.1016993  32.5593833  56.1368903
  65.6536993  33.3713833  55.1798903  65.6866993  33.0113833  55.8748903
  66.2586993  40.9743833  54.3458903  66.7346993  40.2453833  54.2978903
  65.4376993  40.6883833  54.2698903  66.2076993  40.8243833  54.3268903
  59.7296993  42.8863833  65.1848903  58.9346993  42.8223833  65.5358903
  59.8006993  43.7333833  64.9898903  59.6226993  43.0013833  65.2078903
  50.6536993  32.2443833  66.4318903  50.5136993  33.0393833  66.1008903
  49.8676993  32.0013833  66.7208903  50.5166993  32.3263833  66.4258903
  55.5596993  49.0933833  60.5018903  55.5706993  49.1523833  61.3718903
  55.1346993  48.3463833  60.3518903  55.4986993  48.9913833  60.6078903
  53.7176993  34.9883833  53.6568903  53.8436993  34.6593833  52.8588903
  52.9056993  34.7393833  53.8558903  53.6166993  34.9033833  53.5688903
  62.4746993  42.1413833  56.7008903  62.5506993  42.4823833  57.4998903
  62.6436993  41.2943833  56.8218903  62.5106993  42.0663833  56.8368903
  59.9966993  41.4153833  56.2658903  59.6986993  41.1003833  57.0228903
  60.6916993  41.8883833  56.5008903  60.0556993  41.4383833  56.4128903
  60.2186993  45.5333833  64.2928903  60.9056993  45.4193833  64.8178903
  60.3526993  46.3243833  63.9488903  60.3396993  45.6333833  64.3198903
  68.3946993  38.1423833  66.1038903  67.5396993  38.0203833  66.2298903
  68.5476993  37.7473833  65.3408903  68.2906993  38.0653833  66.0098903
  62.9076993  38.8073833  64.6798903  62.6526993  38.0883833  65.1018903
  63.7286993  38.9233833  64.9498903  62.9916993  38.7183833  64.7818903
  52.3236993  48.5913833  65.9438903  51.6696993  48.0223833  66.0418903
  51.9486993  49.3643833  66.0948903  52.1716993  48.6213833  65.9808903
  60.8416993  39.9973833  67.8668903  61.1646993  40.6833833  67.4348903
  60.1376993  40.3203833  68.2688903  60.7846993  40.1463833  67.8618903
  63.9256993  48.3713833  58.7958903  63.4746993  49.0143833  59.1748903
  64.6336993  48.2923833  59.3008903  63.9636993  48.4543833  58.9268903
  60.6266993  43.4613833  61.7258903  59.9326993  43.8633833  62.0688903
  61.3036993  43.8943833  62.0648903  60.6236993  43.5843833  61.8268903
  66.0036993  46.0543833  68.3058903  66.7796993  45.6643833  68.3888903
  65.5346993  45.7183833  68.9608903  66.0486993  45.9473833  68.4148903
  53.6946993  36.9993833  64.0728903  54.0696993  37.6183833  63.5858903
  54.3686993  36.5253833  64.3578903  53.8496993  37.0213833  64.0428903
  51.4696993  35.4473833  63.3478903  51.5466993  35.2783833  62.4948903
  52.2156993  35.8533833  63.5448903  51.5906993  35.4823833  63.2508903
  67.0286993  38.0873833  53.7878903  67.1316993  38.0293833  52.9238903
  67.7696993  37.7553833  54.1058903  67.1536993  38.0303833  53.7068903
  54.0236993  32.8573833  65.7588903  53.9426993  32.0133833  65.9648903
  53.7096993  32.9013833  64.9458903  53.9656993  32.7393833  65.6688903
  60.9486993  45.0523833  54.8948903  60.7436993  45.8853833  54.7358903
  60.1736993  44.6703833  55.0168903  60.8036993  45.1193833  54.8898903
  66.1306993  38.2333833  63.1438903  66.1286993  37.3703833  63.2678903
  66.1976993  38.5573833  63.9508903  66.1406993  38.1533833  63.2808903
  50.8666993  40.6733833  63.5718903  51.1866993  40.8923833  62.7908903
  50.7666993  39.8083833  63.5168903  50.8986993  40.5783833  63.4488903
  52.3226993  36.6093833  50.1898903  51.6506993  36.6233833  50.7458903
  52.4176993  35.7613833  50.0058903  52.2376993  36.4863833  50.2448903
  62.0096993  33.0333833  66.9258903  62.1016993  33.7453833  67.4198903
  61.3726993  32.5883833  67.3228903  61.9286993  33.0723833  67.0578903
  61.0036993  33.2233833  57.7798903  60.3036993  33.7413833  57.7238903
  61.0416993  32.8433833  56.9958903  60.9056993  33.2443833  57.6558903
  56.3106993  45.3143833  51.3038903  56.7516993  45.3943833  52.0518903
  55.5056993  45.0983833  51.5618903  56.2566993  45.2943833  51.4528903
  64.6016993  33.7393833  60.5798903  65.4566993  33.8383833  60.7248903
  64.2326993  34.2923833  61.1448903  64.6736993  33.8363833  60.6848903
  55.6296993  39.9653833  64.9568903  55.2336993  40.7393833  65.0318903
  55.2236993  39.5923833  64.2808903  55.5116993  40.0243833  64.8678903
  64.9056993  39.0193833  59.0708903  65.5716993  39.5603833  59.2308903
  64.5606993  39.3303833  58.3318903  64.9526993  39.1453833  58.9858903
  65.2186993  47.0853833  54.8778903  65.0446993  46.4313833  55.4278903
  65.9316993  46.8143833  54.4548903  65.2986993  46.9483833  54.8968903
  53.6396993  44.3843833  51.9048903  53.3956993  44.0773833  52.6848903
  53.6066993  43.6813833  51.3888903  53.5986993  44.2353833  51.9438903
  56.4586993  42.6293833  50.6478903  55.6406993  42.3613833  50.7878903
  56.4306993  43.4813833  50.8328903  56.3336993  42.7163833  50.6958903
  56.0586993  32.9423833  62.4068903  55.1946993  33.0263833  62.4868903
  56.2786993  32.4283833  63.0758903  55.9636993  32.8793833  62.5178903
  68.0766993  31.5773833  63.7358903  68.0246993  31.5333833  64.6058903
  68.7636993  31.0743833  63.5458903  68.1706993  31.4973833  63.8358903
  60.1616993  33.6903833  60.7808903  59.4246993  33.2363833  60.8938903
  60.7326993  33.2883833  61.3038903  60.1366993  33.5633833  60.8748903
  62.8936993  44.5383833  62.5688903  63.0996993  44.8393833  63.3608903
  62.8326993  45.2603833  62.0838903  62.9146993  44.6893833  62.6138903
  62.4276993  48.7523833  66.8148903  61.6746993  48.7343833  66.3738903
  62.5956993  49.6043833  66.8988903  62.3416993  48.8753833  66.7618903
  57.6646993  38.0193833  65.9848903  57.3426993  37.4433833  65.4148903
  57.3056993  38.7743833  65.7388903  57.5646993  38.0453833  65.8648903
  58.4606993  31.2713833  50.6118903  58.5386993  31.5183833  49.7788903
  57.7176993  31.6483833  50.8698903  58.3626993  31.3633833  50.5268903
  67.7056993  43.1773833  62.0268903  67.6736993  42.3153833  61.8918903
  67.0126993  43.4793833  61.5928903  67.5986993  43.0943833  61.9428903
  56.0996993  48.3753833  66.2328903  56.1406993  48.5013833  67.0958903
  56.7506993  47.8153833  66.0768903  56.2016993  48.3113833  66.3378903
  65.8106993  46.4373833  60.8238903  66.3376993  46.3543833  60.1328903
  65.4196993  45.6593833  60.8778903  65.8306993  46.3103833  60.7298903
  53.2786993  33.0253833  63.0548903  52.9356993  32.2583833  62.8208903
  52.5836993  33.5493833  63.1188903  53.1256993  32.9893833  63.0298903
  62.3246993  31.8813833  60.0318903  62.9946993  32.4253833  60.1588903
  61.8216993  32.3053833  59.4588903  62.3496993  32.0243833  59.9658903
  53.6926993  46.7583833  67.5928903  54.2876993  47.1893833  68.0648903
  53.3286993  47.3823833  67.1038903  53.7266993  46.9143833  67.5898903
  61.6836993  37.6893833  57.5248903  62.2346993  37.0823833  57.8248903
  61.2586993  37.9523833  58.2398903  61.7026993  37.6383833  57.6738903
  51.9316993  36.3393833  57.0108903  51.5636993  36.6413833  57.7418903
  52.4656993  35.7103833  57.2948903  51.9556993  36.2913833  57.1608903
  51.6196993  44.7473833  64.5218903  51.0456993  45.1633833  65.0308903
  52.3526993  45.2123833  64.6168903  51.6436993  44.8773833  64.6108903
  63.6536993  39.5203833  54.0868903  63.7216993  38.6703833  54.2678903
  62.8306993  39.6063833  53.8088903  63.5416993  39.4073833  54.0728903
  53.4056993  48.0143833  53.2968903  53.2606993  48.1703833  52.4508903
  54.2716993  48.0933833  53.3748903  53.5126993  48.0493833  53.1838903
  57.5726993  40.4113833  53.0248903  57.6726993  40.5503833  52.1698903
  58.3906993  40.3513833  53.3208903  57.7076993  40.4223833  52.9418903
  66.7326993  48.4753833  50.5048903  67.3696993  48.3413833  51.0858903
  66.3916993  47.6813833  50.3878903  66.7766993  48.3383833  50.5728903
  66.9276993  40.8933833  67.2378903  67.5616993  40.7233833  67.8118903
  67.3446993  41.2963833  66.5858903  67.0826993  40.9283833  67.2268903
  62.8076993  44.7403833  52.8268903  62.5566993  44.6123833  53.6528903
  62.4906993  44.0453833  52.4058903  62.7236993  44.6193833  52.8868903
  67.5526993  35.4573833  67.9758903  67.3566993  36.1013833  68.5308903
  66.8306993  34.9673833  67.9678903  67.4176993  35.4803833  68.0568903
  67.4516993  36.3983833  60.9468903  66.6186993  36.6483833  60.8748903
  67.3956993  35.5583833  61.1758903  67.3206993  36.3113833  60.9698903
  56.7116993  33.3863833  66.1408903  56.9456993  32.8103833  65.5278903
  55.8696993  33.2053833  66.2818903  56.6216993  33.2743833  66.0708903
  64.3386993  41.0043833  68.5928903  65.2096993  40.9683833  68.5568903
  64.1196993  41.4243833  67.8608903  64.4356993  41.0603833  68.4798903
  54.0926993  46.8293833  59.7738903  54.0136993  46.0193833  59.4578903
  53.6486993  47.3163833  59.2018903  54.0156993  46.7813833  59.6428903
  59.6936993  42.9483833  52.2568903  60.4106993  42.6013833  51.9008903
  59.6596993  43.7483833  51.9088903  59.7946993  43.0153833  52.1528903
  51.6646993  49.0733833  63.3548903  52.1576993  49.0173833  64.0728903
  51.8526993  48.3403833  62.9198903  51.7656993  48.9563833  63.3968903
  61.1026993  31.5893833  36.4956493  60.8576993  32.0773833  35.8156493
  61.9656993  31.5163833  36.3956493  61.1936993  31.6503833  36.3806493
  50.7806993  42.6453833  36.6226493  50.3396993  42.7633833  37.3656493
  50.4976993  41.8703833  36.3376493  50.6736993  42.5483833  36.6906493
  67.0556993  45.9463833  34.1376493  67.7566993  45.4273833  34.1336493
  66.4686993  45.5013833  33.6686493  67.0726993  45.8033833  34.0676493
  53.6626993  41.7003833  31.8016493  53.2706993  41.3293833  31.1156493
  53.5826993  41.1023833  32.4306493  53.5926993  41.5573833  31.7926493
  63.5826993  39.5723833  37.8426493  63.6626993  39.5763833  36.9736493
  62.9986993  38.9403833  37.9916493  63.5076993  39.4793833  37.7366493
  53.2896993  43.3413833  35.7016493  53.8976993  43.1713833  36.3046493
  52.5386993  43.2013833  36.1226493  53.2686993  43.2953833  35.8526493
  57.5716993  32.6763833  35.6506493  57.5016993  33.3533833  35.1046493
  58.3126993  32.2883833  35.4016493  57.6706993  32.7193833  35.5326493
  50.7206993  45.3803833  42.8776493  50.8496993  45.1003833  43.6936493
  50.1106993  44.8393833  42.5686493  50.6496993  45.2593833  42.9526493
  57.2946993  42.9053833  47.9446493  57.0586993  42.9023833  48.7846493
  56.5466993  42.7573833  47.5206493  57.1486993  42.8823833  48.0056493
  56.6746993  35.5113833  42.4266493  57.3526993  35.5293833  41.8776493
  56.6296993  34.6753833  42.6716493  56.7676993  35.3903833  42.3816493
  57.2766993  46.0973833  45.2076493  57.4146993  46.8573833  44.8006493
  58.0676993  45.7323833  45.2346493  57.4136993  46.1563833  45.1516493
  54.1676993  38.0013833  37.1026493  54.9846993  37.8143833  37.3456493
  53.6906993  37.3873833  37.4986493  54.2176993  37.8833833  37.1976493
  58.3716993  43.9823833  39.7126493  58.7196993  43.1833833  39.7426493
  59.0366993  44.4863833  39.4576493  58.5216993  43.9383833  39.6796493
  58.4286993  43.4313833  35.9236493  58.7596993  42.7873833  36.4096493
  58.6686993  43.2203833  35.1126493  58.5126993  43.3053833  35.8756493
  60.3966993  37.5623833  47.2626493  59.5486993  37.4633833  47.0846493
  60.4256993  38.3073833  47.7166493  60.2756993  37.6583833  47.3036493
  54.7646993  33.0953833  36.3686493  54.4686993  33.5963833  35.7186493
  55.6316993  33.1733833  36.3116493  54.8486993  33.1813833  36.2646493
  64.9546993  30.5223833  46.3766493  64.7966993  31.2913833  45.9946493
  64.1826993  30.3023833  46.7206493  64.8166993  30.6033833  46.3716493
  57.7436993  32.2373833  38.5916493  57.8166993  33.0973833  38.7206493
  57.7056993  32.1623833  37.7236493  57.7486993  32.3533833  38.4826493
  62.4166993  35.1633833  30.8906493  61.9666993  35.8443833  31.1976493
  62.5306993  34.6593833  31.5936493  62.3676993  35.1893833  31.0396493
  50.6226993  37.6623833  40.0926493  50.3666993  38.4933833  40.0176493
  49.9586993  37.2793833  40.5096493  50.4866993  37.7283833  40.1436493
  50.5326993  47.3723833  37.9926493  49.9406993  47.9303833  37.6796493
  50.9586993  47.1033833  37.2806493  50.5086993  47.4143833  37.8416493
  56.3726993  45.2163833  35.4726493  55.7936993  44.9413833  36.0646493
  56.9966993  44.6073833  35.4976493  56.3796993  45.0863833  35.5636493
  62.5156993  47.5043833  32.9946493  63.2426993  47.9763833  33.0966493
  62.7446993  46.7103833  33.2746493  62.6576993  47.4573833  33.0516493
  60.6836993  47.8963833  34.9846493  60.8976993  48.4233833  35.6466493
  61.4506993  47.7223833  34.6056493  60.8286993  47.9483833  35.0266493
  53.6516993  32.4793833  40.5836493  53.1306993  31.8513833  40.2756493
  54.2426993  32.0423833  41.0546493  53.6626993  32.3213833  40.6076493
  56.9576993  34.6123833  49.8816493  57.0746993  34.1583833  49.1456493
  57.2456993  35.4103833  49.6786493  57.0176993  34.6633833  49.7426493
  52.0776993  46.0423833  35.9236493  52.7336993  45.4673833  35.9386493
  52.4666993  46.7913833  35.7026493  52.2326993  46.0673833  35.8936493
  67.8106993  35.1363833  37.1856493  67.4646993  35.8143833  37.6116493
  67.1746993  34.5383833  37.2016493  67.6656993  35.1483833  37.2506493
  63.1226993  47.9063833  43.2896493  63.8666993  48.3623833  43.2796493
  63.0016993  47.6923833  42.4526493  63.2146993  47.9423833  43.1646493
  52.6906993  34.2093833  48.8656493  51.9126993  33.8193833  48.7936493
  53.1816993  33.7973833  48.2746493  52.6476993  34.0903833  48.7676493
  52.8956993  44.5293833  39.4236493  53.3186993  44.1733833  38.7496493
  53.2196993  44.1073833  40.1156493  53.0056993  44.4143833  39.4266493
  56.1266993  47.3813833  38.7196493  56.9706993  47.4853833  38.5246493
  55.8296993  48.1993833  38.7876493  56.2076993  47.5173833  38.7006493
  59.3396993  31.8523833  48.0336493  59.5176993  31.0433833  47.7586493
  59.1966993  32.2933833  47.2946493  59.3446993  31.7983833  47.8836493
  59.9336993  36.7783833  36.8066493  60.2206993  36.5463833  36.0166493
  60.6656993  36.8573833  37.2756493  60.0836993  36.7553833  36.7596493
  60.6556993  37.1173833  31.9276493  60.9366993  37.9053833  32.1766493
  59.8796993  37.2823833  31.5646493  60.5826993  37.2583833  31.9106493
  64.6966993  49.0913833  33.3946493  65.3616993  48.9433833  32.8496493
  65.0566993  49.0083833  34.1846493  64.8486993  49.0573833  33.4306493
  55.1246993  48.6003833  44.4596493  55.4166993  48.5333833  45.2796493
  54.4986993  47.9953833  44.4146493  55.0756993  48.5013833  44.5746493
  67.4856993  33.4593833  42.5546493  68.2426993  33.5313833  42.1266493
  67.5486993  32.6863833  42.9536493  67.6066993  33.3563833  42.5496493
  50.0386993  34.7573833  46.4516493  50.0346993  35.3443833  47.0976493
  50.6326993  35.0693833  45.8946493  50.1256993  34.8903833  46.4646493
  62.3766993  45.0913833  46.9936493  62.3426993  45.4733833  47.7776493
  63.2306993  45.0493833  46.8226493  62.4976993  45.1413833  47.0846493
  59.5146993  45.2883833  31.7436493  59.3336993  45.8333833  32.4006493
  60.2806993  45.5783833  31.4426493  59.6006993  45.4123833  31.7966493
  63.0216993  33.1843833  32.7976493  63.5616993  32.5023833  32.8736493
  63.0836993  33.5823833  33.5716493  63.1106993  33.1423833  32.9236493
  53.1176993  46.7623833  43.5816493  52.4196993  46.2543833  43.7076493
  53.3776993  46.5573833  42.7736493  53.0526993  46.6573833  43.4806493
  60.2796993  35.5603833  34.1116493  59.7716993  34.8983833  33.8576493
  60.3316993  36.0643833  33.4016493  60.2126993  35.5373833  33.9696493
  60.8286993  48.2553833  44.4916493  61.5966993  48.1753833  44.0856493
  60.2456993  48.1343833  43.8536493  60.8556993  48.2253833  44.3376493
  60.2796993  32.5013833  34.0026493  59.8246993  32.0993833  33.3766493
  61.0526993  32.6563833  33.6276493  60.3266993  32.4653833  33.8546493
  67.1056993  48.8583833  37.3926493  66.6506993  49.5753833  37.5936493
  66.4916993  48.2873833  37.1506493  66.9476993  48.8803833  37.3866493
  58.8776993  34.8683833  38.5246493  58.9516993  35.4363833  37.8666493
  58.9986993  35.3603833  39.2346493  58.9056993  35.0253833  38.5326493
  64.1026993  44.7033833  36.9366493  64.8036993  44.2213833  37.1256493
  63.4426993  44.1343833  36.9816493  64.1086993  44.5483833  36.9706493
  54.4786993  45.6133833  46.1486493  55.3196993  45.6763833  45.9266493
  54.4416993  46.0103833  46.9246493  54.5976993  45.6813833  46.2306493
  56.4416993  41.1243833  40.8976493  56.6136993  40.9143833  41.7266493
  55.7866993  40.5903833  40.6816493  56.3706993  41.0143833  40.9886493
  62.6696993  35.0383833  44.4126493  62.5746993  35.3573833  45.2186493
  62.0766993  34.3993833  44.3746493  62.5676993  34.9903833  44.5266493
  57.1916993  41.0623833  43.4876493  57.2446993  41.9093833  43.6896493
  56.9066993  40.6923833  44.2246493  57.1576993  41.1323833  43.6256493
  63.3686993  41.7573833  42.6176493  62.8546993  41.3453833  43.1886493
  63.2426993  42.6013833  42.7986493  63.2746993  41.8213833  42.7286493
  63.9256993  30.9823833  37.2486493  63.9746993  30.6643833  38.0596493
  64.2486993  30.3383833  36.7556493  63.9806993  30.8403833  37.2956493
  50.0126993  45.4333833  49.6986493  50.7686993  45.7823833  49.9566493
  50.1896993  44.5803833  49.6416493  50.1506993  45.3583833  49.7286493
  66.3896993  35.2183833  45.5566493  67.1616993  34.9933833  45.8936493
  65.9146993  35.4353833  46.2566493  66.4336993  35.2173833  45.7096493
  53.9336993  34.5013833  38.5266493  54.2056993  34.0713833  37.8186493
  53.7576993  33.8653833  39.0976493  53.9476993  34.3443833  38.5066493
  66.6216993  42.1963833  32.7446493  66.7406993  41.9093833  33.5596493
  67.4286993  42.2173833  32.4146493  66.7576993  42.1573833  32.8166493
  53.7576993  41.9283833  38.0756493  54.6086993  41.8483833  37.9026493
  53.4006993  41.2463833  37.6636493  53.8306993  41.8153833  37.9886493
  52.5246993  48.6533833  39.3126493  51.8516993  48.1553833  39.0676493
  52.9276993  48.8383833  38.5616493  52.4846993  48.6073833  39.1656493
  52.0746993  35.6033833  41.6086493  52.9176993  35.8233833  41.5656493
  51.6856993  36.1763833  41.0776493  52.1416993  35.7203833  41.5236493
  68.8556993  46.7053833  46.9986493  68.1736993  47.0153833  46.5516493
  68.4866993  46.2473833  47.6436493  68.6996993  46.6833833  47.0276493
  64.5166993  38.7333833  32.3296493  64.2966993  39.4643833  31.9076493
  64.0686993  38.7843833  33.0766493  64.4176993  38.8483833  32.3776493
  56.1256993  41.9353833  36.3106493  56.8386993  42.4303833  36.4006493
  56.3476993  41.3683833  35.6846493  56.2636993  41.9243833  36.2316493
  68.7036993  33.5943833  31.7826493  68.0416993  33.0263833  31.8056493
  68.5106993  34.1063833  31.1026493  68.5776993  33.5863833  31.6856493
  50.2816993  43.5783833  39.6306493  49.6146993  44.0663833  39.9066493
  50.9616993  44.1233833  39.6596493  50.2836993  43.7303833  39.6756493
  57.9286993  37.2883833  49.7266493  57.4446993  37.8653833  50.1686493
  57.9006993  37.5833833  48.9056493  57.8526993  37.4173833  49.6706493
  69.0266993  37.9723833  44.3386493  69.2416993  37.1723833  44.0626493
  68.1766993  38.0323833  44.1496493  68.9326993  37.8633833  44.2696493
  66.7056993  33.1523833  34.0616493  67.4516993  32.7453833  34.2606493
  66.9686993  33.8673833  33.6366493  66.8546993  33.1983833  34.0286493
  60.6486993  45.6383833  38.6376493  60.1256993  46.2723833  38.3446493
  60.9586993  45.2743833  37.9086493  60.6166993  45.6783833  38.4866493
  54.7236993  43.4263833  41.3976493  55.1906993  43.7153833  42.0756493
  55.2956993  42.9483833  40.9436493  54.8776993  43.3983833  41.4306493
  63.1596993  35.4403833  39.1346493  63.5036993  35.5923833  39.9216493
  62.7066993  34.7023833  39.2476493  63.1436993  35.3533833  39.2676493
  51.2896993  41.0963833  39.9416493  51.7206993  40.9673833  39.1946493
  51.0846993  41.9443833  39.9156493  51.3226993  41.2023833  39.8276493
  57.6356993  34.6603833  33.5916493  57.6336993  34.5433833  32.7266493
  57.4546993  35.5083833  33.6836493  57.6086993  34.7683833  33.4776493
  66.6896993  47.0873833  45.0886493  66.0186993  47.6013833  45.3066493
  66.7526993  47.1873833  44.2246493  66.5996993  47.1783833  44.9936493
  55.3736993  44.6123833  38.2236493  55.4996993  45.4553833  38.4106493
  56.0416993  44.2133833  38.6196493  55.4916993  44.6783833  38.3096493
  53.9886993  37.4923833  33.2256493  53.8606993  37.0443833  33.9636493
  53.4066993  37.1503833  32.6736493  53.8836993  37.3753833  33.2536493
  54.1556993  39.3223833  39.8246493  53.3746993  39.2633833  39.4416493
  54.2276993  38.5703833  40.2616493  54.0506993  39.2033833  39.8326493
  54.5856993  39.0593833  43.2926493  54.6106993  38.3843833  42.7416493
  53.9396993  39.5553833  42.9806493  54.4946993  39.0323833  43.1656493
  64.4806993  36.7723833  41.6886493  63.8186993  37.1003833  42.1516493
  64.6676993  37.4063833  41.1196493  64.4106993  36.9143833  41.6726493
  58.6856993  47.8363833  42.6846493  58.4086993  47.1953833  42.1616493
  58.4776993  48.5623833  42.2466493  58.6146993  47.8493833  42.5426493
  61.1256993  32.6783833  45.1176493  61.2746993  31.8533833  44.8746493
  61.5046993  32.7333833  45.9016493  61.2036993  32.5643833  45.1976493
  52.3846993  40.4143833  48.8516493  52.3476993  40.9153833  48.1376493
  52.7156993  39.6623833  48.5566493  52.4276993  40.3763833  48.7026493
  63.9876993  42.6193833  47.1096493  64.4716993  43.3373833  47.2076493
  64.3816993  42.1923833  46.4586493  64.1176993  42.6623833  47.0276493
  58.2836993  45.4643833  48.2866493  58.6376993  45.2863833  49.0636493
  57.8476993  44.7353833  48.0876493  58.2716993  45.3303833  48.3726493
  59.2556993  36.2113833  40.9246493  59.7356993  36.9103833  41.1326493
  59.6286993  35.5643833  41.3756493  59.3816993  36.2193833  41.0216493
  61.4446993  39.3803833  33.1986493  61.4366993  40.1023833  32.7086493
  60.8056993  39.5153833  33.7756493  61.3496993  39.5073833  33.2116493
  66.4166993  43.2503833  37.1796493  66.7726993  42.9003833  37.8946493
  66.4086993  42.5893833  36.6096493  66.4686993  43.1003833  37.2006493
  62.4616993  46.3163833  41.0236493  61.8586993  46.0203833  40.4666493
  63.0066993  46.7683833  40.5146493  62.4526993  46.3393833  40.8656493
  62.4746993  43.1673833  40.4236493  61.6776993  43.3913833  40.6976493
  62.7326993  42.5733833  41.0086493  62.3946993  43.1123833  40.5506493
  56.3666993  47.9793833  34.8716493  56.2196993  47.2033833  35.2426493
  57.0556993  47.8323833  34.3566493  56.4466993  47.8423833  34.8506493
  56.0376993  31.7223833  32.8596493  56.1346993  31.6153833  33.7206493
  55.3296993  32.2283833  32.7946493  55.9476993  31.7813833  32.9776493
  58.6586993  47.4953833  33.2736493  59.2806993  47.6583833  33.8636493
  58.6946993  48.1863833  32.7416493  58.7556993  47.6213833  33.2826493
  65.7346993  41.1653833  45.2696493  65.7896993  41.2903833  44.4076493
  66.4876993  41.4853833  45.5716493  65.8536993  41.2303833  45.1866493
  61.9256993  46.5143833  49.5466493  62.0896993  46.7973833  50.3556493
  62.1886993  47.1753833  49.0416493  61.9886993  46.6543833  49.5916493
  66.7666993  31.4633833  48.2566493  66.1296993  31.0633833  47.8146493
  66.7926993  31.0323833  49.0146493  66.6766993  31.3413833  48.3026493
  53.1596993  40.0293833  34.1026493  53.4836993  39.2503833  33.8806493
  53.8056993  40.3973833  34.5576493  53.3026993  39.9683833  34.1366493
  61.4656993  40.9713833  44.8696493  61.3106993  41.5813833  45.4736493
  61.9996993  40.4133833  45.2756493  61.5216993  40.9793833  45.0186493
  59.8496993  39.3713833  35.5276493  59.9086993  40.0213833  36.1066493
  59.6606993  38.6753833  36.0186493  59.8306993  39.3643833  35.6856493
  65.0756993  43.7003833  41.3966493  64.5966993  43.9983833  40.7306493
  64.7196993  42.9243833  41.5746493  64.9526993  43.6293833  41.3246493
  54.3456993  33.8883833  32.0396493  53.8346993  33.9413833  31.3336493
  55.1296993  34.1283833  31.7436493  54.3856993  33.9313833  31.8916493
  59.0726993  41.4183833  39.9586493  58.2256993  41.2243833  40.0396493
  59.3966993  41.2533833  40.7516493  58.9946993  41.3653833  40.0876493
  55.8246993  48.1483833  30.8446493  56.2636993  47.4513833  31.1326493
  56.0316993  48.7723833  31.4176493  55.9206993  48.1373833  30.9716493
  56.1506993  36.2823833  39.0096493  56.9966993  36.0923833  39.1076493
  55.7806993  35.5053833  38.8716493  56.2206993  36.1393833  39.0036493
  68.7676993  47.8663833  33.3366493  69.4616993  47.3993833  33.0886493
  68.2286993  47.2683833  33.6736493  68.7906993  47.7083833  33.3496493
  66.0066993  40.6423833  42.5156493  65.9996993  39.8663833  42.9136493
  65.1656993  40.8763833  42.5086493  65.8816993  40.5623833  42.5736493
  55.4966993  39.0543833  31.1506493  54.8866993  38.6493833  31.6246493
  55.1106993  39.1723833  30.3776493  55.3496993  39.0113833  31.1066493
  52.3156993  42.1633833  46.5526493  51.8946993  41.6453833  45.9916493
  51.9636993  42.9493833  46.4096493  52.2016993  42.2033833  46.4486493
  67.2626993  40.7133833  39.9526493  66.9766993  41.1143833  40.6726493
  68.1226993  40.6513833  40.0796493  67.3476993  40.7633833  40.0776493
  56.9516993  37.5153833  33.8606493  57.2236993  38.3413833  33.9276493
  56.0886993  37.5903833  33.7646493  56.8646993  37.6483833  33.8556493
  64.9246993  34.6373833  48.4926493  64.3996993  35.0963833  49.0166493
  64.5636993  33.8423833  48.4866493  64.7936993  34.5873833  48.5686493
  68.3936993  46.3463833  40.4816493  68.6836993  46.6033833  39.7006493
  69.0886993  46.4423833  41.0006493  68.5396993  46.3983833  40.4426493
  63.4166993  38.2063833  48.5686493  63.4896993  38.3103833  49.4316493
  62.7826993  38.7643833  48.3476493  63.3336993  38.3043833  48.6636493
  65.6846993  38.5253833  46.9336493  66.0036993  39.3113833  47.1366493
  65.3146993  38.2553833  47.6766493  65.6776993  38.6013833  47.0736493
  64.9986993  44.9493833  32.4636493  65.3326993  44.1433833  32.4986493
  64.2436993  44.8773833  32.8936493  64.9366993  44.8193833  32.5326493
  65.4806993  36.7833833  38.1226493  64.7356993  36.4603833  38.4406493
  65.4826993  37.6093833  38.4026493  65.3706993  36.8573833  38.2106493
  68.3826993  39.0673833  49.6686493  68.3306993  38.7263833  48.8676493
  69.1196993  39.5343833  49.6466493  68.4836993  39.0863833  49.5466493
  67.9206993  42.7433833  45.8746493  68.5486993  42.1943833  45.6186493
  67.8596993  43.3083833  45.2126493  68.0046993  42.7463833  45.7386493
  62.3726993  42.8243833  31.8666493  63.0566993  42.3103833  31.6976493
  61.9556993  42.8703833  31.1016493  62.4116993  42.7553833  31.7286493
  57.0546993  43.9743833  43.1706493  56.7566993  44.5663833  43.7376493
  57.1096993  44.4163833  42.4216493  57.0186993  44.1273833  43.1436493
  55.0336993  42.9243833  46.5686493  54.2276993  42.6343833  46.7356493
  54.9446993  43.7923833  46.5746493  54.9016993  43.0093833  46.5936493
  64.3926993  33.1133833  45.5836493  65.1366993  33.5653833  45.5206493
  63.8266993  33.5833833  45.1146493  64.4196993  33.2503833  45.5056493
  59.5706993  40.3973833  42.6616493  60.0466993  40.7713833  43.2896493
  58.7476993  40.5313833  42.9206493  59.5196993  40.4723833  42.7926493
  56.2806993  36.0003833  45.4026493  56.4416993  35.2563833  45.8296493
  56.2356993  35.7513833  44.5676493  56.2976993  35.8533833  45.3426493
  58.8346993  47.7903833  37.8896493  59.3806993  48.4693833  37.9436493
  58.4846993  47.8723833  37.0946493  58.8636993  47.9033833  37.7796493
  65.6776993  31.0933833  43.2536493  65.3976993  31.9183833  43.2096493
  66.3936993  31.1463833  43.7496493  65.7426993  31.2233833  43.3206493
  58.0326993  31.8083833  45.2826493  58.7376993  32.1283833  44.8806493
  58.2736993  31.0013833  45.5096493  58.1716993  31.7363833  45.2566493
  57.0176993  46.0183833  41.2786493  56.3936993  46.6003833  41.0966493
  57.2656993  45.7323833  40.4926493  56.9616993  46.0623833  41.1356493
  61.3266993  42.6523833  48.2676493  62.0836993  42.9383833  47.9416493
  60.7796993  42.7043833  47.5896493  61.3576993  42.7023833  48.1186493
  65.2356993  45.2023833  46.7716493  65.5816993  45.4723833  47.5256493
  65.5296993  45.7843833  46.1916493  65.3306993  45.3283833  46.7976493
  67.0986993  37.3483833  32.1106493  67.4766993  38.0253833  31.7106493
  66.2566993  37.5723833  32.1416493  67.0296993  37.4813833  32.0556493
  58.6116993  40.7943833  31.1936493  57.8066993  40.6173833  30.9086493
  58.5786993  41.6453833  31.3856493  58.4876993  40.8933833  31.1806493
  54.5416993  36.8613833  41.3436493  54.9816993  36.7583833  40.5976493
  55.0866993  36.5483833  41.9486493  54.6866993  36.8003833  41.3226493
  62.5576993  35.9633833  46.9356493  61.9096993  36.4333833  47.2836493
  63.1226993  35.8743833  47.5946493  62.5456993  36.0193833  47.0846493
  62.2456993  37.5003833  43.2336493  62.5476993  37.9203833  43.9366493
  62.2816993  36.6603833  43.4656493  62.2956993  37.4383833  43.3716493
  59.6706993  47.6673833  47.1586493  60.1486993  47.0673833  46.7426493
  59.3196993  47.2243833  47.8236493  59.6896993  47.5133833  47.1956493
  64.7936993  36.9473833  35.4856493  65.0006993  36.7463833  36.3096493
  65.5496993  37.2153833  35.1436493  64.9356993  36.9573833  35.5566493
  58.0886993  31.8463833  41.3906493  57.2626993  31.6973833  41.6276493
  58.0486993  31.8813833  40.5196493  57.9606993  31.8293833  41.2966493
  65.8156993  33.0303833  36.9596493  65.1016993  32.5593833  37.1306493
  65.6536993  33.3713833  36.1736493  65.6866993  33.0113833  36.8686493
  66.2586993  40.9743833  35.3396493  66.7346993  40.2453833  35.2916493
  65.4376993  40.6883833  35.2636493  66.2076993  40.8243833  35.3206493
  59.7296993  42.8863833  46.1786493  58.9346993  42.8223833  46.5296493
  59.8006993  43.7333833  45.9836493  59.6226993  43.0013833  46.2016493
  50.6536993  32.2443833  47.4256493  50.5136993  33.0393833  47.0946493
  49.8676993  32.0013833  47.7146493  50.5166993  32.3263833  47.4196493
  55.5596993  49.0933833  41.4956493  55.5706993  49.1523833  42.3656493
  55.1346993  48.3463833  41.3456493  55.4986993  48.9913833  41.6016493
  62.4746993  42.1413833  37.6946493  62.5506993  42.4823833  38.4936493
  62.6436993  41.2943833  37.8156493  62.5106993  42.0663833  37.8306493
  59.9966993  41.4153833  37.2596493  59.6986993  41.1003833  38.0166493
  60.6916993  41.8883833  37.4946493  60.0556993  41.4383833  37.4066493
  60.2186993  45.5333833  45.2866493  60.9056993  45.4193833  45.8116493
  60.3526993  46.3243833  44.9426493  60.3396993  45.6333833  45.3136493
  68.3946993  38.1423833  47.0976493  67.5396993  38.0203833  47.2236493
  68.5476993  37.7473833  46.3346493  68.2906993  38.0653833  47.0036493
  62.9076993  38.8073833  45.6736493  62.6526993  38.0883833  46.0956493
  63.7286993  38.9233833  45.9436493  62.9916993  38.7183833  45.7756493
  52.3236993  48.5913833  46.9376493  51.6696993  48.0223833  47.0356493
  51.9486993  49.3643833  47.0886493  52.1716993  48.6213833  46.9746493
  60.8416993  39.9973833  48.8606493  61.1646993  40.6833833  48.4286493
  60.1376993  40.3203833  49.2626493  60.7846993  40.1463833  48.8556493
  63.9256993  48.3713833  39.7896493  63.4746993  49.0143833  40.1686493
  64.6336993  48.2923833  40.2946493  63.9636993  48.4543833  39.9206493
  60.6266993  43.4613833  42.7196493  59.9326993  43.8633833  43.0626493
  61.3036993  43.8943833  43.0586493  60.6236993  43.5843833  42.8206493
  66.0036993  46.0543833  49.2996493  66.7796993  45.6643833  49.3826493
  65.5346993  45.7183833  49.9546493  66.0486993  45.9473833  49.4086493
  53.6946993  36.9993833  45.0666493  54.0696993  37.6183833  44.5796493
  54.3686993  36.5253833  45.3516493  53.8496993  37.0213833  45.0366493
  51.4696993  35.4473833  44.3416493  51.5466993  35.2783833  43.4886493
  52.2156993  35.8533833  44.5386493  51.5906993  35.4823833  44.2446493
  67.0286993  38.0873833  34.7816493  67.1316993  38.0293833  33.9176493
  67.7696993  37.7553833  35.0996493  67.1536993  38.0303833  34.7006493
  54.0236993  32.8573833  46.7526493  53.9426993  32.0133833  46.9586493
  53.7096993  32.9013833  45.9396493  53.9656993  32.7393833  46.6626493
  60.9486993  45.0523833  35.8886493  60.7436993  45.8853833  35.7296493
  60.1736993  44.6703833  36.0106493  60.8036993  45.1193833  35.8836493
  66.1306993  38.2333833  44.1376493  66.1286993  37.3703833  44.2616493
  66.1976993  38.5573833  44.9446493  66.1406993  38.1533833  44.2746493
  50.8666993  40.6733833  44.5656493  51.1866993  40.8923833  43.7846493
  50.7666993  39.8083833  44.5106493  50.8986993  40.5783833  44.4426493
  62.0096993  33.0333833  47.9196493  62.1016993  33.7453833  48.4136493
  61.3726993  32.5883833  48.3166493  61.9286993  33.0723833  48.0516493
  61.0036993  33.2233833  38.7736493  60.3036993  33.7413833  38.7176493
  61.0416993  32.8433833  37.9896493  60.9056993  33.2443833  38.6496493
  56.3106993  45.3143833  32.2976493  56.7516993  45.3943833  33.0456493
  55.5056993  45.0983833  32.5556493  56.2566993  45.2943833  32.4466493
  64.6016993  33.7393833  41.5736493  65.4566993  33.8383833  41.7186493
  64.2326993  34.2923833  42.1386493  64.6736993  33.8363833  41.6786493
  55.6296993  39.9653833  45.9506493  55.2336993  40.7393833  46.0256493
  55.2236993  39.5923833  45.2746493  55.5116993  40.0243833  45.8616493
  64.9056993  39.0193833  40.0646493  65.5716993  39.5603833  40.2246493
  64.5606993  39.3303833  39.3256493  64.9526993  39.1453833  39.9796493
  65.2186993  47.0853833  35.8716493  65.0446993  46.4313833  36.4216493
  65.9316993  46.8143833  35.4486493  65.2986993  46.9483833  35.8906493
  53.6396993  44.3843833  32.8986493  53.3956993  44.0773833  33.6786493
  53.6066993  43.6813833  32.3826493  53.5986993  44.2353833  32.9376493
  56.4586993  42.6293833  31.6416493  55.6406993  42.3613833  31.7816493
  56.4306993  43.4813833  31.8266493  56.3336993  42.7163833  31.6896493
  56.0586993  32.9423833  43.4006493  55.1946993  33.0263833  43.4806493
  56.2786993  32.4283833  44.0696493  55.9636993  32.8793833  43.5116493
  68.0766993  31.5773833  44.7296493  68.0246993  31.5333833  45.5996493
  68.7636993  31.0743833  44.5396493  68.1706993  31.4973833  44.8296493
  60.1616993  33.6903833  41.7746493  59.4246993  33.2363833  41.8876493
  60.7326993  33.2883833  42.2976493  60.1366993  33.5633833  41.8686493
  62.8936993  44.5383833  43.5626493  63.0996993  44.8393833  44.3546493
  62.8326993  45.2603833  43.0776493  62.9146993  44.6893833  43.6076493
  62.4276993  48.7523833  47.8086493  61.6746993  48.7343833  47.3676493
  62.5956993  49.6043833  47.8926493  62.3416993  48.8753833  47.7556493
  57.6646993  38.0193833  46.9786493  57.3426993  37.4433833  46.4086493
  57.3056993  38.7743833  46.7326493  57.5646993  38.0453833  46.8586493
  58.4606993  31.2713833  31.6056493  58.5386993  31.5183833  30.7726493
  57.7176993  31.6483833  31.8636493  58.3626993  31.3633833  31.5206493
  67.7056993  43.1773833  43.0206493  67.6736993  42.3153833  42.8856493
  67.0126993  43.4793833  42.5866493  67.5986993  43.0943833  42.9366493
  56.0996993  48.3753833  47.2266493  56.1406993  48.5013833  48.0896493
  56.7506993  47.8153833  47.0706493  56.2016993  48.3113833  47.3316493
  65.8106993  46.4373833  41.8176493  66.3376993  46.3543833  41.1266493
  65.4196993  45.6593833  41.8716493  65.8306993  46.3103833  41.7236493
  53.2786993  33.0253833  44.0486493  52.9356993  32.2583833  43.8146493
  52.5836993  33.5493833  44.1126493  53.1256993  32.9893833  44.0236493
  62.3246993  31.8813833  41.0256493  62.9946993  32.4253833  41.1526493
  61.8216993  32.3053833  40.4526493  62.3496993  32.0243833  40.9596493
  53.6926993  46.7583833  48.5866493  54.2876993  47.1893833  49.0586493
  53.3286993  47.3823833  48.0976493  53.7266993  46.9143833  48.5836493
  61.6836993  37.6893833  38.5186493  62.2346993  37.0823833  38.8186493
  61.2586993  37.9523833  39.2336493  61.7026993  37.6383833  38.6676493
  51.9316993  36.3393833  38.0046493  51.5636993  36.6413833  38.7356493
  52.4656993  35.7103833  38.2886493  51.9556993  36.2913833  38.1546493
  51.6196993  44.7473833  45.5156493  51.0456993  45.1633833  46.0246493
  52.3526993  45.2123833  45.6106493  51.6436993  44.8773833  45.6046493
  63.6536993  39.5203833  35.0806493  63.7216993  38.6703833  35.2616493
  62.8306993  39.6063833  34.8026493  63.5416993  39.4073833  35.0666493
  53.4056993  48.0143833  34.2906493  53.2606993  48.1703833  33.4446493
  54.2716993  48.0933833  34.3686493  53.5126993  48.0493833  34.1776493
  66.7326993  48.4753833  31.4986493  67.3696993  48.3413833  32.0796493
  66.3916993  47.6813833  31.3816493  66.7766993  48.3383833  31.5666493
  66.9276993  40.8933833  48.2316493  67.5616993  40.7233833  48.8056493
  67.3446993  41.2963833  47.5796493  67.0826993  40.9283833  48.2206493
  62.8076993  44.7403833  33.8206493  62.5566993  44.6123833  34.6466493
  62.4906993  44.0453833  33.3996493  62.7236993  44.6193833  33.8806493
  67.5526993  35.4573833  48.9696493  67.3566993  36.1013833  49.5246493
  66.8306993  34.9673833  48.9616493  67.4176993  35.4803833  49.0506493
  67.4516993  36.3983833  41.9406493  66.6186993  36.6483833  41.8686493
  67.3956993  35.5583833  42.1696493  67.3206993  36.3113833  41.9636493
  56.7116993  33.3863833  47.1346493  56.9456993  32.8103833  46.5216493
  55.8696993  33.2053833  47.2756493  56.6216993  33.2743833  47.0646493
  64.3386993  41.0043833  49.5866493  65.2096993  40.9683833  49.5506493
  64.1196993  41.4243833  48.8546493  64.4356993  41.0603833  49.4736493
  54.0926993  46.8293833  40.7676493  54.0136993  46.0193833  40.4516493
  53.6486993  47.3163833  40.1956493  54.0156993  46.7813833  40.6366493
  59.6936993  42.9483833  33.2506493  60.4106993  42.6013833  32.8946493
  59.6596993  43.7483833  32.9026493  59.7946993  43.0153833  33.1466493
  51.6646993  49.0733833  44.3486493  52.1576993  49.0173833  45.0666493
  51.8526993  48.3403833  43.9136493  51.7656993  48.9563833  44.3906493
  61.1026993  31.5893833  17.4894083  60.8576993  32.0773833  16.8094083
  61.9656993  31.5163833  17.3894083  61.1936993  31.6503833  17.3744083
  60.9116993  38.5053833  22.1604083  60.3876993  39.1013833  22.5234083
  61.3086993  38.1373833  22.8444083  60.8926993  38.5393833  22.3154083
  50.7806993  42.6453833  17.6164083  50.3396993  42.7633833  18.3594083
  50.4976993  41.8703833  17.3314083  50.6736993  42.5483833  17.6844083
  67.0556993  45.9463833  15.1314083  67.7566993  45.4273833  15.1274083
  66.4686993  45.5013833  14.6624083  67.0726993  45.8033833  15.0614083
  50.5236993  36.4373833  14.1234083  49.7456993  36.5993833  13.7634083
  50.5626993  35.5663833  14.1454083  50.4146993  36.3323833  14.0734083
  53.6626993  41.7003833  12.7954083  53.2706993  41.3293833  12.1094083
  53.5826993  41.1023833  13.4244083  53.5926993  41.5573833  12.7864083
  63.5826993  39.5723833  18.8364083  63.6626993  39.5763833  17.9674083
  62.9986993  38.9403833  18.9854083  63.5076993  39.4793833  18.7304083
  53.2896993  43.3413833  16.6954083  53.8976993  43.1713833  17.2984083
  52.5386993  43.2013833  17.1164083  53.2686993  43.2953833  16.8464083
  57.5716993  32.6763833  16.6444083  57.5016993  33.3533833  16.0984083
  58.3126993  32.2883833  16.3954083  57.6706993  32.7193833  16.5264083
  52.1806993  46.4323833  12.7724083  52.6476993  46.5163833  12.0404083
  52.6356993  45.8543833  13.2414083  52.3166993  46.3593833  12.7334083
  50.7206993  45.3803833  23.8714083  50.8496993  45.1003833  24.6874083
  50.1106993  44.8393833  23.5624083  50.6496993  45.2593833  23.9464083
  57.2946993  42.9053833  28.9384083  57.0586993  42.9023833  29.7784083
  56.5466993  42.7573833  28.5144083  57.1486993  42.8823833  28.9994083
  52.1666993  39.9013833  18.0734083  51.7046993  39.5093833  17.4464083
  52.8666993  39.3883833  18.1654083  52.2016993  39.7683833  17.9944083
  56.6746993  35.5113833  23.4204083  57.3526993  35.5293833  22.8714083
  56.6296993  34.6753833  23.6654083  56.7676993  35.3903833  23.3754083
  57.2766993  46.0973833  26.2014083  57.4146993  46.8573833  25.7944083
  58.0676993  45.7323833  26.2284083  57.4136993  46.1563833  26.1454083
  54.1676993  38.0013833  18.0964083  54.9846993  37.8143833  18.3394083
  53.6906993  37.3873833  18.4924083  54.2176993  37.8833833  18.1914083
  58.3716993  43.9823833  20.7064083  58.7196993  43.1833833  20.7364083
  59.0366993  44.4863833  20.4514083  58.5216993  43.9383833  20.6734083
  58.4286993  43.4313833  16.9174083  58.7596993  42.7873833  17.4034083
  58.6686993  43.2203833  16.1064083  58.5126993  43.3053833  16.8694083
  60.3966993  37.5623833  28.2564083  59.5486993  37.4633833  28.0784083
  60.4256993  38.3073833  28.7104083  60.2756993  37.6583833  28.2974083
  54.7646993  33.0953833  17.3624083  54.4686993  33.5963833  16.7124083
  55.6316993  33.1733833  17.3054083  54.8486993  33.1813833  17.2584083
  64.9546993  30.5223833  27.3704083  64.7966993  31.2913833  26.9884083
  64.1826993  30.3023833  27.7144083  64.8166993  30.6033833  27.3654083
  57.7436993  32.2373833  19.5854083  57.8166993  33.0973833  19.7144083
  57.7056993  32.1623833  18.7174083  57.7486993  32.3533833  19.4764083
  62.4166993  35.1633833  11.8844083  61.9666993  35.8443833  12.1914083
  62.5306993  34.6593833  12.5874083  62.3676993  35.1893833  12.0334083
  50.5326993  47.3723833  18.9864083  49.9406993  47.9303833  18.6734083
  50.9586993  47.1033833  18.2744083  50.5086993  47.4143833  18.8354083
  56.3726993  45.2163833  16.4664083  55.7936993  44.9413833  17.0584083
  56.9966993  44.6073833  16.4914083  56.3796993  45.0863833  16.5574083
  62.5156993  47.5043833  13.9884083  63.2426993  47.9763833  14.0904083
  62.7446993  46.7103833  14.2684083  62.6576993  47.4573833  14.0454083
  60.6836993  47.8963833  15.9784083  60.8976993  48.4233833  16.6404083
  61.4506993  47.7223833  15.5994083  60.8286993  47.9483833  16.0204083
  56.9576993  34.6123833  30.8754083  57.0746993  34.1583833  30.1394083
  57.2456993  35.4103833  30.6724083  57.0176993  34.6633833  30.7364083
  52.0776993  46.0423833  16.9174083  52.7336993  45.4673833  16.9324083
  52.4666993  46.7913833  16.6964083  52.2326993  46.0673833  16.8874083
  67.8106993  35.1363833  18.1794083  67.4646993  35.8143833  18.6054083
  67.1746993  34.5383833  18.1954083  67.6656993  35.1483833  18.2444083
  63.1226993  47.9063833  24.2834083  63.8666993  48.3623833  24.2734083
  63.0016993  47.6923833  23.4464083  63.2146993  47.9423833  24.1584083
  52.8956993  44.5293833  20.4174083  53.3186993  44.1733833  19.7434083
  53.2196993  44.1073833  21.1094083  53.0056993  44.4143833  20.4204083
  56.1266993  47.3813833  19.7134083  56.9706993  47.4853833  19.5184083
  55.8296993  48.1993833  19.7814083  56.2076993  47.5173833  19.6944083
  59.3396993  31.8523833  29.0274083  59.5176993  31.0433833  28.7524083
  59.1966993  32.2933833  28.2884083  59.3446993  31.7983833  28.8774083
  59.9336993  36.7783833  17.8004083  60.2206993  36.5463833  17.0104083
  60.6656993  36.8573833  18.2694083  60.0836993  36.7553833  17.7534083
  64.6966993  49.0913833  14.3884083  65.3616993  48.9433833  13.8434083
  65.0566993  49.0083833  15.1784083  64.8486993  49.0573833  14.4244083
  55.1246993  48.6003833  25.4534083  55.4166993  48.5333833  26.2734083
  54.4986993  47.9953833  25.4084083  55.0756993  48.5013833  25.5684083
  67.4856993  33.4593833  23.5484083  68.2426993  33.5313833  23.1204083
  67.5486993  32.6863833  23.9474083  67.6066993  33.3563833  23.5434083
  62.3766993  45.0913833  27.9874083  62.3426993  45.4733833  28.7714083
  63.2306993  45.0493833  27.8164083  62.4976993  45.1413833  28.0784083
  59.5146993  45.2883833  12.7374083  59.3336993  45.8333833  13.3944083
  60.2806993  45.5783833  12.4364083  59.6006993  45.4123833  12.7904083
  63.0216993  33.1843833  13.7914083  63.5616993  32.5023833  13.8674083
  63.0836993  33.5823833  14.5654083  63.1106993  33.1423833  13.9174083
  50.9756993  34.3523833  16.3604083  50.8616993  33.4883833  16.3914083
  50.5006993  34.6463833  17.0304083  50.8886993  34.2683833  16.4634083
  53.1176993  46.7623833  24.5754083  52.4196993  46.2543833  24.7014083
  53.3776993  46.5573833  23.7674083  53.0526993  46.6573833  24.4744083
  60.2796993  35.5603833  15.1054083  59.7716993  34.8983833  14.8514083
  60.3316993  36.0643833  14.3954083  60.2126993  35.5373833  14.9634083
  60.8286993  48.2553833  25.4854083  61.5966993  48.1753833  25.0794083
  60.2456993  48.1343833  24.8474083  60.8556993  48.2253833  25.3314083
  60.2796993  32.5013833  14.9964083  59.8246993  32.0993833  14.3704083
  61.0526993  32.6563833  14.6214083  60.3266993  32.4653833  14.8484083
  67.1056993  48.8583833  18.3864083  66.6506993  49.5753833  18.5874083
  66.4916993  48.2873833  18.1444083  66.9476993  48.8803833  18.3804083
  58.8776993  34.8683833  19.5184083  58.9516993  35.4363833  18.8604083
  58.9986993  35.3603833  20.2284083  58.9056993  35.0253833  19.5264083
  64.1026993  44.7033833  17.9304083  64.8036993  44.2213833  18.1194083
  63.4426993  44.1343833  17.9754083  64.1086993  44.5483833  17.9644083
  54.4786993  45.6133833  27.1424083  55.3196993  45.6763833  26.9204083
  54.4416993  46.0103833  27.9184083  54.5976993  45.6813833  27.2244083
  53.4856993  30.6913833  17.8664083  54.0216993  31.3793833  17.8564083
  53.4886993  30.4173833  17.0384083  53.5646993  30.7523833  17.7424083
  56.4416993  41.1243833  21.8914083  56.6136993  40.9143833  22.7204083
  55.7866993  40.5903833  21.6754083  56.3706993  41.0143833  21.9824083
  62.6696993  35.0383833  25.4064083  62.5746993  35.3573833  26.2124083
  62.0766993  34.3993833  25.3684083  62.5676993  34.9903833  25.5204083
  57.1916993  41.0623833  24.4814083  57.2446993  41.9093833  24.6834083
  56.9066993  40.6923833  25.2184083  57.1576993  41.1323833  24.6194083
  63.3686993  41.7573833  23.6114083  62.8546993  41.3453833  24.1824083
  63.2426993  42.6013833  23.7924083  63.2746993  41.8213833  23.7224083
  63.9256993  30.9823833  18.2424083  63.9746993  30.6643833  19.0534083
  64.2486993  30.3383833  17.7494083  63.9806993  30.8403833  18.2894083
  66.3896993  35.2183833  26.5504083  67.1616993  34.9933833  26.8874083
  65.9146993  35.4353833  27.2504083  66.4336993  35.2173833  26.7034083
  66.6216993  42.1963833  13.7384083  66.7406993  41.9093833  14.5534083
  67.4286993  42.2173833  13.4084083  66.7576993  42.1573833  13.8104083
  53.7576993  41.9283833  19.0694083  54.6086993  41.8483833  18.8964083
  53.4006993  41.2463833  18.6574083  53.8306993  41.8153833  18.9824083
  52.5246993  48.6533833  20.3064083  51.8516993  48.1553833  20.0614083
  52.9276993  48.8383833  19.5554083  52.4846993  48.6073833  20.1594083
  68.8556993  46.7053833  27.9924083  68.1736993  47.0153833  27.5454083
  68.4866993  46.2473833  28.6374083  68.6996993  46.6833833  28.0214083
  64.5166993  38.7333833  13.3234083  64.2966993  39.4643833  12.9014083
  64.0686993  38.7843833  14.0704083  64.4176993  38.8483833  13.3714083
  56.1256993  41.9353833  17.3044083  56.8386993  42.4303833  17.3944083
  56.3476993  41.3683833  16.6784083  56.2636993  41.9243833  17.2254083
  68.7036993  33.5943833  12.7764083  68.0416993  33.0263833  12.7994083
  68.5106993  34.1063833  12.0964083  68.5776993  33.5863833  12.6794083
  50.2816993  43.5783833  20.6244083  49.6146993  44.0663833  20.9004083
  50.9616993  44.1233833  20.6534083  50.2836993  43.7303833  20.6694083
  57.9286993  37.2883833  30.7204083  57.4446993  37.8653833  31.1624083
  57.9006993  37.5833833  29.8994083  57.8526993  37.4173833  30.6644083
  69.0266993  37.9723833  25.3324083  69.2416993  37.1723833  25.0564083
  68.1766993  38.0323833  25.1434083  68.9326993  37.8633833  25.2634083
  50.3476993  40.2623833  15.7274083  50.1626993  39.4233833  15.8794083
  51.0066993  40.2263833  15.1574083  50.4176993  40.1333833  15.6654083
  66.7056993  33.1523833  15.0554083  67.4516993  32.7453833  15.2544083
  66.9686993  33.8673833  14.6304083  66.8546993  33.1983833  15.0224083
  60.6486993  45.6383833  19.6314083  60.1256993  46.2723833  19.3384083
  60.9586993  45.2743833  18.9024083  60.6166993  45.6783833  19.4804083
  50.5196993  44.4263833  15.3024083  51.0716993  44.9953833  15.6664083
  50.2876993  43.9113833  15.9674083  50.5666993  44.4343833  15.4544083
  54.7236993  43.4263833  22.3914083  55.1906993  43.7153833  23.0694083
  55.2956993  42.9483833  21.9374083  54.8776993  43.3983833  22.4244083
  63.1596993  35.4403833  20.1284083  63.5036993  35.5923833  20.9154083
  62.7066993  34.7023833  20.2414083  63.1436993  35.3533833  20.2614083
  50.3496993  42.8753833  12.9304083  51.1056993  42.4433833  12.9884083
  50.3646993  43.4073833  13.6214083  50.4636993  42.8903833  13.0414083
  51.2896993  41.0963833  20.9354083  51.7206993  40.9673833  20.1884083
  51.0846993  41.9443833  20.9094083  51.3226993  41.2023833  20.8214083
  57.6356993  34.6603833  14.5854083  57.6336993  34.5433833  13.7204083
  57.4546993  35.5083833  14.6774083  57.6086993  34.7683833  14.4714083
  66.6896993  47.0873833  26.0824083  66.0186993  47.6013833  26.3004083
  66.7526993  47.1873833  25.2184083  66.5996993  47.1783833  25.9874083
  55.3736993  44.6123833  19.2174083  55.4996993  45.4553833  19.4044083
  56.0416993  44.2133833  19.6134083  55.4916993  44.6783833  19.3034083
  53.5036993  38.0953833  29.0794083  52.9676993  37.5893833  29.5474083
  53.5236993  37.7053833  28.2994083  53.4266993  37.9623833  29.0334083
  53.9886993  37.4923833  14.2194083  53.8606993  37.0443833  14.9574083
  53.4066993  37.1503833  13.6674083  53.8836993  37.3753833  14.2474083
  54.1556993  39.3223833  20.8184083  53.3746993  39.2633833  20.4354083
  54.2276993  38.5703833  21.2554083  54.0506993  39.2033833  20.8264083
  54.5856993  39.0593833  24.2864083  54.6106993  38.3843833  23.7354083
  53.9396993  39.5553833  23.9744083  54.4946993  39.0323833  24.1594083
  64.4806993  36.7723833  22.6824083  63.8186993  37.1003833  23.1454083
  64.6676993  37.4063833  22.1134083  64.4106993  36.9143833  22.6664083
  58.6856993  47.8363833  23.6784083  58.4086993  47.1953833  23.1554083
  58.4776993  48.5623833  23.2404083  58.6146993  47.8493833  23.5364083
  61.1256993  32.6783833  26.1114083  61.2746993  31.8533833  25.8684083
  61.5046993  32.7333833  26.8954083  61.2036993  32.5643833  26.1914083
  62.6736993  34.7413833  16.1934083  63.1636993  35.4583833  16.1164083
  61.8836993  35.0023833  15.9304083  62.6296993  34.8853833  16.1434083
  52.3846993  40.4143833  29.8454083  52.3476993  40.9153833  29.1314083
  52.7156993  39.6623833  29.5504083  52.4276993  40.3763833  29.6964083
  63.9876993  42.6193833  28.1034083  64.4716993  43.3373833  28.2014083
  64.3816993  42.1923833  27.4524083  64.1176993  42.6623833  28.0214083
  58.2836993  45.4643833  29.2804083  58.6376993  45.2863833  30.0574083
  57.8476993  44.7353833  29.0814083  58.2716993  45.3303833  29.3664083
  59.2556993  36.2113833  21.9184083  59.7356993  36.9103833  22.1264083
  59.6286993  35.5643833  22.3694083  59.3816993  36.2193833  22.0154083
  61.4446993  39.3803833  14.1924083  61.4366993  40.1023833  13.7024083
  60.8056993  39.5153833  14.7694083  61.3496993  39.5073833  14.2054083
  66.4166993  43.2503833  18.1734083  66.7726993  42.9003833  18.8884083
  66.4086993  42.5893833  17.6034083  66.4686993  43.1003833  18.1944083
  62.4616993  46.3163833  22.0174083  61.8586993  46.0203833  21.4604083
  63.0066993  46.7683833  21.5084083  62.4526993  46.3393833  21.8594083
  62.4746993  43.1673833  21.4174083  61.6776993  43.3913833  21.6914083
  62.7326993  42.5733833  22.0024083  62.3946993  43.1123833  21.5444083
  56.3666993  47.9793833  15.8654083  56.2196993  47.2033833  16.2364083
  57.0556993  47.8323833  15.3504083  56.4466993  47.8423833  15.8444083
  56.0376993  31.7223833  13.8534083  56.1346993  31.6153833  14.7144083
  55.3296993  32.2283833  13.7884083  55.9476993  31.7813833  13.9714083
  58.6586993  47.4953833  14.2674083  59.2806993  47.6583833  14.8574083
  58.6946993  48.1863833  13.7354083  58.7556993  47.6213833  14.2764083
  65.7346993  41.1653833  26.2634083  65.7896993  41.2903833  25.4014083
  66.4876993  41.4853833  26.5654083  65.8536993  41.2303833  26.1804083
  66.7666993  31.4633833  29.2504083  66.1296993  31.0633833  28.8084083
  66.7926993  31.0323833  30.0084083  66.6766993  31.3413833  29.2964083
  53.1596993  40.0293833  15.0964083  53.4836993  39.2503833  14.8744083
  53.8056993  40.3973833  15.5514083  53.3026993  39.9683833  15.1304083
  61.4656993  40.9713833  25.8634083  61.3106993  41.5813833  26.4674083
  61.9996993  40.4133833  26.2694083  61.5216993  40.9793833  26.0124083
  50.1566993  31.6903833  16.0644083  50.2856993  30.9823833  15.5724083
  49.7896993  31.3723833  16.7894083  50.1216993  31.5383833  16.0994083
  59.8496993  39.3713833  16.5214083  59.9086993  40.0213833  17.1004083
  59.6606993  38.6753833  17.0124083  59.8306993  39.3643833  16.6794083
  65.0756993  43.7003833  22.3904083  64.5966993  43.9983833  21.7244083
  64.7196993  42.9243833  22.5684083  64.9526993  43.6293833  22.3184083
  54.3456993  33.8883833  13.0334083  53.8346993  33.9413833  12.3274083
  55.1296993  34.1283833  12.7374083  54.3856993  33.9313833  12.8854083
  59.0726993  41.4183833  20.9524083  58.2256993  41.2243833  21.0334083
  59.3966993  41.2533833  21.7454083  58.9946993  41.3653833  21.0814083
  55.8246993  48.1483833  11.8384083  56.2636993  47.4513833  12.1264083
  56.0316993  48.7723833  12.4114083  55.9206993  48.1373833  11.9654083
  52.9206993  41.1113833  23.2684083  53.6426993  41.5993833  23.2314083
  52.6506993  41.0813833  22.4394083  52.9876993  41.1793833  23.1404083
  56.1506993  36.2823833  20.0034083  56.9966993  36.0923833  20.1014083
  55.7806993  35.5053833  19.8654083  56.2206993  36.1393833  19.9974083
  68.7676993  47.8663833  14.3304083  69.4616993  47.3993833  14.0824083
  68.2286993  47.2683833  14.6674083  68.7906993  47.7083833  14.3434083
  50.9716993  37.6203833  16.6584083  51.4606993  37.3283833  17.3194083
  51.1006993  37.0273833  16.0314083  51.0626993  37.4893833  16.6634083
  66.0066993  40.6423833  23.5094083  65.9996993  39.8663833  23.9074083
  65.1656993  40.8763833  23.5024083  65.8816993  40.5623833  23.5674083
  55.4966993  39.0543833  12.1444083  54.8866993  38.6493833  12.6184083
  55.1106993  39.1723833  11.3714083  55.3496993  39.0113833  12.1004083
  67.2626993  40.7133833  20.9464083  66.9766993  41.1143833  21.6664083
  68.1226993  40.6513833  21.0734083  67.3476993  40.7633833  21.0714083
  56.9516993  37.5153833  14.8544083  57.2236993  38.3413833  14.9214083
  56.0886993  37.5903833  14.7584083  56.8646993  37.6483833  14.8494083
  64.9246993  34.6373833  29.4864083  64.3996993  35.0963833  30.0104083
  64.5636993  33.8423833  29.4804083  64.7936993  34.5873833  29.5624083
  68.3936993  46.3463833  21.4754083  68.6836993  46.6033833  20.6944083
  69.0886993  46.4423833  21.9944083  68.5396993  46.3983833  21.4364083
  63.4166993  38.2063833  29.5624083  63.4896993  38.3103833  30.4254083
  62.7826993  38.7643833  29.3414083  63.3336993  38.3043833  29.6574083
  65.6846993  38.5253833  27.9274083  66.0036993  39.3113833  28.1304083
  65.3146993  38.2553833  28.6704083  65.6776993  38.6013833  28.0674083
  64.9986993  44.9493833  13.4574083  65.3326993  44.1433833  13.4924083
  64.2436993  44.8773833  13.8874083  64.9366993  44.8193833  13.5264083
  65.4806993  36.7833833  19.1164083  64.7356993  36.4603833  19.4344083
  65.4826993  37.6093833  19.3964083  65.3706993  36.8573833  19.2044083
  68.3826993  39.0673833  30.6624083  68.3306993  38.7263833  29.8614083
  69.1196993  39.5343833  30.6404083  68.4836993  39.0863833  30.5404083
  67.9206993  42.7433833  26.8684083  68.5486993  42.1943833  26.6124083
  67.8596993  43.3083833  26.2064083  68.0046993  42.7463833  26.7324083
  62.3726993  42.8243833  12.8604083  63.0566993  42.3103833  12.6914083
  61.9556993  42.8703833  12.0954083  62.4116993  42.7553833  12.7224083
  57.0546993  43.9743833  24.1644083  56.7566993  44.5663833  24.7314083
  57.1096993  44.4163833  23.4154083  57.0186993  44.1273833  24.1374083
  55.0336993  42.9243833  27.5624083  54.2276993  42.6343833  27.7294083
  54.9446993  43.7923833  27.5684083  54.9016993  43.0093833  27.5874083
  64.3926993  33.1133833  26.5774083  65.1366993  33.5653833  26.5144083
  63.8266993  33.5833833  26.1084083  64.4196993  33.2503833  26.4994083
  59.5706993  40.3973833  23.6554083  60.0466993  40.7713833  24.2834083
  58.7476993  40.5313833  23.9144083  59.5196993  40.4723833  23.7864083
  56.2806993  36.0003833  26.3964083  56.4416993  35.2563833  26.8234083
  56.2356993  35.7513833  25.5614083  56.2976993  35.8533833  26.3364083
  58.8346993  47.7903833  18.8834083  59.3806993  48.4693833  18.9374083
  58.4846993  47.8723833  18.0884083  58.8636993  47.9033833  18.7734083
  65.6776993  31.0933833  24.2474083  65.3976993  31.9183833  24.2034083
  66.3936993  31.1463833  24.7434083  65.7426993  31.2233833  24.3144083
  58.0326993  31.8083833  26.2764083  58.7376993  32.1283833  25.8744083
  58.2736993  31.0013833  26.5034083  58.1716993  31.7363833  26.2504083
  57.0176993  46.0183833  22.2724083  56.3936993  46.6003833  22.0904083
  57.2656993  45.7323833  21.4864083  56.9616993  46.0623833  22.1294083
  61.3266993  42.6523833  29.2614083  62.0836993  42.9383833  28.9354083
  60.7796993  42.7043833  28.5834083  61.3576993  42.7023833  29.1124083
  65.2356993  45.2023833  27.7654083  65.5816993  45.4723833  28.5194083
  65.5296993  45.7843833  27.1854083  65.3306993  45.3283833  27.7914083
  67.0986993  37.3483833  13.1044083  67.4766993  38.0253833  12.7044083
  66.2566993  37.5723833  13.1354083  67.0296993  37.4813833  13.0494083
  58.6116993  40.7943833  12.1874083  57.8066993  40.6173833  11.9024083
  58.5786993  41.6453833  12.3794083  58.4876993  40.8933833  12.1744083
  54.5416993  36.8613833  22.3374083  54.9816993  36.7583833  21.5914083
  55.0866993  36.5483833  22.9424083  54.6866993  36.8003833  22.3164083
  62.5576993  35.9633833  27.9294083  61.9096993  36.4333833  28.2774083
  63.1226993  35.8743833  28.5884083  62.5456993  36.0193833  28.0784083
  62.2456993  37.5003833  24.2274083  62.5476993  37.9203833  24.9304083
  62.2816993  36.6603833  24.4594083  62.2956993  37.4383833  24.3654083
  59.6706993  47.6673833  28.1524083  60.1486993  47.0673833  27.7364083
  59.3196993  47.2243833  28.8174083  59.6896993  47.5133833  28.1894083
  64.7936993  36.9473833  16.4794083  65.0006993  36.7463833  17.3034083
  65.5496993  37.2153833  16.1374083  64.9356993  36.9573833  16.5504083
  58.0886993  31.8463833  22.3844083  57.2626993  31.6973833  22.6214083
  58.0486993  31.8813833  21.5134083  57.9606993  31.8293833  22.2904083
  65.8156993  33.0303833  17.9534083  65.1016993  32.5593833  18.1244083
  65.6536993  33.3713833  17.1674083  65.6866993  33.0113833  17.8624083
  66.2586993  40.9743833  16.3334083  66.7346993  40.2453833  16.2854083
  65.4376993  40.6883833  16.2574083  66.2076993  40.8243833  16.3144083
  59.7296993  42.8863833  27.1724083  58.9346993  42.8223833  27.5234083
  59.8006993  43.7333833  26.9774083  59.6226993  43.0013833  27.1954083
  55.5596993  49.0933833  22.4894083  55.5706993  49.1523833  23.3594083
  55.1346993  48.3463833  22.3394083  55.4986993  48.9913833  22.5954083
  53.7176993  34.9883833  15.6444083  53.8436993  34.6593833  14.8464083
  52.9056993  34.7393833  15.8434083  53.6166993  34.9033833  15.5564083
  62.4746993  42.1413833  18.6884083  62.5506993  42.4823833  19.4874083
  62.6436993  41.2943833  18.8094083  62.5106993  42.0663833  18.8244083
  59.9966993  41.4153833  18.2534083  59.6986993  41.1003833  19.0104083
  60.6916993  41.8883833  18.4884083  60.0556993  41.4383833  18.4004083
  60.2186993  45.5333833  26.2804083  60.9056993  45.4193833  26.8054083
  60.3526993  46.3243833  25.9364083  60.3396993  45.6333833  26.3074083
  68.3946993  38.1423833  28.0914083  67.5396993  38.0203833  28.2174083
  68.5476993  37.7473833  27.3284083  68.2906993  38.0653833  27.9974083
  62.9076993  38.8073833  26.6674083  62.6526993  38.0883833  27.0894083
  63.7286993  38.9233833  26.9374083  62.9916993  38.7183833  26.7694083
  60.8416993  39.9973833  29.8544083  61.1646993  40.6833833  29.4224083
  60.1376993  40.3203833  30.2564083  60.7846993  40.1463833  29.8494083
  63.9256993  48.3713833  20.7834083  63.4746993  49.0143833  21.1624083
  64.6336993  48.2923833  21.2884083  63.9636993  48.4543833  20.9144083
  60.6266993  43.4613833  23.7134083  59.9326993  43.8633833  24.0564083
  61.3036993  43.8943833  24.0524083  60.6236993  43.5843833  23.8144083
  66.0036993  46.0543833  30.2934083  66.7796993  45.6643833  30.3764083
  65.5346993  45.7183833  30.9484083  66.0486993  45.9473833  30.4024083
  53.6946993  36.9993833  26.0604083  54.0696993  37.6183833  25.5734083
  54.3686993  36.5253833  26.3454083  53.8496993  37.0213833  26.0304083
  67.0286993  38.0873833  15.7754083  67.1316993  38.0293833  14.9114083
  67.7696993  37.7553833  16.0934083  67.1536993  38.0303833  15.6944083
  54.0236993  32.8573833  27.7464083  53.9426993  32.0133833  27.9524083
  53.7096993  32.9013833  26.9334083  53.9656993  32.7393833  27.6564083
  60.9486993  45.0523833  16.8824083  60.7436993  45.8853833  16.7234083
  60.1736993  44.6703833  17.0044083  60.8036993  45.1193833  16.8774083
  66.1306993  38.2333833  25.1314083  66.1286993  37.3703833  25.2554083
  66.1976993  38.5573833  25.9384083  66.1406993  38.1533833  25.2684083
  52.3226993  36.6093833  12.1774083  51.6506993  36.6233833  12.7334083
  52.4176993  35.7613833  11.9934083  52.2376993  36.4863833  12.2324083
  62.0096993  33.0333833  28.9134083  62.1016993  33.7453833  29.4074083
  61.3726993  32.5883833  29.3104083  61.9286993  33.0723833  29.0454083
  56.3106993  45.3143833  13.2914083  56.7516993  45.3943833  14.0394083
  55.5056993  45.0983833  13.5494083  56.2566993  45.2943833  13.4404083
  64.6016993  33.7393833  22.5674083  65.4566993  33.8383833  22.7124083
  64.2326993  34.2923833  23.1324083  64.6736993  33.8363833  22.6724083
  55.6296993  39.9653833  26.9444083  55.2336993  40.7393833  27.0194083
  55.2236993  39.5923833  26.2684083  55.5116993  40.0243833  26.8554083
  64.9056993  39.0193833  21.0584083  65.5716993  39.5603833  21.2184083
  64.5606993  39.3303833  20.3194083  64.9526993  39.1453833  20.9734083
  65.2186993  47.0853833  16.8654083  65.0446993  46.4313833  17.4154083
  65.9316993  46.8143833  16.4424083  65.2986993  46.9483833  16.8844083
  53.6396993  44.3843833  13.8924083  53.3956993  44.0773833  14.6724083
  53.6066993  43.6813833  13.3764083  53.5986993  44.2353833  13.9314083
  56.4586993  42.6293833  12.6354083  55.6406993  42.3613833  12.7754083
  56.4306993  43.4813833  12.8204083  56.3336993  42.7163833  12.6834083
  56.0586993  32.9423833  24.3944083  55.1946993  33.0263833  24.4744083
  56.2786993  32.4283833  25.0634083  55.9636993  32.8793833  24.5054083
  68.0766993  31.5773833  25.7234083  68.0246993  31.5333833  26.5934083
  68.7636993  31.0743833  25.5334083  68.1706993  31.4973833  25.8234083
  60.1616993  33.6903833  22.7684083  59.4246993  33.2363833  22.8814083
  60.7326993  33.2883833  23.2914083  60.1366993  33.5633833  22.8624083
  62.8936993  44.5383833  24.5564083  63.0996993  44.8393833  25.3484083
  62.8326993  45.2603833  24.0714083  62.9146993  44.6893833  24.6014083
  62.4276993  48.7523833  28.8024083  61.6746993  48.7343833  28.3614083
  62.5956993  49.6043833  28.8864083  62.3416993  48.8753833  28.7494083
  57.6646993  38.0193833  27.9724083  57.3426993  37.4433833  27.4024083
  57.3056993  38.7743833  27.7264083  57.5646993  38.0453833  27.8524083
  58.4606993  31.2713833  12.5994083  58.5386993  31.5183833  11.7664083
  57.7176993  31.6483833  12.8574083  58.3626993  31.3633833  12.5144083
  67.7056993  43.1773833  24.0144083  67.6736993  42.3153833  23.8794083
  67.0126993  43.4793833  23.5804083  67.5986993  43.0943833  23.9304083
  56.0996993  48.3753833  28.2204083  56.1406993  48.5013833  29.0834083
  56.7506993  47.8153833  28.0644083  56.2016993  48.3113833  28.3254083
  65.8106993  46.4373833  22.8114083  66.3376993  46.3543833  22.1204083
  65.4196993  45.6593833  22.8654083  65.8306993  46.3103833  22.7174083
  62.3246993  31.8813833  22.0194083  62.9946993  32.4253833  22.1464083
  61.8216993  32.3053833  21.4464083  62.3496993  32.0243833  21.9534083
  61.6836993  37.6893833  19.5124083  62.2346993  37.0823833  19.8124083
  61.2586993  37.9523833  20.2274083  61.7026993  37.6383833  19.6614083
  51.9316993  36.3393833  18.9984083  51.5636993  36.6413833  19.7294083
  52.4656993  35.7103833  19.2824083  51.9556993  36.2913833  19.1484083
  63.6536993  39.5203833  16.0744083  63.7216993  38.6703833  16.2554083
  62.8306993  39.6063833  15.7964083  63.5416993  39.4073833  16.0604083
  53.4056993  48.0143833  15.2844083  53.2606993  48.1703833  14.4384083
  54.2716993  48.0933833  15.3624083  53.5126993  48.0493833  15.1714083
  57.5726993  40.4113833  15.0124083  57.6726993  40.5503833  14.1574083
  58.3906993  40.3513833  15.3084083  57.7076993  40.4223833  14.9294083
  66.7326993  48.4753833  12.4924083  67.3696993  48.3413833  13.0734083
  66.3916993  47.6813833  12.3754083  66.7766993  48.3383833  12.5604083
  66.9276993  40.8933833  29.2254083  67.5616993  40.7233833  29.7994083
  67.3446993  41.2963833  28.5734083  67.0826993  40.9283833  29.2144083
  62.8076993  44.7403833  14.8144083  62.5566993  44.6123833  15.6404083
  62.4906993  44.0453833  14.3934083  62.7236993  44.6193833  14.8744083
  67.5526993  35.4573833  29.9634083  67.3566993  36.1013833  30.5184083
  66.8306993  34.9673833  29.9554083  67.4176993  35.4803833  30.0444083
  67.4516993  36.3983833  22.9344083  66.6186993  36.6483833  22.8624083
  67.3956993  35.5583833  23.1634083  67.3206993  36.3113833  22.9574083
  56.7116993  33.3863833  28.1284083  56.9456993  32.8103833  27.5154083
  55.8696993  33.2053833  28.2694083  56.6216993  33.2743833  28.0584083
  64.3386993  41.0043833  30.5804083  65.2096993  40.9683833  30.5444083
  64.1196993  41.4243833  29.8484083  64.4356993  41.0603833  30.4674083
  54.0926993  46.8293833  21.7614083  54.0136993  46.0193833  21.4454083
  53.6486993  47.3163833  21.1894083  54.0156993  46.7813833  21.6304083
  59.6936993  42.9483833  14.2444083  60.4106993  42.6013833  13.8884083
  59.6596993  43.7483833  13.8964083  59.7946993  43.0153833  14.1404083
  51.6646993  49.0733833  25.3424083  52.1576993  49.0173833  26.0604083
  51.8526993  48.3403833  24.9074083  51.7656993  48.9563833  25.3844083
  60.9116993  38.5053833   3.1541673  60.3876993  39.1013833   3.5171673
  61.3086993  38.1373833   3.8381673  60.8926993  38.5393833   3.3091673
  50.7206993  45.3803833   4.8651673  50.8496993  45.1003833   5.6811673
  50.1106993  44.8393833   4.5561673  50.6496993  45.2593833   4.9401673
  57.2946993  42.9053833   9.9321673  57.0586993  42.9023833  10.7721673
  56.5466993  42.7573833   9.5081673  57.1486993  42.8823833   9.9931673
  56.6746993  35.5113833   4.4141673  57.3526993  35.5293833   3.8651673
  56.6296993  34.6753833   4.6591673  56.7676993  35.3903833   4.3691673
  57.2766993  46.0973833   7.1951673  57.4146993  46.8573833   6.7881673
  58.0676993  45.7323833   7.2221673  57.4136993  46.1563833   7.1391673
  60.3966993  37.5623833   9.2501673  59.5486993  37.4633833   9.0721673
  60.4256993  38.3073833   9.7041673  60.2756993  37.6583833   9.2911673
  64.9546993  30.5223833   8.3641673  64.7966993  31.2913833   7.9821673
  64.1826993  30.3023833   8.7081673  64.8166993  30.6033833   8.3591673
  50.6226993  37.6623833   2.0801673  50.3666993  38.4933833   2.0051673
  49.9586993  37.2793833   2.4971673  50.4866993  37.7283833   2.1311673
  53.6516993  32.4793833   2.5711673  53.1306993  31.8513833   2.2631673
  54.2426993  32.0423833   3.0421673  53.6626993  32.3213833   2.5951673
  56.9576993  34.6123833  11.8691673  57.0746993  34.1583833  11.1331673
  57.2456993  35.4103833  11.6661673  57.0176993  34.6633833  11.7301673
  63.1226993  47.9063833   5.2771673  63.8666993  48.3623833   5.2671673
  63.0016993  47.6923833   4.4401673  63.2146993  47.9423833   5.1521673
  52.6906993  34.2093833  10.8531673  51.9126993  33.8193833  10.7811673
  53.1816993  33.7973833  10.2621673  52.6476993  34.0903833  10.7551673
  59.3396993  31.8523833  10.0211673  59.5176993  31.0433833   9.7461673
  59.1966993  32.2933833   9.2821673  59.3446993  31.7983833   9.8711673
  55.1246993  48.6003833   6.4471673  55.4166993  48.5333833   7.2671673
  54.4986993  47.9953833   6.4021673  55.0756993  48.5013833   6.5621673
  67.4856993  33.4593833   4.5421673  68.2426993  33.5313833   4.1141673
  67.5486993  32.6863833   4.9411673  67.6066993  33.3563833   4.5371673
  50.0386993  34.7573833   8.4391673  50.0346993  35.3443833   9.0851673
  50.6326993  35.0693833   7.8821673  50.1256993  34.8903833   8.4521673
  62.3766993  45.0913833   8.9811673  62.3426993  45.4733833   9.7651673
  63.2306993  45.0493833   8.8101673  62.4976993  45.1413833   9.0721673
  53.1176993  46.7623833   5.5691673  52.4196993  46.2543833   5.6951673
  53.3776993  46.5573833   4.7611673  53.0526993  46.6573833   5.4681673
  60.8286993  48.2553833   6.4791673  61.5966993  48.1753833   6.0731673
  60.2456993  48.1343833   5.8411673  60.8556993  48.2253833   6.3251673
  54.4786993  45.6133833   8.1361673  55.3196993  45.6763833   7.9141673
  54.4416993  46.0103833   8.9121673  54.5976993  45.6813833   8.2181673
  56.4416993  41.1243833   2.8851673  56.6136993  40.9143833   3.7141673
  55.7866993  40.5903833   2.6691673  56.3706993  41.0143833   2.9761673
  62.6696993  35.0383833   6.4001673  62.5746993  35.3573833   7.2061673
  62.0766993  34.3993833   6.3621673  62.5676993  34.9903833   6.5141673
  57.1916993  41.0623833   5.4751673  57.2446993  41.9093833   5.6771673
  56.9066993  40.6923833   6.2121673  57.1576993  41.1323833   5.6131673
  63.3686993  41.7573833   4.6051673  62.8546993  41.3453833   5.1761673
  63.2426993  42.6013833   4.7861673  63.2746993  41.8213833   4.7161673
  50.0126993  45.4333833  11.6861673  50.7686993  45.7823833  11.9441673
  50.1896993  44.5803833  11.6291673  50.1506993  45.3583833  11.7161673
  66.3896993  35.2183833   7.5441673  67.1616993  34.9933833   7.8811673
  65.9146993  35.4353833   8.2441673  66.4336993  35.2173833   7.6971673
  52.0746993  35.6033833   3.5961673  52.9176993  35.8233833   3.5531673
  51.6856993  36.1763833   3.0651673  52.1416993  35.7203833   3.5111673
  68.8556993  46.7053833   8.9861673  68.1736993  47.0153833   8.5391673
  68.4866993  46.2473833   9.6311673  68.6996993  46.6833833   9.0151673
  57.9286993  37.2883833  11.7141673  57.4446993  37.8653833  12.1561673
  57.9006993  37.5833833  10.8931673  57.8526993  37.4173833  11.6581673
  69.0266993  37.9723833   6.3261673  69.2416993  37.1723833   6.0501673
  68.1766993  38.0323833   6.1371673  68.9326993  37.8633833   6.2571673
  54.7236993  43.4263833   3.3851673  55.1906993  43.7153833   4.0631673
  55.2956993  42.9483833   2.9311673  54.8776993  43.3983833   3.4181673
  66.6896993  47.0873833   7.0761673  66.0186993  47.6013833   7.2941673
  66.7526993  47.1873833   6.2121673  66.5996993  47.1783833   6.9811673
  53.5036993  38.0953833  10.0731673  52.9676993  37.5893833  10.5411673
  53.5236993  37.7053833   9.2931673  53.4266993  37.9623833  10.0271673
  54.5856993  39.0593833   5.2801673  54.6106993  38.3843833   4.7291673
  53.9396993  39.5553833   4.9681673  54.4946993  39.0323833   5.1531673
  64.4806993  36.7723833   3.6761673  63.8186993  37.1003833   4.1391673
  64.6676993  37.4063833   3.1071673  64.4106993  36.9143833   3.6601673
  58.6856993  47.8363833   4.6721673  58.4086993  47.1953833   4.1491673
  58.4776993  48.5623833   4.2341673  58.6146993  47.8493833   4.5301673
  61.1256993  32.6783833   7.1051673  61.2746993  31.8533833   6.8621673
  61.5046993  32.7333833   7.8891673  61.2036993  32.5643833   7.1851673
  52.3846993  40.4143833  10.8391673  52.3476993  40.9153833  10.1251673
  52.7156993  39.6623833  10.5441673  52.4276993  40.3763833  10.6901673
  63.9876993  42.6193833   9.0971673  64.4716993  43.3373833   9.1951673
  64.3816993  42.1923833   8.4461673  64.1176993  42.6623833   9.0151673
  58.2836993  45.4643833  10.2741673  58.6376993  45.2863833  11.0511673
  57.8476993  44.7353833  10.0751673  58.2716993  45.3303833  10.3601673
  59.2556993  36.2113833   2.9121673  59.7356993  36.9103833   3.1201673
  59.6286993  35.5643833   3.3631673  59.3816993  36.2193833   3.0091673
  62.4616993  46.3163833   3.0111673  61.8586993  46.0203833   2.4541673
  63.0066993  46.7683833   2.5021673  62.4526993  46.3393833   2.8531673
  62.4746993  43.1673833   2.4111673  61.6776993  43.3913833   2.6851673
  62.7326993  42.5733833   2.9961673  62.3946993  43.1123833   2.5381673
  65.7346993  41.1653833   7.2571673  65.7896993  41.2903833   6.3951673
  66.4876993  41.4853833   7.5591673  65.8536993  41.2303833   7.1741673
  61.9256993  46.5143833  11.5341673  62.0896993  46.7973833  12.3431673
  62.1886993  47.1753833  11.0291673  61.9886993  46.6543833  11.5791673
  66.7666993  31.4633833  10.2441673  66.1296993  31.0633833   9.8021673
  66.7926993  31.0323833  11.0021673  66.6766993  31.3413833  10.2901673
  61.4656993  40.9713833   6.8571673  61.3106993  41.5813833   7.4611673
  61.9996993  40.4133833   7.2631673  61.5216993  40.9793833   7.0061673
  65.0756993  43.7003833   3.3841673  64.5966993  43.9983833   2.7181673
  64.7196993  42.9243833   3.5621673  64.9526993  43.6293833   3.3121673
  59.0726993  41.4183833   1.9461673  58.2256993  41.2243833   2.0271673
  59.3966993  41.2533833   2.7391673  58.9946993  41.3653833   2.0751673
  52.9206993  41.1113833   4.2621673  53.6426993  41.5993833   4.2251673
  52.6506993  41.0813833   3.4331673  52.9876993  41.1793833   4.1341673
  66.0066993  40.6423833   4.5031673  65.9996993  39.8663833   4.9011673
  65.1656993  40.8763833   4.4961673  65.8816993  40.5623833   4.5611673
  52.3156993  42.1633833   8.5401673  51.8946993  41.6453833   7.9791673
  51.9636993  42.9493833   8.3971673  52.2016993  42.2033833   8.4361673
  67.2626993  40.7133833   1.9401673  66.9766993  41.1143833   2.6601673
  68.1226993  40.6513833   2.0671673  67.3476993  40.7633833   2.0651673
  64.9246993  34.6373833  10.4801673  64.3996993  35.0963833  11.0041673
  64.5636993  33.8423833  10.4741673  64.7936993  34.5873833  10.5561673
  68.3936993  46.3463833   2.4691673  68.6836993  46.6033833   1.6881673
  69.0886993  46.4423833   2.9881673  68.5396993  46.3983833   2.4301673
  63.4166993  38.2063833  10.5561673  63.4896993  38.3103833  11.4191673
  62.7826993  38.7643833  10.3351673  63.3336993  38.3043833  10.6511673
  65.6846993  38.5253833   8.9211673  66.0036993  39.3113833   9.1241673
  65.3146993  38.2553833   9.6641673  65.6776993  38.6013833   9.0611673
  68.3826993  39.0673833  11.6561673  68.3306993  38.7263833  10.8551673
  69.1196993  39.5343833  11.6341673  68.4836993  39.0863833  11.5341673
  67.9206993  42.7433833   7.8621673  68.5486993  42.1943833   7.6061673
  67.8596993  43.3083833   7.2001673  68.0046993  42.7463833   7.7261673
  57.0546993  43.9743833   5.1581673  56.7566993  44.5663833   5.7251673
  57.1096993  44.4163833   4.4091673  57.0186993  44.1273833   5.1311673
  55.0336993  42.9243833   8.5561673  54.2276993  42.6343833   8.7231673
  54.9446993  43.7923833   8.5621673  54.9016993  43.0093833   8.5811673
  64.3926993  33.1133833   7.5711673  65.1366993  33.5653833   7.5081673
  63.8266993  33.5833833   7.1021673  64.4196993  33.2503833   7.4931673
  59.5706993  40.3973833   4.6491673  60.0466993  40.7713833   5.2771673
  58.7476993  40.5313833   4.9081673  59.5196993  40.4723833   4.7801673
  56.2806993  36.0003833   7.3901673  56.4416993  35.2563833   7.8171673
  56.2356993  35.7513833   6.5551673  56.2976993  35.8533833   7.3301673
  65.6776993  31.0933833   5.2411673  65.3976993  31.9183833   5.1971673
  66.3936993  31.1463833   5.7371673  65.7426993  31.2233833   5.3081673
  58.0326993  31.8083833   7.2701673  58.7376993  32.1283833   6.8681673
  58.2736993  31.0013833   7.4971673  58.1716993  31.7363833   7.2441673
  57.0176993  46.0183833   3.2661673  56.3936993  46.6003833   3.0841673
  57.2656993  45.7323833   2.4801673  56.9616993  46.0623833   3.1231673
  61.3266993  42.6523833  10.2551673  62.0836993  42.9383833   9.9291673
  60.7796993  42.7043833   9.5771673  61.3576993  42.7023833  10.1061673
  65.2356993  45.2023833   8.7591673  65.5816993  45.4723833   9.5131673
  65.5296993  45.7843833   8.1791673  65.3306993  45.3283833   8.7851673
  54.5416993  36.8613833   3.3311673  54.9816993  36.7583833   2.5851673
  55.0866993  36.5483833   3.9361673  54.6866993  36.8003833   3.3101673
  62.5576993  35.9633833   8.9231673  61.9096993  36.4333833   9.2711673
  63.1226993  35.8743833   9.5821673  62.5456993  36.0193833   9.0721673
  62.2456993  37.5003833   5.2211673  62.5476993  37.9203833   5.9241673
  62.2816993  36.6603833   5.4531673  62.2956993  37.4383833   5.3591673
  59.6706993  47.6673833   9.1461673  60.1486993  47.0673833   8.7301673
  59.3196993  47.2243833   9.8111673  59.6896993  47.5133833   9.1831673
  58.0886993  31.8463833   3.3781673  57.2626993  31.6973833   3.6151673
  58.0486993  31.8813833   2.5071673  57.9606993  31.8293833   3.2841673
  59.7296993  42.8863833   8.1661673  58.9346993  42.8223833   8.5171673
  59.8006993  43.7333833   7.9711673  59.6226993  43.0013833   8.1891673
  50.6536993  32.2443833   9.4131673  50.5136993  33.0393833   9.0821673
  49.8676993  32.0013833   9.7021673  50.5166993  32.3263833   9.4071673
  55.5596993  49.0933833   3.4831673  55.5706993  49.1523833   4.3531673
  55.1346993  48.3463833   3.3331673  55.4986993  48.9913833   3.5891673
  60.2186993  45.5333833   7.2741673  60.9056993  45.4193833   7.7991673
  60.3526993  46.3243833   6.9301673  60.3396993  45.6333833   7.3011673
  68.3946993  38.1423833   9.0851673  67.5396993  38.0203833   9.2111673
  68.5476993  37.7473833   8.3221673  68.2906993  38.0653833   8.9911673
  62.9076993  38.8073833   7.6611673  62.6526993  38.0883833   8.0831673
  63.7286993  38.9233833   7.9311673  62.9916993  38.7183833   7.7631673
  52.3236993  48.5913833   8.9251673  51.6696993  48.0223833   9.0231673
  51.9486993  49.3643833   9.0761673  52.1716993  48.6213833   8.9621673
  60.8416993  39.9973833  10.8481673  61.1646993  40.6833833  10.4161673
  60.1376993  40.3203833  11.2501673  60.7846993  40.1463833  10.8431673
  63.9256993  48.3713833   1.7771673  63.4746993  49.0143833   2.1561673
  64.6336993  48.2923833   2.2821673  63.9636993  48.4543833   1.9081673
  60.6266993  43.4613833   4.7071673  59.9326993  43.8633833   5.0501673
  61.3036993  43.8943833   5.0461673  60.6236993  43.5843833   4.8081673
  66.0036993  46.0543833  11.2871673  66.7796993  45.6643833  11.3701673
  65.5346993  45.7183833  11.9421673  66.0486993  45.9473833  11.3961673
  53.6946993  36.9993833   7.0541673  54.0696993  37.6183833   6.5671673
  54.3686993  36.5253833   7.3391673  53.8496993  37.0213833   7.0241673
  51.4696993  35.4473833   6.3291673  51.5466993  35.2783833   5.4761673
  52.2156993  35.8533833   6.5261673  51.5906993  35.4823833   6.2321673
  54.0236993  32.8573833   8.7401673  53.9426993  32.0133833   8.9461673
  53.7096993  32.9013833   7.9271673  53.9656993  32.7393833   8.6501673
  66.1306993  38.2333833   6.1251673  66.1286993  37.3703833   6.2491673
  66.1976993  38.5573833   6.9321673  66.1406993  38.1533833   6.2621673
  50.8666993  40.6733833   6.5531673  51.1866993  40.8923833   5.7721673
  50.7666993  39.8083833   6.4981673  50.8986993  40.5783833   6.4301673
  62.0096993  33.0333833   9.9071673  62.1016993  33.7453833  10.4011673
  61.3726993  32.5883833  10.3041673  61.9286993  33.0723833  10.0391673
  64.6016993  33.7393833   3.5611673  65.4566993  33.8383833   3.7061673
  64.2326993  34.2923833   4.1261673  64.6736993  33.8363833   3.6661673
  55.6296993  39.9653833   7.9381673  55.2336993  40.7393833   8.0131673
  55.2236993  39.5923833   7.2621673  55.5116993  40.0243833   7.8491673
  56.0586993  32.9423833   5.3881673  55.1946993  33.0263833   5.4681673
  56.2786993  32.4283833   6.0571673  55.9636993  32.8793833   5.4991673
  68.0766993  31.5773833   6.7171673  68.0246993  31.5333833   7.5871673
  68.7636993  31.0743833   6.5271673  68.1706993  31.4973833   6.8171673
  60.1616993  33.6903833   3.7621673  59.4246993  33.2363833   3.8751673
  60.7326993  33.2883833   4.2851673  60.1366993  33.5633833   3.8561673
  62.8936993  44.5383833   5.5501673  63.0996993  44.8393833   6.3421673
  62.8326993  45.2603833   5.0651673  62.9146993  44.6893833   5.5951673
  62.4276993  48.7523833   9.7961673  61.6746993  48.7343833   9.3551673
  62.5956993  49.6043833   9.8801673  62.3416993  48.8753833   9.7431673
  57.6646993  38.0193833   8.9661673  57.3426993  37.4433833   8.3961673
  57.3056993  38.7743833   8.7201673  57.5646993  38.0453833   8.8461673
  67.7056993  43.1773833   5.0081673  67.6736993  42.3153833   4.8731673
  67.0126993  43.4793833   4.5741673  67.5986993  43.0943833   4.9241673
  56.0996993  48.3753833   9.2141673  56.1406993  48.5013833  10.0771673
  56.7506993  47.8153833   9.0581673  56.2016993  48.3113833   9.3191673
  65.8106993  46.4373833   3.8051673  66.3376993  46.3543833   3.1141673
  65.4196993  45.6593833   3.8591673  65.8306993  46.3103833   3.7111673
  53.2786993  33.0253833   6.0361673  52.9356993  32.2583833   5.8021673
  52.5836993  33.5493833   6.1001673  53.1256993  32.9893833   6.0111673
  62.3246993  31.8813833   3.0131673  62.9946993  32.4253833   3.1401673
  61.8216993  32.3053833   2.4401673  62.3496993  32.0243833   2.9471673
  53.6926993  46.7583833  10.5741673  54.2876993  47.1893833  11.0461673
  53.3286993  47.3823833  10.0851673  53.7266993  46.9143833  10.5711673
  51.6196993  44.7473833   7.5031673  51.0456993  45.1633833   8.0121673
  52.3526993  45.2123833   7.5981673  51.6436993  44.8773833   7.5921673
  66.9276993  40.8933833  10.2191673  67.5616993  40.7233833  10.7931673
  67.3446993  41.2963833   9.5671673  67.0826993  40.9283833  10.2081673
  67.5526993  35.4573833  10.9571673  67.3566993  36.1013833  11.5121673
  66.8306993  34.9673833  10.9491673  67.4176993  35.4803833  11.0381673
  67.4516993  36.3983833   3.9281673  66.6186993  36.6483833   3.8561673
  67.3956993  35.5583833   4.1571673  67.3206993  36.3113833   3.9511673
  56.7116993  33.3863833   9.1221673  56.9456993  32.8103833   8.5091673
  55.8696993  33.2053833   9.2631673  56.6216993  33.2743833   9.0521673
  64.3386993  41.0043833  11.5741673  65.2096993  40.9683833  11.5381673
  64.1196993  41.4243833  10.8421673  64.4356993  41.0603833  11.4611673
  54.0926993  46.8293833   2.7551673  54.0136993  46.0193833   2.4391673
  53.6486993  47.3163833   2.1831673  54.0156993  46.7813833   2.6241673
  51.6646993  49.0733833   6.3361673  52.1576993  49.0173833   7.0541673
  51.8526993  48.3403833   5.9011673  51.7656993  48.9563833   6.3781673
  61.1026993  13.1112753  74.5081313  60.8576993  13.5992753  73.8281313
  61.9656993  13.0382753  74.4081313  61.1936993  13.1722753  74.3931313
  50.7806993  24.1672753  74.6351313  50.3396993  24.2852753  75.3781313
  50.4976993  23.3922753  74.3501313  50.6736993  24.0702753  74.7031313
  67.0556993  27.4682753  72.1501313  67.7566993  26.9492753  72.1461313
  66.4686993  27.0232753  71.6811313  67.0726993  27.3252753  72.0801313
  50.5236993  17.9592753  71.1421313  49.7456993  18.1212753  70.7821313
  50.5626993  17.0882753  71.1641313  50.4146993  17.8542753  71.0921313
  53.6626993  23.2222753  69.8141313  53.2706993  22.8512753  69.1281313
  53.5826993  22.6242753  70.4431313  53.5926993  23.0792753  69.8051313
  63.5826993  21.0942753  75.8551313  63.6626993  21.0982753  74.9861313
  62.9986993  20.4622753  76.0041313  63.5076993  21.0012753  75.7491313
  53.2896993  24.8632753  73.7141313  53.8976993  24.6932753  74.3171313
  52.5386993  24.7232753  74.1351313  53.2686993  24.8172753  73.8651313
  57.5716993  14.1982753  73.6631313  57.5016993  14.8752753  73.1171313
  58.3126993  13.8102753  73.4141313  57.6706993  14.2412753  73.5451313
  52.1806993  27.9542753  69.7911313  52.6476993  28.0382753  69.0591313
  52.6356993  27.3762753  70.2601313  52.3166993  27.8812753  69.7521313
  52.1666993  21.4232753  75.0921313  51.7046993  21.0312753  74.4651313
  52.8666993  20.9102753  75.1841313  52.2016993  21.2902753  75.0131313
  54.1676993  19.5232753  75.1151313  54.9846993  19.3362753  75.3581313
  53.6906993  18.9092753  75.5111313  54.2176993  19.4052753  75.2101313
  58.3716993  25.5042753  77.7251313  58.7196993  24.7052753  77.7551313
  59.0366993  26.0082753  77.4701313  58.5216993  25.4602753  77.6921313
  58.4286993  24.9532753  73.9361313  58.7596993  24.3092753  74.4221313
  58.6686993  24.7422753  73.1251313  58.5126993  24.8272753  73.8881313
  54.7646993  14.6172753  74.3811313  54.4686993  15.1182753  73.7311313
  55.6316993  14.6952753  74.3241313  54.8486993  14.7032753  74.2771313
  57.7436993  13.7592753  76.6041313  57.8166993  14.6192753  76.7331313
  57.7056993  13.6842753  75.7361313  57.7486993  13.8752753  76.4951313
  62.4166993  16.6852753  68.9031313  61.9666993  17.3662753  69.2101313
  62.5306993  16.1812753  69.6061313  62.3676993  16.7112753  69.0521313
  50.6226993  19.1842753  78.1051313  50.3666993  20.0152753  78.0301313
  49.9586993  18.8012753  78.5221313  50.4866993  19.2502753  78.1561313
  50.5326993  28.8942753  76.0051313  49.9406993  29.4522753  75.6921313
  50.9586993  28.6252753  75.2931313  50.5086993  28.9362753  75.8541313
  56.3726993  26.7382753  73.4851313  55.7936993  26.4632753  74.0771313
  56.9966993  26.1292753  73.5101313  56.3796993  26.6082753  73.5761313
  62.5156993  29.0262753  71.0071313  63.2426993  29.4982753  71.1091313
  62.7446993  28.2322753  71.2871313  62.6576993  28.9792753  71.0641313
  60.6836993  29.4182753  72.9971313  60.8976993  29.9452753  73.6591313
  61.4506993  29.2442753  72.6181313  60.8286993  29.4702753  73.0391313
  52.0776993  27.5642753  73.9361313  52.7336993  26.9892753  73.9511313
  52.4666993  28.3132753  73.7151313  52.2326993  27.5892753  73.9061313
  67.8106993  16.6582753  75.1981313  67.4646993  17.3362753  75.6241313
  67.1746993  16.0602753  75.2141313  67.6656993  16.6702753  75.2631313
  52.8956993  26.0512753  77.4361313  53.3186993  25.6952753  76.7621313
  53.2196993  25.6292753  78.1281313  53.0056993  25.9362753  77.4391313
  56.1266993  28.9032753  76.7321313  56.9706993  29.0072753  76.5371313
  55.8296993  29.7212753  76.8001313  56.2076993  29.0392753  76.7131313
  59.9336993  18.3002753  74.8191313  60.2206993  18.0682753  74.0291313
  60.6656993  18.3792753  75.2881313  60.0836993  18.2772753  74.7721313
  60.6556993  18.6392753  69.9401313  60.9366993  19.4272753  70.1891313
  59.8796993  18.8042753  69.5771313  60.5826993  18.7802753  69.9231313
  64.6966993  30.6132753  71.4071313  65.3616993  30.4652753  70.8621313
  65.0566993  30.5302753  72.1971313  64.8486993  30.5792753  71.4431313
  59.5146993  26.8102753  69.7561313  59.3336993  27.3552753  70.4131313
  60.2806993  27.1002753  69.4551313  59.6006993  26.9342753  69.8091313
  63.0216993  14.7062753  70.8101313  63.5616993  14.0242753  70.8861313
  63.0836993  15.1042753  71.5841313  63.1106993  14.6642753  70.9361313
  50.9756993  15.8742753  73.3791313  50.8616993  15.0102753  73.4101313
  50.5006993  16.1682753  74.0491313  50.8886993  15.7902753  73.4821313
  60.2796993  17.0822753  72.1241313  59.7716993  16.4202753  71.8701313
  60.3316993  17.5862753  71.4141313  60.2126993  17.0592753  71.9821313
  60.2796993  14.0232753  72.0151313  59.8246993  13.6212753  71.3891313
  61.0526993  14.1782753  71.6401313  60.3266993  13.9872753  71.8671313
  67.1056993  30.3802753  75.4051313  66.6506993  31.0972753  75.6061313
  66.4916993  29.8092753  75.1631313  66.9476993  30.4022753  75.3991313
  58.8776993  16.3902753  76.5371313  58.9516993  16.9582753  75.8791313
  58.9986993  16.8822753  77.2471313  58.9056993  16.5472753  76.5451313
  64.1026993  26.2252753  74.9491313  64.8036993  25.7432753  75.1381313
  63.4426993  25.6562753  74.9941313  64.1086993  26.0702753  74.9831313
  53.4856993  12.2132753  74.8851313  54.0216993  12.9012753  74.8751313
  53.4886993  11.9392753  74.0571313  53.5646993  12.2742753  74.7611313
  63.9256993  12.5042753  75.2611313  63.9746993  12.1862753  76.0721313
  64.2486993  11.8602753  74.7681313  63.9806993  12.3622753  75.3081313
  53.9336993  16.0232753  76.5391313  54.2056993  15.5932753  75.8311313
  53.7576993  15.3872753  77.1101313  53.9476993  15.8662753  76.5191313
  66.6216993  23.7182753  70.7571313  66.7406993  23.4312753  71.5721313
  67.4286993  23.7392753  70.4271313  66.7576993  23.6792753  70.8291313
  53.7576993  23.4502753  76.0881313  54.6086993  23.3702753  75.9151313
  53.4006993  22.7682753  75.6761313  53.8306993  23.3372753  76.0011313
  52.5246993  30.1752753  77.3251313  51.8516993  29.6772753  77.0801313
  52.9276993  30.3602753  76.5741313  52.4846993  30.1292753  77.1781313
  64.5166993  20.2552753  70.3421313  64.2966993  20.9862753  69.9201313
  64.0686993  20.3062753  71.0891313  64.4176993  20.3702753  70.3901313
  56.1256993  23.4572753  74.3231313  56.8386993  23.9522753  74.4131313
  56.3476993  22.8902753  73.6971313  56.2636993  23.4462753  74.2441313
  68.7036993  15.1162753  69.7951313  68.0416993  14.5482753  69.8181313
  68.5106993  15.6282753  69.1151313  68.5776993  15.1082753  69.6981313
  50.2816993  25.1002753  77.6431313  49.6146993  25.5882753  77.9191313
  50.9616993  25.6452753  77.6721313  50.2836993  25.2522753  77.6881313
  50.3476993  21.7842753  72.7461313  50.1626993  20.9452753  72.8981313
  51.0066993  21.7482753  72.1761313  50.4176993  21.6552753  72.6841313
  66.7056993  14.6742753  72.0741313  67.4516993  14.2672753  72.2731313
  66.9686993  15.3892753  71.6491313  66.8546993  14.7202753  72.0411313
  60.6486993  27.1602753  76.6501313  60.1256993  27.7942753  76.3571313
  60.9586993  26.7962753  75.9211313  60.6166993  27.2002753  76.4991313
  50.5196993  25.9482753  72.3211313  51.0716993  26.5172753  72.6851313
  50.2876993  25.4332753  72.9861313  50.5666993  25.9562753  72.4731313
  63.1596993  16.9622753  77.1471313  63.5036993  17.1142753  77.9341313
  62.7066993  16.2242753  77.2601313  63.1436993  16.8752753  77.2801313
  50.3496993  24.3972753  69.9491313  51.1056993  23.9652753  70.0071313
  50.3646993  24.9292753  70.6401313  50.4636993  24.4122753  70.0601313
  51.2896993  22.6182753  77.9541313  51.7206993  22.4892753  77.2071313
  51.0846993  23.4662753  77.9281313  51.3226993  22.7242753  77.8401313
  57.6356993  16.1822753  71.6041313  57.6336993  16.0652753  70.7391313
  57.4546993  17.0302753  71.6961313  57.6086993  16.2902753  71.4901313
  55.3736993  26.1342753  76.2361313  55.4996993  26.9772753  76.4231313
  56.0416993  25.7352753  76.6321313  55.4916993  26.2002753  76.3221313
  53.9886993  19.0142753  71.2381313  53.8606993  18.5662753  71.9761313
  53.4066993  18.6722753  70.6861313  53.8836993  18.8972753  71.2661313
  54.1556993  20.8442753  77.8371313  53.3746993  20.7852753  77.4541313
  54.2276993  20.0922753  78.2741313  54.0506993  20.7252753  77.8451313
  62.6736993  16.2632753  73.2121313  63.1636993  16.9802753  73.1351313
  61.8836993  16.5242753  72.9491313  62.6296993  16.4072753  73.1621313
  61.4446993  20.9022753  71.2111313  61.4366993  21.6242753  70.7211313
  60.8056993  21.0372753  71.7881313  61.3496993  21.0292753  71.2241313
  66.4166993  24.7722753  75.1921313  66.7726993  24.4222753  75.9071313
  66.4086993  24.1112753  74.6221313  66.4686993  24.6222753  75.2131313
  62.4746993  24.6892753  78.4361313  61.6776993  24.9132753  78.7101313
  62.7326993  24.0952753  79.0211313  62.3946993  24.6342753  78.5631313
  56.3666993  29.5012753  72.8841313  56.2196993  28.7252753  73.2551313
  57.0556993  29.3542753  72.3691313  56.4466993  29.3642753  72.8631313
  56.0376993  13.2442753  70.8721313  56.1346993  13.1372753  71.7331313
  55.3296993  13.7502753  70.8071313  55.9476993  13.3032753  70.9901313
  58.6586993  29.0172753  71.2861313  59.2806993  29.1802753  71.8761313
  58.6946993  29.7082753  70.7541313  58.7556993  29.1432753  71.2951313
  53.1596993  21.5512753  72.1151313  53.4836993  20.7722753  71.8931313
  53.8056993  21.9192753  72.5701313  53.3026993  21.4902753  72.1491313
  50.1566993  13.2122753  73.0831313  50.2856993  12.5042753  72.5911313
  49.7896993  12.8942753  73.8081313  50.1216993  13.0602753  73.1181313
  59.8496993  20.8932753  73.5401313  59.9086993  21.5432753  74.1191313
  59.6606993  20.1972753  74.0311313  59.8306993  20.8862753  73.6981313
  54.3456993  15.4102753  70.0521313  53.8346993  15.4632753  69.3461313
  55.1296993  15.6502753  69.7561313  54.3856993  15.4532753  69.9041313
  59.0726993  22.9402753  77.9711313  58.2256993  22.7462753  78.0521313
  59.3966993  22.7752753  78.7641313  58.9946993  22.8872753  78.1001313
  55.8246993  29.6702753  68.8571313  56.2636993  28.9732753  69.1451313
  56.0316993  30.2942753  69.4301313  55.9206993  29.6592753  68.9841313
  56.1506993  17.8042753  77.0221313  56.9966993  17.6142753  77.1201313
  55.7806993  17.0272753  76.8841313  56.2206993  17.6612753  77.0161313
  68.7676993  29.3882753  71.3491313  69.4616993  28.9212753  71.1011313
  68.2286993  28.7902753  71.6861313  68.7906993  29.2302753  71.3621313
  50.9716993  19.1422753  73.6771313  51.4606993  18.8502753  74.3381313
  51.1006993  18.5492753  73.0501313  51.0626993  19.0112753  73.6821313
  55.4966993  20.5762753  69.1631313  54.8866993  20.1712753  69.6371313
  55.1106993  20.6942753  68.3901313  55.3496993  20.5332753  69.1191313
  67.2626993  22.2352753  77.9651313  66.9766993  22.6362753  78.6851313
  68.1226993  22.1732753  78.0921313  67.3476993  22.2852753  78.0901313
  56.9516993  19.0372753  71.8731313  57.2236993  19.8632753  71.9401313
  56.0886993  19.1122753  71.7771313  56.8646993  19.1702753  71.8681313
  50.4316993  15.0072753  78.4091313  50.4756993  15.3512753  77.6081313
  51.1866993  15.2442753  78.7761313  50.5496993  15.0932753  78.3451313
  68.3936993  27.8682753  78.4941313  68.6836993  28.1252753  77.7131313
  69.0886993  27.9642753  79.0131313  68.5396993  27.9202753  78.4551313
  64.9986993  26.4712753  70.4761313  65.3326993  25.6652753  70.5111313
  64.2436993  26.3992753  70.9061313  64.9366993  26.3412753  70.5451313
  65.4806993  18.3052753  76.1351313  64.7356993  17.9822753  76.4531313
  65.4826993  19.1312753  76.4151313  65.3706993  18.3792753  76.2231313
  62.3726993  24.3462753  69.8791313  63.0566993  23.8322753  69.7101313
  61.9556993  24.3922753  69.1141313  62.4116993  24.2772753  69.7411313
  58.8346993  29.3122753  75.9021313  59.3806993  29.9912753  75.9561313
  58.4846993  29.3942753  75.1071313  58.8636993  29.4252753  75.7921313
  67.0986993  18.8702753  70.1231313  67.4766993  19.5472753  69.7231313
  66.2566993  19.0942753  70.1541313  67.0296993  19.0032753  70.0681313
  58.6116993  22.3162753  69.2061313  57.8066993  22.1392753  68.9211313
  58.5786993  23.1672753  69.3981313  58.4876993  22.4152753  69.1931313
  64.7936993  18.4692753  73.4981313  65.0006993  18.2682753  74.3221313
  65.5496993  18.7372753  73.1561313  64.9356993  18.4792753  73.5691313
  65.8156993  14.5522753  74.9721313  65.1016993  14.0812753  75.1431313
  65.6536993  14.8932753  74.1861313  65.6866993  14.5332753  74.8811313
  66.2586993  22.4962753  73.3521313  66.7346993  21.7672753  73.3041313
  65.4376993  22.2102753  73.2761313  66.2076993  22.3462753  73.3331313
  53.7176993  16.5102753  72.6631313  53.8436993  16.1812753  71.8651313
  52.9056993  16.2612753  72.8621313  53.6166993  16.4252753  72.5751313
  62.4746993  23.6632753  75.7071313  62.5506993  24.0042753  76.5061313
  62.6436993  22.8162753  75.8281313  62.5106993  23.5882753  75.8431313
  59.9966993  22.9372753  75.2721313  59.6986993  22.6222753  76.0291313
  60.6916993  23.4102753  75.5071313  60.0556993  22.9602753  75.4191313
  63.9256993  29.8932753  77.8021313  63.4746993  30.5362753  78.1811313
  64.6336993  29.8142753  78.3071313  63.9636993  29.9762753  77.9331313
  67.0286993  19.6092753  72.7941313  67.1316993  19.5512753  71.9301313
  67.7696993  19.2772753  73.1121313  67.1536993  19.5522753  72.7131313
  60.9486993  26.5742753  73.9011313  60.7436993  27.4072753  73.7421313
  60.1736993  26.1922753  74.0231313  60.8036993  26.6412753  73.8961313
  52.3226993  18.1312753  69.1961313  51.6506993  18.1452753  69.7521313
  52.4176993  17.2832753  69.0121313  52.2376993  18.0082753  69.2511313
  61.0036993  14.7452753  76.7861313  60.3036993  15.2632753  76.7301313
  61.0416993  14.3652753  76.0021313  60.9056993  14.7662753  76.6621313
  56.3106993  26.8362753  70.3101313  56.7516993  26.9162753  71.0581313
  55.5056993  26.6202753  70.5681313  56.2566993  26.8162753  70.4591313
  64.9056993  20.5412753  78.0771313  65.5716993  21.0822753  78.2371313
  64.5606993  20.8522753  77.3381313  64.9526993  20.6672753  77.9921313
  65.2186993  28.6072753  73.8841313  65.0446993  27.9532753  74.4341313
  65.9316993  28.3362753  73.4611313  65.2986993  28.4702753  73.9031313
  53.6396993  25.9062753  70.9111313  53.3956993  25.5992753  71.6911313
  53.6066993  25.2032753  70.3951313  53.5986993  25.7572753  70.9501313
  56.4586993  24.1512753  69.6541313  55.6406993  23.8832753  69.7941313
  56.4306993  25.0032753  69.8391313  56.3336993  24.2382753  69.7021313
  58.4606993  12.7932753  69.6181313  58.5386993  13.0402753  68.7851313
  57.7176993  13.1702753  69.8761313  58.3626993  12.8852753  69.5331313
  61.6836993  19.2112753  76.5311313  62.2346993  18.6042753  76.8311313
  61.2586993  19.4742753  77.2461313  61.7026993  19.1602753  76.6801313
  51.9316993  17.8612753  76.0171313  51.5636993  18.1632753  76.7481313
  52.4656993  17.2322753  76.3011313  51.9556993  17.8132753  76.1671313
  63.6536993  21.0422753  73.0931313  63.7216993  20.1922753  73.2741313
  62.8306993  21.1282753  72.8151313  63.5416993  20.9292753  73.0791313
  53.4056993  29.5362753  72.3031313  53.2606993  29.6922753  71.4571313
  54.2716993  29.6152753  72.3811313  53.5126993  29.5712753  72.1901313
  57.5726993  21.9332753  72.0311313  57.6726993  22.0722753  71.1761313
  58.3906993  21.8732753  72.3271313  57.7076993  21.9442753  71.9481313
  66.7326993  29.9972753  69.5111313  67.3696993  29.8632753  70.0921313
  66.3916993  29.2032753  69.3941313  66.7766993  29.8602753  69.5791313
  62.8076993  26.2622753  71.8331313  62.5566993  26.1342753  72.6591313
  62.4906993  25.5672753  71.4121313  62.7236993  26.1412753  71.8931313
  54.0926993  28.3512753  78.7801313  54.0136993  27.5412753  78.4641313
  53.6486993  28.8382753  78.2081313  54.0156993  28.3032753  78.6491313
  59.6936993  24.4702753  71.2631313  60.4106993  24.1232753  70.9071313
  59.6596993  25.2702753  70.9151313  59.7946993  24.5372753  71.1591313
  61.1026993  13.1112753  55.5018903  60.8576993  13.5992753  54.8218903
  61.9656993  13.0382753  55.4018903  61.1936993  13.1722753  55.3868903
  60.9116993  20.0272753  60.1728903  60.3876993  20.6232753  60.5358903
  61.3086993  19.6592753  60.8568903  60.8926993  20.0612753  60.3278903
  50.7806993  24.1672753  55.6288903  50.3396993  24.2852753  56.3718903
  50.4976993  23.3922753  55.3438903  50.6736993  24.0702753  55.6968903
  67.0556993  27.4682753  53.1438903  67.7566993  26.9492753  53.1398903
  66.4686993  27.0232753  52.6748903  67.0726993  27.3252753  53.0738903
  50.5236993  17.9592753  52.1358903  49.7456993  18.1212753  51.7758903
  50.5626993  17.0882753  52.1578903  50.4146993  17.8542753  52.0858903
  53.6626993  23.2222753  50.8078903  53.2706993  22.8512753  50.1218903
  53.5826993  22.6242753  51.4368903  53.5926993  23.0792753  50.7988903
  63.5826993  21.0942753  56.8488903  63.6626993  21.0982753  55.9798903
  62.9986993  20.4622753  56.9978903  63.5076993  21.0012753  56.7428903
  53.2896993  24.8632753  54.7078903  53.8976993  24.6932753  55.3108903
  52.5386993  24.7232753  55.1288903  53.2686993  24.8172753  54.8588903
  57.5716993  14.1982753  54.6568903  57.5016993  14.8752753  54.1108903
  58.3126993  13.8102753  54.4078903  57.6706993  14.2412753  54.5388903
  52.1806993  27.9542753  50.7848903  52.6476993  28.0382753  50.0528903
  52.6356993  27.3762753  51.2538903  52.3166993  27.8812753  50.7458903
  50.7206993  26.9022753  61.8838903  50.8496993  26.6222753  62.6998903
  50.1106993  26.3612753  61.5748903  50.6496993  26.7812753  61.9588903
  57.2946993  24.4272753  66.9508903  57.0586993  24.4242753  67.7908903
  56.5466993  24.2792753  66.5268903  57.1486993  24.4042753  67.0118903
  52.1666993  21.4232753  56.0858903  51.7046993  21.0312753  55.4588903
  52.8666993  20.9102753  56.1778903  52.2016993  21.2902753  56.0068903
  56.6746993  17.0332753  61.4328903  57.3526993  17.0512753  60.8838903
  56.6296993  16.1972753  61.6778903  56.7676993  16.9122753  61.3878903
  57.2766993  27.6192753  64.2138903  57.4146993  28.3792753  63.8068903
  58.0676993  27.2542753  64.2408903  57.4136993  27.6782753  64.1578903
  54.1676993  19.5232753  56.1088903  54.9846993  19.3362753  56.3518903
  53.6906993  18.9092753  56.5048903  54.2176993  19.4052753  56.2038903
  58.3716993  25.5042753  58.7188903  58.7196993  24.7052753  58.7488903
  59.0366993  26.0082753  58.4638903  58.5216993  25.4602753  58.6858903
  58.4286993  24.9532753  54.9298903  58.7596993  24.3092753  55.4158903
  58.6686993  24.7422753  54.1188903  58.5126993  24.8272753  54.8818903
  60.3966993  19.0842753  66.2688903  59.5486993  18.9852753  66.0908903
  60.4256993  19.8292753  66.7228903  60.2756993  19.1802753  66.3098903
  54.7646993  14.6172753  55.3748903  54.4686993  15.1182753  54.7248903
  55.6316993  14.6952753  55.3178903  54.8486993  14.7032753  55.2708903
  64.9546993  12.0442753  65.3828903  64.7966993  12.8132753  65.0008903
  64.1826993  11.8242753  65.7268903  64.8166993  12.1252753  65.3778903
  57.7436993  13.7592753  57.5978903  57.8166993  14.6192753  57.7268903
  57.7056993  13.6842753  56.7298903  57.7486993  13.8752753  57.4888903
  62.4166993  16.6852753  49.8968903  61.9666993  17.3662753  50.2038903
  62.5306993  16.1812753  50.5998903  62.3676993  16.7112753  50.0458903
  50.6226993  19.1842753  59.0988903  50.3666993  20.0152753  59.0238903
  49.9586993  18.8012753  59.5158903  50.4866993  19.2502753  59.1498903
  50.5326993  28.8942753  56.9988903  49.9406993  29.4522753  56.6858903
  50.9586993  28.6252753  56.2868903  50.5086993  28.9362753  56.8478903
  56.3726993  26.7382753  54.4788903  55.7936993  26.4632753  55.0708903
  56.9966993  26.1292753  54.5038903  56.3796993  26.6082753  54.5698903
  62.5156993  29.0262753  52.0008903  63.2426993  29.4982753  52.1028903
  62.7446993  28.2322753  52.2808903  62.6576993  28.9792753  52.0578903
  60.6836993  29.4182753  53.9908903  60.8976993  29.9452753  54.6528903
  61.4506993  29.2442753  53.6118903  60.8286993  29.4702753  54.0328903
  53.6516993  14.0012753  59.5898903  53.1306993  13.3732753  59.2818903
  54.2426993  13.5642753  60.0608903  53.6626993  13.8432753  59.6138903
  56.9576993  16.1342753  68.8878903  57.0746993  15.6802753  68.1518903
  57.2456993  16.9322753  68.6848903  57.0176993  16.1852753  68.7488903
  52.0776993  27.5642753  54.9298903  52.7336993  26.9892753  54.9448903
  52.4666993  28.3132753  54.7088903  52.2326993  27.5892753  54.8998903
  67.8106993  16.6582753  56.1918903  67.4646993  17.3362753  56.6178903
  67.1746993  16.0602753  56.2078903  67.6656993  16.6702753  56.2568903
  63.1226993  29.4282753  62.2958903  63.8666993  29.8842753  62.2858903
  63.0016993  29.2142753  61.4588903  63.2146993  29.4642753  62.1708903
  52.6906993  15.7312753  67.8718903  51.9126993  15.3412753  67.7998903
  53.1816993  15.3192753  67.2808903  52.6476993  15.6122753  67.7738903
  52.8956993  26.0512753  58.4298903  53.3186993  25.6952753  57.7558903
  53.2196993  25.6292753  59.1218903  53.0056993  25.9362753  58.4328903
  56.1266993  28.9032753  57.7258903  56.9706993  29.0072753  57.5308903
  55.8296993  29.7212753  57.7938903  56.2076993  29.0392753  57.7068903
  59.3396993  13.3742753  67.0398903  59.5176993  12.5652753  66.7648903
  59.1966993  13.8152753  66.3008903  59.3446993  13.3202753  66.8898903
  59.9336993  18.3002753  55.8128903  60.2206993  18.0682753  55.0228903
  60.6656993  18.3792753  56.2818903  60.0836993  18.2772753  55.7658903
  60.6556993  18.6392753  50.9338903  60.9366993  19.4272753  51.1828903
  59.8796993  18.8042753  50.5708903  60.5826993  18.7802753  50.9168903
  64.6966993  30.6132753  52.4008903  65.3616993  30.4652753  51.8558903
  65.0566993  30.5302753  53.1908903  64.8486993  30.5792753  52.4368903
  55.1246993  30.1222753  63.4658903  55.4166993  30.0552753  64.2858903
  54.4986993  29.5172753  63.4208903  55.0756993  30.0232753  63.5808903
  67.4856993  14.9812753  61.5608903  68.2426993  15.0532753  61.1328903
  67.5486993  14.2082753  61.9598903  67.6066993  14.8782753  61.5558903
  50.0386993  16.2792753  65.4578903  50.0346993  16.8662753  66.1038903
  50.6326993  16.5912753  64.9008903  50.1256993  16.4122753  65.4708903
  62.3766993  26.6132753  65.9998903  62.3426993  26.9952753  66.7838903
  63.2306993  26.5712753  65.8288903  62.4976993  26.6632753  66.0908903
  59.5146993  26.8102753  50.7498903  59.3336993  27.3552753  51.4068903
  60.2806993  27.1002753  50.4488903  59.6006993  26.9342753  50.8028903
  63.0216993  14.7062753  51.8038903  63.5616993  14.0242753  51.8798903
  63.0836993  15.1042753  52.5778903  63.1106993  14.6642753  51.9298903
  50.9756993  15.8742753  54.3728903  50.8616993  15.0102753  54.4038903
  50.5006993  16.1682753  55.0428903  50.8886993  15.7902753  54.4758903
  53.1176993  28.2842753  62.5878903  52.4196993  27.7762753  62.7138903
  53.3776993  28.0792753  61.7798903  53.0526993  28.1792753  62.4868903
  60.2796993  17.0822753  53.1178903  59.7716993  16.4202753  52.8638903
  60.3316993  17.5862753  52.4078903  60.2126993  17.0592753  52.9758903
  60.8286993  29.7772753  63.4978903  61.5966993  29.6972753  63.0918903
  60.2456993  29.6562753  62.8598903  60.8556993  29.7472753  63.3438903
  60.2796993  14.0232753  53.0088903  59.8246993  13.6212753  52.3828903
  61.0526993  14.1782753  52.6338903  60.3266993  13.9872753  52.8608903
  67.1056993  30.3802753  56.3988903  66.6506993  31.0972753  56.5998903
  66.4916993  29.8092753  56.1568903  66.9476993  30.4022753  56.3928903
  58.8776993  16.3902753  57.5308903  58.9516993  16.9582753  56.8728903
  58.9986993  16.8822753  58.2408903  58.9056993  16.5472753  57.5388903
  64.1026993  26.2252753  55.9428903  64.8036993  25.7432753  56.1318903
  63.4426993  25.6562753  55.9878903  64.1086993  26.0702753  55.9768903
  54.4786993  27.1352753  65.1548903  55.3196993  27.1982753  64.9328903
  54.4416993  27.5322753  65.9308903  54.5976993  27.2032753  65.2368903
  53.4856993  12.2132753  55.8788903  54.0216993  12.9012753  55.8688903
  53.4886993  11.9392753  55.0508903  53.5646993  12.2742753  55.7548903
  56.4416993  22.6462753  59.9038903  56.6136993  22.4362753  60.7328903
  55.7866993  22.1122753  59.6878903  56.3706993  22.5362753  59.9948903
  62.6696993  16.5602753  63.4188903  62.5746993  16.8792753  64.2248903
  62.0766993  15.9212753  63.3808903  62.5676993  16.5122753  63.5328903
  57.1916993  22.5842753  62.4938903  57.2446993  23.4312753  62.6958903
  56.9066993  22.2142753  63.2308903  57.1576993  22.6542753  62.6318903
  63.3686993  23.2792753  61.6238903  62.8546993  22.8672753  62.1948903
  63.2426993  24.1232753  61.8048903  63.2746993  23.3432753  61.7348903
  63.9256993  12.5042753  56.2548903  63.9746993  12.1862753  57.0658903
  64.2486993  11.8602753  55.7618903  63.9806993  12.3622753  56.3018903
  50.0126993  26.9552753  68.7048903  50.7686993  27.3042753  68.9628903
  50.1896993  26.1022753  68.6478903  50.1506993  26.8802753  68.7348903
  66.3896993  16.7402753  64.5628903  67.1616993  16.5152753  64.8998903
  65.9146993  16.9572753  65.2628903  66.4336993  16.7392753  64.7158903
  53.9336993  16.0232753  57.5328903  54.2056993  15.5932753  56.8248903
  53.7576993  15.3872753  58.1038903  53.9476993  15.8662753  57.5128903
  66.6216993  23.7182753  51.7508903  66.7406993  23.4312753  52.5658903
  67.4286993  23.7392753  51.4208903  66.7576993  23.6792753  51.8228903
  53.7576993  23.4502753  57.0818903  54.6086993  23.3702753  56.9088903
  53.4006993  22.7682753  56.6698903  53.8306993  23.3372753  56.9948903
  52.5246993  30.1752753  58.3188903  51.8516993  29.6772753  58.0738903
  52.9276993  30.3602753  57.5678903  52.4846993  30.1292753  58.1718903
  52.0746993  17.1252753  60.6148903  52.9176993  17.3452753  60.5718903
  51.6856993  17.6982753  60.0838903  52.1416993  17.2422753  60.5298903
  68.8556993  28.2272753  66.0048903  68.1736993  28.5372753  65.5578903
  68.4866993  27.7692753  66.6498903  68.6996993  28.2052753  66.0338903
  64.5166993  20.2552753  51.3358903  64.2966993  20.9862753  50.9138903
  64.0686993  20.3062753  52.0828903  64.4176993  20.3702753  51.3838903
  56.1256993  23.4572753  55.3168903  56.8386993  23.9522753  55.4068903
  56.3476993  22.8902753  54.6908903  56.2636993  23.4462753  55.2378903
  68.7036993  15.1162753  50.7888903  68.0416993  14.5482753  50.8118903
  68.5106993  15.6282753  50.1088903  68.5776993  15.1082753  50.6918903
  50.2816993  25.1002753  58.6368903  49.6146993  25.5882753  58.9128903
  50.9616993  25.6452753  58.6658903  50.2836993  25.2522753  58.6818903
  57.9286993  18.8102753  68.7328903  57.4446993  19.3872753  69.1748903
  57.9006993  19.1052753  67.9118903  57.8526993  18.9392753  68.6768903
  69.0266993  19.4942753  63.3448903  69.2416993  18.6942753  63.0688903
  68.1766993  19.5542753  63.1558903  68.9326993  19.3852753  63.2758903
  50.3476993  21.7842753  53.7398903  50.1626993  20.9452753  53.8918903
  51.0066993  21.7482753  53.1698903  50.4176993  21.6552753  53.6778903
  66.7056993  14.6742753  53.0678903  67.4516993  14.2672753  53.2668903
  66.9686993  15.3892753  52.6428903  66.8546993  14.7202753  53.0348903
  60.6486993  27.1602753  57.6438903  60.1256993  27.7942753  57.3508903
  60.9586993  26.7962753  56.9148903  60.6166993  27.2002753  57.4928903
  50.5196993  25.9482753  53.3148903  51.0716993  26.5172753  53.6788903
  50.2876993  25.4332753  53.9798903  50.5666993  25.9562753  53.4668903
  54.7236993  24.9482753  60.4038903  55.1906993  25.2372753  61.0818903
  55.2956993  24.4702753  59.9498903  54.8776993  24.9202753  60.4368903
  63.1596993  16.9622753  58.1408903  63.5036993  17.1142753  58.9278903
  62.7066993  16.2242753  58.2538903  63.1436993  16.8752753  58.2738903
  50.3496993  24.3972753  50.9428903  51.1056993  23.9652753  51.0008903
  50.3646993  24.9292753  51.6338903  50.4636993  24.4122753  51.0538903
  51.2896993  22.6182753  58.9478903  51.7206993  22.4892753  58.2008903
  51.0846993  23.4662753  58.9218903  51.3226993  22.7242753  58.8338903
  57.6356993  16.1822753  52.5978903  57.6336993  16.0652753  51.7328903
  57.4546993  17.0302753  52.6898903  57.6086993  16.2902753  52.4838903
  66.6896993  28.6092753  64.0948903  66.0186993  29.1232753  64.3128903
  66.7526993  28.7092753  63.2308903  66.5996993  28.7002753  63.9998903
  55.3736993  26.1342753  57.2298903  55.4996993  26.9772753  57.4168903
  56.0416993  25.7352753  57.6258903  55.4916993  26.2002753  57.3158903
  53.5036993  19.6172753  67.0918903  52.9676993  19.1112753  67.5598903
  53.5236993  19.2272753  66.3118903  53.4266993  19.4842753  67.0458903
  53.9886993  19.0142753  52.2318903  53.8606993  18.5662753  52.9698903
  53.4066993  18.6722753  51.6798903  53.8836993  18.8972753  52.2598903
  54.1556993  20.8442753  58.8308903  53.3746993  20.7852753  58.4478903
  54.2276993  20.0922753  59.2678903  54.0506993  20.7252753  58.8388903
  54.5856993  20.5812753  62.2988903  54.6106993  19.9062753  61.7478903
  53.9396993  21.0772753  61.9868903  54.4946993  20.5542753  62.1718903
  64.4806993  18.2942753  60.6948903  63.8186993  18.6222753  61.1578903
  64.6676993  18.9282753  60.1258903  64.4106993  18.4362753  60.6788903
  58.6856993  29.3582753  61.6908903  58.4086993  28.7172753  61.1678903
  58.4776993  30.0842753  61.2528903  58.6146993  29.3712753  61.5488903
  61.1256993  14.2002753  64.1238903  61.2746993  13.3752753  63.8808903
  61.5046993  14.2552753  64.9078903  61.2036993  14.0862753  64.2038903
  62.6736993  16.2632753  54.2058903  63.1636993  16.9802753  54.1288903
  61.8836993  16.5242753  53.9428903  62.6296993  16.4072753  54.1558903
  52.3846993  21.9362753  67.8578903  52.3476993  22.4372753  67.1438903
  52.7156993  21.1842753  67.5628903  52.4276993  21.8982753  67.7088903
  63.9876993  24.1412753  66.1158903  64.4716993  24.8592753  66.2138903
  64.3816993  23.7142753  65.4648903  64.1176993  24.1842753  66.0338903
  58.2836993  26.9862753  67.2928903  58.6376993  26.8082753  68.0698903
  57.8476993  26.2572753  67.0938903  58.2716993  26.8522753  67.3788903
  59.2556993  17.7332753  59.9308903  59.7356993  18.4322753  60.1388903
  59.6286993  17.0862753  60.3818903  59.3816993  17.7412753  60.0278903
  61.4446993  20.9022753  52.2048903  61.4366993  21.6242753  51.7148903
  60.8056993  21.0372753  52.7818903  61.3496993  21.0292753  52.2178903
  66.4166993  24.7722753  56.1858903  66.7726993  24.4222753  56.9008903
  66.4086993  24.1112753  55.6158903  66.4686993  24.6222753  56.2068903
  62.4616993  27.8382753  60.0298903  61.8586993  27.5422753  59.4728903
  63.0066993  28.2902753  59.5208903  62.4526993  27.8612753  59.8718903
  62.4746993  24.6892753  59.4298903  61.6776993  24.9132753  59.7038903
  62.7326993  24.0952753  60.0148903  62.3946993  24.6342753  59.5568903
  56.3666993  29.5012753  53.8778903  56.2196993  28.7252753  54.2488903
  57.0556993  29.3542753  53.3628903  56.4466993  29.3642753  53.8568903
  56.0376993  13.2442753  51.8658903  56.1346993  13.1372753  52.7268903
  55.3296993  13.7502753  51.8008903  55.9476993  13.3032753  51.9838903
  58.6586993  29.0172753  52.2798903  59.2806993  29.1802753  52.8698903
  58.6946993  29.7082753  51.7478903  58.7556993  29.1432753  52.2888903
  65.7346993  22.6872753  64.2758903  65.7896993  22.8122753  63.4138903
  66.4876993  23.0072753  64.5778903  65.8536993  22.7522753  64.1928903
  61.9256993  28.0362753  68.5528903  62.0896993  28.3192753  69.3618903
  62.1886993  28.6972753  68.0478903  61.9886993  28.1762753  68.5978903
  66.7666993  12.9852753  67.2628903  66.1296993  12.5852753  66.8208903
  66.7926993  12.5542753  68.0208903  66.6766993  12.8632753  67.3088903
  53.1596993  21.5512753  53.1088903  53.4836993  20.7722753  52.8868903
  53.8056993  21.9192753  53.5638903  53.3026993  21.4902753  53.1428903
  61.4656993  22.4932753  63.8758903  61.3106993  23.1032753  64.4798903
  61.9996993  21.9352753  64.2818903  61.5216993  22.5012753  64.0248903
  50.1566993  13.2122753  54.0768903  50.2856993  12.5042753  53.5848903
  49.7896993  12.8942753  54.8018903  50.1216993  13.0602753  54.1118903
  59.8496993  20.8932753  54.5338903  59.9086993  21.5432753  55.1128903
  59.6606993  20.1972753  55.0248903  59.8306993  20.8862753  54.6918903
  65.0756993  25.2222753  60.4028903  64.5966993  25.5202753  59.7368903
  64.7196993  24.4462753  60.5808903  64.9526993  25.1512753  60.3308903
  54.3456993  15.4102753  51.0458903  53.8346993  15.4632753  50.3398903
  55.1296993  15.6502753  50.7498903  54.3856993  15.4532753  50.8978903
  59.0726993  22.9402753  58.9648903  58.2256993  22.7462753  59.0458903
  59.3966993  22.7752753  59.7578903  58.9946993  22.8872753  59.0938903
  55.8246993  29.6702753  49.8508903  56.2636993  28.9732753  50.1388903
  56.0316993  30.2942753  50.4238903  55.9206993  29.6592753  49.9778903
  52.9206993  22.6332753  61.2808903  53.6426993  23.1212753  61.2438903
  52.6506993  22.6032753  60.4518903  52.9876993  22.7012753  61.1528903
  56.1506993  17.8042753  58.0158903  56.9966993  17.6142753  58.1138903
  55.7806993  17.0272753  57.8778903  56.2206993  17.6612753  58.0098903
  68.7676993  29.3882753  52.3428903  69.4616993  28.9212753  52.0948903
  68.2286993  28.7902753  52.6798903  68.7906993  29.2302753  52.3558903
  50.9716993  19.1422753  54.6708903  51.4606993  18.8502753  55.3318903
  51.1006993  18.5492753  54.0438903  51.0626993  19.0112753  54.6758903
  66.0066993  22.1642753  61.5218903  65.9996993  21.3882753  61.9198903
  65.1656993  22.3982753  61.5148903  65.8816993  22.0842753  61.5798903
  55.4966993  20.5762753  50.1568903  54.8866993  20.1712753  50.6308903
  55.1106993  20.6942753  49.3838903  55.3496993  20.5332753  50.1128903
  52.3156993  23.6852753  65.5588903  51.8946993  23.1672753  64.9978903
  51.9636993  24.4712753  65.4158903  52.2016993  23.7252753  65.4548903
  67.2626993  22.2352753  58.9588903  66.9766993  22.6362753  59.6788903
  68.1226993  22.1732753  59.0858903  67.3476993  22.2852753  59.0838903
  56.9516993  19.0372753  52.8668903  57.2236993  19.8632753  52.9338903
  56.0886993  19.1122753  52.7708903  56.8646993  19.1702753  52.8618903
  64.9246993  16.1592753  67.4988903  64.3996993  16.6182753  68.0228903
  64.5636993  15.3642753  67.4928903  64.7936993  16.1092753  67.5748903
  50.4316993  15.0072753  59.4028903  50.4756993  15.3512753  58.6018903
  51.1866993  15.2442753  59.7698903  50.5496993  15.0932753  59.3388903
  68.3936993  27.8682753  59.4878903  68.6836993  28.1252753  58.7068903
  69.0886993  27.9642753  60.0068903  68.5396993  27.9202753  59.4488903
  63.4166993  19.7282753  67.5748903  63.4896993  19.8322753  68.4378903
  62.7826993  20.2862753  67.3538903  63.3336993  19.8262753  67.6698903
  65.6846993  20.0472753  65.9398903  66.0036993  20.8332753  66.1428903
  65.3146993  19.7772753  66.6828903  65.6776993  20.1232753  66.0798903
  64.9986993  26.4712753  51.4698903  65.3326993  25.6652753  51.5048903
  64.2436993  26.3992753  51.8998903  64.9366993  26.3412753  51.5388903
  65.4806993  18.3052753  57.1288903  64.7356993  17.9822753  57.4468903
  65.4826993  19.1312753  57.4088903  65.3706993  18.3792753  57.2168903
  68.3826993  20.5892753  68.6748903  68.3306993  20.2482753  67.8738903
  69.1196993  21.0562753  68.6528903  68.4836993  20.6082753  68.5528903
  67.9206993  24.2652753  64.8808903  68.5486993  23.7162753  64.6248903
  67.8596993  24.8302753  64.2188903  68.0046993  24.2682753  64.7448903
  62.3726993  24.3462753  50.8728903  63.0566993  23.8322753  50.7038903
  61.9556993  24.3922753  50.1078903  62.4116993  24.2772753  50.7348903
  57.0546993  25.4962753  62.1768903  56.7566993  26.0882753  62.7438903
  57.1096993  25.9382753  61.4278903  57.0186993  25.6492753  62.1498903
  55.0336993  24.4462753  65.5748903  54.2276993  24.1562753  65.7418903
  54.9446993  25.3142753  65.5808903  54.9016993  24.5312753  65.5998903
  64.3926993  14.6352753  64.5898903  65.1366993  15.0872753  64.5268903
  63.8266993  15.1052753  64.1208903  64.4196993  14.7722753  64.5118903
  59.5706993  21.9192753  61.6678903  60.0466993  22.2932753  62.2958903
  58.7476993  22.0532753  61.9268903  59.5196993  21.9942753  61.7988903
  56.2806993  17.5222753  64.4088903  56.4416993  16.7782753  64.8358903
  56.2356993  17.2732753  63.5738903  56.2976993  17.3752753  64.3488903
  58.8346993  29.3122753  56.8958903  59.3806993  29.9912753  56.9498903
  58.4846993  29.3942753  56.1008903  58.8636993  29.4252753  56.7858903
  65.6776993  12.6152753  62.2598903  65.3976993  13.4402753  62.2158903
  66.3936993  12.6682753  62.7558903  65.7426993  12.7452753  62.3268903
  58.0326993  13.3302753  64.2888903  58.7376993  13.6502753  63.8868903
  58.2736993  12.5232753  64.5158903  58.1716993  13.2582753  64.2628903
  57.0176993  27.5402753  60.2848903  56.3936993  28.1222753  60.1028903
  57.2656993  27.2542753  59.4988903  56.9616993  27.5842753  60.1418903
  61.3266993  24.1742753  67.2738903  62.0836993  24.4602753  66.9478903
  60.7796993  24.2262753  66.5958903  61.3576993  24.2242753  67.1248903
  65.2356993  26.7242753  65.7778903  65.5816993  26.9942753  66.5318903
  65.5296993  27.3062753  65.1978903  65.3306993  26.8502753  65.8038903
  67.0986993  18.8702753  51.1168903  67.4766993  19.5472753  50.7168903
  66.2566993  19.0942753  51.1478903  67.0296993  19.0032753  51.0618903
  58.6116993  22.3162753  50.1998903  57.8066993  22.1392753  49.9148903
  58.5786993  23.1672753  50.3918903  58.4876993  22.4152753  50.1868903
  54.5416993  18.3832753  60.3498903  54.9816993  18.2802753  59.6038903
  55.0866993  18.0702753  60.9548903  54.6866993  18.3222753  60.3288903
  62.5576993  17.4852753  65.9418903  61.9096993  17.9552753  66.2898903
  63.1226993  17.3962753  66.6008903  62.5456993  17.5412753  66.0908903
  62.2456993  19.0222753  62.2398903  62.5476993  19.4422753  62.9428903
  62.2816993  18.1822753  62.4718903  62.2956993  18.9602753  62.3778903
  59.6706993  29.1892753  66.1648903  60.1486993  28.5892753  65.7488903
  59.3196993  28.7462753  66.8298903  59.6896993  29.0352753  66.2018903
  64.7936993  18.4692753  54.4918903  65.0006993  18.2682753  55.3158903
  65.5496993  18.7372753  54.1498903  64.9356993  18.4792753  54.5628903
  58.0886993  13.3682753  60.3968903  57.2626993  13.2192753  60.6338903
  58.0486993  13.4032753  59.5258903  57.9606993  13.3512753  60.3028903
  65.8156993  14.5522753  55.9658903  65.1016993  14.0812753  56.1368903
  65.6536993  14.8932753  55.1798903  65.6866993  14.5332753  55.8748903
  66.2586993  22.4962753  54.3458903  66.7346993  21.7672753  54.2978903
  65.4376993  22.2102753  54.2698903  66.2076993  22.3462753  54.3268903
  59.7296993  24.4082753  65.1848903  58.9346993  24.3442753  65.5358903
  59.8006993  25.2552753  64.9898903  59.6226993  24.5232753  65.2078903
  50.6536993  13.7662753  66.4318903  50.5136993  14.5612753  66.1008903
  49.8676993  13.5232753  66.7208903  50.5166993  13.8482753  66.4258903
  55.5596993  30.6152753  60.5018903  55.5706993  30.6742753  61.3718903
  55.1346993  29.8682753  60.3518903  55.4986993  30.5132753  60.6078903
  53.7176993  16.5102753  53.6568903  53.8436993  16.1812753  52.8588903
  52.9056993  16.2612753  53.8558903  53.6166993  16.4252753  53.5688903
  62.4746993  23.6632753  56.7008903  62.5506993  24.0042753  57.4998903
  62.6436993  22.8162753  56.8218903  62.5106993  23.5882753  56.8368903
  59.9966993  22.9372753  56.2658903  59.6986993  22.6222753  57.0228903
  60.6916993  23.4102753  56.5008903  60.0556993  22.9602753  56.4128903
  60.2186993  27.0552753  64.2928903  60.9056993  26.9412753  64.8178903
  60.3526993  27.8462753  63.9488903  60.3396993  27.1552753  64.3198903
  68.3946993  19.6642753  66.1038903  67.5396993  19.5422753  66.2298903
  68.5476993  19.2692753  65.3408903  68.2906993  19.5872753  66.0098903
  62.9076993  20.3292753  64.6798903  62.6526993  19.6102753  65.1018903
  63.7286993  20.4452753  64.9498903  62.9916993  20.2402753  64.7818903
  52.3236993  30.1132753  65.9438903  51.6696993  29.5442753  66.0418903
  51.9486993  30.8862753  66.0948903  52.1716993  30.1432753  65.9808903
  60.8416993  21.5192753  67.8668903  61.1646993  22.2052753  67.4348903
  60.1376993  21.8422753  68.2688903  60.7846993  21.6682753  67.8618903
  63.9256993  29.8932753  58.7958903  63.4746993  30.5362753  59.1748903
  64.6336993  29.8142753  59.3008903  63.9636993  29.9762753  58.9268903
  60.6266993  24.9832753  61.7258903  59.9326993  25.3852753  62.0688903
  61.3036993  25.4162753  62.0648903  60.6236993  25.1062753  61.8268903
  66.0036993  27.5762753  68.3058903  66.7796993  27.1862753  68.3888903
  65.5346993  27.2402753  68.9608903  66.0486993  27.4692753  68.4148903
  53.6946993  18.5212753  64.0728903  54.0696993  19.1402753  63.5858903
  54.3686993  18.0472753  64.3578903  53.8496993  18.5432753  64.0428903
  51.4696993  16.9692753  63.3478903  51.5466993  16.8002753  62.4948903
  52.2156993  17.3752753  63.5448903  51.5906993  17.0042753  63.2508903
  67.0286993  19.6092753  53.7878903  67.1316993  19.5512753  52.9238903
  67.7696993  19.2772753  54.1058903  67.1536993  19.5522753  53.7068903
  54.0236993  14.3792753  65.7588903  53.9426993  13.5352753  65.9648903
  53.7096993  14.4232753  64.9458903  53.9656993  14.2612753  65.6688903
  60.9486993  26.5742753  54.8948903  60.7436993  27.4072753  54.7358903
  60.1736993  26.1922753  55.0168903  60.8036993  26.6412753  54.8898903
  66.1306993  19.7552753  63.1438903  66.1286993  18.8922753  63.2678903
  66.1976993  20.0792753  63.9508903  66.1406993  19.6752753  63.2808903
  50.8666993  22.1952753  63.5718903  51.1866993  22.4142753  62.7908903
  50.7666993  21.3302753  63.5168903  50.8986993  22.1002753  63.4488903
  52.3226993  18.1312753  50.1898903  51.6506993  18.1452753  50.7458903
  52.4176993  17.2832753  50.0058903  52.2376993  18.0082753  50.2448903
  62.0096993  14.5552753  66.9258903  62.1016993  15.2672753  67.4198903
  61.3726993  14.1102753  67.3228903  61.9286993  14.5942753  67.0578903
  61.0036993  14.7452753  57.7798903  60.3036993  15.2632753  57.7238903
  61.0416993  14.3652753  56.9958903  60.9056993  14.7662753  57.6558903
  56.3106993  26.8362753  51.3038903  56.7516993  26.9162753  52.0518903
  55.5056993  26.6202753  51.5618903  56.2566993  26.8162753  51.4528903
  64.6016993  15.2612753  60.5798903  65.4566993  15.3602753  60.7248903
  64.2326993  15.8142753  61.1448903  64.6736993  15.3582753  60.6848903
  55.6296993  21.4872753  64.9568903  55.2336993  22.2612753  65.0318903
  55.2236993  21.1142753  64.2808903  55.5116993  21.5462753  64.8678903
  64.9056993  20.5412753  59.0708903  65.5716993  21.0822753  59.2308903
  64.5606993  20.8522753  58.3318903  64.9526993  20.6672753  58.9858903
  65.2186993  28.6072753  54.8778903  65.0446993  27.9532753  55.4278903
  65.9316993  28.3362753  54.4548903  65.2986993  28.4702753  54.8968903
  56.4586993  24.1512753  50.6478903  55.6406993  23.8832753  50.7878903
  56.4306993  25.0032753  50.8328903  56.3336993  24.2382753  50.6958903
  56.0586993  14.4642753  62.4068903  55.1946993  14.5482753  62.4868903
  56.2786993  13.9502753  63.0758903  55.9636993  14.4012753  62.5178903
  68.0766993  13.0992753  63.7358903  68.0246993  13.0552753  64.6058903
  68.7636993  12.5962753  63.5458903  68.1706993  13.0192753  63.8358903
  60.1616993  15.2122753  60.7808903  59.4246993  14.7582753  60.8938903
  60.7326993  14.8102753  61.3038903  60.1366993  15.0852753  60.8748903
  62.8936993  26.0602753  62.5688903  63.0996993  26.3612753  63.3608903
  62.8326993  26.7822753  62.0838903  62.9146993  26.2112753  62.6138903
  62.4276993  30.2742753  66.8148903  61.6746993  30.2562753  66.3738903
  62.5956993  31.1262753  66.8988903  62.3416993  30.3972753  66.7618903
  57.6646993  19.5412753  65.9848903  57.3426993  18.9652753  65.4148903
  57.3056993  20.2962753  65.7388903  57.5646993  19.5672753  65.8648903
  58.4606993  12.7932753  50.6118903  58.5386993  13.0402753  49.7788903
  57.7176993  13.1702753  50.8698903  58.3626993  12.8852753  50.5268903
  67.7056993  24.6992753  62.0268903  67.6736993  23.8372753  61.8918903
  67.0126993  25.0012753  61.5928903  67.5986993  24.6162753  61.9428903
  56.0996993  29.8972753  66.2328903  56.1406993  30.0232753  67.0958903
  56.7506993  29.3372753  66.0768903  56.2016993  29.8332753  66.3378903
  65.8106993  27.9592753  60.8238903  66.3376993  27.8762753  60.1328903
  65.4196993  27.1812753  60.8778903  65.8306993  27.8322753  60.7298903
  53.2786993  14.5472753  63.0548903  52.9356993  13.7802753  62.8208903
  52.5836993  15.0712753  63.1188903  53.1256993  14.5112753  63.0298903
  62.3246993  13.4032753  60.0318903  62.9946993  13.9472753  60.1588903
  61.8216993  13.8272753  59.4588903  62.3496993  13.5462753  59.9658903
  53.6926993  28.2802753  67.5928903  54.2876993  28.7112753  68.0648903
  53.3286993  28.9042753  67.1038903  53.7266993  28.4362753  67.5898903
  61.6836993  19.2112753  57.5248903  62.2346993  18.6042753  57.8248903
  61.2586993  19.4742753  58.2398903  61.7026993  19.1602753  57.6738903
  51.9316993  17.8612753  57.0108903  51.5636993  18.1632753  57.7418903
  52.4656993  17.2322753  57.2948903  51.9556993  17.8132753  57.1608903
  51.6196993  26.2692753  64.5218903  51.0456993  26.6852753  65.0308903
  52.3526993  26.7342753  64.6168903  51.6436993  26.3992753  64.6108903
  63.6536993  21.0422753  54.0868903  63.7216993  20.1922753  54.2678903
  62.8306993  21.1282753  53.8088903  63.5416993  20.9292753  54.0728903
  53.4056993  29.5362753  53.2968903  53.2606993  29.6922753  52.4508903
  54.2716993  29.6152753  53.3748903  53.5126993  29.5712753  53.1838903
  57.5726993  21.9332753  53.0248903  57.6726993  22.0722753  52.1698903
  58.3906993  21.8732753  53.3208903  57.7076993  21.9442753  52.9418903
  66.7326993  29.9972753  50.5048903  67.3696993  29.8632753  51.0858903
  66.3916993  29.2032753  50.3878903  66.7766993  29.8602753  50.5728903
  66.9276993  22.4152753  67.2378903  67.5616993  22.2452753  67.8118903
  67.3446993  22.8182753  66.5858903  67.0826993  22.4502753  67.2268903
  62.8076993  26.2622753  52.8268903  62.5566993  26.1342753  53.6528903
  62.4906993  25.5672753  52.4058903  62.7236993  26.1412753  52.8868903
  67.5526993  16.9792753  67.9758903  67.3566993  17.6232753  68.5308903
  66.8306993  16.4892753  67.9678903  67.4176993  17.0022753  68.0568903
  67.4516993  17.9202753  60.9468903  66.6186993  18.1702753  60.8748903
  67.3956993  17.0802753  61.1758903  67.3206993  17.8332753  60.9698903
  56.7116993  14.9082753  66.1408903  56.9456993  14.3322753  65.5278903
  55.8696993  14.7272753  66.2818903  56.6216993  14.7962753  66.0708903
  64.3386993  22.5262753  68.5928903  65.2096993  22.4902753  68.5568903
  64.1196993  22.9462753  67.8608903  64.4356993  22.5822753  68.4798903
  54.0926993  28.3512753  59.7738903  54.0136993  27.5412753  59.4578903
  53.6486993  28.8382753  59.2018903  54.0156993  28.3032753  59.6428903
  59.6936993  24.4702753  52.2568903  60.4106993  24.1232753  51.9008903
  59.6596993  25.2702753  51.9088903  59.7946993  24.5372753  52.1528903
  51.6646993  30.5952753  63.3548903  52.1576993  30.5392753  64.0728903
  51.8526993  29.8622753  62.9198903  51.7656993  30.4782753  63.3968903
  61.1026993  13.1112753  36.4956493  60.8576993  13.5992753  35.8156493
  61.9656993  13.0382753  36.3956493  61.1936993  13.1722753  36.3806493
  60.9116993  20.0272753  41.1666493  60.3876993  20.6232753  41.5296493
  61.3086993  19.6592753  41.8506493  60.8926993  20.0612753  41.3216493
  67.0556993  27.4682753  34.1376493  67.7566993  26.9492753  34.1336493
  66.4686993  27.0232753  33.6686493  67.0726993  27.3252753  34.0676493
  50.5236993  17.9592753  33.1296493  49.7456993  18.1212753  32.7696493
  50.5626993  17.0882753  33.1516493  50.4146993  17.8542753  33.0796493
  53.6626993  23.2222753  31.8016493  53.2706993  22.8512753  31.1156493
  53.5826993  22.6242753  32.4306493  53.5926993  23.0792753  31.7926493
  63.5826993  21.0942753  37.8426493  63.6626993  21.0982753  36.9736493
  62.9986993  20.4622753  37.9916493  63.5076993  21.0012753  37.7366493
  53.2896993  24.8632753  35.7016493  53.8976993  24.6932753  36.3046493
  52.5386993  24.7232753  36.1226493  53.2686993  24.8172753  35.8526493
  57.5716993  14.1982753  35.6506493  57.5016993  14.8752753  35.1046493
  58.3126993  13.8102753  35.4016493  57.6706993  14.2412753  35.5326493
  50.7206993  26.9022753  42.8776493  50.8496993  26.6222753  43.6936493
  50.1106993  26.3612753  42.5686493  50.6496993  26.7812753  42.9526493
  57.2946993  24.4272753  47.9446493  57.0586993  24.4242753  48.7846493
  56.5466993  24.2792753  47.5206493  57.1486993  24.4042753  48.0056493
  52.1666993  21.4232753  37.0796493  51.7046993  21.0312753  36.4526493
  52.8666993  20.9102753  37.1716493  52.2016993  21.2902753  37.0006493
  56.6746993  17.0332753  42.4266493  57.3526993  17.0512753  41.8776493
  56.6296993  16.1972753  42.6716493  56.7676993  16.9122753  42.3816493
  57.2766993  27.6192753  45.2076493  57.4146993  28.3792753  44.8006493
  58.0676993  27.2542753  45.2346493  57.4136993  27.6782753  45.1516493
  54.1676993  19.5232753  37.1026493  54.9846993  19.3362753  37.3456493
  53.6906993  18.9092753  37.4986493  54.2176993  19.4052753  37.1976493
  58.3716993  25.5042753  39.7126493  58.7196993  24.7052753  39.7426493
  59.0366993  26.0082753  39.4576493  58.5216993  25.4602753  39.6796493
  58.4286993  24.9532753  35.9236493  58.7596993  24.3092753  36.4096493
  58.6686993  24.7422753  35.1126493  58.5126993  24.8272753  35.8756493
  60.3966993  19.0842753  47.2626493  59.5486993  18.9852753  47.0846493
  60.4256993  19.8292753  47.7166493  60.2756993  19.1802753  47.3036493
  54.7646993  14.6172753  36.3686493  54.4686993  15.1182753  35.7186493
  55.6316993  14.6952753  36.3116493  54.8486993  14.7032753  36.2646493
  64.9546993  12.0442753  46.3766493  64.7966993  12.8132753  45.9946493
  64.1826993  11.8242753  46.7206493  64.8166993  12.1252753  46.3716493
  57.7436993  13.7592753  38.5916493  57.8166993  14.6192753  38.7206493
  57.7056993  13.6842753  37.7236493  57.7486993  13.8752753  38.4826493
  62.4166993  16.6852753  30.8906493  61.9666993  17.3662753  31.1976493
  62.5306993  16.1812753  31.5936493  62.3676993  16.7112753  31.0396493
  50.6226993  19.1842753  40.0926493  50.3666993  20.0152753  40.0176493
  49.9586993  18.8012753  40.5096493  50.4866993  19.2502753  40.1436493
  56.3726993  26.7382753  35.4726493  55.7936993  26.4632753  36.0646493
  56.9966993  26.1292753  35.4976493  56.3796993  26.6082753  35.5636493
  62.5156993  29.0262753  32.9946493  63.2426993  29.4982753  33.0966493
  62.7446993  28.2322753  33.2746493  62.6576993  28.9792753  33.0516493
  60.6836993  29.4182753  34.9846493  60.8976993  29.9452753  35.6466493
  61.4506993  29.2442753  34.6056493  60.8286993  29.4702753  35.0266493
  53.6516993  14.0012753  40.5836493  53.1306993  13.3732753  40.2756493
  54.2426993  13.5642753  41.0546493  53.6626993  13.8432753  40.6076493
  56.9576993  16.1342753  49.8816493  57.0746993  15.6802753  49.1456493
  57.2456993  16.9322753  49.6786493  57.0176993  16.1852753  49.7426493
  67.8106993  16.6582753  37.1856493  67.4646993  17.3362753  37.6116493
  67.1746993  16.0602753  37.2016493  67.6656993  16.6702753  37.2506493
  63.1226993  29.4282753  43.2896493  63.8666993  29.8842753  43.2796493
  63.0016993  29.2142753  42.4526493  63.2146993  29.4642753  43.1646493
  52.6906993  15.7312753  48.8656493  51.9126993  15.3412753  48.7936493
  53.1816993  15.3192753  48.2746493  52.6476993  15.6122753  48.7676493
  52.8956993  26.0512753  39.4236493  53.3186993  25.6952753  38.7496493
  53.2196993  25.6292753  40.1156493  53.0056993  25.9362753  39.4266493
  56.1266993  28.9032753  38.7196493  56.9706993  29.0072753  38.5246493
  55.8296993  29.7212753  38.7876493  56.2076993  29.0392753  38.7006493
  59.3396993  13.3742753  48.0336493  59.5176993  12.5652753  47.7586493
  59.1966993  13.8152753  47.2946493  59.3446993  13.3202753  47.8836493
  59.9336993  18.3002753  36.8066493  60.2206993  18.0682753  36.0166493
  60.6656993  18.3792753  37.2756493  60.0836993  18.2772753  36.7596493
  60.6556993  18.6392753  31.9276493  60.9366993  19.4272753  32.1766493
  59.8796993  18.8042753  31.5646493  60.5826993  18.7802753  31.9106493
  64.6966993  30.6132753  33.3946493  65.3616993  30.4652753  32.8496493
  65.0566993  30.5302753  34.1846493  64.8486993  30.5792753  33.4306493
  67.4856993  14.9812753  42.5546493  68.2426993  15.0532753  42.1266493
  67.5486993  14.2082753  42.9536493  67.6066993  14.8782753  42.5496493
  50.0386993  16.2792753  46.4516493  50.0346993  16.8662753  47.0976493
  50.6326993  16.5912753  45.8946493  50.1256993  16.4122753  46.4646493
  62.3766993  26.6132753  46.9936493  62.3426993  26.9952753  47.7776493
  63.2306993  26.5712753  46.8226493  62.4976993  26.6632753  47.0846493
  59.5146993  26.8102753  31.7436493  59.3336993  27.3552753  32.4006493
  60.2806993  27.1002753  31.4426493  59.6006993  26.9342753  31.7966493
  63.0216993  14.7062753  32.7976493  63.5616993  14.0242753  32.8736493
  63.0836993  15.1042753  33.5716493  63.1106993  14.6642753  32.9236493
  50.9756993  15.8742753  35.3666493  50.8616993  15.0102753  35.3976493
  50.5006993  16.1682753  36.0366493  50.8886993  15.7902753  35.4696493
  53.1176993  28.2842753  43.5816493  52.4196993  27.7762753  43.7076493
  53.3776993  28.0792753  42.7736493  53.0526993  28.1792753  43.4806493
  60.2796993  17.0822753  34.1116493  59.7716993  16.4202753  33.8576493
  60.3316993  17.5862753  33.4016493  60.2126993  17.0592753  33.9696493
  60.8286993  29.7772753  44.4916493  61.5966993  29.6972753  44.0856493
  60.2456993  29.6562753  43.8536493  60.8556993  29.7472753  44.3376493
  60.2796993  14.0232753  34.0026493  59.8246993  13.6212753  33.3766493
  61.0526993  14.1782753  33.6276493  60.3266993  13.9872753  33.8546493
  67.1056993  30.3802753  37.3926493  66.6506993  31.0972753  37.5936493
  66.4916993  29.8092753  37.1506493  66.9476993  30.4022753  37.3866493
  58.8776993  16.3902753  38.5246493  58.9516993  16.9582753  37.8666493
  58.9986993  16.8822753  39.2346493  58.9056993  16.5472753  38.5326493
  64.1026993  26.2252753  36.9366493  64.8036993  25.7432753  37.1256493
  63.4426993  25.6562753  36.9816493  64.1086993  26.0702753  36.9706493
  54.4786993  27.1352753  46.1486493  55.3196993  27.1982753  45.9266493
  54.4416993  27.5322753  46.9246493  54.5976993  27.2032753  46.2306493
  53.4856993  12.2132753  36.8726493  54.0216993  12.9012753  36.8626493
  53.4886993  11.9392753  36.0446493  53.5646993  12.2742753  36.7486493
  56.4416993  22.6462753  40.8976493  56.6136993  22.4362753  41.7266493
  55.7866993  22.1122753  40.6816493  56.3706993  22.5362753  40.9886493
  62.6696993  16.5602753  44.4126493  62.5746993  16.8792753  45.2186493
  62.0766993  15.9212753  44.3746493  62.5676993  16.5122753  44.5266493
  57.1916993  22.5842753  43.4876493  57.2446993  23.4312753  43.6896493
  56.9066993  22.2142753  44.2246493  57.1576993  22.6542753  43.6256493
  63.3686993  23.2792753  42.6176493  62.8546993  22.8672753  43.1886493
  63.2426993  24.1232753  42.7986493  63.2746993  23.3432753  42.7286493
  63.9256993  12.5042753  37.2486493  63.9746993  12.1862753  38.0596493
  64.2486993  11.8602753  36.7556493  63.9806993  12.3622753  37.2956493
  50.0126993  26.9552753  49.6986493  50.7686993  27.3042753  49.9566493
  50.1896993  26.1022753  49.6416493  50.1506993  26.8802753  49.7286493
  66.3896993  16.7402753  45.5566493  67.1616993  16.5152753  45.8936493
  65.9146993  16.9572753  46.2566493  66.4336993  16.7392753  45.7096493
  53.9336993  16.0232753  38.5266493  54.2056993  15.5932753  37.8186493
  53.7576993  15.3872753  39.0976493  53.9476993  15.8662753  38.5066493
  66.6216993  23.7182753  32.7446493  66.7406993  23.4312753  33.5596493
  67.4286993  23.7392753  32.4146493  66.7576993  23.6792753  32.8166493
  53.7576993  23.4502753  38.0756493  54.6086993  23.3702753  37.9026493
  53.4006993  22.7682753  37.6636493  53.8306993  23.3372753  37.9886493
  52.5246993  30.1752753  39.3126493  51.8516993  29.6772753  39.0676493
  52.9276993  30.3602753  38.5616493  52.4846993  30.1292753  39.1656493
  52.0746993  17.1252753  41.6086493  52.9176993  17.3452753  41.5656493
  51.6856993  17.6982753  41.0776493  52.1416993  17.2422753  41.5236493
  68.8556993  28.2272753  46.9986493  68.1736993  28.5372753  46.5516493
  68.4866993  27.7692753  47.6436493  68.6996993  28.2052753  47.0276493
  64.5166993  20.2552753  32.3296493  64.2966993  20.9862753  31.9076493
  64.0686993  20.3062753  33.0766493  64.4176993  20.3702753  32.3776493
  56.1256993  23.4572753  36.3106493  56.8386993  23.9522753  36.4006493
  56.3476993  22.8902753  35.6846493  56.2636993  23.4462753  36.2316493
  68.7036993  15.1162753  31.7826493  68.0416993  14.5482753  31.8056493
  68.5106993  15.6282753  31.1026493  68.5776993  15.1082753  31.6856493
  50.2816993  25.1002753  39.6306493  49.6146993  25.5882753  39.9066493
  50.9616993  25.6452753  39.6596493  50.2836993  25.2522753  39.6756493
  57.9286993  18.8102753  49.7266493  57.4446993  19.3872753  50.1686493
  57.9006993  19.1052753  48.9056493  57.8526993  18.9392753  49.6706493
  69.0266993  19.4942753  44.3386493  69.2416993  18.6942753  44.0626493
  68.1766993  19.5542753  44.1496493  68.9326993  19.3852753  44.2696493
  50.3476993  21.7842753  34.7336493  50.1626993  20.9452753  34.8856493
  51.0066993  21.7482753  34.1636493  50.4176993  21.6552753  34.6716493
  66.7056993  14.6742753  34.0616493  67.4516993  14.2672753  34.2606493
  66.9686993  15.3892753  33.6366493  66.8546993  14.7202753  34.0286493
  60.6486993  27.1602753  38.6376493  60.1256993  27.7942753  38.3446493
  60.9586993  26.7962753  37.9086493  60.6166993  27.2002753  38.4866493
  54.7236993  24.9482753  41.3976493  55.1906993  25.2372753  42.0756493
  55.2956993  24.4702753  40.9436493  54.8776993  24.9202753  41.4306493
  63.1596993  16.9622753  39.1346493  63.5036993  17.1142753  39.9216493
  62.7066993  16.2242753  39.2476493  63.1436993  16.8752753  39.2676493
  50.3496993  24.3972753  31.9366493  51.1056993  23.9652753  31.9946493
  50.3646993  24.9292753  32.6276493  50.4636993  24.4122753  32.0476493
  51.2896993  22.6182753  39.9416493  51.7206993  22.4892753  39.1946493
  51.0846993  23.4662753  39.9156493  51.3226993  22.7242753  39.8276493
  57.6356993  16.1822753  33.5916493  57.6336993  16.0652753  32.7266493
  57.4546993  17.0302753  33.6836493  57.6086993  16.2902753  33.4776493
  66.6896993  28.6092753  45.0886493  66.0186993  29.1232753  45.3066493
  66.7526993  28.7092753  44.2246493  66.5996993  28.7002753  44.9936493
  55.3736993  26.1342753  38.2236493  55.4996993  26.9772753  38.4106493
  56.0416993  25.7352753  38.6196493  55.4916993  26.2002753  38.3096493
  53.5036993  19.6172753  48.0856493  52.9676993  19.1112753  48.5536493
  53.5236993  19.2272753  47.3056493  53.4266993  19.4842753  48.0396493
  54.1556993  20.8442753  39.8246493  53.3746993  20.7852753  39.4416493
  54.2276993  20.0922753  40.2616493  54.0506993  20.7252753  39.8326493
  54.5856993  20.5812753  43.2926493  54.6106993  19.9062753  42.7416493
  53.9396993  21.0772753  42.9806493  54.4946993  20.5542753  43.1656493
  64.4806993  18.2942753  41.6886493  63.8186993  18.6222753  42.1516493
  64.6676993  18.9282753  41.1196493  64.4106993  18.4362753  41.6726493
  58.6856993  29.3582753  42.6846493  58.4086993  28.7172753  42.1616493
  58.4776993  30.0842753  42.2466493  58.6146993  29.3712753  42.5426493
  61.1256993  14.2002753  45.1176493  61.2746993  13.3752753  44.8746493
  61.5046993  14.2552753  45.9016493  61.2036993  14.0862753  45.1976493
  62.6736993  16.2632753  35.1996493  63.1636993  16.9802753  35.1226493
  61.8836993  16.5242753  34.9366493  62.6296993  16.4072753  35.1496493
  52.3846993  21.9362753  48.8516493  52.3476993  22.4372753  48.1376493
  52.7156993  21.1842753  48.5566493  52.4276993  21.8982753  48.7026493
  63.9876993  24.1412753  47.1096493  64.4716993  24.8592753  47.2076493
  64.3816993  23.7142753  46.4586493  64.1176993  24.1842753  47.0276493
  58.2836993  26.9862753  48.2866493  58.6376993  26.8082753  49.0636493
  57.8476993  26.2572753  48.0876493  58.2716993  26.8522753  48.3726493
  59.2556993  17.7332753  40.9246493  59.7356993  18.4322753  41.1326493
  59.6286993  17.0862753  41.3756493  59.3816993  17.7412753  41.0216493
  61.4446993  20.9022753  33.1986493  61.4366993  21.6242753  32.7086493
  60.8056993  21.0372753  33.7756493  61.3496993  21.0292753  33.2116493
  66.4166993  24.7722753  37.1796493  66.7726993  24.4222753  37.8946493
  66.4086993  24.1112753  36.6096493  66.4686993  24.6222753  37.2006493
  62.4616993  27.8382753  41.0236493  61.8586993  27.5422753  40.4666493
  63.0066993  28.2902753  40.5146493  62.4526993  27.8612753  40.8656493
  62.4746993  24.6892753  40.4236493  61.6776993  24.9132753  40.6976493
  62.7326993  24.0952753  41.0086493  62.3946993  24.6342753  40.5506493
  56.3666993  29.5012753  34.8716493  56.2196993  28.7252753  35.2426493
  57.0556993  29.3542753  34.3566493  56.4466993  29.3642753  34.8506493
  56.0376993  13.2442753  32.8596493  56.1346993  13.1372753  33.7206493
  55.3296993  13.7502753  32.7946493  55.9476993  13.3032753  32.9776493
  58.6586993  29.0172753  33.2736493  59.2806993  29.1802753  33.8636493
  58.6946993  29.7082753  32.7416493  58.7556993  29.1432753  33.2826493
  65.7346993  22.6872753  45.2696493  65.7896993  22.8122753  44.4076493
  66.4876993  23.0072753  45.5716493  65.8536993  22.7522753  45.1866493
  61.9256993  28.0362753  49.5466493  62.0896993  28.3192753  50.3556493
  62.1886993  28.6972753  49.0416493  61.9886993  28.1762753  49.5916493
  66.7666993  12.9852753  48.2566493  66.1296993  12.5852753  47.8146493
  66.7926993  12.5542753  49.0146493  66.6766993  12.8632753  48.3026493
  53.1596993  21.5512753  34.1026493  53.4836993  20.7722753  33.8806493
  53.8056993  21.9192753  34.5576493  53.3026993  21.4902753  34.1366493
  61.4656993  22.4932753  44.8696493  61.3106993  23.1032753  45.4736493
  61.9996993  21.9352753  45.2756493  61.5216993  22.5012753  45.0186493
  50.1566993  13.2122753  35.0706493  50.2856993  12.5042753  34.5786493
  49.7896993  12.8942753  35.7956493  50.1216993  13.0602753  35.1056493
  59.8496993  20.8932753  35.5276493  59.9086993  21.5432753  36.1066493
  59.6606993  20.1972753  36.0186493  59.8306993  20.8862753  35.6856493
  65.0756993  25.2222753  41.3966493  64.5966993  25.5202753  40.7306493
  64.7196993  24.4462753  41.5746493  64.9526993  25.1512753  41.3246493
  54.3456993  15.4102753  32.0396493  53.8346993  15.4632753  31.3336493
  55.1296993  15.6502753  31.7436493  54.3856993  15.4532753  31.8916493
  59.0726993  22.9402753  39.9586493  58.2256993  22.7462753  40.0396493
  59.3966993  22.7752753  40.7516493  58.9946993  22.8872753  40.0876493
  55.8246993  29.6702753  30.8446493  56.2636993  28.9732753  31.1326493
  56.0316993  30.2942753  31.4176493  55.9206993  29.6592753  30.9716493
  52.9206993  22.6332753  42.2746493  53.6426993  23.1212753  42.2376493
  52.6506993  22.6032753  41.4456493  52.9876993  22.7012753  42.1466493
  56.1506993  17.8042753  39.0096493  56.9966993  17.6142753  39.1076493
  55.7806993  17.0272753  38.8716493  56.2206993  17.6612753  39.0036493
  68.7676993  29.3882753  33.3366493  69.4616993  28.9212753  33.0886493
  68.2286993  28.7902753  33.6736493  68.7906993  29.2302753  33.3496493
  50.9716993  19.1422753  35.6646493  51.4606993  18.8502753  36.3256493
  51.1006993  18.5492753  35.0376493  51.0626993  19.0112753  35.6696493
  66.0066993  22.1642753  42.5156493  65.9996993  21.3882753  42.9136493
  65.1656993  22.3982753  42.5086493  65.8816993  22.0842753  42.5736493
  55.4966993  20.5762753  31.1506493  54.8866993  20.1712753  31.6246493
  55.1106993  20.6942753  30.3776493  55.3496993  20.5332753  31.1066493
  52.3156993  23.6852753  46.5526493  51.8946993  23.1672753  45.9916493
  51.9636993  24.4712753  46.4096493  52.2016993  23.7252753  46.4486493
  67.2626993  22.2352753  39.9526493  66.9766993  22.6362753  40.6726493
  68.1226993  22.1732753  40.0796493  67.3476993  22.2852753  40.0776493
  56.9516993  19.0372753  33.8606493  57.2236993  19.8632753  33.9276493
  56.0886993  19.1122753  33.7646493  56.8646993  19.1702753  33.8556493
  64.9246993  16.1592753  48.4926493  64.3996993  16.6182753  49.0166493
  64.5636993  15.3642753  48.4866493  64.7936993  16.1092753  48.5686493
  50.4316993  15.0072753  40.3966493  50.4756993  15.3512753  39.5956493
  51.1866993  15.2442753  40.7636493  50.5496993  15.0932753  40.3326493
  68.3936993  27.8682753  40.4816493  68.6836993  28.1252753  39.7006493
  69.0886993  27.9642753  41.0006493  68.5396993  27.9202753  40.4426493
  63.4166993  19.7282753  48.5686493  63.4896993  19.8322753  49.4316493
  62.7826993  20.2862753  48.3476493  63.3336993  19.8262753  48.6636493
  65.6846993  20.0472753  46.9336493  66.0036993  20.8332753  47.1366493
  65.3146993  19.7772753  47.6766493  65.6776993  20.1232753  47.0736493
  64.9986993  26.4712753  32.4636493  65.3326993  25.6652753  32.4986493
  64.2436993  26.3992753  32.8936493  64.9366993  26.3412753  32.5326493
  65.4806993  18.3052753  38.1226493  64.7356993  17.9822753  38.4406493
  65.4826993  19.1312753  38.4026493  65.3706993  18.3792753  38.2106493
  68.3826993  20.5892753  49.6686493  68.3306993  20.2482753  48.8676493
  69.1196993  21.0562753  49.6466493  68.4836993  20.6082753  49.5466493
  67.9206993  24.2652753  45.8746493  68.5486993  23.7162753  45.6186493
  67.8596993  24.8302753  45.2126493  68.0046993  24.2682753  45.7386493
  62.3726993  24.3462753  31.8666493  63.0566993  23.8322753  31.6976493
  61.9556993  24.3922753  31.1016493  62.4116993  24.2772753  31.7286493
  57.0546993  25.4962753  43.1706493  56.7566993  26.0882753  43.7376493
  57.1096993  25.9382753  42.4216493  57.0186993  25.6492753  43.1436493
  55.0336993  24.4462753  46.5686493  54.2276993  24.1562753  46.7356493
  54.9446993  25.3142753  46.5746493  54.9016993  24.5312753  46.5936493
  64.3926993  14.6352753  45.5836493  65.1366993  15.0872753  45.5206493
  63.8266993  15.1052753  45.1146493  64.4196993  14.7722753  45.5056493
  59.5706993  21.9192753  42.6616493  60.0466993  22.2932753  43.2896493
  58.7476993  22.0532753  42.9206493  59.5196993  21.9942753  42.7926493
  56.2806993  17.5222753  45.4026493  56.4416993  16.7782753  45.8296493
  56.2356993  17.2732753  44.5676493  56.2976993  17.3752753  45.3426493
  58.8346993  29.3122753  37.8896493  59.3806993  29.9912753  37.9436493
  58.4846993  29.3942753  37.0946493  58.8636993  29.4252753  37.7796493
  65.6776993  12.6152753  43.2536493  65.3976993  13.4402753  43.2096493
  66.3936993  12.6682753  43.7496493  65.7426993  12.7452753  43.3206493
  58.0326993  13.3302753  45.2826493  58.7376993  13.6502753  44.8806493
  58.2736993  12.5232753  45.5096493  58.1716993  13.2582753  45.2566493
  57.0176993  27.5402753  41.2786493  56.3936993  28.1222753  41.0966493
  57.2656993  27.2542753  40.4926493  56.9616993  27.5842753  41.1356493
  61.3266993  24.1742753  48.2676493  62.0836993  24.4602753  47.9416493
  60.7796993  24.2262753  47.5896493  61.3576993  24.2242753  48.1186493
  65.2356993  26.7242753  46.7716493  65.5816993  26.9942753  47.5256493
  65.5296993  27.3062753  46.1916493  65.3306993  26.8502753  46.7976493
  67.0986993  18.8702753  32.1106493  67.4766993  19.5472753  31.7106493
  66.2566993  19.0942753  32.1416493  67.0296993  19.0032753  32.0556493
  58.6116993  22.3162753  31.1936493  57.8066993  22.1392753  30.9086493
  58.5786993  23.1672753  31.3856493  58.4876993  22.4152753  31.1806493
  54.5416993  18.3832753  41.3436493  54.9816993  18.2802753  40.5976493
  55.0866993  18.0702753  41.9486493  54.6866993  18.3222753  41.3226493
  62.5576993  17.4852753  46.9356493  61.9096993  17.9552753  47.2836493
  63.1226993  17.3962753  47.5946493  62.5456993  17.5412753  47.0846493
  62.2456993  19.0222753  43.2336493  62.5476993  19.4422753  43.9366493
  62.2816993  18.1822753  43.4656493  62.2956993  18.9602753  43.3716493
  59.6706993  29.1892753  47.1586493  60.1486993  28.5892753  46.7426493
  59.3196993  28.7462753  47.8236493  59.6896993  29.0352753  47.1956493
  64.7936993  18.4692753  35.4856493  65.0006993  18.2682753  36.3096493
  65.5496993  18.7372753  35.1436493  64.9356993  18.4792753  35.5566493
  58.0886993  13.3682753  41.3906493  57.2626993  13.2192753  41.6276493
  58.0486993  13.4032753  40.5196493  57.9606993  13.3512753  41.2966493
  65.8156993  14.5522753  36.9596493  65.1016993  14.0812753  37.1306493
  65.6536993  14.8932753  36.1736493  65.6866993  14.5332753  36.8686493
  66.2586993  22.4962753  35.3396493  66.7346993  21.7672753  35.2916493
  65.4376993  22.2102753  35.2636493  66.2076993  22.3462753  35.3206493
  59.7296993  24.4082753  46.1786493  58.9346993  24.3442753  46.5296493
  59.8006993  25.2552753  45.9836493  59.6226993  24.5232753  46.2016493
  50.6536993  13.7662753  47.4256493  50.5136993  14.5612753  47.0946493
  49.8676993  13.5232753  47.7146493  50.5166993  13.8482753  47.4196493
  55.5596993  30.6152753  41.4956493  55.5706993  30.6742753  42.3656493
  55.1346993  29.8682753  41.3456493  55.4986993  30.5132753  41.6016493
  53.7176993  16.5102753  34.6506493  53.8436993  16.1812753  33.8526493
  52.9056993  16.2612753  34.8496493  53.6166993  16.4252753  34.5626493
  62.4746993  23.6632753  37.6946493  62.5506993  24.0042753  38.4936493
  62.6436993  22.8162753  37.8156493  62.5106993  23.5882753  37.8306493
  59.9966993  22.9372753  37.2596493  59.6986993  22.6222753  38.0166493
  60.6916993  23.4102753  37.4946493  60.0556993  22.9602753  37.4066493
  60.2186993  27.0552753  45.2866493  60.9056993  26.9412753  45.8116493
  60.3526993  27.8462753  44.9426493  60.3396993  27.1552753  45.3136493
  68.3946993  19.6642753  47.0976493  67.5396993  19.5422753  47.2236493
  68.5476993  19.2692753  46.3346493  68.2906993  19.5872753  47.0036493
  62.9076993  20.3292753  45.6736493  62.6526993  19.6102753  46.0956493
  63.7286993  20.4452753  45.9436493  62.9916993  20.2402753  45.7756493
  52.3236993  30.1132753  46.9376493  51.6696993  29.5442753  47.0356493
  51.9486993  30.8862753  47.0886493  52.1716993  30.1432753  46.9746493
  60.8416993  21.5192753  48.8606493  61.1646993  22.2052753  48.4286493
  60.1376993  21.8422753  49.2626493  60.7846993  21.6682753  48.8556493
  63.9256993  29.8932753  39.7896493  63.4746993  30.5362753  40.1686493
  64.6336993  29.8142753  40.2946493  63.9636993  29.9762753  39.9206493
  60.6266993  24.9832753  42.7196493  59.9326993  25.3852753  43.0626493
  61.3036993  25.4162753  43.0586493  60.6236993  25.1062753  42.8206493
  66.0036993  27.5762753  49.2996493  66.7796993  27.1862753  49.3826493
  65.5346993  27.2402753  49.9546493  66.0486993  27.4692753  49.4086493
  53.6946993  18.5212753  45.0666493  54.0696993  19.1402753  44.5796493
  54.3686993  18.0472753  45.3516493  53.8496993  18.5432753  45.0366493
  51.4696993  16.9692753  44.3416493  51.5466993  16.8002753  43.4886493
  52.2156993  17.3752753  44.5386493  51.5906993  17.0042753  44.2446493
  67.0286993  19.6092753  34.7816493  67.1316993  19.5512753  33.9176493
  67.7696993  19.2772753  35.0996493  67.1536993  19.5522753  34.7006493
  54.0236993  14.3792753  46.7526493  53.9426993  13.5352753  46.9586493
  53.7096993  14.4232753  45.9396493  53.9656993  14.2612753  46.6626493
  60.9486993  26.5742753  35.8886493  60.7436993  27.4072753  35.7296493
  60.1736993  26.1922753  36.0106493  60.8036993  26.6412753  35.8836493
  66.1306993  19.7552753  44.1376493  66.1286993  18.8922753  44.2616493
  66.1976993  20.0792753  44.9446493  66.1406993  19.6752753  44.2746493
  52.3226993  18.1312753  31.1836493  51.6506993  18.1452753  31.7396493
  52.4176993  17.2832753  30.9996493  52.2376993  18.0082753  31.2386493
  62.0096993  14.5552753  47.9196493  62.1016993  15.2672753  48.4136493
  61.3726993  14.1102753  48.3166493  61.9286993  14.5942753  48.0516493
  61.0036993  14.7452753  38.7736493  60.3036993  15.2632753  38.7176493
  61.0416993  14.3652753  37.9896493  60.9056993  14.7662753  38.6496493
  56.3106993  26.8362753  32.2976493  56.7516993  26.9162753  33.0456493
  55.5056993  26.6202753  32.5556493  56.2566993  26.8162753  32.4466493
  64.6016993  15.2612753  41.5736493  65.4566993  15.3602753  41.7186493
  64.2326993  15.8142753  42.1386493  64.6736993  15.3582753  41.6786493
  55.6296993  21.4872753  45.9506493  55.2336993  22.2612753  46.0256493
  55.2236993  21.1142753  45.2746493  55.5116993  21.5462753  45.8616493
  64.9056993  20.5412753  40.0646493  65.5716993  21.0822753  40.2246493
  64.5606993  20.8522753  39.3256493  64.9526993  20.6672753  39.9796493
  65.2186993  28.6072753  35.8716493  65.0446993  27.9532753  36.4216493
  65.9316993  28.3362753  35.4486493  65.2986993  28.4702753  35.8906493
  56.4586993  24.1512753  31.6416493  55.6406993  23.8832753  31.7816493
  56.4306993  25.0032753  31.8266493  56.3336993  24.2382753  31.6896493
  56.0586993  14.4642753  43.4006493  55.1946993  14.5482753  43.4806493
  56.2786993  13.9502753  44.0696493  55.9636993  14.4012753  43.5116493
  68.0766993  13.0992753  44.7296493  68.0246993  13.0552753  45.5996493
  68.7636993  12.5962753  44.5396493  68.1706993  13.0192753  44.8296493
  60.1616993  15.2122753  41.7746493  59.4246993  14.7582753  41.8876493
  60.7326993  14.8102753  42.2976493  60.1366993  15.0852753  41.8686493
  62.8936993  26.0602753  43.5626493  63.0996993  26.3612753  44.3546493
  62.8326993  26.7822753  43.0776493  62.9146993  26.2112753  43.6076493
  62.4276993  30.2742753  47.8086493  61.6746993  30.2562753  47.3676493
  62.5956993  31.1262753  47.8926493  62.3416993  30.3972753  47.7556493
  57.6646993  19.5412753  46.9786493  57.3426993  18.9652753  46.4086493
  57.3056993  20.2962753  46.7326493  57.5646993  19.5672753  46.8586493
  58.4606993  12.7932753  31.6056493  58.5386993  13.0402753  30.7726493
  57.7176993  13.1702753  31.8636493  58.3626993  12.8852753  31.5206493
  67.7056993  24.6992753  43.0206493  67.6736993  23.8372753  42.8856493
  67.0126993  25.0012753  42.5866493  67.5986993  24.6162753  42.9366493
  56.0996993  29.8972753  47.2266493  56.1406993  30.0232753  48.0896493
  56.7506993  29.3372753  47.0706493  56.2016993  29.8332753  47.3316493
  65.8106993  27.9592753  41.8176493  66.3376993  27.8762753  41.1266493
  65.4196993  27.1812753  41.8716493  65.8306993  27.8322753  41.7236493
  53.2786993  14.5472753  44.0486493  52.9356993  13.7802753  43.8146493
  52.5836993  15.0712753  44.1126493  53.1256993  14.5112753  44.0236493
  62.3246993  13.4032753  41.0256493  62.9946993  13.9472753  41.1526493
  61.8216993  13.8272753  40.4526493  62.3496993  13.5462753  40.9596493
  53.6926993  28.2802753  48.5866493  54.2876993  28.7112753  49.0586493
  53.3286993  28.9042753  48.0976493  53.7266993  28.4362753  48.5836493
  61.6836993  19.2112753  38.5186493  62.2346993  18.6042753  38.8186493
  61.2586993  19.4742753  39.2336493  61.7026993  19.1602753  38.6676493
  51.9316993  17.8612753  38.0046493  51.5636993  18.1632753  38.7356493
  52.4656993  17.2322753  38.2886493  51.9556993  17.8132753  38.1546493
  51.6196993  26.2692753  45.5156493  51.0456993  26.6852753  46.0246493
  52.3526993  26.7342753  45.6106493  51.6436993  26.3992753  45.6046493
  63.6536993  21.0422753  35.0806493  63.7216993  20.1922753  35.2616493
  62.8306993  21.1282753  34.8026493  63.5416993  20.9292753  35.0666493
  57.5726993  21.9332753  34.0186493  57.6726993  22.0722753  33.1636493
  58.3906993  21.8732753  34.3146493  57.7076993  21.9442753  33.9356493
  66.7326993  29.9972753  31.4986493  67.3696993  29.8632753  32.0796493
  66.3916993  29.2032753  31.3816493  66.7766993  29.8602753  31.5666493
  66.9276993  22.4152753  48.2316493  67.5616993  22.2452753  48.8056493
  67.3446993  22.8182753  47.5796493  67.0826993  22.4502753  48.2206493
  62.8076993  26.2622753  33.8206493  62.5566993  26.1342753  34.6466493
  62.4906993  25.5672753  33.3996493  62.7236993  26.1412753  33.8806493
  67.5526993  16.9792753  48.9696493  67.3566993  17.6232753  49.5246493
  66.8306993  16.4892753  48.9616493  67.4176993  17.0022753  49.0506493
  67.4516993  17.9202753  41.9406493  66.6186993  18.1702753  41.8686493
  67.3956993  17.0802753  42.1696493  67.3206993  17.8332753  41.9636493
  56.7116993  14.9082753  47.1346493  56.9456993  14.3322753  46.5216493
  55.8696993  14.7272753  47.2756493  56.6216993  14.7962753  47.0646493
  64.3386993  22.5262753  49.5866493  65.2096993  22.4902753  49.5506493
  64.1196993  22.9462753  48.8546493  64.4356993  22.5822753  49.4736493
  54.0926993  28.3512753  40.7676493  54.0136993  27.5412753  40.4516493
  53.6486993  28.8382753  40.1956493  54.0156993  28.3032753  40.6366493
  59.6936993  24.4702753  33.2506493  60.4106993  24.1232753  32.8946493
  59.6596993  25.2702753  32.9026493  59.7946993  24.5372753  33.1466493
  51.6646993  30.5952753  44.3486493  52.1576993  30.5392753  45.0666493
  51.8526993  29.8622753  43.9136493  51.7656993  30.4782753  44.3906493
  61.1026993  13.1112753  17.4894083  60.8576993  13.5992753  16.8094083
  61.9656993  13.0382753  17.3894083  61.1936993  13.1722753  17.3744083
  60.9116993  20.0272753  22.1604083  60.3876993  20.6232753  22.5234083
  61.3086993  19.6592753  22.8444083  60.8926993  20.0612753  22.3154083
  50.7806993  24.1672753  17.6164083  50.3396993  24.2852753  18.3594083
  50.4976993  23.3922753  17.3314083  50.6736993  24.0702753  17.6844083
  67.0556993  27.4682753  15.1314083  67.7566993  26.9492753  15.1274083
  66.4686993  27.0232753  14.6624083  67.0726993  27.3252753  15.0614083
  50.5236993  17.9592753  14.1234083  49.7456993  18.1212753  13.7634083
  50.5626993  17.0882753  14.1454083  50.4146993  17.8542753  14.0734083
  53.6626993  23.2222753  12.7954083  53.2706993  22.8512753  12.1094083
  53.5826993  22.6242753  13.4244083  53.5926993  23.0792753  12.7864083
  63.5826993  21.0942753  18.8364083  63.6626993  21.0982753  17.9674083
  62.9986993  20.4622753  18.9854083  63.5076993  21.0012753  18.7304083
  53.2896993  24.8632753  16.6954083  53.8976993  24.6932753  17.2984083
  52.5386993  24.7232753  17.1164083  53.2686993  24.8172753  16.8464083
  57.5716993  14.1982753  16.6444083  57.5016993  14.8752753  16.0984083
  58.3126993  13.8102753  16.3954083  57.6706993  14.2412753  16.5264083
  52.1806993  27.9542753  12.7724083  52.6476993  28.0382753  12.0404083
  52.6356993  27.3762753  13.2414083  52.3166993  27.8812753  12.7334083
  50.7206993  26.9022753  23.8714083  50.8496993  26.6222753  24.6874083
  50.1106993  26.3612753  23.5624083  50.6496993  26.7812753  23.9464083
  57.2946993  24.4272753  28.9384083  57.0586993  24.4242753  29.7784083
  56.5466993  24.2792753  28.5144083  57.1486993  24.4042753  28.9994083
  52.1666993  21.4232753  18.0734083  51.7046993  21.0312753  17.4464083
  52.8666993  20.9102753  18.1654083  52.2016993  21.2902753  17.9944083
  56.6746993  17.0332753  23.4204083  57.3526993  17.0512753  22.8714083
  56.6296993  16.1972753  23.6654083  56.7676993  16.9122753  23.3754083
  54.1676993  19.5232753  18.0964083  54.9846993  19.3362753  18.3394083
  53.6906993  18.9092753  18.4924083  54.2176993  19.4052753  18.1914083
  58.3716993  25.5042753  20.7064083  58.7196993  24.7052753  20.7364083
  59.0366993  26.0082753  20.4514083  58.5216993  25.4602753  20.6734083
  58.4286993  24.9532753  16.9174083  58.7596993  24.3092753  17.4034083
  58.6686993  24.7422753  16.1064083  58.5126993  24.8272753  16.8694083
  60.3966993  19.0842753  28.2564083  59.5486993  18.9852753  28.0784083
  60.4256993  19.8292753  28.7104083  60.2756993  19.1802753  28.2974083
  54.7646993  14.6172753  17.3624083  54.4686993  15.1182753  16.7124083
  55.6316993  14.6952753  17.3054083  54.8486993  14.7032753  17.2584083
  64.9546993  12.0442753  27.3704083  64.7966993  12.8132753  26.9884083
  64.1826993  11.8242753  27.7144083  64.8166993  12.1252753  27.3654083
  57.7436993  13.7592753  19.5854083  57.8166993  14.6192753  19.7144083
  57.7056993  13.6842753  18.7174083  57.7486993  13.8752753  19.4764083
  62.4166993  16.6852753  11.8844083  61.9666993  17.3662753  12.1914083
  62.5306993  16.1812753  12.5874083  62.3676993  16.7112753  12.0334083
  50.6226993  19.1842753  21.0864083  50.3666993  20.0152753  21.0114083
  49.9586993  18.8012753  21.5034083  50.4866993  19.2502753  21.1374083
  50.5326993  28.8942753  18.9864083  49.9406993  29.4522753  18.6734083
  50.9586993  28.6252753  18.2744083  50.5086993  28.9362753  18.8354083
  56.3726993  26.7382753  16.4664083  55.7936993  26.4632753  17.0584083
  56.9966993  26.1292753  16.4914083  56.3796993  26.6082753  16.5574083
  62.5156993  29.0262753  13.9884083  63.2426993  29.4982753  14.0904083
  62.7446993  28.2322753  14.2684083  62.6576993  28.9792753  14.0454083
  60.6836993  29.4182753  15.9784083  60.8976993  29.9452753  16.6404083
  61.4506993  29.2442753  15.5994083  60.8286993  29.4702753  16.0204083
  53.6516993  14.0012753  21.5774083  53.1306993  13.3732753  21.2694083
  54.2426993  13.5642753  22.0484083  53.6626993  13.8432753  21.6014083
  56.9576993  16.1342753  30.8754083  57.0746993  15.6802753  30.1394083
  57.2456993  16.9322753  30.6724083  57.0176993  16.1852753  30.7364083
  52.0776993  27.5642753  16.9174083  52.7336993  26.9892753  16.9324083
  52.4666993  28.3132753  16.6964083  52.2326993  27.5892753  16.8874083
  67.8106993  16.6582753  18.1794083  67.4646993  17.3362753  18.6054083
  67.1746993  16.0602753  18.1954083  67.6656993  16.6702753  18.2444083
  63.1226993  29.4282753  24.2834083  63.8666993  29.8842753  24.2734083
  63.0016993  29.2142753  23.4464083  63.2146993  29.4642753  24.1584083
  52.6906993  15.7312753  29.8594083  51.9126993  15.3412753  29.7874083
  53.1816993  15.3192753  29.2684083  52.6476993  15.6122753  29.7614083
  52.8956993  26.0512753  20.4174083  53.3186993  25.6952753  19.7434083
  53.2196993  25.6292753  21.1094083  53.0056993  25.9362753  20.4204083
  56.1266993  28.9032753  19.7134083  56.9706993  29.0072753  19.5184083
  55.8296993  29.7212753  19.7814083  56.2076993  29.0392753  19.6944083
  59.3396993  13.3742753  29.0274083  59.5176993  12.5652753  28.7524083
  59.1966993  13.8152753  28.2884083  59.3446993  13.3202753  28.8774083
  59.9336993  18.3002753  17.8004083  60.2206993  18.0682753  17.0104083
  60.6656993  18.3792753  18.2694083  60.0836993  18.2772753  17.7534083
  60.6556993  18.6392753  12.9214083  60.9366993  19.4272753  13.1704083
  59.8796993  18.8042753  12.5584083  60.5826993  18.7802753  12.9044083
  64.6966993  30.6132753  14.3884083  65.3616993  30.4652753  13.8434083
  65.0566993  30.5302753  15.1784083  64.8486993  30.5792753  14.4244083
  55.1246993  30.1222753  25.4534083  55.4166993  30.0552753  26.2734083
  54.4986993  29.5172753  25.4084083  55.0756993  30.0232753  25.5684083
  67.4856993  14.9812753  23.5484083  68.2426993  15.0532753  23.1204083
  67.5486993  14.2082753  23.9474083  67.6066993  14.8782753  23.5434083
  50.0386993  16.2792753  27.4454083  50.0346993  16.8662753  28.0914083
  50.6326993  16.5912753  26.8884083  50.1256993  16.4122753  27.4584083
  62.3766993  26.6132753  27.9874083  62.3426993  26.9952753  28.7714083
  63.2306993  26.5712753  27.8164083  62.4976993  26.6632753  28.0784083
  59.5146993  26.8102753  12.7374083  59.3336993  27.3552753  13.3944083
  60.2806993  27.1002753  12.4364083  59.6006993  26.9342753  12.7904083
  63.0216993  14.7062753  13.7914083  63.5616993  14.0242753  13.8674083
  63.0836993  15.1042753  14.5654083  63.1106993  14.6642753  13.9174083
  50.9756993  15.8742753  16.3604083  50.8616993  15.0102753  16.3914083
  50.5006993  16.1682753  17.0304083  50.8886993  15.7902753  16.4634083
  53.1176993  28.2842753  24.5754083  52.4196993  27.7762753  24.7014083
  53.3776993  28.0792753  23.7674083  53.0526993  28.1792753  24.4744083
  60.2796993  17.0822753  15.1054083  59.7716993  16.4202753  14.8514083
  60.3316993  17.5862753  14.3954083  60.2126993  17.0592753  14.9634083
  60.8286993  29.7772753  25.4854083  61.5966993  29.6972753  25.0794083
  60.2456993  29.6562753  24.8474083  60.8556993  29.7472753  25.3314083
  60.2796993  14.0232753  14.9964083  59.8246993  13.6212753  14.3704083
  61.0526993  14.1782753  14.6214083  60.3266993  13.9872753  14.8484083
  67.1056993  30.3802753  18.3864083  66.6506993  31.0972753  18.5874083
  66.4916993  29.8092753  18.1444083  66.9476993  30.4022753  18.3804083
  58.8776993  16.3902753  19.5184083  58.9516993  16.9582753  18.8604083
  58.9986993  16.8822753  20.2284083  58.9056993  16.5472753  19.5264083
  64.1026993  26.2252753  17.9304083  64.8036993  25.7432753  18.1194083
  63.4426993  25.6562753  17.9754083  64.1086993  26.0702753  17.9644083
  54.4786993  27.1352753  27.1424083  55.3196993  27.1982753  26.9204083
  54.4416993  27.5322753  27.9184083  54.5976993  27.2032753  27.2244083
  53.4856993  12.2132753  17.8664083  54.0216993  12.9012753  17.8564083
  53.4886993  11.9392753  17.0384083  53.5646993  12.2742753  17.7424083
  56.4416993  22.6462753  21.8914083  56.6136993  22.4362753  22.7204083
  55.7866993  22.1122753  21.6754083  56.3706993  22.5362753  21.9824083
  62.6696993  16.5602753  25.4064083  62.5746993  16.8792753  26.2124083
  62.0766993  15.9212753  25.3684083  62.5676993  16.5122753  25.5204083
  57.1916993  22.5842753  24.4814083  57.2446993  23.4312753  24.6834083
  56.9066993  22.2142753  25.2184083  57.1576993  22.6542753  24.6194083
  63.3686993  23.2792753  23.6114083  62.8546993  22.8672753  24.1824083
  63.2426993  24.1232753  23.7924083  63.2746993  23.3432753  23.7224083
  63.9256993  12.5042753  18.2424083  63.9746993  12.1862753  19.0534083
  64.2486993  11.8602753  17.7494083  63.9806993  12.3622753  18.2894083
  66.3896993  16.7402753  26.5504083  67.1616993  16.5152753  26.8874083
  65.9146993  16.9572753  27.2504083  66.4336993  16.7392753  26.7034083
  53.9336993  16.0232753  19.5204083  54.2056993  15.5932753  18.8124083
  53.7576993  15.3872753  20.0914083  53.9476993  15.8662753  19.5004083
  66.6216993  23.7182753  13.7384083  66.7406993  23.4312753  14.5534083
  67.4286993  23.7392753  13.4084083  66.7576993  23.6792753  13.8104083
  53.7576993  23.4502753  19.0694083  54.6086993  23.3702753  18.8964083
  53.4006993  22.7682753  18.6574083  53.8306993  23.3372753  18.9824083
  52.0746993  17.1252753  22.6024083  52.9176993  17.3452753  22.5594083
  51.6856993  17.6982753  22.0714083  52.1416993  17.2422753  22.5174083
  68.8556993  28.2272753  27.9924083  68.1736993  28.5372753  27.5454083
  68.4866993  27.7692753  28.6374083  68.6996993  28.2052753  28.0214083
  64.5166993  20.2552753  13.3234083  64.2966993  20.9862753  12.9014083
  64.0686993  20.3062753  14.0704083  64.4176993  20.3702753  13.3714083
  56.1256993  23.4572753  17.3044083  56.8386993  23.9522753  17.3944083
  56.3476993  22.8902753  16.6784083  56.2636993  23.4462753  17.2254083
  68.7036993  15.1162753  12.7764083  68.0416993  14.5482753  12.7994083
  68.5106993  15.6282753  12.0964083  68.5776993  15.1082753  12.6794083
  50.2816993  25.1002753  20.6244083  49.6146993  25.5882753  20.9004083
  50.9616993  25.6452753  20.6534083  50.2836993  25.2522753  20.6694083
  57.9286993  18.8102753  30.7204083  57.4446993  19.3872753  31.1624083
  57.9006993  19.1052753  29.8994083  57.8526993  18.9392753  30.6644083
  69.0266993  19.4942753  25.3324083  69.2416993  18.6942753  25.0564083
  68.1766993  19.5542753  25.1434083  68.9326993  19.3852753  25.2634083
  50.3476993  21.7842753  15.7274083  50.1626993  20.9452753  15.8794083
  51.0066993  21.7482753  15.1574083  50.4176993  21.6552753  15.6654083
  66.7056993  14.6742753  15.0554083  67.4516993  14.2672753  15.2544083
  66.9686993  15.3892753  14.6304083  66.8546993  14.7202753  15.0224083
  60.6486993  27.1602753  19.6314083  60.1256993  27.7942753  19.3384083
  60.9586993  26.7962753  18.9024083  60.6166993  27.2002753  19.4804083
  50.5196993  25.9482753  15.3024083  51.0716993  26.5172753  15.6664083
  50.2876993  25.4332753  15.9674083  50.5666993  25.9562753  15.4544083
  54.7236993  24.9482753  22.3914083  55.1906993  25.2372753  23.0694083
  55.2956993  24.4702753  21.9374083  54.8776993  24.9202753  22.4244083
  63.1596993  16.9622753  20.1284083  63.5036993  17.1142753  20.9154083
  62.7066993  16.2242753  20.2414083  63.1436993  16.8752753  20.2614083
  50.3496993  24.3972753  12.9304083  51.1056993  23.9652753  12.9884083
  50.3646993  24.9292753  13.6214083  50.4636993  24.4122753  13.0414083
  51.2896993  22.6182753  20.9354083  51.7206993  22.4892753  20.1884083
  51.0846993  23.4662753  20.9094083  51.3226993  22.7242753  20.8214083
  57.6356993  16.1822753  14.5854083  57.6336993  16.0652753  13.7204083
  57.4546993  17.0302753  14.6774083  57.6086993  16.2902753  14.4714083
  66.6896993  28.6092753  26.0824083  66.0186993  29.1232753  26.3004083
  66.7526993  28.7092753  25.2184083  66.5996993  28.7002753  25.9874083
  55.3736993  26.1342753  19.2174083  55.4996993  26.9772753  19.4044083
  56.0416993  25.7352753  19.6134083  55.4916993  26.2002753  19.3034083
  53.5036993  19.6172753  29.0794083  52.9676993  19.1112753  29.5474083
  53.5236993  19.2272753  28.2994083  53.4266993  19.4842753  29.0334083
  53.9886993  19.0142753  14.2194083  53.8606993  18.5662753  14.9574083
  53.4066993  18.6722753  13.6674083  53.8836993  18.8972753  14.2474083
  54.1556993  20.8442753  20.8184083  53.3746993  20.7852753  20.4354083
  54.2276993  20.0922753  21.2554083  54.0506993  20.7252753  20.8264083
  54.5856993  20.5812753  24.2864083  54.6106993  19.9062753  23.7354083
  53.9396993  21.0772753  23.9744083  54.4946993  20.5542753  24.1594083
  64.4806993  18.2942753  22.6824083  63.8186993  18.6222753  23.1454083
  64.6676993  18.9282753  22.1134083  64.4106993  18.4362753  22.6664083
  58.6856993  29.3582753  23.6784083  58.4086993  28.7172753  23.1554083
  58.4776993  30.0842753  23.2404083  58.6146993  29.3712753  23.5364083
  61.1256993  14.2002753  26.1114083  61.2746993  13.3752753  25.8684083
  61.5046993  14.2552753  26.8954083  61.2036993  14.0862753  26.1914083
  62.6736993  16.2632753  16.1934083  63.1636993  16.9802753  16.1164083
  61.8836993  16.5242753  15.9304083  62.6296993  16.4072753  16.1434083
  52.3846993  21.9362753  29.8454083  52.3476993  22.4372753  29.1314083
  52.7156993  21.1842753  29.5504083  52.4276993  21.8982753  29.6964083
  63.9876993  24.1412753  28.1034083  64.4716993  24.8592753  28.2014083
  64.3816993  23.7142753  27.4524083  64.1176993  24.1842753  28.0214083
  58.2836993  26.9862753  29.2804083  58.6376993  26.8082753  30.0574083
  57.8476993  26.2572753  29.0814083  58.2716993  26.8522753  29.3664083
  59.2556993  17.7332753  21.9184083  59.7356993  18.4322753  22.1264083
  59.6286993  17.0862753  22.3694083  59.3816993  17.7412753  22.0154083
  61.4446993  20.9022753  14.1924083  61.4366993  21.6242753  13.7024083
  60.8056993  21.0372753  14.7694083  61.3496993  21.0292753  14.2054083
  66.4166993  24.7722753  18.1734083  66.7726993  24.4222753  18.8884083
  66.4086993  24.1112753  17.6034083  66.4686993  24.6222753  18.1944083
  62.4616993  27.8382753  22.0174083  61.8586993  27.5422753  21.4604083
  63.0066993  28.2902753  21.5084083  62.4526993  27.8612753  21.8594083
  62.4746993  24.6892753  21.4174083  61.6776993  24.9132753  21.6914083
  62.7326993  24.0952753  22.0024083  62.3946993  24.6342753  21.5444083
  56.3666993  29.5012753  15.8654083  56.2196993  28.7252753  16.2364083
  57.0556993  29.3542753  15.3504083  56.4466993  29.3642753  15.8444083
  56.0376993  13.2442753  13.8534083  56.1346993  13.1372753  14.7144083
  55.3296993  13.7502753  13.7884083  55.9476993  13.3032753  13.9714083
  58.6586993  29.0172753  14.2674083  59.2806993  29.1802753  14.8574083
  58.6946993  29.7082753  13.7354083  58.7556993  29.1432753  14.2764083
  65.7346993  22.6872753  26.2634083  65.7896993  22.8122753  25.4014083
  66.4876993  23.0072753  26.5654083  65.8536993  22.7522753  26.1804083
  61.9256993  28.0362753  30.5404083  62.0896993  28.3192753  31.3494083
  62.1886993  28.6972753  30.0354083  61.9886993  28.1762753  30.5854083
  66.7666993  12.9852753  29.2504083  66.1296993  12.5852753  28.8084083
  66.7926993  12.5542753  30.0084083  66.6766993  12.8632753  29.2964083
  53.1596993  21.5512753  15.0964083  53.4836993  20.7722753  14.8744083
  53.8056993  21.9192753  15.5514083  53.3026993  21.4902753  15.1304083
  61.4656993  22.4932753  25.8634083  61.3106993  23.1032753  26.4674083
  61.9996993  21.9352753  26.2694083  61.5216993  22.5012753  26.0124083
  50.1566993  13.2122753  16.0644083  50.2856993  12.5042753  15.5724083
  49.7896993  12.8942753  16.7894083  50.1216993  13.0602753  16.0994083
  59.8496993  20.8932753  16.5214083  59.9086993  21.5432753  17.1004083
  59.6606993  20.1972753  17.0124083  59.8306993  20.8862753  16.6794083
  65.0756993  25.2222753  22.3904083  64.5966993  25.5202753  21.7244083
  64.7196993  24.4462753  22.5684083  64.9526993  25.1512753  22.3184083
  54.3456993  15.4102753  13.0334083  53.8346993  15.4632753  12.3274083
  55.1296993  15.6502753  12.7374083  54.3856993  15.4532753  12.8854083
  59.0726993  22.9402753  20.9524083  58.2256993  22.7462753  21.0334083
  59.3966993  22.7752753  21.7454083  58.9946993  22.8872753  21.0814083
  55.8246993  29.6702753  11.8384083  56.2636993  28.9732753  12.1264083
  56.0316993  30.2942753  12.4114083  55.9206993  29.6592753  11.9654083
  52.9206993  22.6332753  23.2684083  53.6426993  23.1212753  23.2314083
  52.6506993  22.6032753  22.4394083  52.9876993  22.7012753  23.1404083
  56.1506993  17.8042753  20.0034083  56.9966993  17.6142753  20.1014083
  55.7806993  17.0272753  19.8654083  56.2206993  17.6612753  19.9974083
  68.7676993  29.3882753  14.3304083  69.4616993  28.9212753  14.0824083
  68.2286993  28.7902753  14.6674083  68.7906993  29.2302753  14.3434083
  50.9716993  19.1422753  16.6584083  51.4606993  18.8502753  17.3194083
  51.1006993  18.5492753  16.0314083  51.0626993  19.0112753  16.6634083
  66.0066993  22.1642753  23.5094083  65.9996993  21.3882753  23.9074083
  65.1656993  22.3982753  23.5024083  65.8816993  22.0842753  23.5674083
  55.4966993  20.5762753  12.1444083  54.8866993  20.1712753  12.6184083
  55.1106993  20.6942753  11.3714083  55.3496993  20.5332753  12.1004083
  52.3156993  23.6852753  27.5464083  51.8946993  23.1672753  26.9854083
  51.9636993  24.4712753  27.4034083  52.2016993  23.7252753  27.4424083
  67.2626993  22.2352753  20.9464083  66.9766993  22.6362753  21.6664083
  68.1226993  22.1732753  21.0734083  67.3476993  22.2852753  21.0714083
  56.9516993  19.0372753  14.8544083  57.2236993  19.8632753  14.9214083
  56.0886993  19.1122753  14.7584083  56.8646993  19.1702753  14.8494083
  64.9246993  16.1592753  29.4864083  64.3996993  16.6182753  30.0104083
  64.5636993  15.3642753  29.4804083  64.7936993  16.1092753  29.5624083
  50.4316993  15.0072753  21.3904083  50.4756993  15.3512753  20.5894083
  51.1866993  15.2442753  21.7574083  50.5496993  15.0932753  21.3264083
  68.3936993  27.8682753  21.4754083  68.6836993  28.1252753  20.6944083
  69.0886993  27.9642753  21.9944083  68.5396993  27.9202753  21.4364083
  63.4166993  19.7282753  29.5624083  63.4896993  19.8322753  30.4254083
  62.7826993  20.2862753  29.3414083  63.3336993  19.8262753  29.6574083
  65.6846993  20.0472753  27.9274083  66.0036993  20.8332753  28.1304083
  65.3146993  19.7772753  28.6704083  65.6776993  20.1232753  28.0674083
  64.9986993  26.4712753  13.4574083  65.3326993  25.6652753  13.4924083
  64.2436993  26.3992753  13.8874083  64.9366993  26.3412753  13.5264083
  65.4806993  18.3052753  19.1164083  64.7356993  17.9822753  19.4344083
  65.4826993  19.1312753  19.3964083  65.3706993  18.3792753  19.2044083
  68.3826993  20.5892753  30.6624083  68.3306993  20.2482753  29.8614083
  69.1196993  21.0562753  30.6404083  68.4836993  20.6082753  30.5404083
  67.9206993  24.2652753  26.8684083  68.5486993  23.7162753  26.6124083
  67.8596993  24.8302753  26.2064083  68.0046993  24.2682753  26.7324083
  62.3726993  24.3462753  12.8604083  63.0566993  23.8322753  12.6914083
  61.9556993  24.3922753  12.0954083  62.4116993  24.2772753  12.7224083
  57.0546993  25.4962753  24.1644083  56.7566993  26.0882753  24.7314083
  57.1096993  25.9382753  23.4154083  57.0186993  25.6492753  24.1374083
  55.0336993  24.4462753  27.5624083  54.2276993  24.1562753  27.7294083
  54.9446993  25.3142753  27.5684083  54.9016993  24.5312753  27.5874083
  64.3926993  14.6352753  26.5774083  65.1366993  15.0872753  26.5144083
  63.8266993  15.1052753  26.1084083  64.4196993  14.7722753  26.4994083
  59.5706993  21.9192753  23.6554083  60.0466993  22.2932753  24.2834083
  58.7476993  22.0532753  23.9144083  59.5196993  21.9942753  23.7864083
  58.8346993  29.3122753  18.8834083  59.3806993  29.9912753  18.9374083
  58.4846993  29.3942753  18.0884083  58.8636993  29.4252753  18.7734083
  65.6776993  12.6152753  24.2474083  65.3976993  13.4402753  24.2034083
  66.3936993  12.6682753  24.7434083  65.7426993  12.7452753  24.3144083
  58.0326993  13.3302753  26.2764083  58.7376993  13.6502753  25.8744083
  58.2736993  12.5232753  26.5034083  58.1716993  13.2582753  26.2504083
  57.0176993  27.5402753  22.2724083  56.3936993  28.1222753  22.0904083
  57.2656993  27.2542753  21.4864083  56.9616993  27.5842753  22.1294083
  61.3266993  24.1742753  29.2614083  62.0836993  24.4602753  28.9354083
  60.7796993  24.2262753  28.5834083  61.3576993  24.2242753  29.1124083
  65.2356993  26.7242753  27.7654083  65.5816993  26.9942753  28.5194083
  65.5296993  27.3062753  27.1854083  65.3306993  26.8502753  27.7914083
  67.0986993  18.8702753  13.1044083  67.4766993  19.5472753  12.7044083
  66.2566993  19.0942753  13.1354083  67.0296993  19.0032753  13.0494083
  58.6116993  22.3162753  12.1874083  57.8066993  22.1392753  11.9024083
  58.5786993  23.1672753  12.3794083  58.4876993  22.4152753  12.1744083
  54.5416993  18.3832753  22.3374083  54.9816993  18.2802753  21.5914083
  55.0866993  18.0702753  22.9424083  54.6866993  18.3222753  22.3164083
  62.5576993  17.4852753  27.9294083  61.9096993  17.9552753  28.2774083
  63.1226993  17.3962753  28.5884083  62.5456993  17.5412753  28.0784083
  62.2456993  19.0222753  24.2274083  62.5476993  19.4422753  24.9304083
  62.2816993  18.1822753  24.4594083  62.2956993  18.9602753  24.3654083
  59.6706993  29.1892753  28.1524083  60.1486993  28.5892753  27.7364083
  59.3196993  28.7462753  28.8174083  59.6896993  29.0352753  28.1894083
  64.7936993  18.4692753  16.4794083  65.0006993  18.2682753  17.3034083
  65.5496993  18.7372753  16.1374083  64.9356993  18.4792753  16.5504083
  58.0886993  13.3682753  22.3844083  57.2626993  13.2192753  22.6214083
  58.0486993  13.4032753  21.5134083  57.9606993  13.3512753  22.2904083
  65.8156993  14.5522753  17.9534083  65.1016993  14.0812753  18.1244083
  65.6536993  14.8932753  17.1674083  65.6866993  14.5332753  17.8624083
  66.2586993  22.4962753  16.3334083  66.7346993  21.7672753  16.2854083
  65.4376993  22.2102753  16.2574083  66.2076993  22.3462753  16.3144083
  59.7296993  24.4082753  27.1724083  58.9346993  24.3442753  27.5234083
  59.8006993  25.2552753  26.9774083  59.6226993  24.5232753  27.1954083
  50.6536993  13.7662753  28.4194083  50.5136993  14.5612753  28.0884083
  49.8676993  13.5232753  28.7084083  50.5166993  13.8482753  28.4134083
  55.5596993  30.6152753  22.4894083  55.5706993  30.6742753  23.3594083
  55.1346993  29.8682753  22.3394083  55.4986993  30.5132753  22.5954083
  53.7176993  16.5102753  15.6444083  53.8436993  16.1812753  14.8464083
  52.9056993  16.2612753  15.8434083  53.6166993  16.4252753  15.5564083
  62.4746993  23.6632753  18.6884083  62.5506993  24.0042753  19.4874083
  62.6436993  22.8162753  18.8094083  62.5106993  23.5882753  18.8244083
  59.9966993  22.9372753  18.2534083  59.6986993  22.6222753  19.0104083
  60.6916993  23.4102753  18.4884083  60.0556993  22.9602753  18.4004083
  60.2186993  27.0552753  26.2804083  60.9056993  26.9412753  26.8054083
  60.3526993  27.8462753  25.9364083  60.3396993  27.1552753  26.3074083
  68.3946993  19.6642753  28.0914083  67.5396993  19.5422753  28.2174083
  68.5476993  19.2692753  27.3284083  68.2906993  19.5872753  27.9974083
  62.9076993  20.3292753  26.6674083  62.6526993  19.6102753  27.0894083
  63.7286993  20.4452753  26.9374083  62.9916993  20.2402753  26.7694083
  60.8416993  21.5192753  29.8544083  61.1646993  22.2052753  29.4224083
  60.1376993  21.8422753  30.2564083  60.7846993  21.6682753  29.8494083
  63.9256993  29.8932753  20.7834083  63.4746993  30.5362753  21.1624083
  64.6336993  29.8142753  21.2884083  63.9636993  29.9762753  20.9144083
  60.6266993  24.9832753  23.7134083  59.9326993  25.3852753  24.0564083
  61.3036993  25.4162753  24.0524083  60.6236993  25.1062753  23.8144083
  66.0036993  27.5762753  30.2934083  66.7796993  27.1862753  30.3764083
  65.5346993  27.2402753  30.9484083  66.0486993  27.4692753  30.4024083
  53.6946993  18.5212753  26.0604083  54.0696993  19.1402753  25.5734083
  54.3686993  18.0472753  26.3454083  53.8496993  18.5432753  26.0304083
  51.4696993  16.9692753  25.3354083  51.5466993  16.8002753  24.4824083
  52.2156993  17.3752753  25.5324083  51.5906993  17.0042753  25.2384083
  67.0286993  19.6092753  15.7754083  67.1316993  19.5512753  14.9114083
  67.7696993  19.2772753  16.0934083  67.1536993  19.5522753  15.6944083
  54.0236993  14.3792753  27.7464083  53.9426993  13.5352753  27.9524083
  53.7096993  14.4232753  26.9334083  53.9656993  14.2612753  27.6564083
  60.9486993  26.5742753  16.8824083  60.7436993  27.4072753  16.7234083
  60.1736993  26.1922753  17.0044083  60.8036993  26.6412753  16.8774083
  66.1306993  19.7552753  25.1314083  66.1286993  18.8922753  25.2554083
  66.1976993  20.0792753  25.9384083  66.1406993  19.6752753  25.2684083
  50.8666993  22.1952753  25.5594083  51.1866993  22.4142753  24.7784083
  50.7666993  21.3302753  25.5044083  50.8986993  22.1002753  25.4364083
  52.3226993  18.1312753  12.1774083  51.6506993  18.1452753  12.7334083
  52.4176993  17.2832753  11.9934083  52.2376993  18.0082753  12.2324083
  62.0096993  14.5552753  28.9134083  62.1016993  15.2672753  29.4074083
  61.3726993  14.1102753  29.3104083  61.9286993  14.5942753  29.0454083
  61.0036993  14.7452753  19.7674083  60.3036993  15.2632753  19.7114083
  61.0416993  14.3652753  18.9834083  60.9056993  14.7662753  19.6434083
  56.3106993  26.8362753  13.2914083  56.7516993  26.9162753  14.0394083
  55.5056993  26.6202753  13.5494083  56.2566993  26.8162753  13.4404083
  64.6016993  15.2612753  22.5674083  65.4566993  15.3602753  22.7124083
  64.2326993  15.8142753  23.1324083  64.6736993  15.3582753  22.6724083
  55.6296993  21.4872753  26.9444083  55.2336993  22.2612753  27.0194083
  55.2236993  21.1142753  26.2684083  55.5116993  21.5462753  26.8554083
  64.9056993  20.5412753  21.0584083  65.5716993  21.0822753  21.2184083
  64.5606993  20.8522753  20.3194083  64.9526993  20.6672753  20.9734083
  65.2186993  28.6072753  16.8654083  65.0446993  27.9532753  17.4154083
  65.9316993  28.3362753  16.4424083  65.2986993  28.4702753  16.8844083
  53.6396993  25.9062753  13.8924083  53.3956993  25.5992753  14.6724083
  53.6066993  25.2032753  13.3764083  53.5986993  25.7572753  13.9314083
  56.4586993  24.1512753  12.6354083  55.6406993  23.8832753  12.7754083
  56.4306993  25.0032753  12.8204083  56.3336993  24.2382753  12.6834083
  56.0586993  14.4642753  24.3944083  55.1946993  14.5482753  24.4744083
  56.2786993  13.9502753  25.0634083  55.9636993  14.4012753  24.5054083
  68.0766993  13.0992753  25.7234083  68.0246993  13.0552753  26.5934083
  68.7636993  12.5962753  25.5334083  68.1706993  13.0192753  25.8234083
  60.1616993  15.2122753  22.7684083  59.4246993  14.7582753  22.8814083
  60.7326993  14.8102753  23.2914083  60.1366993  15.0852753  22.8624083
  62.8936993  26.0602753  24.5564083  63.0996993  26.3612753  25.3484083
  62.8326993  26.7822753  24.0714083  62.9146993  26.2112753  24.6014083
  62.4276993  30.2742753  28.8024083  61.6746993  30.2562753  28.3614083
  62.5956993  31.1262753  28.8864083  62.3416993  30.3972753  28.7494083
  57.6646993  19.5412753  27.9724083  57.3426993  18.9652753  27.4024083
  57.3056993  20.2962753  27.7264083  57.5646993  19.5672753  27.8524083
  58.4606993  12.7932753  12.5994083  58.5386993  13.0402753  11.7664083
  57.7176993  13.1702753  12.8574083  58.3626993  12.8852753  12.5144083
  67.7056993  24.6992753  24.0144083  67.6736993  23.8372753  23.8794083
  67.0126993  25.0012753  23.5804083  67.5986993  24.6162753  23.9304083
  56.0996993  29.8972753  28.2204083  56.1406993  30.0232753  29.0834083
  56.7506993  29.3372753  28.0644083  56.2016993  29.8332753  28.3254083
  65.8106993  27.9592753  22.8114083  66.3376993  27.8762753  22.1204083
  65.4196993  27.1812753  22.8654083  65.8306993  27.8322753  22.7174083
  53.2786993  14.5472753  25.0424083  52.9356993  13.7802753  24.8084083
  52.5836993  15.0712753  25.1064083  53.1256993  14.5112753  25.0174083
  62.3246993  13.4032753  22.0194083  62.9946993  13.9472753  22.1464083
  61.8216993  13.8272753  21.4464083  62.3496993  13.5462753  21.9534083
  53.6926993  28.2802753  29.5804083  54.2876993  28.7112753  30.0524083
  53.3286993  28.9042753  29.0914083  53.7266993  28.4362753  29.5774083
  61.6836993  19.2112753  19.5124083  62.2346993  18.6042753  19.8124083
  61.2586993  19.4742753  20.2274083  61.7026993  19.1602753  19.6614083
  51.9316993  17.8612753  18.9984083  51.5636993  18.1632753  19.7294083
  52.4656993  17.2322753  19.2824083  51.9556993  17.8132753  19.1484083
  51.6196993  26.2692753  26.5094083  51.0456993  26.6852753  27.0184083
  52.3526993  26.7342753  26.6044083  51.6436993  26.3992753  26.5984083
  63.6536993  21.0422753  16.0744083  63.7216993  20.1922753  16.2554083
  62.8306993  21.1282753  15.7964083  63.5416993  20.9292753  16.0604083
  53.4056993  29.5362753  15.2844083  53.2606993  29.6922753  14.4384083
  54.2716993  29.6152753  15.3624083  53.5126993  29.5712753  15.1714083
  57.5726993  21.9332753  15.0124083  57.6726993  22.0722753  14.1574083
  58.3906993  21.8732753  15.3084083  57.7076993  21.9442753  14.9294083
  66.7326993  29.9972753  12.4924083  67.3696993  29.8632753  13.0734083
  66.3916993  29.2032753  12.3754083  66.7766993  29.8602753  12.5604083
  66.9276993  22.4152753  29.2254083  67.5616993  22.2452753  29.7994083
  67.3446993  22.8182753  28.5734083  67.0826993  22.4502753  29.2144083
  62.8076993  26.2622753  14.8144083  62.5566993  26.1342753  15.6404083
  62.4906993  25.5672753  14.3934083  62.7236993  26.1412753  14.8744083
  67.5526993  16.9792753  29.9634083  67.3566993  17.6232753  30.5184083
  66.8306993  16.4892753  29.9554083  67.4176993  17.0022753  30.0444083
  67.4516993  17.9202753  22.9344083  66.6186993  18.1702753  22.8624083
  67.3956993  17.0802753  23.1634083  67.3206993  17.8332753  22.9574083
  56.7116993  14.9082753  28.1284083  56.9456993  14.3322753  27.5154083
  55.8696993  14.7272753  28.2694083  56.6216993  14.7962753  28.0584083
  64.3386993  22.5262753  30.5804083  65.2096993  22.4902753  30.5444083
  64.1196993  22.9462753  29.8484083  64.4356993  22.5822753  30.4674083
  54.0926993  28.3512753  21.7614083  54.0136993  27.5412753  21.4454083
  53.6486993  28.8382753  21.1894083  54.0156993  28.3032753  21.6304083
  59.6936993  24.4702753  14.2444083  60.4106993  24.1232753  13.8884083
  59.6596993  25.2702753  13.8964083  59.7946993  24.5372753  14.1404083
  60.9116993  20.0272753   3.1541673  60.3876993  20.6232753   3.5171673
  61.3086993  19.6592753   3.8381673  60.8926993  20.0612753   3.3091673
  50.7206993  26.9022753   4.8651673  50.8496993  26.6222753   5.6811673
  50.1106993  26.3612753   4.5561673  50.6496993  26.7812753   4.9401673
  57.2946993  24.4272753   9.9321673  57.0586993  24.4242753  10.7721673
  56.5466993  24.2792753   9.5081673  57.1486993  24.4042753   9.9931673
  56.6746993  17.0332753   4.4141673  57.3526993  17.0512753   3.8651673
  56.6296993  16.1972753   4.6591673  56.7676993  16.9122753   4.3691673
  57.2766993  27.6192753   7.1951673  57.4146993  28.3792753   6.7881673
  58.0676993  27.2542753   7.2221673  57.4136993  27.6782753   7.1391673
  60.3966993  19.0842753   9.2501673  59.5486993  18.9852753   9.0721673
  60.4256993  19.8292753   9.7041673  60.2756993  19.1802753   9.2911673
  64.9546993  12.0442753   8.3641673  64.7966993  12.8132753   7.9821673
  64.1826993  11.8242753   8.7081673  64.8166993  12.1252753   8.3591673
  50.6226993  19.1842753   2.0801673  50.3666993  20.0152753   2.0051673
  49.9586993  18.8012753   2.4971673  50.4866993  19.2502753   2.1311673
  53.6516993  14.0012753   2.5711673  53.1306993  13.3732753   2.2631673
  54.2426993  13.5642753   3.0421673  53.6626993  13.8432753   2.5951673
  56.9576993  16.1342753  11.8691673  57.0746993  15.6802753  11.1331673
  57.2456993  16.9322753  11.6661673  57.0176993  16.1852753  11.7301673
  63.1226993  29.4282753   5.2771673  63.8666993  29.8842753   5.2671673
  63.0016993  29.2142753   4.4401673  63.2146993  29.4642753   5.1521673
  52.6906993  15.7312753  10.8531673  51.9126993  15.3412753  10.7811673
  53.1816993  15.3192753  10.2621673  52.6476993  15.6122753  10.7551673
  59.3396993  13.3742753  10.0211673  59.5176993  12.5652753   9.7461673
  59.1966993  13.8152753   9.2821673  59.3446993  13.3202753   9.8711673
  55.1246993  30.1222753   6.4471673  55.4166993  30.0552753   7.2671673
  54.4986993  29.5172753   6.4021673  55.0756993  30.0232753   6.5621673
  67.4856993  14.9812753   4.5421673  68.2426993  15.0532753   4.1141673
  67.5486993  14.2082753   4.9411673  67.6066993  14.8782753   4.5371673
  50.0386993  16.2792753   8.4391673  50.0346993  16.8662753   9.0851673
  50.6326993  16.5912753   7.8821673  50.1256993  16.4122753   8.4521673
  62.3766993  26.6132753   8.9811673  62.3426993  26.9952753   9.7651673
  63.2306993  26.5712753   8.8101673  62.4976993  26.6632753   9.0721673
  53.1176993  28.2842753   5.5691673  52.4196993  27.7762753   5.6951673
  53.3776993  28.0792753   4.7611673  53.0526993  28.1792753   5.4681673
  60.8286993  29.7772753   6.4791673  61.5966993  29.6972753   6.0731673
  60.2456993  29.6562753   5.8411673  60.8556993  29.7472753   6.3251673
  54.4786993  27.1352753   8.1361673  55.3196993  27.1982753   7.9141673
  54.4416993  27.5322753   8.9121673  54.5976993  27.2032753   8.2181673
  56.4416993  22.6462753   2.8851673  56.6136993  22.4362753   3.7141673
  55.7866993  22.1122753   2.6691673  56.3706993  22.5362753   2.9761673
  62.6696993  16.5602753   6.4001673  62.5746993  16.8792753   7.2061673
  62.0766993  15.9212753   6.3621673  62.5676993  16.5122753   6.5141673
  57.1916993  22.5842753   5.4751673  57.2446993  23.4312753   5.6771673
  56.9066993  22.2142753   6.2121673  57.1576993  22.6542753   5.6131673
  63.3686993  23.2792753   4.6051673  62.8546993  22.8672753   5.1761673
  63.2426993  24.1232753   4.7861673  63.2746993  23.3432753   4.7161673
  50.0126993  26.9552753  11.6861673  50.7686993  27.3042753  11.9441673
  50.1896993  26.1022753  11.6291673  50.1506993  26.8802753  11.7161673
  66.3896993  16.7402753   7.5441673  67.1616993  16.5152753   7.8811673
  65.9146993  16.9572753   8.2441673  66.4336993  16.7392753   7.6971673
  52.0746993  17.1252753   3.5961673  52.9176993  17.3452753   3.5531673
  51.6856993  17.6982753   3.0651673  52.1416993  17.2422753   3.5111673
  68.8556993  28.2272753   8.9861673  68.1736993  28.5372753   8.5391673
  68.4866993  27.7692753   9.6311673  68.6996993  28.2052753   9.0151673
  57.9286993  18.8102753  11.7141673  57.4446993  19.3872753  12.1561673
  57.9006993  19.1052753  10.8931673  57.8526993  18.9392753  11.6581673
  69.0266993  19.4942753   6.3261673  69.2416993  18.6942753   6.0501673
  68.1766993  19.5542753   6.1371673  68.9326993  19.3852753   6.2571673
  54.7236993  24.9482753   3.3851673  55.1906993  25.2372753   4.0631673
  55.2956993  24.4702753   2.9311673  54.8776993  24.9202753   3.4181673
  66.6896993  28.6092753   7.0761673  66.0186993  29.1232753   7.2941673
  66.7526993  28.7092753   6.2121673  66.5996993  28.7002753   6.9811673
  53.5036993  19.6172753  10.0731673  52.9676993  19.1112753  10.5411673
  53.5236993  19.2272753   9.2931673  53.4266993  19.4842753  10.0271673
  54.5856993  20.5812753   5.2801673  54.6106993  19.9062753   4.7291673
  53.9396993  21.0772753   4.9681673  54.4946993  20.5542753   5.1531673
  64.4806993  18.2942753   3.6761673  63.8186993  18.6222753   4.1391673
  64.6676993  18.9282753   3.1071673  64.4106993  18.4362753   3.6601673
  58.6856993  29.3582753   4.6721673  58.4086993  28.7172753   4.1491673
  58.4776993  30.0842753   4.2341673  58.6146993  29.3712753   4.5301673
  61.1256993  14.2002753   7.1051673  61.2746993  13.3752753   6.8621673
  61.5046993  14.2552753   7.8891673  61.2036993  14.0862753   7.1851673
  52.3846993  21.9362753  10.8391673  52.3476993  22.4372753  10.1251673
  52.7156993  21.1842753  10.5441673  52.4276993  21.8982753  10.6901673
  63.9876993  24.1412753   9.0971673  64.4716993  24.8592753   9.1951673
  64.3816993  23.7142753   8.4461673  64.1176993  24.1842753   9.0151673
  58.2836993  26.9862753  10.2741673  58.6376993  26.8082753  11.0511673
  57.8476993  26.2572753  10.0751673  58.2716993  26.8522753  10.3601673
  59.2556993  17.7332753   2.9121673  59.7356993  18.4322753   3.1201673
  59.6286993  17.0862753   3.3631673  59.3816993  17.7412753   3.0091673
  62.4616993  27.8382753   3.0111673  61.8586993  27.5422753   2.4541673
  63.0066993  28.2902753   2.5021673  62.4526993  27.8612753   2.8531673
  62.4746993  24.6892753   2.4111673  61.6776993  24.9132753   2.6851673
  62.7326993  24.0952753   2.9961673  62.3946993  24.6342753   2.5381673
  65.7346993  22.6872753   7.2571673  65.7896993  22.8122753   6.3951673
  66.4876993  23.0072753   7.5591673  65.8536993  22.7522753   7.1741673
  61.9256993  28.0362753  11.5341673  62.0896993  28.3192753  12.3431673
  62.1886993  28.6972753  11.0291673  61.9886993  28.1762753  11.5791673
  66.7666993  12.9852753  10.2441673  66.1296993  12.5852753   9.8021673
  66.7926993  12.5542753  11.0021673  66.6766993  12.8632753  10.2901673
  61.4656993  22.4932753   6.8571673  61.3106993  23.1032753   7.4611673
  61.9996993  21.9352753   7.2631673  61.5216993  22.5012753   7.0061673
  65.0756993  25.2222753   3.3841673  64.5966993  25.5202753   2.7181673
  64.7196993  24.4462753   3.5621673  64.9526993  25.1512753   3.3121673
  59.0726993  22.9402753   1.9461673  58.2256993  22.7462753   2.0271673
  59.3966993  22.7752753   2.7391673  58.9946993  22.8872753   2.0751673
  52.9206993  22.6332753   4.2621673  53.6426993  23.1212753   4.2251673
  52.6506993  22.6032753   3.4331673  52.9876993  22.7012753   4.1341673
  66.0066993  22.1642753   4.5031673  65.9996993  21.3882753   4.9011673
  65.1656993  22.3982753   4.4961673  65.8816993  22.0842753   4.5611673
  52.3156993  23.6852753   8.5401673  51.8946993  23.1672753   7.9791673
  51.9636993  24.4712753   8.3971673  52.2016993  23.7252753   8.4361673
  67.2626993  22.2352753   1.9401673  66.9766993  22.6362753   2.6601673
  68.1226993  22.1732753   2.0671673  67.3476993  22.2852753   2.0651673
  64.9246993  16.1592753  10.4801673  64.3996993  16.6182753  11.0041673
  64.5636993  15.3642753  10.4741673  64.7936993  16.1092753  10.5561673
  68.3936993  27.8682753   2.4691673  68.6836993  28.1252753   1.6881673
  69.0886993  27.9642753   2.9881673  68.5396993  27.9202753   2.4301673
  63.4166993  19.7282753  10.5561673  63.4896993  19.8322753  11.4191673
  62.7826993  20.2862753  10.3351673  63.3336993  19.8262753  10.6511673
  65.6846993  20.0472753   8.9211673  66.0036993  20.8332753   9.1241673
  65.3146993  19.7772753   9.6641673  65.6776993  20.1232753   9.0611673
  68.3826993  20.5892753  11.6561673  68.3306993  20.2482753  10.8551673
  69.1196993  21.0562753  11.6341673  68.4836993  20.6082753  11.5341673
  67.9206993  24.2652753   7.8621673  68.5486993  23.7162753   7.6061673
  67.8596993  24.8302753   7.2001673  68.0046993  24.2682753   7.7261673
  57.0546993  25.4962753   5.1581673  56.7566993  26.0882753   5.7251673
  57.1096993  25.9382753   4.4091673  57.0186993  25.6492753   5.1311673
  55.0336993  24.4462753   8.5561673  54.2276993  24.1562753   8.7231673
  54.9446993  25.3142753   8.5621673  54.9016993  24.5312753   8.5811673
  64.3926993  14.6352753   7.5711673  65.1366993  15.0872753   7.5081673
  63.8266993  15.1052753   7.1021673  64.4196993  14.7722753   7.4931673
  59.5706993  21.9192753   4.6491673  60.0466993  22.2932753   5.2771673
  58.7476993  22.0532753   4.9081673  59.5196993  21.9942753   4.7801673
  56.2806993  17.5222753   7.3901673  56.4416993  16.7782753   7.8171673
  56.2356993  17.2732753   6.5551673  56.2976993  17.3752753   7.3301673
  65.6776993  12.6152753   5.2411673  65.3976993  13.4402753   5.1971673
  66.3936993  12.6682753   5.7371673  65.7426993  12.7452753   5.3081673
  58.0326993  13.3302753   7.2701673  58.7376993  13.6502753   6.8681673
  58.2736993  12.5232753   7.4971673  58.1716993  13.2582753   7.2441673
  57.0176993  27.5402753   3.2661673  56.3936993  28.1222753   3.0841673
  57.2656993  27.2542753   2.4801673  56.9616993  27.5842753   3.1231673
  61.3266993  24.1742753  10.2551673  62.0836993  24.4602753   9.9291673
  60.7796993  24.2262753   9.5771673  61.3576993  24.2242753  10.1061673
  65.2356993  26.7242753   8.7591673  65.5816993  26.9942753   9.5131673
  65.5296993  27.3062753   8.1791673  65.3306993  26.8502753   8.7851673
  54.5416993  18.3832753   3.3311673  54.9816993  18.2802753   2.5851673
  55.0866993  18.0702753   3.9361673  54.6866993  18.3222753   3.3101673
  62.5576993  17.4852753   8.9231673  61.9096993  17.9552753   9.2711673
  63.1226993  17.3962753   9.5821673  62.5456993  17.5412753   9.0721673
  62.2456993  19.0222753   5.2211673  62.5476993  19.4422753   5.9241673
  62.2816993  18.1822753   5.4531673  62.2956993  18.9602753   5.3591673
  59.6706993  29.1892753   9.1461673  60.1486993  28.5892753   8.7301673
  59.3196993  28.7462753   9.8111673  59.6896993  29.0352753   9.1831673
  58.0886993  13.3682753   3.3781673  57.2626993  13.2192753   3.6151673
  58.0486993  13.4032753   2.5071673  57.9606993  13.3512753   3.2841673
  59.7296993  24.4082753   8.1661673  58.9346993  24.3442753   8.5171673
  59.8006993  25.2552753   7.9711673  59.6226993  24.5232753   8.1891673
  50.6536993  13.7662753   9.4131673  50.5136993  14.5612753   9.0821673
  49.8676993  13.5232753   9.7021673  50.5166993  13.8482753   9.4071673
  55.5596993  30.6152753   3.4831673  55.5706993  30.6742753   4.3531673
  55.1346993  29.8682753   3.3331673  55.4986993  30.5132753   3.5891673
  60.2186993  27.0552753   7.2741673  60.9056993  26.9412753   7.7991673
  60.3526993  27.8462753   6.9301673  60.3396993  27.1552753   7.3011673
  68.3946993  19.6642753   9.0851673  67.5396993  19.5422753   9.2111673
  68.5476993  19.2692753   8.3221673  68.2906993  19.5872753   8.9911673
  62.9076993  20.3292753   7.6611673  62.6526993  19.6102753   8.0831673
  63.7286993  20.4452753   7.9311673  62.9916993  20.2402753   7.7631673
  52.3236993  30.1132753   8.9251673  51.6696993  29.5442753   9.0231673
  51.9486993  30.8862753   9.0761673  52.1716993  30.1432753   8.9621673
  60.8416993  21.5192753  10.8481673  61.1646993  22.2052753  10.4161673
  60.1376993  21.8422753  11.2501673  60.7846993  21.6682753  10.8431673
  63.9256993  29.8932753   1.7771673  63.4746993  30.5362753   2.1561673
  64.6336993  29.8142753   2.2821673  63.9636993  29.9762753   1.9081673
  60.6266993  24.9832753   4.7071673  59.9326993  25.3852753   5.0501673
  61.3036993  25.4162753   5.0461673  60.6236993  25.1062753   4.8081673
  66.0036993  27.5762753  11.2871673  66.7796993  27.1862753  11.3701673
  65.5346993  27.2402753  11.9421673  66.0486993  27.4692753  11.3961673
  53.6946993  18.5212753   7.0541673  54.0696993  19.1402753   6.5671673
  54.3686993  18.0472753   7.3391673  53.8496993  18.5432753   7.0241673
  51.4696993  16.9692753   6.3291673  51.5466993  16.8002753   5.4761673
  52.2156993  17.3752753   6.5261673  51.5906993  17.0042753   6.2321673
  54.0236993  14.3792753   8.7401673  53.9426993  13.5352753   8.9461673
  53.7096993  14.4232753   7.9271673  53.9656993  14.2612753   8.6501673
  66.1306993  19.7552753   6.1251673  66.1286993  18.8922753   6.2491673
  66.1976993  20.0792753   6.9321673  66.1406993  19.6752753   6.2621673
  50.8666993  22.1952753   6.5531673  51.1866993  22.4142753   5.7721673
  50.7666993  21.3302753   6.4981673  50.8986993  22.1002753   6.4301673
  62.0096993  14.5552753   9.9071673  62.1016993  15.2672753  10.4011673
  61.3726993  14.1102753  10.3041673  61.9286993  14.5942753  10.0391673
  64.6016993  15.2612753   3.5611673  65.4566993  15.3602753   3.7061673
  64.2326993  15.8142753   4.1261673  64.6736993  15.3582753   3.6661673
  55.6296993  21.4872753   7.9381673  55.2336993  22.2612753   8.0131673
  55.2236993  21.1142753   7.2621673  55.5116993  21.5462753   7.8491673
  56.0586993  14.4642753   5.3881673  55.1946993  14.5482753   5.4681673
  56.2786993  13.9502753   6.0571673  55.9636993  14.4012753   5.4991673
  68.0766993  13.0992753   6.7171673  68.0246993  13.0552753   7.5871673
  68.7636993  12.5962753   6.5271673  68.1706993  13.0192753   6.8171673
  60.1616993  15.2122753   3.7621673  59.4246993  14.7582753   3.8751673
  60.7326993  14.8102753   4.2851673  60.1366993  15.0852753   3.8561673
  62.8936993  26.0602753   5.5501673  63.0996993  26.3612753   6.3421673
  62.8326993  26.7822753   5.0651673  62.9146993  26.2112753   5.5951673
  62.4276993  30.2742753   9.7961673  61.6746993  30.2562753   9.3551673
  62.5956993  31.1262753   9.8801673  62.3416993  30.3972753   9.7431673
  57.6646993  19.5412753   8.9661673  57.3426993  18.9652753   8.3961673
  57.3056993  20.2962753   8.7201673  57.5646993  19.5672753   8.8461673
  67.7056993  24.6992753   5.0081673  67.6736993  23.8372753   4.8731673
  67.0126993  25.0012753   4.5741673  67.5986993  24.6162753   4.9241673
  56.0996993  29.8972753   9.2141673  56.1406993  30.0232753  10.0771673
  56.7506993  29.3372753   9.0581673  56.2016993  29.8332753   9.3191673
  65.8106993  27.9592753   3.8051673  66.3376993  27.8762753   3.1141673
  65.4196993  27.1812753   3.8591673  65.8306993  27.8322753   3.7111673
  53.2786993  14.5472753   6.0361673  52.9356993  13.7802753   5.8021673
  52.5836993  15.0712753   6.1001673  53.1256993  14.5112753   6.0111673
  62.3246993  13.4032753   3.0131673  62.9946993  13.9472753   3.1401673
  61.8216993  13.8272753   2.4401673  62.3496993  13.5462753   2.9471673
  53.6926993  28.2802753  10.5741673  54.2876993  28.7112753  11.0461673
  53.3286993  28.9042753  10.0851673  53.7266993  28.4362753  10.5711673
  51.6196993  26.2692753   7.5031673  51.0456993  26.6852753   8.0121673
  52.3526993  26.7342753   7.5981673  51.6436993  26.3992753   7.5921673
  66.9276993  22.4152753  10.2191673  67.5616993  22.2452753  10.7931673
  67.3446993  22.8182753   9.5671673  67.0826993  22.4502753  10.2081673
  67.5526993  16.9792753  10.9571673  67.3566993  17.6232753  11.5121673
  66.8306993  16.4892753  10.9491673  67.4176993  17.0022753  11.0381673
  67.4516993  17.9202753   3.9281673  66.6186993  18.1702753   3.8561673
  67.3956993  17.0802753   4.1571673  67.3206993  17.8332753   3.9511673
  56.7116993  14.9082753   9.1221673  56.9456993  14.3322753   8.5091673
  55.8696993  14.7272753   9.2631673  56.6216993  14.7962753   9.0521673
  64.3386993  22.5262753  11.5741673  65.2096993  22.4902753  11.5381673
  64.1196993  22.9462753  10.8421673  64.4356993  22.5822753  11.4611673
  54.0926993  28.3512753   2.7551673  54.0136993  27.5412753   2.4391673
  53.6486993  28.8382753   2.1831673  54.0156993  28.3032753   2.6241673
  51.6646993  30.5952753   6.3361673  52.1576993  30.5392753   7.0541673
  51.8526993  29.8622753   5.9011673  51.7656993  30.4782753   6.3781673
  50.7806993   5.6891673  74.6351313  50.3396993   5.8071673  75.3781313
  50.4976993   4.9141673  74.3501313  50.6736993   5.5921673  74.7031313
  67.0556993   8.9901673  72.1501313  67.7566993   8.4711673  72.1461313
  66.4686993   8.5451673  71.6811313  67.0726993   8.8471673  72.0801313
  53.6626993   4.7441673  69.8141313  53.2706993   4.3731673  69.1281313
  53.5826993   4.1461673  70.4431313  53.5926993   4.6011673  69.8051313
  63.5826993   2.6161673  75.8551313  63.6626993   2.6201673  74.9861313
  62.9986993   1.9841673  76.0041313  63.5076993   2.5231673  75.7491313
  53.2896993   6.3851673  73.7141313  53.8976993   6.2151673  74.3171313
  52.5386993   6.2451673  74.1351313  53.2686993   6.3391673  73.8651313
  52.1806993   9.4761673  69.7911313  52.6476993   9.5601673  69.0591313
  52.6356993   8.8981673  70.2601313  52.3166993   9.4031673  69.7521313
  52.1666993   2.9451673  75.0921313  51.7046993   2.5531673  74.4651313
  52.8666993   2.4321673  75.1841313  52.2016993   2.8121673  75.0131313
  58.3716993   7.0261673  77.7251313  58.7196993   6.2271673  77.7551313
  59.0366993   7.5301673  77.4701313  58.5216993   6.9821673  77.6921313
  58.4286993   6.4751673  73.9361313  58.7596993   5.8311673  74.4221313
  58.6686993   6.2641673  73.1251313  58.5126993   6.3491673  73.8881313
  50.5326993  10.4161673  76.0051313  49.9406993  10.9741673  75.6921313
  50.9586993  10.1471673  75.2931313  50.5086993  10.4581673  75.8541313
  56.3726993   8.2601673  73.4851313  55.7936993   7.9851673  74.0771313
  56.9966993   7.6511673  73.5101313  56.3796993   8.1301673  73.5761313
  62.5156993  10.5481673  71.0071313  63.2426993  11.0201673  71.1091313
  62.7446993   9.7541673  71.2871313  62.6576993  10.5011673  71.0641313
  60.6836993  10.9401673  72.9971313  60.8976993  11.4671673  73.6591313
  61.4506993  10.7661673  72.6181313  60.8286993  10.9921673  73.0391313
  52.0776993   9.0861673  73.9361313  52.7336993   8.5111673  73.9511313
  52.4666993   9.8351673  73.7151313  52.2326993   9.1111673  73.9061313
  52.8956993   7.5731673  77.4361313  53.3186993   7.2171673  76.7621313
  53.2196993   7.1511673  78.1281313  53.0056993   7.4581673  77.4391313
  56.1266993  10.4251673  76.7321313  56.9706993  10.5291673  76.5371313
  55.8296993  11.2431673  76.8001313  56.2076993  10.5611673  76.7131313
  64.6966993  12.1351673  71.4071313  65.3616993  11.9871673  70.8621313
  65.0566993  12.0521673  72.1971313  64.8486993  12.1011673  71.4431313
  59.5146993   8.3321673  69.7561313  59.3336993   8.8771673  70.4131313
  60.2806993   8.6221673  69.4551313  59.6006993   8.4561673  69.8091313
  67.1056993  11.9021673  75.4051313  66.6506993  12.6191673  75.6061313
  66.4916993  11.3311673  75.1631313  66.9476993  11.9241673  75.3991313
  64.1026993   7.7471673  74.9491313  64.8036993   7.2651673  75.1381313
  63.4426993   7.1781673  74.9941313  64.1086993   7.5921673  74.9831313
  66.6216993   5.2401673  70.7571313  66.7406993   4.9531673  71.5721313
  67.4286993   5.2611673  70.4271313  66.7576993   5.2011673  70.8291313
  53.7576993   4.9721673  76.0881313  54.6086993   4.8921673  75.9151313
  53.4006993   4.2901673  75.6761313  53.8306993   4.8591673  76.0011313
  52.5246993  11.6971673  77.3251313  51.8516993  11.1991673  77.0801313
  52.9276993  11.8821673  76.5741313  52.4846993  11.6511673  77.1781313
  64.5166993   1.7771673  70.3421313  64.2966993   2.5081673  69.9201313
  64.0686993   1.8281673  71.0891313  64.4176993   1.8921673  70.3901313
  56.1256993   4.9791673  74.3231313  56.8386993   5.4741673  74.4131313
  56.3476993   4.4121673  73.6971313  56.2636993   4.9681673  74.2441313
  50.2816993   6.6221673  77.6431313  49.6146993   7.1101673  77.9191313
  50.9616993   7.1671673  77.6721313  50.2836993   6.7741673  77.6881313
  50.3476993   3.3061673  72.7461313  50.1626993   2.4671673  72.8981313
  51.0066993   3.2701673  72.1761313  50.4176993   3.1771673  72.6841313
  60.6486993   8.6821673  76.6501313  60.1256993   9.3161673  76.3571313
  60.9586993   8.3181673  75.9211313  60.6166993   8.7221673  76.4991313
  50.5196993   7.4701673  72.3211313  51.0716993   8.0391673  72.6851313
  50.2876993   6.9551673  72.9861313  50.5666993   7.4781673  72.4731313
  50.3496993   5.9191673  69.9491313  51.1056993   5.4871673  70.0071313
  50.3646993   6.4511673  70.6401313  50.4636993   5.9341673  70.0601313
  51.2896993   4.1401673  77.9541313  51.7206993   4.0111673  77.2071313
  51.0846993   4.9881673  77.9281313  51.3226993   4.2461673  77.8401313
  55.3736993   7.6561673  76.2361313  55.4996993   8.4991673  76.4231313
  56.0416993   7.2571673  76.6321313  55.4916993   7.7221673  76.3221313
  54.1556993   2.3661673  77.8371313  53.3746993   2.3071673  77.4541313
  54.2276993   1.6141673  78.2741313  54.0506993   2.2471673  77.8451313
  61.4446993   2.4241673  71.2111313  61.4366993   3.1461673  70.7211313
  60.8056993   2.5591673  71.7881313  61.3496993   2.5511673  71.2241313
  66.4166993   6.2941673  75.1921313  66.7726993   5.9441673  75.9071313
  66.4086993   5.6331673  74.6221313  66.4686993   6.1441673  75.2131313
  62.4746993   6.2111673  78.4361313  61.6776993   6.4351673  78.7101313
  62.7326993   5.6171673  79.0211313  62.3946993   6.1561673  78.5631313
  56.3666993  11.0231673  72.8841313  56.2196993  10.2471673  73.2551313
  57.0556993  10.8761673  72.3691313  56.4466993  10.8861673  72.8631313
  58.6586993  10.5391673  71.2861313  59.2806993  10.7021673  71.8761313
  58.6946993  11.2301673  70.7541313  58.7556993  10.6651673  71.2951313
  53.1596993   3.0731673  72.1151313  53.4836993   2.2941673  71.8931313
  53.8056993   3.4411673  72.5701313  53.3026993   3.0121673  72.1491313
  59.8496993   2.4151673  73.5401313  59.9086993   3.0651673  74.1191313
  59.6606993   1.7191673  74.0311313  59.8306993   2.4081673  73.6981313
  59.0726993   4.4621673  77.9711313  58.2256993   4.2681673  78.0521313
  59.3966993   4.2971673  78.7641313  58.9946993   4.4091673  78.1001313
  55.8246993  11.1921673  68.8571313  56.2636993  10.4951673  69.1451313
  56.0316993  11.8161673  69.4301313  55.9206993  11.1811673  68.9841313
  68.7676993  10.9101673  71.3491313  69.4616993  10.4431673  71.1011313
  68.2286993  10.3121673  71.6861313  68.7906993  10.7521673  71.3621313
  55.4966993   2.0981673  69.1631313  54.8866993   1.6931673  69.6371313
  55.1106993   2.2161673  68.3901313  55.3496993   2.0551673  69.1191313
  67.2626993   3.7571673  77.9651313  66.9766993   4.1581673  78.6851313
  68.1226993   3.6951673  78.0921313  67.3476993   3.8071673  78.0901313
  68.3936993   9.3901673  78.4941313  68.6836993   9.6471673  77.7131313
  69.0886993   9.4861673  79.0131313  68.5396993   9.4421673  78.4551313
  64.9986993   7.9931673  70.4761313  65.3326993   7.1871673  70.5111313
  64.2436993   7.9211673  70.9061313  64.9366993   7.8631673  70.5451313
  62.3726993   5.8681673  69.8791313  63.0566993   5.3541673  69.7101313
  61.9556993   5.9141673  69.1141313  62.4116993   5.7991673  69.7411313
  58.8346993  10.8341673  75.9021313  59.3806993  11.5131673  75.9561313
  58.4846993  10.9161673  75.1071313  58.8636993  10.9471673  75.7921313
  58.6116993   3.8381673  69.2061313  57.8066993   3.6611673  68.9211313
  58.5786993   4.6891673  69.3981313  58.4876993   3.9371673  69.1931313
  66.2586993   4.0181673  73.3521313  66.7346993   3.2891673  73.3041313
  65.4376993   3.7321673  73.2761313  66.2076993   3.8681673  73.3331313
  62.4746993   5.1851673  75.7071313  62.5506993   5.5261673  76.5061313
  62.6436993   4.3381673  75.8281313  62.5106993   5.1101673  75.8431313
  59.9966993   4.4591673  75.2721313  59.6986993   4.1441673  76.0291313
  60.6916993   4.9321673  75.5071313  60.0556993   4.4821673  75.4191313
  63.9256993  11.4151673  77.8021313  63.4746993  12.0581673  78.1811313
  64.6336993  11.3361673  78.3071313  63.9636993  11.4981673  77.9331313
  60.9486993   8.0961673  73.9011313  60.7436993   8.9291673  73.7421313
  60.1736993   7.7141673  74.0231313  60.8036993   8.1631673  73.8961313
  56.3106993   8.3581673  70.3101313  56.7516993   8.4381673  71.0581313
  55.5056993   8.1421673  70.5681313  56.2566993   8.3381673  70.4591313
  64.9056993   2.0631673  78.0771313  65.5716993   2.6041673  78.2371313
  64.5606993   2.3741673  77.3381313  64.9526993   2.1891673  77.9921313
  65.2186993  10.1291673  73.8841313  65.0446993   9.4751673  74.4341313
  65.9316993   9.8581673  73.4611313  65.2986993   9.9921673  73.9031313
  53.6396993   7.4281673  70.9111313  53.3956993   7.1211673  71.6911313
  53.6066993   6.7251673  70.3951313  53.5986993   7.2791673  70.9501313
  56.4586993   5.6731673  69.6541313  55.6406993   5.4051673  69.7941313
  56.4306993   6.5251673  69.8391313  56.3336993   5.7601673  69.7021313
  63.6536993   2.5641673  73.0931313  63.7216993   1.7141673  73.2741313
  62.8306993   2.6501673  72.8151313  63.5416993   2.4511673  73.0791313
  53.4056993  11.0581673  72.3031313  53.2606993  11.2141673  71.4571313
  54.2716993  11.1371673  72.3811313  53.5126993  11.0931673  72.1901313
  57.5726993   3.4551673  72.0311313  57.6726993   3.5941673  71.1761313
  58.3906993   3.3951673  72.3271313  57.7076993   3.4661673  71.9481313
  66.7326993  11.5191673  69.5111313  67.3696993  11.3851673  70.0921313
  66.3916993  10.7251673  69.3941313  66.7766993  11.3821673  69.5791313
  62.8076993   7.7841673  71.8331313  62.5566993   7.6561673  72.6591313
  62.4906993   7.0891673  71.4121313  62.7236993   7.6631673  71.8931313
  54.0926993   9.8731673  78.7801313  54.0136993   9.0631673  78.4641313
  53.6486993  10.3601673  78.2081313  54.0156993   9.8251673  78.6491313
  59.6936993   5.9921673  71.2631313  60.4106993   5.6451673  70.9071313
  59.6596993   6.7921673  70.9151313  59.7946993   6.0591673  71.1591313
  50.7806993   5.6891673  55.6288903  50.3396993   5.8071673  56.3718903
  50.4976993   4.9141673  55.3438903  50.6736993   5.5921673  55.6968903
  67.0556993   8.9901673  53.1438903  67.7566993   8.4711673  53.1398903
  66.4686993   8.5451673  52.6748903  67.0726993   8.8471673  53.0738903
  53.6626993   4.7441673  50.8078903  53.2706993   4.3731673  50.1218903
  53.5826993   4.1461673  51.4368903  53.5926993   4.6011673  50.7988903
  63.5826993   2.6161673  56.8488903  63.6626993   2.6201673  55.9798903
  62.9986993   1.9841673  56.9978903  63.5076993   2.5231673  56.7428903
  53.2896993   6.3851673  54.7078903  53.8976993   6.2151673  55.3108903
  52.5386993   6.2451673  55.1288903  53.2686993   6.3391673  54.8588903
  52.1806993   9.4761673  50.7848903  52.6476993   9.5601673  50.0528903
  52.6356993   8.8981673  51.2538903  52.3166993   9.4031673  50.7458903
  50.7206993   8.4241673  61.8838903  50.8496993   8.1441673  62.6998903
  50.1106993   7.8831673  61.5748903  50.6496993   8.3031673  61.9588903
  57.2946993   5.9491673  66.9508903  57.0586993   5.9461673  67.7908903
  56.5466993   5.8011673  66.5268903  57.1486993   5.9261673  67.0118903
  52.1666993   2.9451673  56.0858903  51.7046993   2.5531673  55.4588903
  52.8666993   2.4321673  56.1778903  52.2016993   2.8121673  56.0068903
  57.2766993   9.1411673  64.2138903  57.4146993   9.9011673  63.8068903
  58.0676993   8.7761673  64.2408903  57.4136993   9.2001673  64.1578903
  58.3716993   7.0261673  58.7188903  58.7196993   6.2271673  58.7488903
  59.0366993   7.5301673  58.4638903  58.5216993   6.9821673  58.6858903
  58.4286993   6.4751673  54.9298903  58.7596993   5.8311673  55.4158903
  58.6686993   6.2641673  54.1188903  58.5126993   6.3491673  54.8818903
  50.5326993  10.4161673  56.9988903  49.9406993  10.9741673  56.6858903
  50.9586993  10.1471673  56.2868903  50.5086993  10.4581673  56.8478903
  56.3726993   8.2601673  54.4788903  55.7936993   7.9851673  55.0708903
  56.9966993   7.6511673  54.5038903  56.3796993   8.1301673  54.5698903
  62.5156993  10.5481673  52.0008903  63.2426993  11.0201673  52.1028903
  62.7446993   9.7541673  52.2808903  62.6576993  10.5011673  52.0578903
  60.6836993  10.9401673  53.9908903  60.8976993  11.4671673  54.6528903
  61.4506993  10.7661673  53.6118903  60.8286993  10.9921673  54.0328903
  52.0776993   9.0861673  54.9298903  52.7336993   8.5111673  54.9448903
  52.4666993   9.8351673  54.7088903  52.2326993   9.1111673  54.8998903
  63.1226993  10.9501673  62.2958903  63.8666993  11.4061673  62.2858903
  63.0016993  10.7361673  61.4588903  63.2146993  10.9861673  62.1708903
  52.8956993   7.5731673  58.4298903  53.3186993   7.2171673  57.7558903
  53.2196993   7.1511673  59.1218903  53.0056993   7.4581673  58.4328903
  56.1266993  10.4251673  57.7258903  56.9706993  10.5291673  57.5308903
  55.8296993  11.2431673  57.7938903  56.2076993  10.5611673  57.7068903
  64.6966993  12.1351673  52.4008903  65.3616993  11.9871673  51.8558903
  65.0566993  12.0521673  53.1908903  64.8486993  12.1011673  52.4368903
  55.1246993  11.6441673  63.4658903  55.4166993  11.5771673  64.2858903
  54.4986993  11.0391673  63.4208903  55.0756993  11.5451673  63.5808903
  62.3766993   8.1351673  65.9998903  62.3426993   8.5171673  66.7838903
  63.2306993   8.0931673  65.8288903  62.4976993   8.1851673  66.0908903
  59.5146993   8.3321673  50.7498903  59.3336993   8.8771673  51.4068903
  60.2806993   8.6221673  50.4488903  59.6006993   8.4561673  50.8028903
  53.1176993   9.8061673  62.5878903  52.4196993   9.2981673  62.7138903
  53.3776993   9.6011673  61.7798903  53.0526993   9.7011673  62.4868903
  60.8286993  11.2991673  63.4978903  61.5966993  11.2191673  63.0918903
  60.2456993  11.1781673  62.8598903  60.8556993  11.2691673  63.3438903
  67.1056993  11.9021673  56.3988903  66.6506993  12.6191673  56.5998903
  66.4916993  11.3311673  56.1568903  66.9476993  11.9241673  56.3928903
  64.1026993   7.7471673  55.9428903  64.8036993   7.2651673  56.1318903
  63.4426993   7.1781673  55.9878903  64.1086993   7.5921673  55.9768903
  54.4786993   8.6571673  65.1548903  55.3196993   8.7201673  64.9328903
  54.4416993   9.0541673  65.9308903  54.5976993   8.7251673  65.2368903
  56.4416993   4.1681673  59.9038903  56.6136993   3.9581673  60.7328903
  55.7866993   3.6341673  59.6878903  56.3706993   4.0581673  59.9948903
  57.1916993   4.1061673  62.4938903  57.2446993   4.9531673  62.6958903
  56.9066993   3.7361673  63.2308903  57.1576993   4.1761673  62.6318903
  63.3686993   4.8011673  61.6238903  62.8546993   4.3891673  62.1948903
  63.2426993   5.6451673  61.8048903  63.2746993   4.8651673  61.7348903
  50.0126993   8.4771673  68.7048903  50.7686993   8.8261673  68.9628903
  50.1896993   7.6241673  68.6478903  50.1506993   8.4021673  68.7348903
  66.6216993   5.2401673  51.7508903  66.7406993   4.9531673  52.5658903
  67.4286993   5.2611673  51.4208903  66.7576993   5.2011673  51.8228903
  53.7576993   4.9721673  57.0818903  54.6086993   4.8921673  56.9088903
  53.4006993   4.2901673  56.6698903  53.8306993   4.8591673  56.9948903
  52.5246993  11.6971673  58.3188903  51.8516993  11.1991673  58.0738903
  52.9276993  11.8821673  57.5678903  52.4846993  11.6511673  58.1718903
  68.8556993   9.7491673  66.0048903  68.1736993  10.0591673  65.5578903
  68.4866993   9.2911673  66.6498903  68.6996993   9.7271673  66.0338903
  64.5166993   1.7771673  51.3358903  64.2966993   2.5081673  50.9138903
  64.0686993   1.8281673  52.0828903  64.4176993   1.8921673  51.3838903
  56.1256993   4.9791673  55.3168903  56.8386993   5.4741673  55.4068903
  56.3476993   4.4121673  54.6908903  56.2636993   4.9681673  55.2378903
  50.2816993   6.6221673  58.6368903  49.6146993   7.1101673  58.9128903
  50.9616993   7.1671673  58.6658903  50.2836993   6.7741673  58.6818903
  50.3476993   3.3061673  53.7398903  50.1626993   2.4671673  53.8918903
  51.0066993   3.2701673  53.1698903  50.4176993   3.1771673  53.6778903
  60.6486993   8.6821673  57.6438903  60.1256993   9.3161673  57.3508903
  60.9586993   8.3181673  56.9148903  60.6166993   8.7221673  57.4928903
  50.5196993   7.4701673  53.3148903  51.0716993   8.0391673  53.6788903
  50.2876993   6.9551673  53.9798903  50.5666993   7.4781673  53.4668903
  54.7236993   6.4701673  60.4038903  55.1906993   6.7591673  61.0818903
  55.2956993   5.9921673  59.9498903  54.8776993   6.4421673  60.4368903
  50.3496993   5.9191673  50.9428903  51.1056993   5.4871673  51.0008903
  50.3646993   6.4511673  51.6338903  50.4636993   5.9341673  51.0538903
  51.2896993   4.1401673  58.9478903  51.7206993   4.0111673  58.2008903
  51.0846993   4.9881673  58.9218903  51.3226993   4.2461673  58.8338903
  66.6896993  10.1311673  64.0948903  66.0186993  10.6451673  64.3128903
  66.7526993  10.2311673  63.2308903  66.5996993  10.2221673  63.9998903
  55.3736993   7.6561673  57.2298903  55.4996993   8.4991673  57.4168903
  56.0416993   7.2571673  57.6258903  55.4916993   7.7221673  57.3158903
  54.1556993   2.3661673  58.8308903  53.3746993   2.3071673  58.4478903
  54.2276993   1.6141673  59.2678903  54.0506993   2.2471673  58.8388903
  58.6856993  10.8801673  61.6908903  58.4086993  10.2391673  61.1678903
  58.4776993  11.6061673  61.2528903  58.6146993  10.8931673  61.5488903
  52.3846993   3.4581673  67.8578903  52.3476993   3.9591673  67.1438903
  52.7156993   2.7061673  67.5628903  52.4276993   3.4201673  67.7088903
  63.9876993   5.6631673  66.1158903  64.4716993   6.3811673  66.2138903
  64.3816993   5.2361673  65.4648903  64.1176993   5.7061673  66.0338903
  58.2836993   8.5081673  67.2928903  58.6376993   8.3301673  68.0698903
  57.8476993   7.7791673  67.0938903  58.2716993   8.3741673  67.3788903
  61.4446993   2.4241673  52.2048903  61.4366993   3.1461673  51.7148903
  60.8056993   2.5591673  52.7818903  61.3496993   2.5511673  52.2178903
  66.4166993   6.2941673  56.1858903  66.7726993   5.9441673  56.9008903
  66.4086993   5.6331673  55.6158903  66.4686993   6.1441673  56.2068903
  62.4616993   9.3601673  60.0298903  61.8586993   9.0641673  59.4728903
  63.0066993   9.8121673  59.5208903  62.4526993   9.3831673  59.8718903
  62.4746993   6.2111673  59.4298903  61.6776993   6.4351673  59.7038903
  62.7326993   5.6171673  60.0148903  62.3946993   6.1561673  59.5568903
  56.3666993  11.0231673  53.8778903  56.2196993  10.2471673  54.2488903
  57.0556993  10.8761673  53.3628903  56.4466993  10.8861673  53.8568903
  58.6586993  10.5391673  52.2798903  59.2806993  10.7021673  52.8698903
  58.6946993  11.2301673  51.7478903  58.7556993  10.6651673  52.2888903
  65.7346993   4.2091673  64.2758903  65.7896993   4.3341673  63.4138903
  66.4876993   4.5291673  64.5778903  65.8536993   4.2741673  64.1928903
  61.9256993   9.5581673  68.5528903  62.0896993   9.8411673  69.3618903
  62.1886993  10.2191673  68.0478903  61.9886993   9.6981673  68.5978903
  53.1596993   3.0731673  53.1088903  53.4836993   2.2941673  52.8868903
  53.8056993   3.4411673  53.5638903  53.3026993   3.0121673  53.1428903
  61.4656993   4.0151673  63.8758903  61.3106993   4.6251673  64.4798903
  61.9996993   3.4571673  64.2818903  61.5216993   4.0231673  64.0248903
  59.8496993   2.4151673  54.5338903  59.9086993   3.0651673  55.1128903
  59.6606993   1.7191673  55.0248903  59.8306993   2.4081673  54.6918903
  65.0756993   6.7441673  60.4028903  64.5966993   7.0421673  59.7368903
  64.7196993   5.9681673  60.5808903  64.9526993   6.6731673  60.3308903
  59.0726993   4.4621673  58.9648903  58.2256993   4.2681673  59.0458903
  59.3966993   4.2971673  59.7578903  58.9946993   4.4091673  59.0938903
  55.8246993  11.1921673  49.8508903  56.2636993  10.4951673  50.1388903
  56.0316993  11.8161673  50.4238903  55.9206993  11.1811673  49.9778903
  52.9206993   4.1551673  61.2808903  53.6426993   4.6431673  61.2438903
  52.6506993   4.1251673  60.4518903  52.9876993   4.2231673  61.1528903
  68.7676993  10.9101673  52.3428903  69.4616993  10.4431673  52.0948903
  68.2286993  10.3121673  52.6798903  68.7906993  10.7521673  52.3558903
  66.0066993   3.6861673  61.5218903  65.9996993   2.9101673  61.9198903
  65.1656993   3.9201673  61.5148903  65.8816993   3.6061673  61.5798903
  55.4966993   2.0981673  50.1568903  54.8866993   1.6931673  50.6308903
  55.1106993   2.2161673  49.3838903  55.3496993   2.0551673  50.1128903
  52.3156993   5.2071673  65.5588903  51.8946993   4.6891673  64.9978903
  51.9636993   5.9931673  65.4158903  52.2016993   5.2471673  65.4548903
  67.2626993   3.7571673  58.9588903  66.9766993   4.1581673  59.6788903
  68.1226993   3.6951673  59.0858903  67.3476993   3.8071673  59.0838903
  68.3936993   9.3901673  59.4878903  68.6836993   9.6471673  58.7068903
  69.0886993   9.4861673  60.0068903  68.5396993   9.4421673  59.4488903
  64.9986993   7.9931673  51.4698903  65.3326993   7.1871673  51.5048903
  64.2436993   7.9211673  51.8998903  64.9366993   7.8631673  51.5388903
  68.3826993   2.1111673  68.6748903  68.3306993   1.7701673  67.8738903
  69.1196993   2.5781673  68.6528903  68.4836993   2.1301673  68.5528903
  67.9206993   5.7871673  64.8808903  68.5486993   5.2381673  64.6248903
  67.8596993   6.3521673  64.2188903  68.0046993   5.7901673  64.7448903
  62.3726993   5.8681673  50.8728903  63.0566993   5.3541673  50.7038903
  61.9556993   5.9141673  50.1078903  62.4116993   5.7991673  50.7348903
  57.0546993   7.0181673  62.1768903  56.7566993   7.6101673  62.7438903
  57.1096993   7.4601673  61.4278903  57.0186993   7.1711673  62.1498903
  55.0336993   5.9681673  65.5748903  54.2276993   5.6781673  65.7418903
  54.9446993   6.8361673  65.5808903  54.9016993   6.0531673  65.5998903
  59.5706993   3.4411673  61.6678903  60.0466993   3.8151673  62.2958903
  58.7476993   3.5751673  61.9268903  59.5196993   3.5161673  61.7988903
  58.8346993  10.8341673  56.8958903  59.3806993  11.5131673  56.9498903
  58.4846993  10.9161673  56.1008903  58.8636993  10.9471673  56.7858903
  57.0176993   9.0621673  60.2848903  56.3936993   9.6441673  60.1028903
  57.2656993   8.7761673  59.4988903  56.9616993   9.1061673  60.1418903
  61.3266993   5.6961673  67.2738903  62.0836993   5.9821673  66.9478903
  60.7796993   5.7481673  66.5958903  61.3576993   5.7461673  67.1248903
  65.2356993   8.2461673  65.7778903  65.5816993   8.5161673  66.5318903
  65.5296993   8.8281673  65.1978903  65.3306993   8.3721673  65.8038903
  58.6116993   3.8381673  50.1998903  57.8066993   3.6611673  49.9148903
  58.5786993   4.6891673  50.3918903  58.4876993   3.9371673  50.1868903
  59.6706993  10.7111673  66.1648903  60.1486993  10.1111673  65.7488903
  59.3196993  10.2681673  66.8298903  59.6896993  10.5571673  66.2018903
  66.2586993   4.0181673  54.3458903  66.7346993   3.2891673  54.2978903
  65.4376993   3.7321673  54.2698903  66.2076993   3.8681673  54.3268903
  59.7296993   5.9301673  65.1848903  58.9346993   5.8661673  65.5358903
  59.8006993   6.7771673  64.9898903  59.6226993   6.0451673  65.2078903
  55.5596993  12.1371673  60.5018903  55.5706993  12.1961673  61.3718903
  55.1346993  11.3901673  60.3518903  55.4986993  12.0351673  60.6078903
  62.4746993   5.1851673  56.7008903  62.5506993   5.5261673  57.4998903
  62.6436993   4.3381673  56.8218903  62.5106993   5.1101673  56.8368903
  59.9966993   4.4591673  56.2658903  59.6986993   4.1441673  57.0228903
  60.6916993   4.9321673  56.5008903  60.0556993   4.4821673  56.4128903
  60.2186993   8.5771673  64.2928903  60.9056993   8.4631673  64.8178903
  60.3526993   9.3681673  63.9488903  60.3396993   8.6771673  64.3198903
  52.3236993  11.6351673  65.9438903  51.6696993  11.0661673  66.0418903
  51.9486993  12.4081673  66.0948903  52.1716993  11.6651673  65.9808903
  60.8416993   3.0411673  67.8668903  61.1646993   3.7271673  67.4348903
  60.1376993   3.3641673  68.2688903  60.7846993   3.1901673  67.8618903
  63.9256993  11.4151673  58.7958903  63.4746993  12.0581673  59.1748903
  64.6336993  11.3361673  59.3008903  63.9636993  11.4981673  58.9268903
  60.6266993   6.5051673  61.7258903  59.9326993   6.9071673  62.0688903
  61.3036993   6.9381673  62.0648903  60.6236993   6.6281673  61.8268903
  66.0036993   9.0981673  68.3058903  66.7796993   8.7081673  68.3888903
  65.5346993   8.7621673  68.9608903  66.0486993   8.9911673  68.4148903
  60.9486993   8.0961673  54.8948903  60.7436993   8.9291673  54.7358903
  60.1736993   7.7141673  55.0168903  60.8036993   8.1631673  54.8898903
  50.8666993   3.7171673  63.5718903  51.1866993   3.9361673  62.7908903
  50.7666993   2.8521673  63.5168903  50.8986993   3.6221673  63.4488903
  56.3106993   8.3581673  51.3038903  56.7516993   8.4381673  52.0518903
  55.5056993   8.1421673  51.5618903  56.2566993   8.3381673  51.4528903
  55.6296993   3.0091673  64.9568903  55.2336993   3.7831673  65.0318903
  55.2236993   2.6361673  64.2808903  55.5116993   3.0681673  64.8678903
  64.9056993   2.0631673  59.0708903  65.5716993   2.6041673  59.2308903
  64.5606993   2.3741673  58.3318903  64.9526993   2.1891673  58.9858903
  65.2186993  10.1291673  54.8778903  65.0446993   9.4751673  55.4278903
  65.9316993   9.8581673  54.4548903  65.2986993   9.9921673  54.8968903
  53.6396993   7.4281673  51.9048903  53.3956993   7.1211673  52.6848903
  53.6066993   6.7251673  51.3888903  53.5986993   7.2791673  51.9438903
  56.4586993   5.6731673  50.6478903  55.6406993   5.4051673  50.7878903
  56.4306993   6.5251673  50.8328903  56.3336993   5.7601673  50.6958903
  62.8936993   7.5821673  62.5688903  63.0996993   7.8831673  63.3608903
  62.8326993   8.3041673  62.0838903  62.9146993   7.7331673  62.6138903
  62.4276993  11.7961673  66.8148903  61.6746993  11.7781673  66.3738903
  62.5956993  12.6481673  66.8988903  62.3416993  11.9191673  66.7618903
  67.7056993   6.2211673  62.0268903  67.6736993   5.3591673  61.8918903
  67.0126993   6.5231673  61.5928903  67.5986993   6.1381673  61.9428903
  56.0996993  11.4191673  66.2328903  56.1406993  11.5451673  67.0958903
  56.7506993  10.8591673  66.0768903  56.2016993  11.3551673  66.3378903
  65.8106993   9.4811673  60.8238903  66.3376993   9.3981673  60.1328903
  65.4196993   8.7031673  60.8778903  65.8306993   9.3541673  60.7298903
  53.6926993   9.8021673  67.5928903  54.2876993  10.2331673  68.0648903
  53.3286993  10.4261673  67.1038903  53.7266993   9.9581673  67.5898903
  51.6196993   7.7911673  64.5218903  51.0456993   8.2071673  65.0308903
  52.3526993   8.2561673  64.6168903  51.6436993   7.9211673  64.6108903
  63.6536993   2.5641673  54.0868903  63.7216993   1.7141673  54.2678903
  62.8306993   2.6501673  53.8088903  63.5416993   2.4511673  54.0728903
  53.4056993  11.0581673  53.2968903  53.2606993  11.2141673  52.4508903
  54.2716993  11.1371673  53.3748903  53.5126993  11.0931673  53.1838903
  57.5726993   3.4551673  53.0248903  57.6726993   3.5941673  52.1698903
  58.3906993   3.3951673  53.3208903  57.7076993   3.4661673  52.9418903
  66.7326993  11.5191673  50.5048903  67.3696993  11.3851673  51.0858903
  66.3916993  10.7251673  50.3878903  66.7766993  11.3821673  50.5728903
  66.9276993   3.9371673  67.2378903  67.5616993   3.7671673  67.8118903
  67.3446993   4.3401673  66.5858903  67.0826993   3.9721673  67.2268903
  62.8076993   7.7841673  52.8268903  62.5566993   7.6561673  53.6528903
  62.4906993   7.0891673  52.4058903  62.7236993   7.6631673  52.8868903
  64.3386993   4.0481673  68.5928903  65.2096993   4.0121673  68.5568903
  64.1196993   4.4681673  67.8608903  64.4356993   4.1041673  68.4798903
  54.0926993   9.8731673  59.7738903  54.0136993   9.0631673  59.4578903
  53.6486993  10.3601673  59.2018903  54.0156993   9.8251673  59.6428903
  59.6936993   5.9921673  52.2568903  60.4106993   5.6451673  51.9008903
  59.6596993   6.7921673  51.9088903  59.7946993   6.0591673  52.1528903
  51.6646993  12.1171673  63.3548903  52.1576993  12.0611673  64.0728903
  51.8526993  11.3841673  62.9198903  51.7656993  12.0001673  63.3968903
  50.7806993   5.6891673  36.6226493  50.3396993   5.8071673  37.3656493
  50.4976993   4.9141673  36.3376493  50.6736993   5.5921673  36.6906493
  67.0556993   8.9901673  34.1376493  67.7566993   8.4711673  34.1336493
  66.4686993   8.5451673  33.6686493  67.0726993   8.8471673  34.0676493
  53.6626993   4.7441673  31.8016493  53.2706993   4.3731673  31.1156493
  53.5826993   4.1461673  32.4306493  53.5926993   4.6011673  31.7926493
  63.5826993   2.6161673  37.8426493  63.6626993   2.6201673  36.9736493
  62.9986993   1.9841673  37.9916493  63.5076993   2.5231673  37.7366493
  53.2896993   6.3851673  35.7016493  53.8976993   6.2151673  36.3046493
  52.5386993   6.2451673  36.1226493  53.2686993   6.3391673  35.8526493
  52.1806993   9.4761673  31.7786493  52.6476993   9.5601673  31.0466493
  52.6356993   8.8981673  32.2476493  52.3166993   9.4031673  31.7396493
  50.7206993   8.4241673  42.8776493  50.8496993   8.1441673  43.6936493
  50.1106993   7.8831673  42.5686493  50.6496993   8.3031673  42.9526493
  57.2946993   5.9491673  47.9446493  57.0586993   5.9461673  48.7846493
  56.5466993   5.8011673  47.5206493  57.1486993   5.9261673  48.0056493
  52.1666993   2.9451673  37.0796493  51.7046993   2.5531673  36.4526493
  52.8666993   2.4321673  37.1716493  52.2016993   2.8121673  37.0006493
  57.2766993   9.1411673  45.2076493  57.4146993   9.9011673  44.8006493
  58.0676993   8.7761673  45.2346493  57.4136993   9.2001673  45.1516493
  58.3716993   7.0261673  39.7126493  58.7196993   6.2271673  39.7426493
  59.0366993   7.5301673  39.4576493  58.5216993   6.9821673  39.6796493
  58.4286993   6.4751673  35.9236493  58.7596993   5.8311673  36.4096493
  58.6686993   6.2641673  35.1126493  58.5126993   6.3491673  35.8756493
  50.5326993  10.4161673  37.9926493  49.9406993  10.9741673  37.6796493
  50.9586993  10.1471673  37.2806493  50.5086993  10.4581673  37.8416493
  56.3726993   8.2601673  35.4726493  55.7936993   7.9851673  36.0646493
  56.9966993   7.6511673  35.4976493  56.3796993   8.1301673  35.5636493
  62.5156993  10.5481673  32.9946493  63.2426993  11.0201673  33.0966493
  62.7446993   9.7541673  33.2746493  62.6576993  10.5011673  33.0516493
  60.6836993  10.9401673  34.9846493  60.8976993  11.4671673  35.6466493
  61.4506993  10.7661673  34.6056493  60.8286993  10.9921673  35.0266493
  52.0776993   9.0861673  35.9236493  52.7336993   8.5111673  35.9386493
  52.4666993   9.8351673  35.7026493  52.2326993   9.1111673  35.8936493
  63.1226993  10.9501673  43.2896493  63.8666993  11.4061673  43.2796493
  63.0016993  10.7361673  42.4526493  63.2146993  10.9861673  43.1646493
  52.8956993   7.5731673  39.4236493  53.3186993   7.2171673  38.7496493
  53.2196993   7.1511673  40.1156493  53.0056993   7.4581673  39.4266493
  56.1266993  10.4251673  38.7196493  56.9706993  10.5291673  38.5246493
  55.8296993  11.2431673  38.7876493  56.2076993  10.5611673  38.7006493
  64.6966993  12.1351673  33.3946493  65.3616993  11.9871673  32.8496493
  65.0566993  12.0521673  34.1846493  64.8486993  12.1011673  33.4306493
  55.1246993  11.6441673  44.4596493  55.4166993  11.5771673  45.2796493
  54.4986993  11.0391673  44.4146493  55.0756993  11.5451673  44.5746493
  62.3766993   8.1351673  46.9936493  62.3426993   8.5171673  47.7776493
  63.2306993   8.0931673  46.8226493  62.4976993   8.1851673  47.0846493
  59.5146993   8.3321673  31.7436493  59.3336993   8.8771673  32.4006493
  60.2806993   8.6221673  31.4426493  59.6006993   8.4561673  31.7966493
  53.1176993   9.8061673  43.5816493  52.4196993   9.2981673  43.7076493
  53.3776993   9.6011673  42.7736493  53.0526993   9.7011673  43.4806493
  60.8286993  11.2991673  44.4916493  61.5966993  11.2191673  44.0856493
  60.2456993  11.1781673  43.8536493  60.8556993  11.2691673  44.3376493
  67.1056993  11.9021673  37.3926493  66.6506993  12.6191673  37.5936493
  66.4916993  11.3311673  37.1506493  66.9476993  11.9241673  37.3866493
  64.1026993   7.7471673  36.9366493  64.8036993   7.2651673  37.1256493
  63.4426993   7.1781673  36.9816493  64.1086993   7.5921673  36.9706493
  54.4786993   8.6571673  46.1486493  55.3196993   8.7201673  45.9266493
  54.4416993   9.0541673  46.9246493  54.5976993   8.7251673  46.2306493
  56.4416993   4.1681673  40.8976493  56.6136993   3.9581673  41.7266493
  55.7866993   3.6341673  40.6816493  56.3706993   4.0581673  40.9886493
  57.1916993   4.1061673  43.4876493  57.2446993   4.9531673  43.6896493
  56.9066993   3.7361673  44.2246493  57.1576993   4.1761673  43.6256493
  63.3686993   4.8011673  42.6176493  62.8546993   4.3891673  43.1886493
  63.2426993   5.6451673  42.7986493  63.2746993   4.8651673  42.7286493
  50.0126993   8.4771673  49.6986493  50.7686993   8.8261673  49.9566493
  50.1896993   7.6241673  49.6416493  50.1506993   8.4021673  49.7286493
  66.6216993   5.2401673  32.7446493  66.7406993   4.9531673  33.5596493
  67.4286993   5.2611673  32.4146493  66.7576993   5.2011673  32.8166493
  53.7576993   4.9721673  38.0756493  54.6086993   4.8921673  37.9026493
  53.4006993   4.2901673  37.6636493  53.8306993   4.8591673  37.9886493
  52.5246993  11.6971673  39.3126493  51.8516993  11.1991673  39.0676493
  52.9276993  11.8821673  38.5616493  52.4846993  11.6511673  39.1656493
  68.8556993   9.7491673  46.9986493  68.1736993  10.0591673  46.5516493
  68.4866993   9.2911673  47.6436493  68.6996993   9.7271673  47.0276493
  64.5166993   1.7771673  32.3296493  64.2966993   2.5081673  31.9076493
  64.0686993   1.8281673  33.0766493  64.4176993   1.8921673  32.3776493
  56.1256993   4.9791673  36.3106493  56.8386993   5.4741673  36.4006493
  56.3476993   4.4121673  35.6846493  56.2636993   4.9681673  36.2316493
  50.2816993   6.6221673  39.6306493  49.6146993   7.1101673  39.9066493
  50.9616993   7.1671673  39.6596493  50.2836993   6.7741673  39.6756493
  50.3476993   3.3061673  34.7336493  50.1626993   2.4671673  34.8856493
  51.0066993   3.2701673  34.1636493  50.4176993   3.1771673  34.6716493
  60.6486993   8.6821673  38.6376493  60.1256993   9.3161673  38.3446493
  60.9586993   8.3181673  37.9086493  60.6166993   8.7221673  38.4866493
  50.5196993   7.4701673  34.3086493  51.0716993   8.0391673  34.6726493
  50.2876993   6.9551673  34.9736493  50.5666993   7.4781673  34.4606493
  54.7236993   6.4701673  41.3976493  55.1906993   6.7591673  42.0756493
  55.2956993   5.9921673  40.9436493  54.8776993   6.4421673  41.4306493
  50.3496993   5.9191673  31.9366493  51.1056993   5.4871673  31.9946493
  50.3646993   6.4511673  32.6276493  50.4636993   5.9341673  32.0476493
  51.2896993   4.1401673  39.9416493  51.7206993   4.0111673  39.1946493
  51.0846993   4.9881673  39.9156493  51.3226993   4.2461673  39.8276493
  66.6896993  10.1311673  45.0886493  66.0186993  10.6451673  45.3066493
  66.7526993  10.2311673  44.2246493  66.5996993  10.2221673  44.9936493
  55.3736993   7.6561673  38.2236493  55.4996993   8.4991673  38.4106493
  56.0416993   7.2571673  38.6196493  55.4916993   7.7221673  38.3096493
  54.1556993   2.3661673  39.8246493  53.3746993   2.3071673  39.4416493
  54.2276993   1.6141673  40.2616493  54.0506993   2.2471673  39.8326493
  58.6856993  10.8801673  42.6846493  58.4086993  10.2391673  42.1616493
  58.4776993  11.6061673  42.2466493  58.6146993  10.8931673  42.5426493
  52.3846993   3.4581673  48.8516493  52.3476993   3.9591673  48.1376493
  52.7156993   2.7061673  48.5566493  52.4276993   3.4201673  48.7026493
  63.9876993   5.6631673  47.1096493  64.4716993   6.3811673  47.2076493
  64.3816993   5.2361673  46.4586493  64.1176993   5.7061673  47.0276493
  58.2836993   8.5081673  48.2866493  58.6376993   8.3301673  49.0636493
  57.8476993   7.7791673  48.0876493  58.2716993   8.3741673  48.3726493
  61.4446993   2.4241673  33.1986493  61.4366993   3.1461673  32.7086493
  60.8056993   2.5591673  33.7756493  61.3496993   2.5511673  33.2116493
  66.4166993   6.2941673  37.1796493  66.7726993   5.9441673  37.8946493
  66.4086993   5.6331673  36.6096493  66.4686993   6.1441673  37.2006493
  62.4616993   9.3601673  41.0236493  61.8586993   9.0641673  40.4666493
  63.0066993   9.8121673  40.5146493  62.4526993   9.3831673  40.8656493
  62.4746993   6.2111673  40.4236493  61.6776993   6.4351673  40.6976493
  62.7326993   5.6171673  41.0086493  62.3946993   6.1561673  40.5506493
  56.3666993  11.0231673  34.8716493  56.2196993  10.2471673  35.2426493
  57.0556993  10.8761673  34.3566493  56.4466993  10.8861673  34.8506493
  58.6586993  10.5391673  33.2736493  59.2806993  10.7021673  33.8636493
  58.6946993  11.2301673  32.7416493  58.7556993  10.6651673  33.2826493
  65.7346993   4.2091673  45.2696493  65.7896993   4.3341673  44.4076493
  66.4876993   4.5291673  45.5716493  65.8536993   4.2741673  45.1866493
  61.9256993   9.5581673  49.5466493  62.0896993   9.8411673  50.3556493
  62.1886993  10.2191673  49.0416493  61.9886993   9.6981673  49.5916493
  53.1596993   3.0731673  34.1026493  53.4836993   2.2941673  33.8806493
  53.8056993   3.4411673  34.5576493  53.3026993   3.0121673  34.1366493
  61.4656993   4.0151673  44.8696493  61.3106993   4.6251673  45.4736493
  61.9996993   3.4571673  45.2756493  61.5216993   4.0231673  45.0186493
  59.8496993   2.4151673  35.5276493  59.9086993   3.0651673  36.1066493
  59.6606993   1.7191673  36.0186493  59.8306993   2.4081673  35.6856493
  65.0756993   6.7441673  41.3966493  64.5966993   7.0421673  40.7306493
  64.7196993   5.9681673  41.5746493  64.9526993   6.6731673  41.3246493
  59.0726993   4.4621673  39.9586493  58.2256993   4.2681673  40.0396493
  59.3966993   4.2971673  40.7516493  58.9946993   4.4091673  40.0876493
  55.8246993  11.1921673  30.8446493  56.2636993  10.4951673  31.1326493
  56.0316993  11.8161673  31.4176493  55.9206993  11.1811673  30.9716493
  52.9206993   4.1551673  42.2746493  53.6426993   4.6431673  42.2376493
  52.6506993   4.1251673  41.4456493  52.9876993   4.2231673  42.1466493
  68.7676993  10.9101673  33.3366493  69.4616993  10.4431673  33.0886493
  68.2286993  10.3121673  33.6736493  68.7906993  10.7521673  33.3496493
  66.0066993   3.6861673  42.5156493  65.9996993   2.9101673  42.9136493
  65.1656993   3.9201673  42.5086493  65.8816993   3.6061673  42.5736493
  55.4966993   2.0981673  31.1506493  54.8866993   1.6931673  31.6246493
  55.1106993   2.2161673  30.3776493  55.3496993   2.0551673  31.1066493
  52.3156993   5.2071673  46.5526493  51.8946993   4.6891673  45.9916493
  51.9636993   5.9931673  46.4096493  52.2016993   5.2471673  46.4486493
  67.2626993   3.7571673  39.9526493  66.9766993   4.1581673  40.6726493
  68.1226993   3.6951673  40.0796493  67.3476993   3.8071673  40.0776493
  68.3936993   9.3901673  40.4816493  68.6836993   9.6471673  39.7006493
  69.0886993   9.4861673  41.0006493  68.5396993   9.4421673  40.4426493
  64.9986993   7.9931673  32.4636493  65.3326993   7.1871673  32.4986493
  64.2436993   7.9211673  32.8936493  64.9366993   7.8631673  32.5326493
  68.3826993   2.1111673  49.6686493  68.3306993   1.7701673  48.8676493
  69.1196993   2.5781673  49.6466493  68.4836993   2.1301673  49.5466493
  67.9206993   5.7871673  45.8746493  68.5486993   5.2381673  45.6186493
  67.8596993   6.3521673  45.2126493  68.0046993   5.7901673  45.7386493
  62.3726993   5.8681673  31.8666493  63.0566993   5.3541673  31.6976493
  61.9556993   5.9141673  31.1016493  62.4116993   5.7991673  31.7286493
  57.0546993   7.0181673  43.1706493  56.7566993   7.6101673  43.7376493
  57.1096993   7.4601673  42.4216493  57.0186993   7.1711673  43.1436493
  55.0336993   5.9681673  46.5686493  54.2276993   5.6781673  46.7356493
  54.9446993   6.8361673  46.5746493  54.9016993   6.0531673  46.5936493
  59.5706993   3.4411673  42.6616493  60.0466993   3.8151673  43.2896493
  58.7476993   3.5751673  42.9206493  59.5196993   3.5161673  42.7926493
  58.8346993  10.8341673  37.8896493  59.3806993  11.5131673  37.9436493
  58.4846993  10.9161673  37.0946493  58.8636993  10.9471673  37.7796493
  57.0176993   9.0621673  41.2786493  56.3936993   9.6441673  41.0966493
  57.2656993   8.7761673  40.4926493  56.9616993   9.1061673  41.1356493
  61.3266993   5.6961673  48.2676493  62.0836993   5.9821673  47.9416493
  60.7796993   5.7481673  47.5896493  61.3576993   5.7461673  48.1186493
  65.2356993   8.2461673  46.7716493  65.5816993   8.5161673  47.5256493
  65.5296993   8.8281673  46.1916493  65.3306993   8.3721673  46.7976493
  58.6116993   3.8381673  31.1936493  57.8066993   3.6611673  30.9086493
  58.5786993   4.6891673  31.3856493  58.4876993   3.9371673  31.1806493
  59.6706993  10.7111673  47.1586493  60.1486993  10.1111673  46.7426493
  59.3196993  10.2681673  47.8236493  59.6896993  10.5571673  47.1956493
  66.2586993   4.0181673  35.3396493  66.7346993   3.2891673  35.2916493
  65.4376993   3.7321673  35.2636493  66.2076993   3.8681673  35.3206493
  59.7296993   5.9301673  46.1786493  58.9346993   5.8661673  46.5296493
  59.8006993   6.7771673  45.9836493  59.6226993   6.0451673  46.2016493
  55.5596993  12.1371673  41.4956493  55.5706993  12.1961673  42.3656493
  55.1346993  11.3901673  41.3456493  55.4986993  12.0351673  41.6016493
  62.4746993   5.1851673  37.6946493  62.5506993   5.5261673  38.4936493
  62.6436993   4.3381673  37.8156493  62.5106993   5.1101673  37.8306493
  59.9966993   4.4591673  37.2596493  59.6986993   4.1441673  38.0166493
  60.6916993   4.9321673  37.4946493  60.0556993   4.4821673  37.4066493
  60.2186993   8.5771673  45.2866493  60.9056993   8.4631673  45.8116493
  60.3526993   9.3681673  44.9426493  60.3396993   8.6771673  45.3136493
  52.3236993  11.6351673  46.9376493  51.6696993  11.0661673  47.0356493
  51.9486993  12.4081673  47.0886493  52.1716993  11.6651673  46.9746493
  60.8416993   3.0411673  48.8606493  61.1646993   3.7271673  48.4286493
  60.1376993   3.3641673  49.2626493  60.7846993   3.1901673  48.8556493
  63.9256993  11.4151673  39.7896493  63.4746993  12.0581673  40.1686493
  64.6336993  11.3361673  40.2946493  63.9636993  11.4981673  39.9206493
  60.6266993   6.5051673  42.7196493  59.9326993   6.9071673  43.0626493
  61.3036993   6.9381673  43.0586493  60.6236993   6.6281673  42.8206493
  66.0036993   9.0981673  49.2996493  66.7796993   8.7081673  49.3826493
  65.5346993   8.7621673  49.9546493  66.0486993   8.9911673  49.4086493
  60.9486993   8.0961673  35.8886493  60.7436993   8.9291673  35.7296493
  60.1736993   7.7141673  36.0106493  60.8036993   8.1631673  35.8836493
  50.8666993   3.7171673  44.5656493  51.1866993   3.9361673  43.7846493
  50.7666993   2.8521673  44.5106493  50.8986993   3.6221673  44.4426493
  56.3106993   8.3581673  32.2976493  56.7516993   8.4381673  33.0456493
  55.5056993   8.1421673  32.5556493  56.2566993   8.3381673  32.4466493
  55.6296993   3.0091673  45.9506493  55.2336993   3.7831673  46.0256493
  55.2236993   2.6361673  45.2746493  55.5116993   3.0681673  45.8616493
  64.9056993   2.0631673  40.0646493  65.5716993   2.6041673  40.2246493
  64.5606993   2.3741673  39.3256493  64.9526993   2.1891673  39.9796493
  65.2186993  10.1291673  35.8716493  65.0446993   9.4751673  36.4216493
  65.9316993   9.8581673  35.4486493  65.2986993   9.9921673  35.8906493
  53.6396993   7.4281673  32.8986493  53.3956993   7.1211673  33.6786493
  53.6066993   6.7251673  32.3826493  53.5986993   7.2791673  32.9376493
  56.4586993   5.6731673  31.6416493  55.6406993   5.4051673  31.7816493
  56.4306993   6.5251673  31.8266493  56.3336993   5.7601673  31.6896493
  62.8936993   7.5821673  43.5626493  63.0996993   7.8831673  44.3546493
  62.8326993   8.3041673  43.0776493  62.9146993   7.7331673  43.6076493
  62.4276993  11.7961673  47.8086493  61.6746993  11.7781673  47.3676493
  62.5956993  12.6481673  47.8926493  62.3416993  11.9191673  47.7556493
  67.7056993   6.2211673  43.0206493  67.6736993   5.3591673  42.8856493
  67.0126993   6.5231673  42.5866493  67.5986993   6.1381673  42.9366493
  56.0996993  11.4191673  47.2266493  56.1406993  11.5451673  48.0896493
  56.7506993  10.8591673  47.0706493  56.2016993  11.3551673  47.3316493
  65.8106993   9.4811673  41.8176493  66.3376993   9.3981673  41.1266493
  65.4196993   8.7031673  41.8716493  65.8306993   9.3541673  41.7236493
  53.6926993   9.8021673  48.5866493  54.2876993  10.2331673  49.0586493
  53.3286993  10.4261673  48.0976493  53.7266993   9.9581673  48.5836493
  51.6196993   7.7911673  45.5156493  51.0456993   8.2071673  46.0246493
  52.3526993   8.2561673  45.6106493  51.6436993   7.9211673  45.6046493
  63.6536993   2.5641673  35.0806493  63.7216993   1.7141673  35.2616493
  62.8306993   2.6501673  34.8026493  63.5416993   2.4511673  35.0666493
  53.4056993  11.0581673  34.2906493  53.2606993  11.2141673  33.4446493
  54.2716993  11.1371673  34.3686493  53.5126993  11.0931673  34.1776493
  57.5726993   3.4551673  34.0186493  57.6726993   3.5941673  33.1636493
  58.3906993   3.3951673  34.3146493  57.7076993   3.4661673  33.9356493
  66.7326993  11.5191673  31.4986493  67.3696993  11.3851673  32.0796493
  66.3916993  10.7251673  31.3816493  66.7766993  11.3821673  31.5666493
  66.9276993   3.9371673  48.2316493  67.5616993   3.7671673  48.8056493
  67.3446993   4.3401673  47.5796493  67.0826993   3.9721673  48.2206493
  62.8076993   7.7841673  33.8206493  62.5566993   7.6561673  34.6466493
  62.4906993   7.0891673  33.3996493  62.7236993   7.6631673  33.8806493
  64.3386993   4.0481673  49.5866493  65.2096993   4.0121673  49.5506493
  64.1196993   4.4681673  48.8546493  64.4356993   4.1041673  49.4736493
  54.0926993   9.8731673  40.7676493  54.0136993   9.0631673  40.4516493
  53.6486993  10.3601673  40.1956493  54.0156993   9.8251673  40.6366493
  59.6936993   5.9921673  33.2506493  60.4106993   5.6451673  32.8946493
  59.6596993   6.7921673  32.9026493  59.7946993   6.0591673  33.1466493
  51.6646993  12.1171673  44.3486493  52.1576993  12.0611673  45.0666493
  51.8526993  11.3841673  43.9136493  51.7656993  12.0001673  44.3906493
  50.7806993   5.6891673  17.6164083  50.3396993   5.8071673  18.3594083
  50.4976993   4.9141673  17.3314083  50.6736993   5.5921673  17.6844083
  67.0556993   8.9901673  15.1314083  67.7566993   8.4711673  15.1274083
  66.4686993   8.5451673  14.6624083  67.0726993   8.8471673  15.0614083
  53.6626993   4.7441673  12.7954083  53.2706993   4.3731673  12.1094083
  53.5826993   4.1461673  13.4244083  53.5926993   4.6011673  12.7864083
  63.5826993   2.6161673  18.8364083  63.6626993   2.6201673  17.9674083
  62.9986993   1.9841673  18.9854083  63.5076993   2.5231673  18.7304083
  53.2896993   6.3851673  16.6954083  53.8976993   6.2151673  17.2984083
  52.5386993   6.2451673  17.1164083  53.2686993   6.3391673  16.8464083
  52.1806993   9.4761673  12.7724083  52.6476993   9.5601673  12.0404083
  52.6356993   8.8981673  13.2414083  52.3166993   9.4031673  12.7334083
  50.7206993   8.4241673  23.8714083  50.8496993   8.1441673  24.6874083
  50.1106993   7.8831673  23.5624083  50.6496993   8.3031673  23.9464083
  57.2946993   5.9491673  28.9384083  57.0586993   5.9461673  29.7784083
  56.5466993   5.8011673  28.5144083  57.1486993   5.9261673  28.9994083
  52.1666993   2.9451673  18.0734083  51.7046993   2.5531673  17.4464083
  52.8666993   2.4321673  18.1654083  52.2016993   2.8121673  17.9944083
  57.2766993   9.1411673  26.2014083  57.4146993   9.9011673  25.7944083
  58.0676993   8.7761673  26.2284083  57.4136993   9.2001673  26.1454083
  58.3716993   7.0261673  20.7064083  58.7196993   6.2271673  20.7364083
  59.0366993   7.5301673  20.4514083  58.5216993   6.9821673  20.6734083
  58.4286993   6.4751673  16.9174083  58.7596993   5.8311673  17.4034083
  58.6686993   6.2641673  16.1064083  58.5126993   6.3491673  16.8694083
  50.5326993  10.4161673  18.9864083  49.9406993  10.9741673  18.6734083
  50.9586993  10.1471673  18.2744083  50.5086993  10.4581673  18.8354083
  56.3726993   8.2601673  16.4664083  55.7936993   7.9851673  17.0584083
  56.9966993   7.6511673  16.4914083  56.3796993   8.1301673  16.5574083
  62.5156993  10.5481673  13.9884083  63.2426993  11.0201673  14.0904083
  62.7446993   9.7541673  14.2684083  62.6576993  10.5011673  14.0454083
  60.6836993  10.9401673  15.9784083  60.8976993  11.4671673  16.6404083
  61.4506993  10.7661673  15.5994083  60.8286993  10.9921673  16.0204083
  52.0776993   9.0861673  16.9174083  52.7336993   8.5111673  16.9324083
  52.4666993   9.8351673  16.6964083  52.2326993   9.1111673  16.8874083
  63.1226993  10.9501673  24.2834083  63.8666993  11.4061673  24.2734083
  63.0016993  10.7361673  23.4464083  63.2146993  10.9861673  24.1584083
  52.8956993   7.5731673  20.4174083  53.3186993   7.2171673  19.7434083
  53.2196993   7.1511673  21.1094083  53.0056993   7.4581673  20.4204083
  56.1266993  10.4251673  19.7134083  56.9706993  10.5291673  19.5184083
  55.8296993  11.2431673  19.7814083  56.2076993  10.5611673  19.6944083
  64.6966993  12.1351673  14.3884083  65.3616993  11.9871673  13.8434083
  65.0566993  12.0521673  15.1784083  64.8486993  12.1011673  14.4244083
  55.1246993  11.6441673  25.4534083  55.4166993  11.5771673  26.2734083
  54.4986993  11.0391673  25.4084083  55.0756993  11.5451673  25.5684083
  62.3766993   8.1351673  27.9874083  62.3426993   8.5171673  28.7714083
  63.2306993   8.0931673  27.8164083  62.4976993   8.1851673  28.0784083
  59.5146993   8.3321673  12.7374083  59.3336993   8.8771673  13.3944083
  60.2806993   8.6221673  12.4364083  59.6006993   8.4561673  12.7904083
  53.1176993   9.8061673  24.5754083  52.4196993   9.2981673  24.7014083
  53.3776993   9.6011673  23.7674083  53.0526993   9.7011673  24.4744083
  60.8286993  11.2991673  25.4854083  61.5966993  11.2191673  25.0794083
  60.2456993  11.1781673  24.8474083  60.8556993  11.2691673  25.3314083
  67.1056993  11.9021673  18.3864083  66.6506993  12.6191673  18.5874083
  66.4916993  11.3311673  18.1444083  66.9476993  11.9241673  18.3804083
  64.1026993   7.7471673  17.9304083  64.8036993   7.2651673  18.1194083
  63.4426993   7.1781673  17.9754083  64.1086993   7.5921673  17.9644083
  54.4786993   8.6571673  27.1424083  55.3196993   8.7201673  26.9204083
  54.4416993   9.0541673  27.9184083  54.5976993   8.7251673  27.2244083
  56.4416993   4.1681673  21.8914083  56.6136993   3.9581673  22.7204083
  55.7866993   3.6341673  21.6754083  56.3706993   4.0581673  21.9824083
  57.1916993   4.1061673  24.4814083  57.2446993   4.9531673  24.6834083
  56.9066993   3.7361673  25.2184083  57.1576993   4.1761673  24.6194083
  63.3686993   4.8011673  23.6114083  62.8546993   4.3891673  24.1824083
  63.2426993   5.6451673  23.7924083  63.2746993   4.8651673  23.7224083
  50.0126993   8.4771673  30.6924083  50.7686993   8.8261673  30.9504083
  50.1896993   7.6241673  30.6354083  50.1506993   8.4021673  30.7224083
  66.6216993   5.2401673  13.7384083  66.7406993   4.9531673  14.5534083
  67.4286993   5.2611673  13.4084083  66.7576993   5.2011673  13.8104083
  53.7576993   4.9721673  19.0694083  54.6086993   4.8921673  18.8964083
  53.4006993   4.2901673  18.6574083  53.8306993   4.8591673  18.9824083
  52.5246993  11.6971673  20.3064083  51.8516993  11.1991673  20.0614083
  52.9276993  11.8821673  19.5554083  52.4846993  11.6511673  20.1594083
  68.8556993   9.7491673  27.9924083  68.1736993  10.0591673  27.5454083
  68.4866993   9.2911673  28.6374083  68.6996993   9.7271673  28.0214083
  64.5166993   1.7771673  13.3234083  64.2966993   2.5081673  12.9014083
  64.0686993   1.8281673  14.0704083  64.4176993   1.8921673  13.3714083
  56.1256993   4.9791673  17.3044083  56.8386993   5.4741673  17.3944083
  56.3476993   4.4121673  16.6784083  56.2636993   4.9681673  17.2254083
  50.2816993   6.6221673  20.6244083  49.6146993   7.1101673  20.9004083
  50.9616993   7.1671673  20.6534083  50.2836993   6.7741673  20.6694083
  50.3476993   3.3061673  15.7274083  50.1626993   2.4671673  15.8794083
  51.0066993   3.2701673  15.1574083  50.4176993   3.1771673  15.6654083
  60.6486993   8.6821673  19.6314083  60.1256993   9.3161673  19.3384083
  60.9586993   8.3181673  18.9024083  60.6166993   8.7221673  19.4804083
  50.5196993   7.4701673  15.3024083  51.0716993   8.0391673  15.6664083
  50.2876993   6.9551673  15.9674083  50.5666993   7.4781673  15.4544083
  54.7236993   6.4701673  22.3914083  55.1906993   6.7591673  23.0694083
  55.2956993   5.9921673  21.9374083  54.8776993   6.4421673  22.4244083
  50.3496993   5.9191673  12.9304083  51.1056993   5.4871673  12.9884083
  50.3646993   6.4511673  13.6214083  50.4636993   5.9341673  13.0414083
  51.2896993   4.1401673  20.9354083  51.7206993   4.0111673  20.1884083
  51.0846993   4.9881673  20.9094083  51.3226993   4.2461673  20.8214083
  66.6896993  10.1311673  26.0824083  66.0186993  10.6451673  26.3004083
  66.7526993  10.2311673  25.2184083  66.5996993  10.2221673  25.9874083
  55.3736993   7.6561673  19.2174083  55.4996993   8.4991673  19.4044083
  56.0416993   7.2571673  19.6134083  55.4916993   7.7221673  19.3034083
  54.1556993   2.3661673  20.8184083  53.3746993   2.3071673  20.4354083
  54.2276993   1.6141673  21.2554083  54.0506993   2.2471673  20.8264083
  58.6856993  10.8801673  23.6784083  58.4086993  10.2391673  23.1554083
  58.4776993  11.6061673  23.2404083  58.6146993  10.8931673  23.5364083
  52.3846993   3.4581673  29.8454083  52.3476993   3.9591673  29.1314083
  52.7156993   2.7061673  29.5504083  52.4276993   3.4201673  29.6964083
  63.9876993   5.6631673  28.1034083  64.4716993   6.3811673  28.2014083
  64.3816993   5.2361673  27.4524083  64.1176993   5.7061673  28.0214083
  58.2836993   8.5081673  29.2804083  58.6376993   8.3301673  30.0574083
  57.8476993   7.7791673  29.0814083  58.2716993   8.3741673  29.3664083
  61.4446993   2.4241673  14.1924083  61.4366993   3.1461673  13.7024083
  60.8056993   2.5591673  14.7694083  61.3496993   2.5511673  14.2054083
  66.4166993   6.2941673  18.1734083  66.7726993   5.9441673  18.8884083
  66.4086993   5.6331673  17.6034083  66.4686993   6.1441673  18.1944083
  62.4616993   9.3601673  22.0174083  61.8586993   9.0641673  21.4604083
  63.0066993   9.8121673  21.5084083  62.4526993   9.3831673  21.8594083
  62.4746993   6.2111673  21.4174083  61.6776993   6.4351673  21.6914083
  62.7326993   5.6171673  22.0024083  62.3946993   6.1561673  21.5444083
  56.3666993  11.0231673  15.8654083  56.2196993  10.2471673  16.2364083
  57.0556993  10.8761673  15.3504083  56.4466993  10.8861673  15.8444083
  58.6586993  10.5391673  14.2674083  59.2806993  10.7021673  14.8574083
  58.6946993  11.2301673  13.7354083  58.7556993  10.6651673  14.2764083
  65.7346993   4.2091673  26.2634083  65.7896993   4.3341673  25.4014083
  66.4876993   4.5291673  26.5654083  65.8536993   4.2741673  26.1804083
  61.9256993   9.5581673  30.5404083  62.0896993   9.8411673  31.3494083
  62.1886993  10.2191673  30.0354083  61.9886993   9.6981673  30.5854083
  53.1596993   3.0731673  15.0964083  53.4836993   2.2941673  14.8744083
  53.8056993   3.4411673  15.5514083  53.3026993   3.0121673  15.1304083
  61.4656993   4.0151673  25.8634083  61.3106993   4.6251673  26.4674083
  61.9996993   3.4571673  26.2694083  61.5216993   4.0231673  26.0124083
  59.8496993   2.4151673  16.5214083  59.9086993   3.0651673  17.1004083
  59.6606993   1.7191673  17.0124083  59.8306993   2.4081673  16.6794083
  65.0756993   6.7441673  22.3904083  64.5966993   7.0421673  21.7244083
  64.7196993   5.9681673  22.5684083  64.9526993   6.6731673  22.3184083
  59.0726993   4.4621673  20.9524083  58.2256993   4.2681673  21.0334083
  59.3966993   4.2971673  21.7454083  58.9946993   4.4091673  21.0814083
  55.8246993  11.1921673  11.8384083  56.2636993  10.4951673  12.1264083
  56.0316993  11.8161673  12.4114083  55.9206993  11.1811673  11.9654083
  52.9206993   4.1551673  23.2684083  53.6426993   4.6431673  23.2314083
  52.6506993   4.1251673  22.4394083  52.9876993   4.2231673  23.1404083
  68.7676993  10.9101673  14.3304083  69.4616993  10.4431673  14.0824083
  68.2286993  10.3121673  14.6674083  68.7906993  10.7521673  14.3434083
  66.0066993   3.6861673  23.5094083  65.9996993   2.9101673  23.9074083
  65.1656993   3.9201673  23.5024083  65.8816993   3.6061673  23.5674083
  55.4966993   2.0981673  12.1444083  54.8866993   1.6931673  12.6184083
  55.1106993   2.2161673  11.3714083  55.3496993   2.0551673  12.1004083
  52.3156993   5.2071673  27.5464083  51.8946993   4.6891673  26.9854083
  51.9636993   5.9931673  27.4034083  52.2016993   5.2471673  27.4424083
  67.2626993   3.7571673  20.9464083  66.9766993   4.1581673  21.6664083
  68.1226993   3.6951673  21.0734083  67.3476993   3.8071673  21.0714083
  68.3936993   9.3901673  21.4754083  68.6836993   9.6471673  20.6944083
  69.0886993   9.4861673  21.9944083  68.5396993   9.4421673  21.4364083
  64.9986993   7.9931673  13.4574083  65.3326993   7.1871673  13.4924083
  64.2436993   7.9211673  13.8874083  64.9366993   7.8631673  13.5264083
  68.3826993   2.1111673  30.6624083  68.3306993   1.7701673  29.8614083
  69.1196993   2.5781673  30.6404083  68.4836993   2.1301673  30.5404083
  67.9206993   5.7871673  26.8684083  68.5486993   5.2381673  26.6124083
  67.8596993   6.3521673  26.2064083  68.0046993   5.7901673  26.7324083
  62.3726993   5.8681673  12.8604083  63.0566993   5.3541673  12.6914083
  61.9556993   5.9141673  12.0954083  62.4116993   5.7991673  12.7224083
  57.0546993   7.0181673  24.1644083  56.7566993   7.6101673  24.7314083
  57.1096993   7.4601673  23.4154083  57.0186993   7.1711673  24.1374083
  55.0336993   5.9681673  27.5624083  54.2276993   5.6781673  27.7294083
  54.9446993   6.8361673  27.5684083  54.9016993   6.0531673  27.5874083
  59.5706993   3.4411673  23.6554083  60.0466993   3.8151673  24.2834083
  58.7476993   3.5751673  23.9144083  59.5196993   3.5161673  23.7864083
  58.8346993  10.8341673  18.8834083  59.3806993  11.5131673  18.9374083
  58.4846993  10.9161673  18.0884083  58.8636993  10.9471673  18.7734083
  57.0176993   9.0621673  22.2724083  56.3936993   9.6441673  22.0904083
  57.2656993   8.7761673  21.4864083  56.9616993   9.1061673  22.1294083
  61.3266993   5.6961673  29.2614083  62.0836993   5.9821673  28.9354083
  60.7796993   5.7481673  28.5834083  61.3576993   5.7461673  29.1124083
  65.2356993   8.2461673  27.7654083  65.5816993   8.5161673  28.5194083
  65.5296993   8.8281673  27.1854083  65.3306993   8.3721673  27.7914083
  58.6116993   3.8381673  12.1874083  57.8066993   3.6611673  11.9024083
  58.5786993   4.6891673  12.3794083  58.4876993   3.9371673  12.1744083
  59.6706993  10.7111673  28.1524083  60.1486993  10.1111673  27.7364083
  59.3196993  10.2681673  28.8174083  59.6896993  10.5571673  28.1894083
  66.2586993   4.0181673  16.3334083  66.7346993   3.2891673  16.2854083
  65.4376993   3.7321673  16.2574083  66.2076993   3.8681673  16.3144083
  59.7296993   5.9301673  27.1724083  58.9346993   5.8661673  27.5234083
  59.8006993   6.7771673  26.9774083  59.6226993   6.0451673  27.1954083
  55.5596993  12.1371673  22.4894083  55.5706993  12.1961673  23.3594083
  55.1346993  11.3901673  22.3394083  55.4986993  12.0351673  22.5954083
  62.4746993   5.1851673  18.6884083  62.5506993   5.5261673  19.4874083
  62.6436993   4.3381673  18.8094083  62.5106993   5.1101673  18.8244083
  59.9966993   4.4591673  18.2534083  59.6986993   4.1441673  19.0104083
  60.6916993   4.9321673  18.4884083  60.0556993   4.4821673  18.4004083
  60.2186993   8.5771673  26.2804083  60.9056993   8.4631673  26.8054083
  60.3526993   9.3681673  25.9364083  60.3396993   8.6771673  26.3074083
  52.3236993  11.6351673  27.9314083  51.6696993  11.0661673  28.0294083
  51.9486993  12.4081673  28.0824083  52.1716993  11.6651673  27.9684083
  60.8416993   3.0411673  29.8544083  61.1646993   3.7271673  29.4224083
  60.1376993   3.3641673  30.2564083  60.7846993   3.1901673  29.8494083
  63.9256993  11.4151673  20.7834083  63.4746993  12.0581673  21.1624083
  64.6336993  11.3361673  21.2884083  63.9636993  11.4981673  20.9144083
  60.6266993   6.5051673  23.7134083  59.9326993   6.9071673  24.0564083
  61.3036993   6.9381673  24.0524083  60.6236993   6.6281673  23.8144083
  66.0036993   9.0981673  30.2934083  66.7796993   8.7081673  30.3764083
  65.5346993   8.7621673  30.9484083  66.0486993   8.9911673  30.4024083
  60.9486993   8.0961673  16.8824083  60.7436993   8.9291673  16.7234083
  60.1736993   7.7141673  17.0044083  60.8036993   8.1631673  16.8774083
  50.8666993   3.7171673  25.5594083  51.1866993   3.9361673  24.7784083
  50.7666993   2.8521673  25.5044083  50.8986993   3.6221673  25.4364083
  56.3106993   8.3581673  13.2914083  56.7516993   8.4381673  14.0394083
  55.5056993   8.1421673  13.5494083  56.2566993   8.3381673  13.4404083
  55.6296993   3.0091673  26.9444083  55.2336993   3.7831673  27.0194083
  55.2236993   2.6361673  26.2684083  55.5116993   3.0681673  26.8554083
  64.9056993   2.0631673  21.0584083  65.5716993   2.6041673  21.2184083
  64.5606993   2.3741673  20.3194083  64.9526993   2.1891673  20.9734083
  65.2186993  10.1291673  16.8654083  65.0446993   9.4751673  17.4154083
  65.9316993   9.8581673  16.4424083  65.2986993   9.9921673  16.8844083
  53.6396993   7.4281673  13.8924083  53.3956993   7.1211673  14.6724083
  53.6066993   6.7251673  13.3764083  53.5986993   7.2791673  13.9314083
  56.4586993   5.6731673  12.6354083  55.6406993   5.4051673  12.7754083
  56.4306993   6.5251673  12.8204083  56.3336993   5.7601673  12.6834083
  62.8936993   7.5821673  24.5564083  63.0996993   7.8831673  25.3484083
  62.8326993   8.3041673  24.0714083  62.9146993   7.7331673  24.6014083
  62.4276993  11.7961673  28.8024083  61.6746993  11.7781673  28.3614083
  62.5956993  12.6481673  28.8864083  62.3416993  11.9191673  28.7494083
  67.7056993   6.2211673  24.0144083  67.6736993   5.3591673  23.8794083
  67.0126993   6.5231673  23.5804083  67.5986993   6.1381673  23.9304083
  56.0996993  11.4191673  28.2204083  56.1406993  11.5451673  29.0834083
  56.7506993  10.8591673  28.0644083  56.2016993  11.3551673  28.3254083
  65.8106993   9.4811673  22.8114083  66.3376993   9.3981673  22.1204083
  65.4196993   8.7031673  22.8654083  65.8306993   9.3541673  22.7174083
  53.6926993   9.8021673  29.5804083  54.2876993  10.2331673  30.0524083
  53.3286993  10.4261673  29.0914083  53.7266993   9.9581673  29.5774083
  51.6196993   7.7911673  26.5094083  51.0456993   8.2071673  27.0184083
  52.3526993   8.2561673  26.6044083  51.6436993   7.9211673  26.5984083
  63.6536993   2.5641673  16.0744083  63.7216993   1.7141673  16.2554083
  62.8306993   2.6501673  15.7964083  63.5416993   2.4511673  16.0604083
  53.4056993  11.0581673  15.2844083  53.2606993  11.2141673  14.4384083
  54.2716993  11.1371673  15.3624083  53.5126993  11.0931673  15.1714083
  57.5726993   3.4551673  15.0124083  57.6726993   3.5941673  14.1574083
  58.3906993   3.3951673  15.3084083  57.7076993   3.4661673  14.9294083
  66.7326993  11.5191673  12.4924083  67.3696993  11.3851673  13.0734083
  66.3916993  10.7251673  12.3754083  66.7766993  11.3821673  12.5604083
  66.9276993   3.9371673  29.2254083  67.5616993   3.7671673  29.7994083
  67.3446993   4.3401673  28.5734083  67.0826993   3.9721673  29.2144083
  62.8076993   7.7841673  14.8144083  62.5566993   7.6561673  15.6404083
  62.4906993   7.0891673  14.3934083  62.7236993   7.6631673  14.8744083
  64.3386993   4.0481673  30.5804083  65.2096993   4.0121673  30.5444083
  64.1196993   4.4681673  29.8484083  64.4356993   4.1041673  30.4674083
  54.0926993   9.8731673  21.7614083  54.0136993   9.0631673  21.4454083
  53.6486993  10.3601673  21.1894083  54.0156993   9.8251673  21.6304083
  59.6936993   5.9921673  14.2444083  60.4106993   5.6451673  13.8884083
  59.6596993   6.7921673  13.8964083  59.7946993   6.0591673  14.1404083
  51.6646993  12.1171673  25.3424083  52.1576993  12.0611673  26.0604083
  51.8526993  11.3841673  24.9074083  51.7656993  12.0001673  25.3844083
  50.7206993   8.4241673   4.8651673  50.8496993   8.1441673   5.6811673
  50.1106993   7.8831673   4.5561673  50.6496993   8.3031673   4.9401673
  57.2946993   5.9491673   9.9321673  57.0586993   5.9461673  10.7721673
  56.5466993   5.8011673   9.5081673  57.1486993   5.9261673   9.9931673
  57.2766993   9.1411673   7.1951673  57.4146993   9.9011673   6.7881673
  58.0676993   8.7761673   7.2221673  57.4136993   9.2001673   7.1391673
  63.1226993  10.9501673   5.2771673  63.8666993  11.4061673   5.2671673
  63.0016993  10.7361673   4.4401673  63.2146993  10.9861673   5.1521673
  55.1246993  11.6441673   6.4471673  55.4166993  11.5771673   7.2671673
  54.4986993  11.0391673   6.4021673  55.0756993  11.5451673   6.5621673
  62.3766993   8.1351673   8.9811673  62.3426993   8.5171673   9.7651673
  63.2306993   8.0931673   8.8101673  62.4976993   8.1851673   9.0721673
  53.1176993   9.8061673   5.5691673  52.4196993   9.2981673   5.6951673
  53.3776993   9.6011673   4.7611673  53.0526993   9.7011673   5.4681673
  60.8286993  11.2991673   6.4791673  61.5966993  11.2191673   6.0731673
  60.2456993  11.1781673   5.8411673  60.8556993  11.2691673   6.3251673
  54.4786993   8.6571673   8.1361673  55.3196993   8.7201673   7.9141673
  54.4416993   9.0541673   8.9121673  54.5976993   8.7251673   8.2181673
  56.4416993   4.1681673   2.8851673  56.6136993   3.9581673   3.7141673
  55.7866993   3.6341673   2.6691673  56.3706993   4.0581673   2.9761673
  57.1916993   4.1061673   5.4751673  57.2446993   4.9531673   5.6771673
  56.9066993   3.7361673   6.2121673  57.1576993   4.1761673   5.6131673
  63.3686993   4.8011673   4.6051673  62.8546993   4.3891673   5.1761673
  63.2426993   5.6451673   4.7861673  63.2746993   4.8651673   4.7161673
  50.0126993   8.4771673  11.6861673  50.7686993   8.8261673  11.9441673
  50.1896993   7.6241673  11.6291673  50.1506993   8.4021673  11.7161673
  68.8556993   9.7491673   8.9861673  68.1736993  10.0591673   8.5391673
  68.4866993   9.2911673   9.6311673  68.6996993   9.7271673   9.0151673
  54.7236993   6.4701673   3.3851673  55.1906993   6.7591673   4.0631673
  55.2956993   5.9921673   2.9311673  54.8776993   6.4421673   3.4181673
  66.6896993  10.1311673   7.0761673  66.0186993  10.6451673   7.2941673
  66.7526993  10.2311673   6.2121673  66.5996993  10.2221673   6.9811673
  58.6856993  10.8801673   4.6721673  58.4086993  10.2391673   4.1491673
  58.4776993  11.6061673   4.2341673  58.6146993  10.8931673   4.5301673
  52.3846993   3.4581673  10.8391673  52.3476993   3.9591673  10.1251673
  52.7156993   2.7061673  10.5441673  52.4276993   3.4201673  10.6901673
  63.9876993   5.6631673   9.0971673  64.4716993   6.3811673   9.1951673
  64.3816993   5.2361673   8.4461673  64.1176993   5.7061673   9.0151673
  58.2836993   8.5081673  10.2741673  58.6376993   8.3301673  11.0511673
  57.8476993   7.7791673  10.0751673  58.2716993   8.3741673  10.3601673
  62.4616993   9.3601673   3.0111673  61.8586993   9.0641673   2.4541673
  63.0066993   9.8121673   2.5021673  62.4526993   9.3831673   2.8531673
  62.4746993   6.2111673   2.4111673  61.6776993   6.4351673   2.6851673
  62.7326993   5.6171673   2.9961673  62.3946993   6.1561673   2.5381673
  65.7346993   4.2091673   7.2571673  65.7896993   4.3341673   6.3951673
  66.4876993   4.5291673   7.5591673  65.8536993   4.2741673   7.1741673
  61.9256993   9.5581673  11.5341673  62.0896993   9.8411673  12.3431673
  62.1886993  10.2191673  11.0291673  61.9886993   9.6981673  11.5791673
  61.4656993   4.0151673   6.8571673  61.3106993   4.6251673   7.4611673
  61.9996993   3.4571673   7.2631673  61.5216993   4.0231673   7.0061673
  65.0756993   6.7441673   3.3841673  64.5966993   7.0421673   2.7181673
  64.7196993   5.9681673   3.5621673  64.9526993   6.6731673   3.3121673
  59.0726993   4.4621673   1.9461673  58.2256993   4.2681673   2.0271673
  59.3966993   4.2971673   2.7391673  58.9946993   4.4091673   2.0751673
  52.9206993   4.1551673   4.2621673  53.6426993   4.6431673   4.2251673
  52.6506993   4.1251673   3.4331673  52.9876993   4.2231673   4.1341673
  66.0066993   3.6861673   4.5031673  65.9996993   2.9101673   4.9011673
  65.1656993   3.9201673   4.4961673  65.8816993   3.6061673   4.5611673
  52.3156993   5.2071673   8.5401673  51.8946993   4.6891673   7.9791673
  51.9636993   5.9931673   8.3971673  52.2016993   5.2471673   8.4361673
  67.2626993   3.7571673   1.9401673  66.9766993   4.1581673   2.6601673
  68.1226993   3.6951673   2.0671673  67.3476993   3.8071673   2.0651673
  68.3936993   9.3901673   2.4691673  68.6836993   9.6471673   1.6881673
  69.0886993   9.4861673   2.9881673  68.5396993   9.4421673   2.4301673
  68.3826993   2.1111673  11.6561673  68.3306993   1.7701673  10.8551673
  69.1196993   2.5781673  11.6341673  68.4836993   2.1301673  11.5341673
  67.9206993   5.7871673   7.8621673  68.5486993   5.2381673   7.6061673
  67.8596993   6.3521673   7.2001673  68.0046993   5.7901673   7.7261673
  57.0546993   7.0181673   5.1581673  56.7566993   7.6101673   5.7251673
  57.1096993   7.4601673   4.4091673  57.0186993   7.1711673   5.1311673
  55.0336993   5.9681673   8.5561673  54.2276993   5.6781673   8.7231673
  54.9446993   6.8361673   8.5621673  54.9016993   6.0531673   8.5811673
  59.5706993   3.4411673   4.6491673  60.0466993   3.8151673   5.2771673
  58.7476993   3.5751673   4.9081673  59.5196993   3.5161673   4.7801673
  57.0176993   9.0621673   3.2661673  56.3936993   9.6441673   3.0841673
  57.2656993   8.7761673   2.4801673  56.9616993   9.1061673   3.1231673
  61.3266993   5.6961673  10.2551673  62.0836993   5.9821673   9.9291673
  60.7796993   5.7481673   9.5771673  61.3576993   5.7461673  10.1061673
  65.2356993   8.2461673   8.7591673  65.5816993   8.5161673   9.5131673
  65.5296993   8.8281673   8.1791673  65.3306993   8.3721673   8.7851673
  59.6706993  10.7111673   9.1461673  60.1486993  10.1111673   8.7301673
  59.3196993  10.2681673   9.8111673  59.6896993  10.5571673   9.1831673
  59.7296993   5.9301673   8.1661673  58.9346993   5.8661673   8.5171673
  59.8006993   6.7771673   7.9711673  59.6226993   6.0451673   8.1891673
  55.5596993  12.1371673   3.4831673  55.5706993  12.1961673   4.3531673
  55.1346993  11.3901673   3.3331673  55.4986993  12.0351673   3.5891673
  60.2186993   8.5771673   7.2741673  60.9056993   8.4631673   7.7991673
  60.3526993   9.3681673   6.9301673  60.3396993   8.6771673   7.3011673
  52.3236993  11.6351673   8.9251673  51.6696993  11.0661673   9.0231673
  51.9486993  12.4081673   9.0761673  52.1716993  11.6651673   8.9621673
  60.8416993   3.0411673  10.8481673  61.1646993   3.7271673  10.4161673
  60.1376993   3.3641673  11.2501673  60.7846993   3.1901673  10.8431673
  63.9256993  11.4151673   1.7771673  63.4746993  12.0581673   2.1561673
  64.6336993  11.3361673   2.2821673  63.9636993  11.4981673   1.9081673
  60.6266993   6.5051673   4.7071673  59.9326993   6.9071673   5.0501673
  61.3036993   6.9381673   5.0461673  60.6236993   6.6281673   4.8081673
  66.0036993   9.0981673  11.2871673  66.7796993   8.7081673  11.3701673
  65.5346993   8.7621673  11.9421673  66.0486993   8.9911673  11.3961673
  50.8666993   3.7171673   6.5531673  51.1866993   3.9361673   5.7721673
  50.7666993   2.8521673   6.4981673  50.8986993   3.6221673   6.4301673
  55.6296993   3.0091673   7.9381673  55.2336993   3.7831673   8.0131673
  55.2236993   2.6361673   7.2621673  55.5116993   3.0681673   7.8491673
  62.8936993   7.5821673   5.5501673  63.0996993   7.8831673   6.3421673
  62.8326993   8.3041673   5.0651673  62.9146993   7.7331673   5.5951673
  62.4276993  11.7961673   9.7961673  61.6746993  11.7781673   9.3551673
  62.5956993  12.6481673   9.8801673  62.3416993  11.9191673   9.7431673
  67.7056993   6.2211673   5.0081673  67.6736993   5.3591673   4.8731673
  67.0126993   6.5231673   4.5741673  67.5986993   6.1381673   4.9241673
  56.0996993  11.4191673   9.2141673  56.1406993  11.5451673  10.0771673
  56.7506993  10.8591673   9.0581673  56.2016993  11.3551673   9.3191673
  65.8106993   9.4811673   3.8051673  66.3376993   9.3981673   3.1141673
  65.4196993   8.7031673   3.8591673  65.8306993   9.3541673   3.7111673
  53.6926993   9.8021673  10.5741673  54.2876993  10.2331673  11.0461673
  53.3286993  10.4261673  10.0851673  53.7266993   9.9581673  10.5711673
  51.6196993   7.7911673   7.5031673  51.0456993   8.2071673   8.0121673
  52.3526993   8.2561673   7.5981673  51.6436993   7.9211673   7.5921673
  66.9276993   3.9371673  10.2191673  67.5616993   3.7671673  10.7931673
  67.3446993   4.3401673   9.5671673  67.0826993   3.9721673  10.2081673
  64.3386993   4.0481673  11.5741673  65.2096993   4.0121673  11.5381673
  64.1196993   4.4681673  10.8421673  64.4356993   4.1041673  11.4611673
  54.0926993   9.8731673   2.7551673  54.0136993   9.0631673   2.4391673
  53.6486993  10.3601673   2.1831673  54.0156993   9.8251673   2.6241673
  51.6646993  12.1171673   6.3361673  52.1576993  12.0611673   7.0541673
  51.8526993  11.3841673   5.9011673  51.7656993  12.0001673   6.3781673
  42.2378553  68.5455993  74.5081313  41.9928553  69.0335993  73.8281313
  43.1008553  68.4725993  74.4081313  42.3288553  68.6065993  74.3931313
  31.6588553  73.3935993  71.1421313  30.8808553  73.5555993  70.7821313
  31.6978553  72.5225993  71.1641313  31.5498553  73.2885993  71.0921313
  34.7978553  78.6565993  69.8141313  34.4058553  78.2855993  69.1281313
  34.7178553  78.0585993  70.4431313  34.7278553  78.5135993  69.8051313
  44.7178553  76.5285993  75.8551313  44.7978553  76.5325993  74.9861313
  44.1338553  75.8965993  76.0041313  44.6428553  76.4355993  75.7491313
  38.7068553  69.6325993  73.6631313  38.6368553  70.3095993  73.1171313
  39.4478553  69.2445993  73.4141313  38.8058553  69.6755993  73.5451313
  33.3018553  76.8575993  75.0921313  32.8398553  76.4655993  74.4651313
  34.0018553  76.3445993  75.1841313  33.3368553  76.7245993  75.0131313
  35.3028553  74.9575993  75.1151313  36.1198553  74.7705993  75.3581313
  34.8258553  74.3435993  75.5111313  35.3528553  74.8395993  75.2101313
  35.8998553  70.0515993  74.3811313  35.6038553  70.5525993  73.7311313
  36.7668553  70.1295993  74.3241313  35.9838553  70.1375993  74.2771313
  38.8788553  69.1935993  76.6041313  38.9518553  70.0535993  76.7331313
  38.8408553  69.1185993  75.7361313  38.8838553  69.3095993  76.4951313
  43.5518553  72.1195993  68.9031313  43.1018553  72.8005993  69.2101313
  43.6658553  71.6155993  69.6061313  43.5028553  72.1455993  69.0521313
  31.7578553  74.6185993  78.1051313  31.5018553  75.4495993  78.0301313
  31.0938553  74.2355993  78.5221313  31.6218553  74.6845993  78.1561313
  48.9458553  72.0925993  75.1981313  48.5998553  72.7705993  75.6241313
  48.3098553  71.4945993  75.2141313  48.8008553  72.1045993  75.2631313
  41.0688553  73.7345993  74.8191313  41.3558553  73.5025993  74.0291313
  41.8008553  73.8135993  75.2881313  41.2188553  73.7115993  74.7721313
  41.7908553  74.0735993  69.9401313  42.0718553  74.8615993  70.1891313
  41.0148553  74.2385993  69.5771313  41.7178553  74.2145993  69.9231313
  44.1568553  70.1405993  70.8101313  44.6968553  69.4585993  70.8861313
  44.2188553  70.5385993  71.5841313  44.2458553  70.0985993  70.9361313
  32.1108553  71.3085993  73.3791313  31.9968553  70.4445993  73.4101313
  31.6358553  71.6025993  74.0491313  32.0238553  71.2245993  73.4821313
  41.4148553  72.5165993  72.1241313  40.9068553  71.8545993  71.8701313
  41.4668553  73.0205993  71.4141313  41.3478553  72.4935993  71.9821313
  41.4148553  69.4575993  72.0151313  40.9598553  69.0555993  71.3891313
  42.1878553  69.6125993  71.6401313  41.4618553  69.4215993  71.8671313
  40.0128553  71.8245993  76.5371313  40.0868553  72.3925993  75.8791313
  40.1338553  72.3165993  77.2471313  40.0408553  71.9815993  76.5451313
  34.6208553  67.6475993  74.8851313  35.1568553  68.3355993  74.8751313
  34.6238553  67.3735993  74.0571313  34.6998553  67.7085993  74.7611313
  45.0608553  67.9385993  75.2611313  45.1098553  67.6205993  76.0721313
  45.3838553  67.2945993  74.7681313  45.1158553  67.7965993  75.3081313
  35.0688553  71.4575993  76.5391313  35.3408553  71.0275993  75.8311313
  34.8928553  70.8215993  77.1101313  35.0828553  71.3005993  76.5191313
  45.6518553  75.6895993  70.3421313  45.4318553  76.4205993  69.9201313
  45.2038553  75.7405993  71.0891313  45.5528553  75.8045993  70.3901313
  49.8388553  70.5505993  69.7951313  49.1768553  69.9825993  69.8181313
  49.6458553  71.0625993  69.1151313  49.7128553  70.5425993  69.6981313
  31.4828553  77.2185993  72.7461313  31.2978553  76.3795993  72.8981313
  32.1418553  77.1825993  72.1761313  31.5528553  77.0895993  72.6841313
  47.8408553  70.1085993  72.0741313  48.5868553  69.7015993  72.2731313
  48.1038553  70.8235993  71.6491313  47.9898553  70.1545993  72.0411313
  44.2948553  72.3965993  77.1471313  44.6388553  72.5485993  77.9341313
  43.8418553  71.6585993  77.2601313  44.2788553  72.3095993  77.2801313
  38.7708553  71.6165993  71.6041313  38.7688553  71.4995993  70.7391313
  38.5898553  72.4645993  71.6961313  38.7438553  71.7245993  71.4901313
  35.1238553  74.4485993  71.2381313  34.9958553  74.0005993  71.9761313
  34.5418553  74.1065993  70.6861313  35.0188553  74.3315993  71.2661313
  35.2908553  76.2785993  77.8371313  34.5098553  76.2195993  77.4541313
  35.3628553  75.5265993  78.2741313  35.1858553  76.1595993  77.8451313
  43.8088553  71.6975993  73.2121313  44.2988553  72.4145993  73.1351313
  43.0188553  71.9585993  72.9491313  43.7648553  71.8415993  73.1621313
  42.5798553  76.3365993  71.2111313  42.5718553  77.0585993  70.7211313
  41.9408553  76.4715993  71.7881313  42.4848553  76.4635993  71.2241313
  37.1728553  68.6785993  70.8721313  37.2698553  68.5715993  71.7331313
  36.4648553  69.1845993  70.8071313  37.0828553  68.7375993  70.9901313
  34.2948553  76.9855993  72.1151313  34.6188553  76.2065993  71.8931313
  34.9408553  77.3535993  72.5701313  34.4378553  76.9245993  72.1491313
  31.2918553  68.6465993  73.0831313  31.4208553  67.9385993  72.5911313
  30.9248553  68.3285993  73.8081313  31.2568553  68.4945993  73.1181313
  40.9848553  76.3275993  73.5401313  41.0438553  76.9775993  74.1191313
  40.7958553  75.6315993  74.0311313  40.9658553  76.3205993  73.6981313
  35.4808553  70.8445993  70.0521313  34.9698553  70.8975993  69.3461313
  36.2648553  71.0845993  69.7561313  35.5208553  70.8875993  69.9041313
  40.2078553  78.3745993  77.9711313  39.3608553  78.1805993  78.0521313
  40.5318553  78.2095993  78.7641313  40.1298553  78.3215993  78.1001313
  37.2858553  73.2385993  77.0221313  38.1318553  73.0485993  77.1201313
  36.9158553  72.4615993  76.8841313  37.3558553  73.0955993  77.0161313
  32.1068553  74.5765993  73.6771313  32.5958553  74.2845993  74.3381313
  32.2358553  73.9835993  73.0501313  32.1978553  74.4455993  73.6821313
  36.6318553  76.0105993  69.1631313  36.0218553  75.6055993  69.6371313
  36.2458553  76.1285993  68.3901313  36.4848553  75.9675993  69.1191313
  48.3978553  77.6695993  77.9651313  48.1118553  78.0705993  78.6851313
  49.2578553  77.6075993  78.0921313  48.4828553  77.7195993  78.0901313
  38.0868553  74.4715993  71.8731313  38.3588553  75.2975993  71.9401313
  37.2238553  74.5465993  71.7771313  37.9998553  74.6045993  71.8681313
  31.5668553  70.4415993  78.4091313  31.6108553  70.7855993  77.6081313
  32.3218553  70.6785993  78.7761313  31.6848553  70.5275993  78.3451313
  46.6158553  73.7395993  76.1351313  45.8708553  73.4165993  76.4531313
  46.6178553  74.5655993  76.4151313  46.5058553  73.8135993  76.2231313
  48.2338553  74.3045993  70.1231313  48.6118553  74.9815993  69.7231313
  47.3918553  74.5285993  70.1541313  48.1648553  74.4375993  70.0681313
  39.7468553  77.7505993  69.2061313  38.9418553  77.5735993  68.9211313
  39.7138553  78.6015993  69.3981313  39.6228553  77.8495993  69.1931313
  45.9288553  73.9035993  73.4981313  46.1358553  73.7025993  74.3221313
  46.6848553  74.1715993  73.1561313  46.0708553  73.9135993  73.5691313
  46.9508553  69.9865993  74.9721313  46.2368553  69.5155993  75.1431313
  46.7888553  70.3275993  74.1861313  46.8218553  69.9675993  74.8811313
  47.3938553  77.9305993  73.3521313  47.8698553  77.2015993  73.3041313
  46.5728553  77.6445993  73.2761313  47.3428553  77.7805993  73.3331313
  34.8528553  71.9445993  72.6631313  34.9788553  71.6155993  71.8651313
  34.0408553  71.6955993  72.8621313  34.7518553  71.8595993  72.5751313
  48.1638553  75.0435993  72.7941313  48.2668553  74.9855993  71.9301313
  48.9048553  74.7115993  73.1121313  48.2888553  74.9865993  72.7131313
  33.4578553  73.5655993  69.1961313  32.7858553  73.5795993  69.7521313
  33.5528553  72.7175993  69.0121313  33.3728553  73.4425993  69.2511313
  42.1388553  70.1795993  76.7861313  41.4388553  70.6975993  76.7301313
  42.1768553  69.7995993  76.0021313  42.0408553  70.2005993  76.6621313
  46.0408553  75.9755993  78.0771313  46.7068553  76.5165993  78.2371313
  45.6958553  76.2865993  77.3381313  46.0878553  76.1015993  77.9921313
  39.5958553  68.2275993  69.6181313  39.6738553  68.4745993  68.7851313
  38.8528553  68.6045993  69.8761313  39.4978553  68.3195993  69.5331313
  42.8188553  74.6455993  76.5311313  43.3698553  74.0385993  76.8311313
  42.3938553  74.9085993  77.2461313  42.8378553  74.5945993  76.6801313
  33.0668553  73.2955993  76.0171313  32.6988553  73.5975993  76.7481313
  33.6008553  72.6665993  76.3011313  33.0908553  73.2475993  76.1671313
  44.7888553  76.4765993  73.0931313  44.8568553  75.6265993  73.2741313
  43.9658553  76.5625993  72.8151313  44.6768553  76.3635993  73.0791313
  38.7078553  77.3675993  72.0311313  38.8078553  77.5065993  71.1761313
  39.5258553  77.3075993  72.3271313  38.8428553  77.3785993  71.9481313
  42.2378553  68.5455993  55.5018903  41.9928553  69.0335993  54.8218903
  43.1008553  68.4725993  55.4018903  42.3288553  68.6065993  55.3868903
  42.0468553  75.4615993  60.1728903  41.5228553  76.0575993  60.5358903
  42.4438553  75.0935993  60.8568903  42.0278553  75.4955993  60.3278903
  31.6588553  73.3935993  52.1358903  30.8808553  73.5555993  51.7758903
  31.6978553  72.5225993  52.1578903  31.5498553  73.2885993  52.0858903
  34.7978553  78.6565993  50.8078903  34.4058553  78.2855993  50.1218903
  34.7178553  78.0585993  51.4368903  34.7278553  78.5135993  50.7988903
  44.7178553  76.5285993  56.8488903  44.7978553  76.5325993  55.9798903
  44.1338553  75.8965993  56.9978903  44.6428553  76.4355993  56.7428903
  38.7068553  69.6325993  54.6568903  38.6368553  70.3095993  54.1108903
  39.4478553  69.2445993  54.4078903  38.8058553  69.6755993  54.5388903
  33.3018553  76.8575993  56.0858903  32.8398553  76.4655993  55.4588903
  34.0018553  76.3445993  56.1778903  33.3368553  76.7245993  56.0068903
  37.8098553  72.4675993  61.4328903  38.4878553  72.4855993  60.8838903
  37.7648553  71.6315993  61.6778903  37.9028553  72.3465993  61.3878903
  35.3028553  74.9575993  56.1088903  36.1198553  74.7705993  56.3518903
  34.8258553  74.3435993  56.5048903  35.3528553  74.8395993  56.2038903
  41.5318553  74.5185993  66.2688903  40.6838553  74.4195993  66.0908903
  41.5608553  75.2635993  66.7228903  41.4108553  74.6145993  66.3098903
  35.8998553  70.0515993  55.3748903  35.6038553  70.5525993  54.7248903
  36.7668553  70.1295993  55.3178903  35.9838553  70.1375993  55.2708903
  46.0898553  67.4785993  65.3828903  45.9318553  68.2475993  65.0008903
  45.3178553  67.2585993  65.7268903  45.9518553  67.5595993  65.3778903
  38.8788553  69.1935993  57.5978903  38.9518553  70.0535993  57.7268903
  38.8408553  69.1185993  56.7298903  38.8838553  69.3095993  57.4888903
  43.5518553  72.1195993  49.8968903  43.1018553  72.8005993  50.2038903
  43.6658553  71.6155993  50.5998903  43.5028553  72.1455993  50.0458903
  31.7578553  74.6185993  59.0988903  31.5018553  75.4495993  59.0238903
  31.0938553  74.2355993  59.5158903  31.6218553  74.6845993  59.1498903
  34.7868553  69.4355993  59.5898903  34.2658553  68.8075993  59.2818903
  35.3778553  68.9985993  60.0608903  34.7978553  69.2775993  59.6138903
  38.0928553  71.5685993  68.8878903  38.2098553  71.1145993  68.1518903
  38.3808553  72.3665993  68.6848903  38.1528553  71.6195993  68.7488903
  48.9458553  72.0925993  56.1918903  48.5998553  72.7705993  56.6178903
  48.3098553  71.4945993  56.2078903  48.8008553  72.1045993  56.2568903
  33.8258553  71.1655993  67.8718903  33.0478553  70.7755993  67.7998903
  34.3168553  70.7535993  67.2808903  33.7828553  71.0465993  67.7738903
  40.4748553  68.8085993  67.0398903  40.6528553  67.9995993  66.7648903
  40.3318553  69.2495993  66.3008903  40.4798553  68.7545993  66.8898903
  41.0688553  73.7345993  55.8128903  41.3558553  73.5025993  55.0228903
  41.8008553  73.8135993  56.2818903  41.2188553  73.7115993  55.7658903
  41.7908553  74.0735993  50.9338903  42.0718553  74.8615993  51.1828903
  41.0148553  74.2385993  50.5708903  41.7178553  74.2145993  50.9168903
  48.6208553  70.4155993  61.5608903  49.3778553  70.4875993  61.1328903
  48.6838553  69.6425993  61.9598903  48.7418553  70.3125993  61.5558903
  31.1738553  71.7135993  65.4578903  31.1698553  72.3005993  66.1038903
  31.7678553  72.0255993  64.9008903  31.2608553  71.8465993  65.4708903
  44.1568553  70.1405993  51.8038903  44.6968553  69.4585993  51.8798903
  44.2188553  70.5385993  52.5778903  44.2458553  70.0985993  51.9298903
  32.1108553  71.3085993  54.3728903  31.9968553  70.4445993  54.4038903
  31.6358553  71.6025993  55.0428903  32.0238553  71.2245993  54.4758903
  41.4148553  72.5165993  53.1178903  40.9068553  71.8545993  52.8638903
  41.4668553  73.0205993  52.4078903  41.3478553  72.4935993  52.9758903
  41.4148553  69.4575993  53.0088903  40.9598553  69.0555993  52.3828903
  42.1878553  69.6125993  52.6338903  41.4618553  69.4215993  52.8608903
  40.0128553  71.8245993  57.5308903  40.0868553  72.3925993  56.8728903
  40.1338553  72.3165993  58.2408903  40.0408553  71.9815993  57.5388903
  34.6208553  67.6475993  55.8788903  35.1568553  68.3355993  55.8688903
  34.6238553  67.3735993  55.0508903  34.6998553  67.7085993  55.7548903
  37.5768553  78.0805993  59.9038903  37.7488553  77.8705993  60.7328903
  36.9218553  77.5465993  59.6878903  37.5058553  77.9705993  59.9948903
  43.8048553  71.9945993  63.4188903  43.7098553  72.3135993  64.2248903
  43.2118553  71.3555993  63.3808903  43.7028553  71.9465993  63.5328903
  47.5248553  72.1745993  64.5628903  48.2968553  71.9495993  64.8998903
  47.0498553  72.3915993  65.2628903  47.5688553  72.1735993  64.7158903
  35.0688553  71.4575993  57.5328903  35.3408553  71.0275993  56.8248903
  34.8928553  70.8215993  58.1038903  35.0828553  71.3005993  57.5128903
  33.2098553  72.5595993  60.6148903  34.0528553  72.7795993  60.5718903
  32.8208553  73.1325993  60.0838903  33.2768553  72.6765993  60.5298903
  45.6518553  75.6895993  51.3358903  45.4318553  76.4205993  50.9138903
  45.2038553  75.7405993  52.0828903  45.5528553  75.8045993  51.3838903
  49.8388553  70.5505993  50.7888903  49.1768553  69.9825993  50.8118903
  49.6458553  71.0625993  50.1088903  49.7128553  70.5425993  50.6918903
  39.0638553  74.2445993  68.7328903  38.5798553  74.8215993  69.1748903
  39.0358553  74.5395993  67.9118903  38.9878553  74.3735993  68.6768903
  50.1618553  74.9285993  63.3448903  50.3768553  74.1285993  63.0688903
  49.3118553  74.9885993  63.1558903  50.0678553  74.8195993  63.2758903
  31.4828553  77.2185993  53.7398903  31.2978553  76.3795993  53.8918903
  32.1418553  77.1825993  53.1698903  31.5528553  77.0895993  53.6778903
  47.8408553  70.1085993  53.0678903  48.5868553  69.7015993  53.2668903
  48.1038553  70.8235993  52.6428903  47.9898553  70.1545993  53.0348903
  44.2948553  72.3965993  58.1408903  44.6388553  72.5485993  58.9278903
  43.8418553  71.6585993  58.2538903  44.2788553  72.3095993  58.2738903
  38.7708553  71.6165993  52.5978903  38.7688553  71.4995993  51.7328903
  38.5898553  72.4645993  52.6898903  38.7438553  71.7245993  52.4838903
  34.6388553  75.0515993  67.0918903  34.1028553  74.5455993  67.5598903
  34.6588553  74.6615993  66.3118903  34.5618553  74.9185993  67.0458903
  35.1238553  74.4485993  52.2318903  34.9958553  74.0005993  52.9698903
  34.5418553  74.1065993  51.6798903  35.0188553  74.3315993  52.2598903
  35.2908553  76.2785993  58.8308903  34.5098553  76.2195993  58.4478903
  35.3628553  75.5265993  59.2678903  35.1858553  76.1595993  58.8388903
  35.7208553  76.0155993  62.2988903  35.7458553  75.3405993  61.7478903
  35.0748553  76.5115993  61.9868903  35.6298553  75.9885993  62.1718903
  45.6158553  73.7285993  60.6948903  44.9538553  74.0565993  61.1578903
  45.8028553  74.3625993  60.1258903  45.5458553  73.8705993  60.6788903
  42.2608553  69.6345993  64.1238903  42.4098553  68.8095993  63.8808903
  42.6398553  69.6895993  64.9078903  42.3388553  69.5205993  64.2038903
  43.8088553  71.6975993  54.2058903  44.2988553  72.4145993  54.1288903
  43.0188553  71.9585993  53.9428903  43.7648553  71.8415993  54.1558903
  33.5198553  77.3705993  67.8578903  33.4828553  77.8715993  67.1438903
  33.8508553  76.6185993  67.5628903  33.5628553  77.3325993  67.7088903
  40.3908553  73.1675993  59.9308903  40.8708553  73.8665993  60.1388903
  40.7638553  72.5205993  60.3818903  40.5168553  73.1755993  60.0278903
  42.5798553  76.3365993  52.2048903  42.5718553  77.0585993  51.7148903
  41.9408553  76.4715993  52.7818903  42.4848553  76.4635993  52.2178903
  46.8698553  78.1215993  64.2758903  46.9248553  78.2465993  63.4138903
  47.6228553  78.4415993  64.5778903  46.9888553  78.1865993  64.1928903
  47.9018553  68.4195993  67.2628903  47.2648553  68.0195993  66.8208903
  47.9278553  67.9885993  68.0208903  47.8118553  68.2975993  67.3088903
  34.2948553  76.9855993  53.1088903  34.6188553  76.2065993  52.8868903
  34.9408553  77.3535993  53.5638903  34.4378553  76.9245993  53.1428903
  42.6008553  77.9275993  63.8758903  42.4458553  78.5375993  64.4798903
  43.1348553  77.3695993  64.2818903  42.6568553  77.9355993  64.0248903
  31.2918553  68.6465993  54.0768903  31.4208553  67.9385993  53.5848903
  30.9248553  68.3285993  54.8018903  31.2568553  68.4945993  54.1118903
  40.9848553  76.3275993  54.5338903  41.0438553  76.9775993  55.1128903
  40.7958553  75.6315993  55.0248903  40.9658553  76.3205993  54.6918903
  35.4808553  70.8445993  51.0458903  34.9698553  70.8975993  50.3398903
  36.2648553  71.0845993  50.7498903  35.5208553  70.8875993  50.8978903
  40.2078553  78.3745993  58.9648903  39.3608553  78.1805993  59.0458903
  40.5318553  78.2095993  59.7578903  40.1298553  78.3215993  59.0938903
  34.0558553  78.0675993  61.2808903  34.7778553  78.5555993  61.2438903
  33.7858553  78.0375993  60.4518903  34.1228553  78.1355993  61.1528903
  37.2858553  73.2385993  58.0158903  38.1318553  73.0485993  58.1138903
  36.9158553  72.4615993  57.8778903  37.3558553  73.0955993  58.0098903
  32.1068553  74.5765993  54.6708903  32.5958553  74.2845993  55.3318903
  32.2358553  73.9835993  54.0438903  32.1978553  74.4455993  54.6758903
  47.1418553  77.5985993  61.5218903  47.1348553  76.8225993  61.9198903
  46.3008553  77.8325993  61.5148903  47.0168553  77.5185993  61.5798903
  36.6318553  76.0105993  50.1568903  36.0218553  75.6055993  50.6308903
  36.2458553  76.1285993  49.3838903  36.4848553  75.9675993  50.1128903
  48.3978553  77.6695993  58.9588903  48.1118553  78.0705993  59.6788903
  49.2578553  77.6075993  59.0858903  48.4828553  77.7195993  59.0838903
  38.0868553  74.4715993  52.8668903  38.3588553  75.2975993  52.9338903
  37.2238553  74.5465993  52.7708903  37.9998553  74.6045993  52.8618903
  46.0598553  71.5935993  67.4988903  45.5348553  72.0525993  68.0228903
  45.6988553  70.7985993  67.4928903  45.9288553  71.5435993  67.5748903
  31.5668553  70.4415993  59.4028903  31.6108553  70.7855993  58.6018903
  32.3218553  70.6785993  59.7698903  31.6848553  70.5275993  59.3388903
  44.5518553  75.1625993  67.5748903  44.6248553  75.2665993  68.4378903
  43.9178553  75.7205993  67.3538903  44.4688553  75.2605993  67.6698903
  46.8198553  75.4815993  65.9398903  47.1388553  76.2675993  66.1428903
  46.4498553  75.2115993  66.6828903  46.8128553  75.5575993  66.0798903
  46.6158553  73.7395993  57.1288903  45.8708553  73.4165993  57.4468903
  46.6178553  74.5655993  57.4088903  46.5058553  73.8135993  57.2168903
  49.5178553  76.0235993  68.6748903  49.4658553  75.6825993  67.8738903
  50.2548553  76.4905993  68.6528903  49.6188553  76.0425993  68.5528903
  45.5278553  70.0695993  64.5898903  46.2718553  70.5215993  64.5268903
  44.9618553  70.5395993  64.1208903  45.5548553  70.2065993  64.5118903
  40.7058553  77.3535993  61.6678903  41.1818553  77.7275993  62.2958903
  39.8828553  77.4875993  61.9268903  40.6548553  77.4285993  61.7988903
  37.4158553  72.9565993  64.4088903  37.5768553  72.2125993  64.8358903
  37.3708553  72.7075993  63.5738903  37.4328553  72.8095993  64.3488903
  46.8128553  68.0495993  62.2598903  46.5328553  68.8745993  62.2158903
  47.5288553  68.1025993  62.7558903  46.8778553  68.1795993  62.3268903
  39.1678553  68.7645993  64.2888903  39.8728553  69.0845993  63.8868903
  39.4088553  67.9575993  64.5158903  39.3068553  68.6925993  64.2628903
  48.2338553  74.3045993  51.1168903  48.6118553  74.9815993  50.7168903
  47.3918553  74.5285993  51.1478903  48.1648553  74.4375993  51.0618903
  39.7468553  77.7505993  50.1998903  38.9418553  77.5735993  49.9148903
  39.7138553  78.6015993  50.3918903  39.6228553  77.8495993  50.1868903
  35.6768553  73.8175993  60.3498903  36.1168553  73.7145993  59.6038903
  36.2218553  73.5045993  60.9548903  35.8218553  73.7565993  60.3288903
  43.6928553  72.9195993  65.9418903  43.0448553  73.3895993  66.2898903
  44.2578553  72.8305993  66.6008903  43.6808553  72.9755993  66.0908903
  43.3808553  74.4565993  62.2398903  43.6828553  74.8765993  62.9428903
  43.4168553  73.6165993  62.4718903  43.4308553  74.3945993  62.3778903
  45.9288553  73.9035993  54.4918903  46.1358553  73.7025993  55.3158903
  46.6848553  74.1715993  54.1498903  46.0708553  73.9135993  54.5628903
  39.2238553  68.8025993  60.3968903  38.3978553  68.6535993  60.6338903
  39.1838553  68.8375993  59.5258903  39.0958553  68.7855993  60.3028903
  46.9508553  69.9865993  55.9658903  46.2368553  69.5155993  56.1368903
  46.7888553  70.3275993  55.1798903  46.8218553  69.9675993  55.8748903
  47.3938553  77.9305993  54.3458903  47.8698553  77.2015993  54.2978903
  46.5728553  77.6445993  54.2698903  47.3428553  77.7805993  54.3268903
  31.7888553  69.2005993  66.4318903  31.6488553  69.9955993  66.1008903
  31.0028553  68.9575993  66.7208903  31.6518553  69.2825993  66.4258903
  34.8528553  71.9445993  53.6568903  34.9788553  71.6155993  52.8588903
  34.0408553  71.6955993  53.8558903  34.7518553  71.8595993  53.5688903
  49.5298553  75.0985993  66.1038903  48.6748553  74.9765993  66.2298903
  49.6828553  74.7035993  65.3408903  49.4258553  75.0215993  66.0098903
  44.0428553  75.7635993  64.6798903  43.7878553  75.0445993  65.1018903
  44.8638553  75.8795993  64.9498903  44.1268553  75.6745993  64.7818903
  41.9768553  76.9535993  67.8668903  42.2998553  77.6395993  67.4348903
  41.2728553  77.2765993  68.2688903  41.9198553  77.1025993  67.8618903
  34.8298553  73.9555993  64.0728903  35.2048553  74.5745993  63.5858903
  35.5038553  73.4815993  64.3578903  34.9848553  73.9775993  64.0428903
  32.6048553  72.4035993  63.3478903  32.6818553  72.2345993  62.4948903
  33.3508553  72.8095993  63.5448903  32.7258553  72.4385993  63.2508903
  48.1638553  75.0435993  53.7878903  48.2668553  74.9855993  52.9238903
  48.9048553  74.7115993  54.1058903  48.2888553  74.9865993  53.7068903
  35.1588553  69.8135993  65.7588903  35.0778553  68.9695993  65.9648903
  34.8448553  69.8575993  64.9458903  35.1008553  69.6955993  65.6688903
  47.2658553  75.1895993  63.1438903  47.2638553  74.3265993  63.2678903
  47.3328553  75.5135993  63.9508903  47.2758553  75.1095993  63.2808903
  32.0018553  77.6295993  63.5718903  32.3218553  77.8485993  62.7908903
  31.9018553  76.7645993  63.5168903  32.0338553  77.5345993  63.4488903
  33.4578553  73.5655993  50.1898903  32.7858553  73.5795993  50.7458903
  33.5528553  72.7175993  50.0058903  33.3728553  73.4425993  50.2448903
  43.1448553  69.9895993  66.9258903  43.2368553  70.7015993  67.4198903
  42.5078553  69.5445993  67.3228903  43.0638553  70.0285993  67.0578903
  42.1388553  70.1795993  57.7798903  41.4388553  70.6975993  57.7238903
  42.1768553  69.7995993  56.9958903  42.0408553  70.2005993  57.6558903
  45.7368553  70.6955993  60.5798903  46.5918553  70.7945993  60.7248903
  45.3678553  71.2485993  61.1448903  45.8088553  70.7925993  60.6848903
  36.7648553  76.9215993  64.9568903  36.3688553  77.6955993  65.0318903
  36.3588553  76.5485993  64.2808903  36.6468553  76.9805993  64.8678903
  46.0408553  75.9755993  59.0708903  46.7068553  76.5165993  59.2308903
  45.6958553  76.2865993  58.3318903  46.0878553  76.1015993  58.9858903
  37.1938553  69.8985993  62.4068903  36.3298553  69.9825993  62.4868903
  37.4138553  69.3845993  63.0758903  37.0988553  69.8355993  62.5178903
  49.2118553  68.5335993  63.7358903  49.1598553  68.4895993  64.6058903
  49.8988553  68.0305993  63.5458903  49.3058553  68.4535993  63.8358903
  41.2968553  70.6465993  60.7808903  40.5598553  70.1925993  60.8938903
  41.8678553  70.2445993  61.3038903  41.2718553  70.5195993  60.8748903
  38.7998553  74.9755993  65.9848903  38.4778553  74.3995993  65.4148903
  38.4408553  75.7305993  65.7388903  38.6998553  75.0015993  65.8648903
  39.5958553  68.2275993  50.6118903  39.6738553  68.4745993  49.7788903
  38.8528553  68.6045993  50.8698903  39.4978553  68.3195993  50.5268903
  34.4138553  69.9815993  63.0548903  34.0708553  69.2145993  62.8208903
  33.7188553  70.5055993  63.1188903  34.2608553  69.9455993  63.0298903
  43.4598553  68.8375993  60.0318903  44.1298553  69.3815993  60.1588903
  42.9568553  69.2615993  59.4588903  43.4848553  68.9805993  59.9658903
  42.8188553  74.6455993  57.5248903  43.3698553  74.0385993  57.8248903
  42.3938553  74.9085993  58.2398903  42.8378553  74.5945993  57.6738903
  33.0668553  73.2955993  57.0108903  32.6988553  73.5975993  57.7418903
  33.6008553  72.6665993  57.2948903  33.0908553  73.2475993  57.1608903
  44.7888553  76.4765993  54.0868903  44.8568553  75.6265993  54.2678903
  43.9658553  76.5625993  53.8088903  44.6768553  76.3635993  54.0728903
  38.7078553  77.3675993  53.0248903  38.8078553  77.5065993  52.1698903
  39.5258553  77.3075993  53.3208903  38.8428553  77.3785993  52.9418903
  48.0628553  77.8495993  67.2378903  48.6968553  77.6795993  67.8118903
  48.4798553  78.2525993  66.5858903  48.2178553  77.8845993  67.2268903
  48.6878553  72.4135993  67.9758903  48.4918553  73.0575993  68.5308903
  47.9658553  71.9235993  67.9678903  48.5528553  72.4365993  68.0568903
  48.5868553  73.3545993  60.9468903  47.7538553  73.6045993  60.8748903
  48.5308553  72.5145993  61.1758903  48.4558553  73.2675993  60.9698903
  37.8468553  70.3425993  66.1408903  38.0808553  69.7665993  65.5278903
  37.0048553  70.1615993  66.2818903  37.7568553  70.2305993  66.0708903
  45.4738553  77.9605993  68.5928903  46.3448553  77.9245993  68.5568903
  45.2548553  78.3805993  67.8608903  45.5708553  78.0165993  68.4798903
  42.2378553  68.5455993  36.4956493  41.9928553  69.0335993  35.8156493
  43.1008553  68.4725993  36.3956493  42.3288553  68.6065993  36.3806493
  42.0468553  75.4615993  41.1666493  41.5228553  76.0575993  41.5296493
  42.4438553  75.0935993  41.8506493  42.0278553  75.4955993  41.3216493
  31.6588553  73.3935993  33.1296493  30.8808553  73.5555993  32.7696493
  31.6978553  72.5225993  33.1516493  31.5498553  73.2885993  33.0796493
  34.7978553  78.6565993  31.8016493  34.4058553  78.2855993  31.1156493
  34.7178553  78.0585993  32.4306493  34.7278553  78.5135993  31.7926493
  44.7178553  76.5285993  37.8426493  44.7978553  76.5325993  36.9736493
  44.1338553  75.8965993  37.9916493  44.6428553  76.4355993  37.7366493
  38.7068553  69.6325993  35.6506493  38.6368553  70.3095993  35.1046493
  39.4478553  69.2445993  35.4016493  38.8058553  69.6755993  35.5326493
  33.3018553  76.8575993  37.0796493  32.8398553  76.4655993  36.4526493
  34.0018553  76.3445993  37.1716493  33.3368553  76.7245993  37.0006493
  37.8098553  72.4675993  42.4266493  38.4878553  72.4855993  41.8776493
  37.7648553  71.6315993  42.6716493  37.9028553  72.3465993  42.3816493
  35.3028553  74.9575993  37.1026493  36.1198553  74.7705993  37.3456493
  34.8258553  74.3435993  37.4986493  35.3528553  74.8395993  37.1976493
  41.5318553  74.5185993  47.2626493  40.6838553  74.4195993  47.0846493
  41.5608553  75.2635993  47.7166493  41.4108553  74.6145993  47.3036493
  35.8998553  70.0515993  36.3686493  35.6038553  70.5525993  35.7186493
  36.7668553  70.1295993  36.3116493  35.9838553  70.1375993  36.2646493
  46.0898553  67.4785993  46.3766493  45.9318553  68.2475993  45.9946493
  45.3178553  67.2585993  46.7206493  45.9518553  67.5595993  46.3716493
  38.8788553  69.1935993  38.5916493  38.9518553  70.0535993  38.7206493
  38.8408553  69.1185993  37.7236493  38.8838553  69.3095993  38.4826493
  43.5518553  72.1195993  30.8906493  43.1018553  72.8005993  31.1976493
  43.6658553  71.6155993  31.5936493  43.5028553  72.1455993  31.0396493
  31.7578553  74.6185993  40.0926493  31.5018553  75.4495993  40.0176493
  31.0938553  74.2355993  40.5096493  31.6218553  74.6845993  40.1436493
  34.7868553  69.4355993  40.5836493  34.2658553  68.8075993  40.2756493
  35.3778553  68.9985993  41.0546493  34.7978553  69.2775993  40.6076493
  38.0928553  71.5685993  49.8816493  38.2098553  71.1145993  49.1456493
  38.3808553  72.3665993  49.6786493  38.1528553  71.6195993  49.7426493
  48.9458553  72.0925993  37.1856493  48.5998553  72.7705993  37.6116493
  48.3098553  71.4945993  37.2016493  48.8008553  72.1045993  37.2506493
  33.8258553  71.1655993  48.8656493  33.0478553  70.7755993  48.7936493
  34.3168553  70.7535993  48.2746493  33.7828553  71.0465993  48.7676493
  40.4748553  68.8085993  48.0336493  40.6528553  67.9995993  47.7586493
  40.3318553  69.2495993  47.2946493  40.4798553  68.7545993  47.8836493
  41.0688553  73.7345993  36.8066493  41.3558553  73.5025993  36.0166493
  41.8008553  73.8135993  37.2756493  41.2188553  73.7115993  36.7596493
  41.7908553  74.0735993  31.9276493  42.0718553  74.8615993  32.1766493
  41.0148553  74.2385993  31.5646493  41.7178553  74.2145993  31.9106493
  48.6208553  70.4155993  42.5546493  49.3778553  70.4875993  42.1266493
  48.6838553  69.6425993  42.9536493  48.7418553  70.3125993  42.5496493
  31.1738553  71.7135993  46.4516493  31.1698553  72.3005993  47.0976493
  31.7678553  72.0255993  45.8946493  31.2608553  71.8465993  46.4646493
  44.1568553  70.1405993  32.7976493  44.6968553  69.4585993  32.8736493
  44.2188553  70.5385993  33.5716493  44.2458553  70.0985993  32.9236493
  32.1108553  71.3085993  35.3666493  31.9968553  70.4445993  35.3976493
  31.6358553  71.6025993  36.0366493  32.0238553  71.2245993  35.4696493
  41.4148553  72.5165993  34.1116493  40.9068553  71.8545993  33.8576493
  41.4668553  73.0205993  33.4016493  41.3478553  72.4935993  33.9696493
  41.4148553  69.4575993  34.0026493  40.9598553  69.0555993  33.3766493
  42.1878553  69.6125993  33.6276493  41.4618553  69.4215993  33.8546493
  40.0128553  71.8245993  38.5246493  40.0868553  72.3925993  37.8666493
  40.1338553  72.3165993  39.2346493  40.0408553  71.9815993  38.5326493
  34.6208553  67.6475993  36.8726493  35.1568553  68.3355993  36.8626493
  34.6238553  67.3735993  36.0446493  34.6998553  67.7085993  36.7486493
  37.5768553  78.0805993  40.8976493  37.7488553  77.8705993  41.7266493
  36.9218553  77.5465993  40.6816493  37.5058553  77.9705993  40.9886493
  43.8048553  71.9945993  44.4126493  43.7098553  72.3135993  45.2186493
  43.2118553  71.3555993  44.3746493  43.7028553  71.9465993  44.5266493
  45.0608553  67.9385993  37.2486493  45.1098553  67.6205993  38.0596493
  45.3838553  67.2945993  36.7556493  45.1158553  67.7965993  37.2956493
  47.5248553  72.1745993  45.5566493  48.2968553  71.9495993  45.8936493
  47.0498553  72.3915993  46.2566493  47.5688553  72.1735993  45.7096493
  35.0688553  71.4575993  38.5266493  35.3408553  71.0275993  37.8186493
  34.8928553  70.8215993  39.0976493  35.0828553  71.3005993  38.5066493
  33.2098553  72.5595993  41.6086493  34.0528553  72.7795993  41.5656493
  32.8208553  73.1325993  41.0776493  33.2768553  72.6765993  41.5236493
  45.6518553  75.6895993  32.3296493  45.4318553  76.4205993  31.9076493
  45.2038553  75.7405993  33.0766493  45.5528553  75.8045993  32.3776493
  49.8388553  70.5505993  31.7826493  49.1768553  69.9825993  31.8056493
  49.6458553  71.0625993  31.1026493  49.7128553  70.5425993  31.6856493
  39.0638553  74.2445993  49.7266493  38.5798553  74.8215993  50.1686493
  39.0358553  74.5395993  48.9056493  38.9878553  74.3735993  49.6706493
  50.1618553  74.9285993  44.3386493  50.3768553  74.1285993  44.0626493
  49.3118553  74.9885993  44.1496493  50.0678553  74.8195993  44.2696493
  31.4828553  77.2185993  34.7336493  31.2978553  76.3795993  34.8856493
  32.1418553  77.1825993  34.1636493  31.5528553  77.0895993  34.6716493
  47.8408553  70.1085993  34.0616493  48.5868553  69.7015993  34.2606493
  48.1038553  70.8235993  33.6366493  47.9898553  70.1545993  34.0286493
  44.2948553  72.3965993  39.1346493  44.6388553  72.5485993  39.9216493
  43.8418553  71.6585993  39.2476493  44.2788553  72.3095993  39.2676493
  38.7708553  71.6165993  33.5916493  38.7688553  71.4995993  32.7266493
  38.5898553  72.4645993  33.6836493  38.7438553  71.7245993  33.4776493
  34.6388553  75.0515993  48.0856493  34.1028553  74.5455993  48.5536493
  34.6588553  74.6615993  47.3056493  34.5618553  74.9185993  48.0396493
  35.1238553  74.4485993  33.2256493  34.9958553  74.0005993  33.9636493
  34.5418553  74.1065993  32.6736493  35.0188553  74.3315993  33.2536493
  35.2908553  76.2785993  39.8246493  34.5098553  76.2195993  39.4416493
  35.3628553  75.5265993  40.2616493  35.1858553  76.1595993  39.8326493
  35.7208553  76.0155993  43.2926493  35.7458553  75.3405993  42.7416493
  35.0748553  76.5115993  42.9806493  35.6298553  75.9885993  43.1656493
  45.6158553  73.7285993  41.6886493  44.9538553  74.0565993  42.1516493
  45.8028553  74.3625993  41.1196493  45.5458553  73.8705993  41.6726493
  42.2608553  69.6345993  45.1176493  42.4098553  68.8095993  44.8746493
  42.6398553  69.6895993  45.9016493  42.3388553  69.5205993  45.1976493
  43.8088553  71.6975993  35.1996493  44.2988553  72.4145993  35.1226493
  43.0188553  71.9585993  34.9366493  43.7648553  71.8415993  35.1496493
  33.5198553  77.3705993  48.8516493  33.4828553  77.8715993  48.1376493
  33.8508553  76.6185993  48.5566493  33.5628553  77.3325993  48.7026493
  40.3908553  73.1675993  40.9246493  40.8708553  73.8665993  41.1326493
  40.7638553  72.5205993  41.3756493  40.5168553  73.1755993  41.0216493
  42.5798553  76.3365993  33.1986493  42.5718553  77.0585993  32.7086493
  41.9408553  76.4715993  33.7756493  42.4848553  76.4635993  33.2116493
  37.1728553  68.6785993  32.8596493  37.2698553  68.5715993  33.7206493
  36.4648553  69.1845993  32.7946493  37.0828553  68.7375993  32.9776493
  46.8698553  78.1215993  45.2696493  46.9248553  78.2465993  44.4076493
  47.6228553  78.4415993  45.5716493  46.9888553  78.1865993  45.1866493
  47.9018553  68.4195993  48.2566493  47.2648553  68.0195993  47.8146493
  47.9278553  67.9885993  49.0146493  47.8118553  68.2975993  48.3026493
  34.2948553  76.9855993  34.1026493  34.6188553  76.2065993  33.8806493
  34.9408553  77.3535993  34.5576493  34.4378553  76.9245993  34.1366493
  42.6008553  77.9275993  44.8696493  42.4458553  78.5375993  45.4736493
  43.1348553  77.3695993  45.2756493  42.6568553  77.9355993  45.0186493
  31.2918553  68.6465993  35.0706493  31.4208553  67.9385993  34.5786493
  30.9248553  68.3285993  35.7956493  31.2568553  68.4945993  35.1056493
  40.9848553  76.3275993  35.5276493  41.0438553  76.9775993  36.1066493
  40.7958553  75.6315993  36.0186493  40.9658553  76.3205993  35.6856493
  35.4808553  70.8445993  32.0396493  34.9698553  70.8975993  31.3336493
  36.2648553  71.0845993  31.7436493  35.5208553  70.8875993  31.8916493
  40.2078553  78.3745993  39.9586493  39.3608553  78.1805993  40.0396493
  40.5318553  78.2095993  40.7516493  40.1298553  78.3215993  40.0876493
  34.0558553  78.0675993  42.2746493  34.7778553  78.5555993  42.2376493
  33.7858553  78.0375993  41.4456493  34.1228553  78.1355993  42.1466493
  37.2858553  73.2385993  39.0096493  38.1318553  73.0485993  39.1076493
  36.9158553  72.4615993  38.8716493  37.3558553  73.0955993  39.0036493
  32.1068553  74.5765993  35.6646493  32.5958553  74.2845993  36.3256493
  32.2358553  73.9835993  35.0376493  32.1978553  74.4455993  35.6696493
  47.1418553  77.5985993  42.5156493  47.1348553  76.8225993  42.9136493
  46.3008553  77.8325993  42.5086493  47.0168553  77.5185993  42.5736493
  36.6318553  76.0105993  31.1506493  36.0218553  75.6055993  31.6246493
  36.2458553  76.1285993  30.3776493  36.4848553  75.9675993  31.1066493
  48.3978553  77.6695993  39.9526493  48.1118553  78.0705993  40.6726493
  49.2578553  77.6075993  40.0796493  48.4828553  77.7195993  40.0776493
  38.0868553  74.4715993  33.8606493  38.3588553  75.2975993  33.9276493
  37.2238553  74.5465993  33.7646493  37.9998553  74.6045993  33.8556493
  46.0598553  71.5935993  48.4926493  45.5348553  72.0525993  49.0166493
  45.6988553  70.7985993  48.4866493  45.9288553  71.5435993  48.5686493
  31.5668553  70.4415993  40.3966493  31.6108553  70.7855993  39.5956493
  32.3218553  70.6785993  40.7636493  31.6848553  70.5275993  40.3326493
  44.5518553  75.1625993  48.5686493  44.6248553  75.2665993  49.4316493
  43.9178553  75.7205993  48.3476493  44.4688553  75.2605993  48.6636493
  46.8198553  75.4815993  46.9336493  47.1388553  76.2675993  47.1366493
  46.4498553  75.2115993  47.6766493  46.8128553  75.5575993  47.0736493
  46.6158553  73.7395993  38.1226493  45.8708553  73.4165993  38.4406493
  46.6178553  74.5655993  38.4026493  46.5058553  73.8135993  38.2106493
  49.5178553  76.0235993  49.6686493  49.4658553  75.6825993  48.8676493
  50.2548553  76.4905993  49.6466493  49.6188553  76.0425993  49.5466493
  45.5278553  70.0695993  45.5836493  46.2718553  70.5215993  45.5206493
  44.9618553  70.5395993  45.1146493  45.5548553  70.2065993  45.5056493
  40.7058553  77.3535993  42.6616493  41.1818553  77.7275993  43.2896493
  39.8828553  77.4875993  42.9206493  40.6548553  77.4285993  42.7926493
  37.4158553  72.9565993  45.4026493  37.5768553  72.2125993  45.8296493
  37.3708553  72.7075993  44.5676493  37.4328553  72.8095993  45.3426493
  46.8128553  68.0495993  43.2536493  46.5328553  68.8745993  43.2096493
  47.5288553  68.1025993  43.7496493  46.8778553  68.1795993  43.3206493
  39.1678553  68.7645993  45.2826493  39.8728553  69.0845993  44.8806493
  39.4088553  67.9575993  45.5096493  39.3068553  68.6925993  45.2566493
  48.2338553  74.3045993  32.1106493  48.6118553  74.9815993  31.7106493
  47.3918553  74.5285993  32.1416493  48.1648553  74.4375993  32.0556493
  39.7468553  77.7505993  31.1936493  38.9418553  77.5735993  30.9086493
  39.7138553  78.6015993  31.3856493  39.6228553  77.8495993  31.1806493
  35.6768553  73.8175993  41.3436493  36.1168553  73.7145993  40.5976493
  36.2218553  73.5045993  41.9486493  35.8218553  73.7565993  41.3226493
  43.6928553  72.9195993  46.9356493  43.0448553  73.3895993  47.2836493
  44.2578553  72.8305993  47.5946493  43.6808553  72.9755993  47.0846493
  43.3808553  74.4565993  43.2336493  43.6828553  74.8765993  43.9366493
  43.4168553  73.6165993  43.4656493  43.4308553  74.3945993  43.3716493
  45.9288553  73.9035993  35.4856493  46.1358553  73.7025993  36.3096493
  46.6848553  74.1715993  35.1436493  46.0708553  73.9135993  35.5566493
  39.2238553  68.8025993  41.3906493  38.3978553  68.6535993  41.6276493
  39.1838553  68.8375993  40.5196493  39.0958553  68.7855993  41.2966493
  46.9508553  69.9865993  36.9596493  46.2368553  69.5155993  37.1306493
  46.7888553  70.3275993  36.1736493  46.8218553  69.9675993  36.8686493
  47.3938553  77.9305993  35.3396493  47.8698553  77.2015993  35.2916493
  46.5728553  77.6445993  35.2636493  47.3428553  77.7805993  35.3206493
  31.7888553  69.2005993  47.4256493  31.6488553  69.9955993  47.0946493
  31.0028553  68.9575993  47.7146493  31.6518553  69.2825993  47.4196493
  34.8528553  71.9445993  34.6506493  34.9788553  71.6155993  33.8526493
  34.0408553  71.6955993  34.8496493  34.7518553  71.8595993  34.5626493
  49.5298553  75.0985993  47.0976493  48.6748553  74.9765993  47.2236493
  49.6828553  74.7035993  46.3346493  49.4258553  75.0215993  47.0036493
  44.0428553  75.7635993  45.6736493  43.7878553  75.0445993  46.0956493
  44.8638553  75.8795993  45.9436493  44.1268553  75.6745993  45.7756493
  41.9768553  76.9535993  48.8606493  42.2998553  77.6395993  48.4286493
  41.2728553  77.2765993  49.2626493  41.9198553  77.1025993  48.8556493
  34.8298553  73.9555993  45.0666493  35.2048553  74.5745993  44.5796493
  35.5038553  73.4815993  45.3516493  34.9848553  73.9775993  45.0366493
  32.6048553  72.4035993  44.3416493  32.6818553  72.2345993  43.4886493
  33.3508553  72.8095993  44.5386493  32.7258553  72.4385993  44.2446493
  48.1638553  75.0435993  34.7816493  48.2668553  74.9855993  33.9176493
  48.9048553  74.7115993  35.0996493  48.2888553  74.9865993  34.7006493
  35.1588553  69.8135993  46.7526493  35.0778553  68.9695993  46.9586493
  34.8448553  69.8575993  45.9396493  35.1008553  69.6955993  46.6626493
  47.2658553  75.1895993  44.1376493  47.2638553  74.3265993  44.2616493
  47.3328553  75.5135993  44.9446493  47.2758553  75.1095993  44.2746493
  32.0018553  77.6295993  44.5656493  32.3218553  77.8485993  43.7846493
  31.9018553  76.7645993  44.5106493  32.0338553  77.5345993  44.4426493
  33.4578553  73.5655993  31.1836493  32.7858553  73.5795993  31.7396493
  33.5528553  72.7175993  30.9996493  33.3728553  73.4425993  31.2386493
  43.1448553  69.9895993  47.9196493  43.2368553  70.7015993  48.4136493
  42.5078553  69.5445993  48.3166493  43.0638553  70.0285993  48.0516493
  42.1388553  70.1795993  38.7736493  41.4388553  70.6975993  38.7176493
  42.1768553  69.7995993  37.9896493  42.0408553  70.2005993  38.6496493
  45.7368553  70.6955993  41.5736493  46.5918553  70.7945993  41.7186493
  45.3678553  71.2485993  42.1386493  45.8088553  70.7925993  41.6786493
  36.7648553  76.9215993  45.9506493  36.3688553  77.6955993  46.0256493
  36.3588553  76.5485993  45.2746493  36.6468553  76.9805993  45.8616493
  46.0408553  75.9755993  40.0646493  46.7068553  76.5165993  40.2246493
  45.6958553  76.2865993  39.3256493  46.0878553  76.1015993  39.9796493
  37.1938553  69.8985993  43.4006493  36.3298553  69.9825993  43.4806493
  37.4138553  69.3845993  44.0696493  37.0988553  69.8355993  43.5116493
  49.2118553  68.5335993  44.7296493  49.1598553  68.4895993  45.5996493
  49.8988553  68.0305993  44.5396493  49.3058553  68.4535993  44.8296493
  41.2968553  70.6465993  41.7746493  40.5598553  70.1925993  41.8876493
  41.8678553  70.2445993  42.2976493  41.2718553  70.5195993  41.8686493
  38.7998553  74.9755993  46.9786493  38.4778553  74.3995993  46.4086493
  38.4408553  75.7305993  46.7326493  38.6998553  75.0015993  46.8586493
  39.5958553  68.2275993  31.6056493  39.6738553  68.4745993  30.7726493
  38.8528553  68.6045993  31.8636493  39.4978553  68.3195993  31.5206493
  34.4138553  69.9815993  44.0486493  34.0708553  69.2145993  43.8146493
  33.7188553  70.5055993  44.1126493  34.2608553  69.9455993  44.0236493
  43.4598553  68.8375993  41.0256493  44.1298553  69.3815993  41.1526493
  42.9568553  69.2615993  40.4526493  43.4848553  68.9805993  40.9596493
  42.8188553  74.6455993  38.5186493  43.3698553  74.0385993  38.8186493
  42.3938553  74.9085993  39.2336493  42.8378553  74.5945993  38.6676493
  33.0668553  73.2955993  38.0046493  32.6988553  73.5975993  38.7356493
  33.6008553  72.6665993  38.2886493  33.0908553  73.2475993  38.1546493
  44.7888553  76.4765993  35.0806493  44.8568553  75.6265993  35.2616493
  43.9658553  76.5625993  34.8026493  44.6768553  76.3635993  35.0666493
  38.7078553  77.3675993  34.0186493  38.8078553  77.5065993  33.1636493
  39.5258553  77.3075993  34.3146493  38.8428553  77.3785993  33.9356493
  48.0628553  77.8495993  48.2316493  48.6968553  77.6795993  48.8056493
  48.4798553  78.2525993  47.5796493  48.2178553  77.8845993  48.2206493
  48.6878553  72.4135993  48.9696493  48.4918553  73.0575993  49.5246493
  47.9658553  71.9235993  48.9616493  48.5528553  72.4365993  49.0506493
  48.5868553  73.3545993  41.9406493  47.7538553  73.6045993  41.8686493
  48.5308553  72.5145993  42.1696493  48.4558553  73.2675993  41.9636493
  37.8468553  70.3425993  47.1346493  38.0808553  69.7665993  46.5216493
  37.0048553  70.1615993  47.2756493  37.7568553  70.2305993  47.0646493
  45.4738553  77.9605993  49.5866493  46.3448553  77.9245993  49.5506493
  45.2548553  78.3805993  48.8546493  45.5708553  78.0165993  49.4736493
  42.2378553  68.5455993  17.4894083  41.9928553  69.0335993  16.8094083
  43.1008553  68.4725993  17.3894083  42.3288553  68.6065993  17.3744083
  42.0468553  75.4615993  22.1604083  41.5228553  76.0575993  22.5234083
  42.4438553  75.0935993  22.8444083  42.0278553  75.4955993  22.3154083
  31.6588553  73.3935993  14.1234083  30.8808553  73.5555993  13.7634083
  31.6978553  72.5225993  14.1454083  31.5498553  73.2885993  14.0734083
  34.7978553  78.6565993  12.7954083  34.4058553  78.2855993  12.1094083
  34.7178553  78.0585993  13.4244083  34.7278553  78.5135993  12.7864083
  44.7178553  76.5285993  18.8364083  44.7978553  76.5325993  17.9674083
  44.1338553  75.8965993  18.9854083  44.6428553  76.4355993  18.7304083
  38.7068553  69.6325993  16.6444083  38.6368553  70.3095993  16.0984083
  39.4478553  69.2445993  16.3954083  38.8058553  69.6755993  16.5264083
  33.3018553  76.8575993  18.0734083  32.8398553  76.4655993  17.4464083
  34.0018553  76.3445993  18.1654083  33.3368553  76.7245993  17.9944083
  37.8098553  72.4675993  23.4204083  38.4878553  72.4855993  22.8714083
  37.7648553  71.6315993  23.6654083  37.9028553  72.3465993  23.3754083
  35.3028553  74.9575993  18.0964083  36.1198553  74.7705993  18.3394083
  34.8258553  74.3435993  18.4924083  35.3528553  74.8395993  18.1914083
  41.5318553  74.5185993  28.2564083  40.6838553  74.4195993  28.0784083
  41.5608553  75.2635993  28.7104083  41.4108553  74.6145993  28.2974083
  35.8998553  70.0515993  17.3624083  35.6038553  70.5525993  16.7124083
  36.7668553  70.1295993  17.3054083  35.9838553  70.1375993  17.2584083
  46.0898553  67.4785993  27.3704083  45.9318553  68.2475993  26.9884083
  45.3178553  67.2585993  27.7144083  45.9518553  67.5595993  27.3654083
  38.8788553  69.1935993  19.5854083  38.9518553  70.0535993  19.7144083
  38.8408553  69.1185993  18.7174083  38.8838553  69.3095993  19.4764083
  43.5518553  72.1195993  11.8844083  43.1018553  72.8005993  12.1914083
  43.6658553  71.6155993  12.5874083  43.5028553  72.1455993  12.0334083
  31.7578553  74.6185993  21.0864083  31.5018553  75.4495993  21.0114083
  31.0938553  74.2355993  21.5034083  31.6218553  74.6845993  21.1374083
  34.7868553  69.4355993  21.5774083  34.2658553  68.8075993  21.2694083
  35.3778553  68.9985993  22.0484083  34.7978553  69.2775993  21.6014083
  38.0928553  71.5685993  30.8754083  38.2098553  71.1145993  30.1394083
  38.3808553  72.3665993  30.6724083  38.1528553  71.6195993  30.7364083
  48.9458553  72.0925993  18.1794083  48.5998553  72.7705993  18.6054083
  48.3098553  71.4945993  18.1954083  48.8008553  72.1045993  18.2444083
  33.8258553  71.1655993  29.8594083  33.0478553  70.7755993  29.7874083
  34.3168553  70.7535993  29.2684083  33.7828553  71.0465993  29.7614083
  40.4748553  68.8085993  29.0274083  40.6528553  67.9995993  28.7524083
  40.3318553  69.2495993  28.2884083  40.4798553  68.7545993  28.8774083
  41.0688553  73.7345993  17.8004083  41.3558553  73.5025993  17.0104083
  41.8008553  73.8135993  18.2694083  41.2188553  73.7115993  17.7534083
  41.7908553  74.0735993  12.9214083  42.0718553  74.8615993  13.1704083
  41.0148553  74.2385993  12.5584083  41.7178553  74.2145993  12.9044083
  48.6208553  70.4155993  23.5484083  49.3778553  70.4875993  23.1204083
  48.6838553  69.6425993  23.9474083  48.7418553  70.3125993  23.5434083
  31.1738553  71.7135993  27.4454083  31.1698553  72.3005993  28.0914083
  31.7678553  72.0255993  26.8884083  31.2608553  71.8465993  27.4584083
  44.1568553  70.1405993  13.7914083  44.6968553  69.4585993  13.8674083
  44.2188553  70.5385993  14.5654083  44.2458553  70.0985993  13.9174083
  32.1108553  71.3085993  16.3604083  31.9968553  70.4445993  16.3914083
  31.6358553  71.6025993  17.0304083  32.0238553  71.2245993  16.4634083
  41.4148553  72.5165993  15.1054083  40.9068553  71.8545993  14.8514083
  41.4668553  73.0205993  14.3954083  41.3478553  72.4935993  14.9634083
  41.4148553  69.4575993  14.9964083  40.9598553  69.0555993  14.3704083
  42.1878553  69.6125993  14.6214083  41.4618553  69.4215993  14.8484083
  40.0128553  71.8245993  19.5184083  40.0868553  72.3925993  18.8604083
  40.1338553  72.3165993  20.2284083  40.0408553  71.9815993  19.5264083
  34.6208553  67.6475993  17.8664083  35.1568553  68.3355993  17.8564083
  34.6238553  67.3735993  17.0384083  34.6998553  67.7085993  17.7424083
  37.5768553  78.0805993  21.8914083  37.7488553  77.8705993  22.7204083
  36.9218553  77.5465993  21.6754083  37.5058553  77.9705993  21.9824083
  43.8048553  71.9945993  25.4064083  43.7098553  72.3135993  26.2124083
  43.2118553  71.3555993  25.3684083  43.7028553  71.9465993  25.5204083
  45.0608553  67.9385993  18.2424083  45.1098553  67.6205993  19.0534083
  45.3838553  67.2945993  17.7494083  45.1158553  67.7965993  18.2894083
  47.5248553  72.1745993  26.5504083  48.2968553  71.9495993  26.8874083
  47.0498553  72.3915993  27.2504083  47.5688553  72.1735993  26.7034083
  35.0688553  71.4575993  19.5204083  35.3408553  71.0275993  18.8124083
  34.8928553  70.8215993  20.0914083  35.0828553  71.3005993  19.5004083
  33.2098553  72.5595993  22.6024083  34.0528553  72.7795993  22.5594083
  32.8208553  73.1325993  22.0714083  33.2768553  72.6765993  22.5174083
  45.6518553  75.6895993  13.3234083  45.4318553  76.4205993  12.9014083
  45.2038553  75.7405993  14.0704083  45.5528553  75.8045993  13.3714083
  49.8388553  70.5505993  12.7764083  49.1768553  69.9825993  12.7994083
  49.6458553  71.0625993  12.0964083  49.7128553  70.5425993  12.6794083
  39.0638553  74.2445993  30.7204083  38.5798553  74.8215993  31.1624083
  39.0358553  74.5395993  29.8994083  38.9878553  74.3735993  30.6644083
  50.1618553  74.9285993  25.3324083  50.3768553  74.1285993  25.0564083
  49.3118553  74.9885993  25.1434083  50.0678553  74.8195993  25.2634083
  31.4828553  77.2185993  15.7274083  31.2978553  76.3795993  15.8794083
  32.1418553  77.1825993  15.1574083  31.5528553  77.0895993  15.6654083
  47.8408553  70.1085993  15.0554083  48.5868553  69.7015993  15.2544083
  48.1038553  70.8235993  14.6304083  47.9898553  70.1545993  15.0224083
  44.2948553  72.3965993  20.1284083  44.6388553  72.5485993  20.9154083
  43.8418553  71.6585993  20.2414083  44.2788553  72.3095993  20.2614083
  38.7708553  71.6165993  14.5854083  38.7688553  71.4995993  13.7204083
  38.5898553  72.4645993  14.6774083  38.7438553  71.7245993  14.4714083
  34.6388553  75.0515993  29.0794083  34.1028553  74.5455993  29.5474083
  34.6588553  74.6615993  28.2994083  34.5618553  74.9185993  29.0334083
  35.1238553  74.4485993  14.2194083  34.9958553  74.0005993  14.9574083
  34.5418553  74.1065993  13.6674083  35.0188553  74.3315993  14.2474083
  35.2908553  76.2785993  20.8184083  34.5098553  76.2195993  20.4354083
  35.3628553  75.5265993  21.2554083  35.1858553  76.1595993  20.8264083
  35.7208553  76.0155993  24.2864083  35.7458553  75.3405993  23.7354083
  35.0748553  76.5115993  23.9744083  35.6298553  75.9885993  24.1594083
  45.6158553  73.7285993  22.6824083  44.9538553  74.0565993  23.1454083
  45.8028553  74.3625993  22.1134083  45.5458553  73.8705993  22.6664083
  42.2608553  69.6345993  26.1114083  42.4098553  68.8095993  25.8684083
  42.6398553  69.6895993  26.8954083  42.3388553  69.5205993  26.1914083
  43.8088553  71.6975993  16.1934083  44.2988553  72.4145993  16.1164083
  43.0188553  71.9585993  15.9304083  43.7648553  71.8415993  16.1434083
  33.5198553  77.3705993  29.8454083  33.4828553  77.8715993  29.1314083
  33.8508553  76.6185993  29.5504083  33.5628553  77.3325993  29.6964083
  40.3908553  73.1675993  21.9184083  40.8708553  73.8665993  22.1264083
  40.7638553  72.5205993  22.3694083  40.5168553  73.1755993  22.0154083
  42.5798553  76.3365993  14.1924083  42.5718553  77.0585993  13.7024083
  41.9408553  76.4715993  14.7694083  42.4848553  76.4635993  14.2054083
  37.1728553  68.6785993  13.8534083  37.2698553  68.5715993  14.7144083
  36.4648553  69.1845993  13.7884083  37.0828553  68.7375993  13.9714083
  46.8698553  78.1215993  26.2634083  46.9248553  78.2465993  25.4014083
  47.6228553  78.4415993  26.5654083  46.9888553  78.1865993  26.1804083
  47.9018553  68.4195993  29.2504083  47.2648553  68.0195993  28.8084083
  47.9278553  67.9885993  30.0084083  47.8118553  68.2975993  29.2964083
  34.2948553  76.9855993  15.0964083  34.6188553  76.2065993  14.8744083
  34.9408553  77.3535993  15.5514083  34.4378553  76.9245993  15.1304083
  42.6008553  77.9275993  25.8634083  42.4458553  78.5375993  26.4674083
  43.1348553  77.3695993  26.2694083  42.6568553  77.9355993  26.0124083
  31.2918553  68.6465993  16.0644083  31.4208553  67.9385993  15.5724083
  30.9248553  68.3285993  16.7894083  31.2568553  68.4945993  16.0994083
  40.9848553  76.3275993  16.5214083  41.0438553  76.9775993  17.1004083
  40.7958553  75.6315993  17.0124083  40.9658553  76.3205993  16.6794083
  35.4808553  70.8445993  13.0334083  34.9698553  70.8975993  12.3274083
  36.2648553  71.0845993  12.7374083  35.5208553  70.8875993  12.8854083
  40.2078553  78.3745993  20.9524083  39.3608553  78.1805993  21.0334083
  40.5318553  78.2095993  21.7454083  40.1298553  78.3215993  21.0814083
  34.0558553  78.0675993  23.2684083  34.7778553  78.5555993  23.2314083
  33.7858553  78.0375993  22.4394083  34.1228553  78.1355993  23.1404083
  37.2858553  73.2385993  20.0034083  38.1318553  73.0485993  20.1014083
  36.9158553  72.4615993  19.8654083  37.3558553  73.0955993  19.9974083
  32.1068553  74.5765993  16.6584083  32.5958553  74.2845993  17.3194083
  32.2358553  73.9835993  16.0314083  32.1978553  74.4455993  16.6634083
  47.1418553  77.5985993  23.5094083  47.1348553  76.8225993  23.9074083
  46.3008553  77.8325993  23.5024083  47.0168553  77.5185993  23.5674083
  36.6318553  76.0105993  12.1444083  36.0218553  75.6055993  12.6184083
  36.2458553  76.1285993  11.3714083  36.4848553  75.9675993  12.1004083
  48.3978553  77.6695993  20.9464083  48.1118553  78.0705993  21.6664083
  49.2578553  77.6075993  21.0734083  48.4828553  77.7195993  21.0714083
  38.0868553  74.4715993  14.8544083  38.3588553  75.2975993  14.9214083
  37.2238553  74.5465993  14.7584083  37.9998553  74.6045993  14.8494083
  46.0598553  71.5935993  29.4864083  45.5348553  72.0525993  30.0104083
  45.6988553  70.7985993  29.4804083  45.9288553  71.5435993  29.5624083
  31.5668553  70.4415993  21.3904083  31.6108553  70.7855993  20.5894083
  32.3218553  70.6785993  21.7574083  31.6848553  70.5275993  21.3264083
  44.5518553  75.1625993  29.5624083  44.6248553  75.2665993  30.4254083
  43.9178553  75.7205993  29.3414083  44.4688553  75.2605993  29.6574083
  46.8198553  75.4815993  27.9274083  47.1388553  76.2675993  28.1304083
  46.4498553  75.2115993  28.6704083  46.8128553  75.5575993  28.0674083
  46.6158553  73.7395993  19.1164083  45.8708553  73.4165993  19.4344083
  46.6178553  74.5655993  19.3964083  46.5058553  73.8135993  19.2044083
  49.5178553  76.0235993  30.6624083  49.4658553  75.6825993  29.8614083
  50.2548553  76.4905993  30.6404083  49.6188553  76.0425993  30.5404083
  45.5278553  70.0695993  26.5774083  46.2718553  70.5215993  26.5144083
  44.9618553  70.5395993  26.1084083  45.5548553  70.2065993  26.4994083
  40.7058553  77.3535993  23.6554083  41.1818553  77.7275993  24.2834083
  39.8828553  77.4875993  23.9144083  40.6548553  77.4285993  23.7864083
  37.4158553  72.9565993  26.3964083  37.5768553  72.2125993  26.8234083
  37.3708553  72.7075993  25.5614083  37.4328553  72.8095993  26.3364083
  46.8128553  68.0495993  24.2474083  46.5328553  68.8745993  24.2034083
  47.5288553  68.1025993  24.7434083  46.8778553  68.1795993  24.3144083
  39.1678553  68.7645993  26.2764083  39.8728553  69.0845993  25.8744083
  39.4088553  67.9575993  26.5034083  39.3068553  68.6925993  26.2504083
  48.2338553  74.3045993  13.1044083  48.6118553  74.9815993  12.7044083
  47.3918553  74.5285993  13.1354083  48.1648553  74.4375993  13.0494083
  39.7468553  77.7505993  12.1874083  38.9418553  77.5735993  11.9024083
  39.7138553  78.6015993  12.3794083  39.6228553  77.8495993  12.1744083
  35.6768553  73.8175993  22.3374083  36.1168553  73.7145993  21.5914083
  36.2218553  73.5045993  22.9424083  35.8218553  73.7565993  22.3164083
  43.6928553  72.9195993  27.9294083  43.0448553  73.3895993  28.2774083
  44.2578553  72.8305993  28.5884083  43.6808553  72.9755993  28.0784083
  43.3808553  74.4565993  24.2274083  43.6828553  74.8765993  24.9304083
  43.4168553  73.6165993  24.4594083  43.4308553  74.3945993  24.3654083
  45.9288553  73.9035993  16.4794083  46.1358553  73.7025993  17.3034083
  46.6848553  74.1715993  16.1374083  46.0708553  73.9135993  16.5504083
  39.2238553  68.8025993  22.3844083  38.3978553  68.6535993  22.6214083
  39.1838553  68.8375993  21.5134083  39.0958553  68.7855993  22.2904083
  46.9508553  69.9865993  17.9534083  46.2368553  69.5155993  18.1244083
  46.7888553  70.3275993  17.1674083  46.8218553  69.9675993  17.8624083
  47.3938553  77.9305993  16.3334083  47.8698553  77.2015993  16.2854083
  46.5728553  77.6445993  16.2574083  47.3428553  77.7805993  16.3144083
  31.7888553  69.2005993  28.4194083  31.6488553  69.9955993  28.0884083
  31.0028553  68.9575993  28.7084083  31.6518553  69.2825993  28.4134083
  34.8528553  71.9445993  15.6444083  34.9788553  71.6155993  14.8464083
  34.0408553  71.6955993  15.8434083  34.7518553  71.8595993  15.5564083
  49.5298553  75.0985993  28.0914083  48.6748553  74.9765993  28.2174083
  49.6828553  74.7035993  27.3284083  49.4258553  75.0215993  27.9974083
  44.0428553  75.7635993  26.6674083  43.7878553  75.0445993  27.0894083
  44.8638553  75.8795993  26.9374083  44.1268553  75.6745993  26.7694083
  41.9768553  76.9535993  29.8544083  42.2998553  77.6395993  29.4224083
  41.2728553  77.2765993  30.2564083  41.9198553  77.1025993  29.8494083
  34.8298553  73.9555993  26.0604083  35.2048553  74.5745993  25.5734083
  35.5038553  73.4815993  26.3454083  34.9848553  73.9775993  26.0304083
  32.6048553  72.4035993  25.3354083  32.6818553  72.2345993  24.4824083
  33.3508553  72.8095993  25.5324083  32.7258553  72.4385993  25.2384083
  48.1638553  75.0435993  15.7754083  48.2668553  74.9855993  14.9114083
  48.9048553  74.7115993  16.0934083  48.2888553  74.9865993  15.6944083
  35.1588553  69.8135993  27.7464083  35.0778553  68.9695993  27.9524083
  34.8448553  69.8575993  26.9334083  35.1008553  69.6955993  27.6564083
  47.2658553  75.1895993  25.1314083  47.2638553  74.3265993  25.2554083
  47.3328553  75.5135993  25.9384083  47.2758553  75.1095993  25.2684083
  32.0018553  77.6295993  25.5594083  32.3218553  77.8485993  24.7784083
  31.9018553  76.7645993  25.5044083  32.0338553  77.5345993  25.4364083
  33.4578553  73.5655993  12.1774083  32.7858553  73.5795993  12.7334083
  33.5528553  72.7175993  11.9934083  33.3728553  73.4425993  12.2324083
  43.1448553  69.9895993  28.9134083  43.2368553  70.7015993  29.4074083
  42.5078553  69.5445993  29.3104083  43.0638553  70.0285993  29.0454083
  42.1388553  70.1795993  19.7674083  41.4388553  70.6975993  19.7114083
  42.1768553  69.7995993  18.9834083  42.0408553  70.2005993  19.6434083
  45.7368553  70.6955993  22.5674083  46.5918553  70.7945993  22.7124083
  45.3678553  71.2485993  23.1324083  45.8088553  70.7925993  22.6724083
  36.7648553  76.9215993  26.9444083  36.3688553  77.6955993  27.0194083
  36.3588553  76.5485993  26.2684083  36.6468553  76.9805993  26.8554083
  46.0408553  75.9755993  21.0584083  46.7068553  76.5165993  21.2184083
  45.6958553  76.2865993  20.3194083  46.0878553  76.1015993  20.9734083
  37.1938553  69.8985993  24.3944083  36.3298553  69.9825993  24.4744083
  37.4138553  69.3845993  25.0634083  37.0988553  69.8355993  24.5054083
  49.2118553  68.5335993  25.7234083  49.1598553  68.4895993  26.5934083
  49.8988553  68.0305993  25.5334083  49.3058553  68.4535993  25.8234083
  41.2968553  70.6465993  22.7684083  40.5598553  70.1925993  22.8814083
  41.8678553  70.2445993  23.2914083  41.2718553  70.5195993  22.8624083
  38.7998553  74.9755993  27.9724083  38.4778553  74.3995993  27.4024083
  38.4408553  75.7305993  27.7264083  38.6998553  75.0015993  27.8524083
  39.5958553  68.2275993  12.5994083  39.6738553  68.4745993  11.7664083
  38.8528553  68.6045993  12.8574083  39.4978553  68.3195993  12.5144083
  34.4138553  69.9815993  25.0424083  34.0708553  69.2145993  24.8084083
  33.7188553  70.5055993  25.1064083  34.2608553  69.9455993  25.0174083
  43.4598553  68.8375993  22.0194083  44.1298553  69.3815993  22.1464083
  42.9568553  69.2615993  21.4464083  43.4848553  68.9805993  21.9534083
  42.8188553  74.6455993  19.5124083  43.3698553  74.0385993  19.8124083
  42.3938553  74.9085993  20.2274083  42.8378553  74.5945993  19.6614083
  33.0668553  73.2955993  18.9984083  32.6988553  73.5975993  19.7294083
  33.6008553  72.6665993  19.2824083  33.0908553  73.2475993  19.1484083
  44.7888553  76.4765993  16.0744083  44.8568553  75.6265993  16.2554083
  43.9658553  76.5625993  15.7964083  44.6768553  76.3635993  16.0604083
  38.7078553  77.3675993  15.0124083  38.8078553  77.5065993  14.1574083
  39.5258553  77.3075993  15.3084083  38.8428553  77.3785993  14.9294083
  48.0628553  77.8495993  29.2254083  48.6968553  77.6795993  29.7994083
  48.4798553  78.2525993  28.5734083  48.2178553  77.8845993  29.2144083
  48.6878553  72.4135993  29.9634083  48.4918553  73.0575993  30.5184083
  47.9658553  71.9235993  29.9554083  48.5528553  72.4365993  30.0444083
  48.5868553  73.3545993  22.9344083  47.7538553  73.6045993  22.8624083
  48.5308553  72.5145993  23.1634083  48.4558553  73.2675993  22.9574083
  37.8468553  70.3425993  28.1284083  38.0808553  69.7665993  27.5154083
  37.0048553  70.1615993  28.2694083  37.7568553  70.2305993  28.0584083
  45.4738553  77.9605993  30.5804083  46.3448553  77.9245993  30.5444083
  45.2548553  78.3805993  29.8484083  45.5708553  78.0165993  30.4674083
  42.0468553  75.4615993   3.1541673  41.5228553  76.0575993   3.5171673
  42.4438553  75.0935993   3.8381673  42.0278553  75.4955993   3.3091673
  37.8098553  72.4675993   4.4141673  38.4878553  72.4855993   3.8651673
  37.7648553  71.6315993   4.6591673  37.9028553  72.3465993   4.3691673
  41.5318553  74.5185993   9.2501673  40.6838553  74.4195993   9.0721673
  41.5608553  75.2635993   9.7041673  41.4108553  74.6145993   9.2911673
  46.0898553  67.4785993   8.3641673  45.9318553  68.2475993   7.9821673
  45.3178553  67.2585993   8.7081673  45.9518553  67.5595993   8.3591673
  31.7578553  74.6185993   2.0801673  31.5018553  75.4495993   2.0051673
  31.0938553  74.2355993   2.4971673  31.6218553  74.6845993   2.1311673
  34.7868553  69.4355993   2.5711673  34.2658553  68.8075993   2.2631673
  35.3778553  68.9985993   3.0421673  34.7978553  69.2775993   2.5951673
  38.0928553  71.5685993  11.8691673  38.2098553  71.1145993  11.1331673
  38.3808553  72.3665993  11.6661673  38.1528553  71.6195993  11.7301673
  33.8258553  71.1655993  10.8531673  33.0478553  70.7755993  10.7811673
  34.3168553  70.7535993  10.2621673  33.7828553  71.0465993  10.7551673
  40.4748553  68.8085993  10.0211673  40.6528553  67.9995993   9.7461673
  40.3318553  69.2495993   9.2821673  40.4798553  68.7545993   9.8711673
  48.6208553  70.4155993   4.5421673  49.3778553  70.4875993   4.1141673
  48.6838553  69.6425993   4.9411673  48.7418553  70.3125993   4.5371673
  31.1738553  71.7135993   8.4391673  31.1698553  72.3005993   9.0851673
  31.7678553  72.0255993   7.8821673  31.2608553  71.8465993   8.4521673
  37.5768553  78.0805993   2.8851673  37.7488553  77.8705993   3.7141673
  36.9218553  77.5465993   2.6691673  37.5058553  77.9705993   2.9761673
  43.8048553  71.9945993   6.4001673  43.7098553  72.3135993   7.2061673
  43.2118553  71.3555993   6.3621673  43.7028553  71.9465993   6.5141673
  47.5248553  72.1745993   7.5441673  48.2968553  71.9495993   7.8811673
  47.0498553  72.3915993   8.2441673  47.5688553  72.1735993   7.6971673
  33.2098553  72.5595993   3.5961673  34.0528553  72.7795993   3.5531673
  32.8208553  73.1325993   3.0651673  33.2768553  72.6765993   3.5111673
  39.0638553  74.2445993  11.7141673  38.5798553  74.8215993  12.1561673
  39.0358553  74.5395993  10.8931673  38.9878553  74.3735993  11.6581673
  50.1618553  74.9285993   6.3261673  50.3768553  74.1285993   6.0501673
  49.3118553  74.9885993   6.1371673  50.0678553  74.8195993   6.2571673
  34.6388553  75.0515993  10.0731673  34.1028553  74.5455993  10.5411673
  34.6588553  74.6615993   9.2931673  34.5618553  74.9185993  10.0271673
  35.7208553  76.0155993   5.2801673  35.7458553  75.3405993   4.7291673
  35.0748553  76.5115993   4.9681673  35.6298553  75.9885993   5.1531673
  45.6158553  73.7285993   3.6761673  44.9538553  74.0565993   4.1391673
  45.8028553  74.3625993   3.1071673  45.5458553  73.8705993   3.6601673
  42.2608553  69.6345993   7.1051673  42.4098553  68.8095993   6.8621673
  42.6398553  69.6895993   7.8891673  42.3388553  69.5205993   7.1851673
  33.5198553  77.3705993  10.8391673  33.4828553  77.8715993  10.1251673
  33.8508553  76.6185993  10.5441673  33.5628553  77.3325993  10.6901673
  40.3908553  73.1675993   2.9121673  40.8708553  73.8665993   3.1201673
  40.7638553  72.5205993   3.3631673  40.5168553  73.1755993   3.0091673
  46.8698553  78.1215993   7.2571673  46.9248553  78.2465993   6.3951673
  47.6228553  78.4415993   7.5591673  46.9888553  78.1865993   7.1741673
  47.9018553  68.4195993  10.2441673  47.2648553  68.0195993   9.8021673
  47.9278553  67.9885993  11.0021673  47.8118553  68.2975993  10.2901673
  42.6008553  77.9275993   6.8571673  42.4458553  78.5375993   7.4611673
  43.1348553  77.3695993   7.2631673  42.6568553  77.9355993   7.0061673
  40.2078553  78.3745993   1.9461673  39.3608553  78.1805993   2.0271673
  40.5318553  78.2095993   2.7391673  40.1298553  78.3215993   2.0751673
  34.0558553  78.0675993   4.2621673  34.7778553  78.5555993   4.2251673
  33.7858553  78.0375993   3.4331673  34.1228553  78.1355993   4.1341673
  47.1418553  77.5985993   4.5031673  47.1348553  76.8225993   4.9011673
  46.3008553  77.8325993   4.4961673  47.0168553  77.5185993   4.5611673
  48.3978553  77.6695993   1.9401673  48.1118553  78.0705993   2.6601673
  49.2578553  77.6075993   2.0671673  48.4828553  77.7195993   2.0651673
  46.0598553  71.5935993  10.4801673  45.5348553  72.0525993  11.0041673
  45.6988553  70.7985993  10.4741673  45.9288553  71.5435993  10.5561673
  44.5518553  75.1625993  10.5561673  44.6248553  75.2665993  11.4191673
  43.9178553  75.7205993  10.3351673  44.4688553  75.2605993  10.6511673
  46.8198553  75.4815993   8.9211673  47.1388553  76.2675993   9.1241673
  46.4498553  75.2115993   9.6641673  46.8128553  75.5575993   9.0611673
  49.5178553  76.0235993  11.6561673  49.4658553  75.6825993  10.8551673
  50.2548553  76.4905993  11.6341673  49.6188553  76.0425993  11.5341673
  45.5278553  70.0695993   7.5711673  46.2718553  70.5215993   7.5081673
  44.9618553  70.5395993   7.1021673  45.5548553  70.2065993   7.4931673
  40.7058553  77.3535993   4.6491673  41.1818553  77.7275993   5.2771673
  39.8828553  77.4875993   4.9081673  40.6548553  77.4285993   4.7801673
  37.4158553  72.9565993   7.3901673  37.5768553  72.2125993   7.8171673
  37.3708553  72.7075993   6.5551673  37.4328553  72.8095993   7.3301673
  46.8128553  68.0495993   5.2411673  46.5328553  68.8745993   5.1971673
  47.5288553  68.1025993   5.7371673  46.8778553  68.1795993   5.3081673
  39.1678553  68.7645993   7.2701673  39.8728553  69.0845993   6.8681673
  39.4088553  67.9575993   7.4971673  39.3068553  68.6925993   7.2441673
  35.6768553  73.8175993   3.3311673  36.1168553  73.7145993   2.5851673
  36.2218553  73.5045993   3.9361673  35.8218553  73.7565993   3.3101673
  43.6928553  72.9195993   8.9231673  43.0448553  73.3895993   9.2711673
  44.2578553  72.8305993   9.5821673  43.6808553  72.9755993   9.0721673
  43.3808553  74.4565993   5.2211673  43.6828553  74.8765993   5.9241673
  43.4168553  73.6165993   5.4531673  43.4308553  74.3945993   5.3591673
  39.2238553  68.8025993   3.3781673  38.3978553  68.6535993   3.6151673
  39.1838553  68.8375993   2.5071673  39.0958553  68.7855993   3.2841673
  31.7888553  69.2005993   9.4131673  31.6488553  69.9955993   9.0821673
  31.0028553  68.9575993   9.7021673  31.6518553  69.2825993   9.4071673
  49.5298553  75.0985993   9.0851673  48.6748553  74.9765993   9.2111673
  49.6828553  74.7035993   8.3221673  49.4258553  75.0215993   8.9911673
  44.0428553  75.7635993   7.6611673  43.7878553  75.0445993   8.0831673
  44.8638553  75.8795993   7.9311673  44.1268553  75.6745993   7.7631673
  41.9768553  76.9535993  10.8481673  42.2998553  77.6395993  10.4161673
  41.2728553  77.2765993  11.2501673  41.9198553  77.1025993  10.8431673
  34.8298553  73.9555993   7.0541673  35.2048553  74.5745993   6.5671673
  35.5038553  73.4815993   7.3391673  34.9848553  73.9775993   7.0241673
  32.6048553  72.4035993   6.3291673  32.6818553  72.2345993   5.4761673
  33.3508553  72.8095993   6.5261673  32.7258553  72.4385993   6.2321673
  35.1588553  69.8135993   8.7401673  35.0778553  68.9695993   8.9461673
  34.8448553  69.8575993   7.9271673  35.1008553  69.6955993   8.6501673
  47.2658553  75.1895993   6.1251673  47.2638553  74.3265993   6.2491673
  47.3328553  75.5135993   6.9321673  47.2758553  75.1095993   6.2621673
  32.0018553  77.6295993   6.5531673  32.3218553  77.8485993   5.7721673
  31.9018553  76.7645993   6.4981673  32.0338553  77.5345993   6.4301673
  43.1448553  69.9895993   9.9071673  43.2368553  70.7015993  10.4011673
  42.5078553  69.5445993  10.3041673  43.0638553  70.0285993  10.0391673
  45.7368553  70.6955993   3.5611673  46.5918553  70.7945993   3.7061673
  45.3678553  71.2485993   4.1261673  45.8088553  70.7925993   3.6661673
  36.7648553  76.9215993   7.9381673  36.3688553  77.6955993   8.0131673
  36.3588553  76.5485993   7.2621673  36.6468553  76.9805993   7.8491673
  37.1938553  69.8985993   5.3881673  36.3298553  69.9825993   5.4681673
  37.4138553  69.3845993   6.0571673  37.0988553  69.8355993   5.4991673
  49.2118553  68.5335993   6.7171673  49.1598553  68.4895993   7.5871673
  49.8988553  68.0305993   6.5271673  49.3058553  68.4535993   6.8171673
  41.2968553  70.6465993   3.7621673  40.5598553  70.1925993   3.8751673
  41.8678553  70.2445993   4.2851673  41.2718553  70.5195993   3.8561673
  38.7998553  74.9755993   8.9661673  38.4778553  74.3995993   8.3961673
  38.4408553  75.7305993   8.7201673  38.6998553  75.0015993   8.8461673
  34.4138553  69.9815993   6.0361673  34.0708553  69.2145993   5.8021673
  33.7188553  70.5055993   6.1001673  34.2608553  69.9455993   6.0111673
  43.4598553  68.8375993   3.0131673  44.1298553  69.3815993   3.1401673
  42.9568553  69.2615993   2.4401673  43.4848553  68.9805993   2.9471673
  48.0628553  77.8495993  10.2191673  48.6968553  77.6795993  10.7931673
  48.4798553  78.2525993   9.5671673  48.2178553  77.8845993  10.2081673
  48.6878553  72.4135993  10.9571673  48.4918553  73.0575993  11.5121673
  47.9658553  71.9235993  10.9491673  48.5528553  72.4365993  11.0381673
  48.5868553  73.3545993   3.9281673  47.7538553  73.6045993   3.8561673
  48.5308553  72.5145993   4.1571673  48.4558553  73.2675993   3.9511673
  37.8468553  70.3425993   9.1221673  38.0808553  69.7665993   8.5091673
  37.0048553  70.1615993   9.2631673  37.7568553  70.2305993   9.0521673
  45.4738553  77.9605993  11.5741673  46.3448553  77.9245993  11.5381673
  45.2548553  78.3805993  10.8421673  45.5708553  78.0165993  11.4611673
  31.9158553  61.1234913  74.6351313  31.4748553  61.2414913  75.3781313
  31.6328553  60.3484913  74.3501313  31.8088553  61.0264913  74.7031313
  48.1908553  64.4244913  72.1501313  48.8918553  63.9054913  72.1461313
  47.6038553  63.9794913  71.6811313  48.2078553  64.2814913  72.0801313
  31.6588553  54.9154913  71.1421313  30.8808553  55.0774913  70.7821313
  31.6978553  54.0444913  71.1641313  31.5498553  54.8104913  71.0921313
  34.7978553  60.1784913  69.8141313  34.4058553  59.8074913  69.1281313
  34.7178553  59.5804913  70.4431313  34.7278553  60.0354913  69.8051313
  44.7178553  58.0504913  75.8551313  44.7978553  58.0544913  74.9861313
  44.1338553  57.4184913  76.0041313  44.6428553  57.9574913  75.7491313
  34.4248553  61.8194913  73.7141313  35.0328553  61.6494913  74.3171313
  33.6738553  61.6794913  74.1351313  34.4038553  61.7734913  73.8651313
  38.7068553  51.1544913  73.6631313  38.6368553  51.8314913  73.1171313
  39.4478553  50.7664913  73.4141313  38.8058553  51.1974913  73.5451313
  33.3158553  64.9104913  69.7911313  33.7828553  64.9944913  69.0591313
  33.7708553  64.3324913  70.2601313  33.4518553  64.8374913  69.7521313
  33.3018553  58.3794913  75.0921313  32.8398553  57.9874913  74.4651313
  34.0018553  57.8664913  75.1841313  33.3368553  58.2464913  75.0131313
  35.3028553  56.4794913  75.1151313  36.1198553  56.2924913  75.3581313
  34.8258553  55.8654913  75.5111313  35.3528553  56.3614913  75.2101313
  39.5068553  62.4604913  77.7251313  39.8548553  61.6614913  77.7551313
  40.1718553  62.9644913  77.4701313  39.6568553  62.4164913  77.6921313
  39.5638553  61.9094913  73.9361313  39.8948553  61.2654913  74.4221313
  39.8038553  61.6984913  73.1251313  39.6478553  61.7834913  73.8881313
  35.8998553  51.5734913  74.3811313  35.6038553  52.0744913  73.7311313
  36.7668553  51.6514913  74.3241313  35.9838553  51.6594913  74.2771313
  38.8788553  50.7154913  76.6041313  38.9518553  51.5754913  76.7331313
  38.8408553  50.6404913  75.7361313  38.8838553  50.8314913  76.4951313
  43.5518553  53.6414913  68.9031313  43.1018553  54.3224913  69.2101313
  43.6658553  53.1374913  69.6061313  43.5028553  53.6674913  69.0521313
  31.7578553  56.1404913  78.1051313  31.5018553  56.9714913  78.0301313
  31.0938553  55.7574913  78.5221313  31.6218553  56.2064913  78.1561313
  31.6678553  65.8504913  76.0051313  31.0758553  66.4084913  75.6921313
  32.0938553  65.5814913  75.2931313  31.6438553  65.8924913  75.8541313
  37.5078553  63.6944913  73.4851313  36.9288553  63.4194913  74.0771313
  38.1318553  63.0854913  73.5101313  37.5148553  63.5644913  73.5761313
  43.6508553  65.9824913  71.0071313  44.3778553  66.4544913  71.1091313
  43.8798553  65.1884913  71.2871313  43.7928553  65.9354913  71.0641313
  41.8188553  66.3744913  72.9971313  42.0328553  66.9014913  73.6591313
  42.5858553  66.2004913  72.6181313  41.9638553  66.4264913  73.0391313
  33.2128553  64.5204913  73.9361313  33.8688553  63.9454913  73.9511313
  33.6018553  65.2694913  73.7151313  33.3678553  64.5454913  73.9061313
  48.9458553  53.6144913  75.1981313  48.5998553  54.2924913  75.6241313
  48.3098553  53.0164913  75.2141313  48.8008553  53.6264913  75.2631313
  34.0308553  63.0074913  77.4361313  34.4538553  62.6514913  76.7621313
  34.3548553  62.5854913  78.1281313  34.1408553  62.8924913  77.4391313
  37.2618553  65.8594913  76.7321313  38.1058553  65.9634913  76.5371313
  36.9648553  66.6774913  76.8001313  37.3428553  65.9954913  76.7131313
  41.0688553  55.2564913  74.8191313  41.3558553  55.0244913  74.0291313
  41.8008553  55.3354913  75.2881313  41.2188553  55.2334913  74.7721313
  41.7908553  55.5954913  69.9401313  42.0718553  56.3834913  70.1891313
  41.0148553  55.7604913  69.5771313  41.7178553  55.7364913  69.9231313
  45.8318553  67.5694913  71.4071313  46.4968553  67.4214913  70.8621313
  46.1918553  67.4864913  72.1971313  45.9838553  67.5354913  71.4431313
  40.6498553  63.7664913  69.7561313  40.4688553  64.3114913  70.4131313
  41.4158553  64.0564913  69.4551313  40.7358553  63.8904913  69.8091313
  44.1568553  51.6624913  70.8101313  44.6968553  50.9804913  70.8861313
  44.2188553  52.0604913  71.5841313  44.2458553  51.6204913  70.9361313
  32.1108553  52.8304913  73.3791313  31.9968553  51.9664913  73.4101313
  31.6358553  53.1244913  74.0491313  32.0238553  52.7464913  73.4821313
  41.4148553  54.0384913  72.1241313  40.9068553  53.3764913  71.8701313
  41.4668553  54.5424913  71.4141313  41.3478553  54.0154913  71.9821313
  41.4148553  50.9794913  72.0151313  40.9598553  50.5774913  71.3891313
  42.1878553  51.1344913  71.6401313  41.4618553  50.9434913  71.8671313
  48.2408553  67.3364913  75.4051313  47.7858553  68.0534913  75.6061313
  47.6268553  66.7654913  75.1631313  48.0828553  67.3584913  75.3991313
  40.0128553  53.3464913  76.5371313  40.0868553  53.9144913  75.8791313
  40.1338553  53.8384913  77.2471313  40.0408553  53.5034913  76.5451313
  45.2378553  63.1814913  74.9491313  45.9388553  62.6994913  75.1381313
  44.5778553  62.6124913  74.9941313  45.2438553  63.0264913  74.9831313
  34.6208553  49.1694913  74.8851313  35.1568553  49.8574913  74.8751313
  34.6238553  48.8954913  74.0571313  34.6998553  49.2304913  74.7611313
  45.0608553  49.4604913  75.2611313  45.1098553  49.1424913  76.0721313
  45.3838553  48.8164913  74.7681313  45.1158553  49.3184913  75.3081313
  35.0688553  52.9794913  76.5391313  35.3408553  52.5494913  75.8311313
  34.8928553  52.3434913  77.1101313  35.0828553  52.8224913  76.5191313
  47.7568553  60.6744913  70.7571313  47.8758553  60.3874913  71.5721313
  48.5638553  60.6954913  70.4271313  47.8928553  60.6354913  70.8291313
  34.8928553  60.4064913  76.0881313  35.7438553  60.3264913  75.9151313
  34.5358553  59.7244913  75.6761313  34.9658553  60.2934913  76.0011313
  33.6598553  67.1314913  77.3251313  32.9868553  66.6334913  77.0801313
  34.0628553  67.3164913  76.5741313  33.6198553  67.0854913  77.1781313
  45.6518553  57.2114913  70.3421313  45.4318553  57.9424913  69.9201313
  45.2038553  57.2624913  71.0891313  45.5528553  57.3264913  70.3901313
  37.2608553  60.4134913  74.3231313  37.9738553  60.9084913  74.4131313
  37.4828553  59.8464913  73.6971313  37.3988553  60.4024913  74.2441313
  49.8388553  52.0724913  69.7951313  49.1768553  51.5044913  69.8181313
  49.6458553  52.5844913  69.1151313  49.7128553  52.0644913  69.6981313
  31.4168553  62.0564913  77.6431313  30.7498553  62.5444913  77.9191313
  32.0968553  62.6014913  77.6721313  31.4188553  62.2084913  77.6881313
  31.4828553  58.7404913  72.7461313  31.2978553  57.9014913  72.8981313
  32.1418553  58.7044913  72.1761313  31.5528553  58.6114913  72.6841313
  47.8408553  51.6304913  72.0741313  48.5868553  51.2234913  72.2731313
  48.1038553  52.3454913  71.6491313  47.9898553  51.6764913  72.0411313
  41.7838553  64.1164913  76.6501313  41.2608553  64.7504913  76.3571313
  42.0938553  63.7524913  75.9211313  41.7518553  64.1564913  76.4991313
  31.6548553  62.9044913  72.3211313  32.2068553  63.4734913  72.6851313
  31.4228553  62.3894913  72.9861313  31.7018553  62.9124913  72.4731313
  44.2948553  53.9184913  77.1471313  44.6388553  54.0704913  77.9341313
  43.8418553  53.1804913  77.2601313  44.2788553  53.8314913  77.2801313
  31.4848553  61.3534913  69.9491313  32.2408553  60.9214913  70.0071313
  31.4998553  61.8854913  70.6401313  31.5988553  61.3684913  70.0601313
  32.4248553  59.5744913  77.9541313  32.8558553  59.4454913  77.2071313
  32.2198553  60.4224913  77.9281313  32.4578553  59.6804913  77.8401313
  38.7708553  53.1384913  71.6041313  38.7688553  53.0214913  70.7391313
  38.5898553  53.9864913  71.6961313  38.7438553  53.2464913  71.4901313
  36.5088553  63.0904913  76.2361313  36.6348553  63.9334913  76.4231313
  37.1768553  62.6914913  76.6321313  36.6268553  63.1564913  76.3221313
  35.1238553  55.9704913  71.2381313  34.9958553  55.5224913  71.9761313
  34.5418553  55.6284913  70.6861313  35.0188553  55.8534913  71.2661313
  35.2908553  57.8004913  77.8371313  34.5098553  57.7414913  77.4541313
  35.3628553  57.0484913  78.2741313  35.1858553  57.6814913  77.8451313
  43.8088553  53.2194913  73.2121313  44.2988553  53.9364913  73.1351313
  43.0188553  53.4804913  72.9491313  43.7648553  53.3634913  73.1621313
  47.5518553  61.7284913  75.1921313  47.9078553  61.3784913  75.9071313
  47.5438553  61.0674913  74.6221313  47.6038553  61.5784913  75.2131313
  43.6098553  61.6454913  78.4361313  42.8128553  61.8694913  78.7101313
  43.8678553  61.0514913  79.0211313  43.5298553  61.5904913  78.5631313
  37.5018553  66.4574913  72.8841313  37.3548553  65.6814913  73.2551313
  38.1908553  66.3104913  72.3691313  37.5818553  66.3204913  72.8631313
  37.1728553  50.2004913  70.8721313  37.2698553  50.0934913  71.7331313
  36.4648553  50.7064913  70.8071313  37.0828553  50.2594913  70.9901313
  39.7938553  65.9734913  71.2861313  40.4158553  66.1364913  71.8761313
  39.8298553  66.6644913  70.7541313  39.8908553  66.0994913  71.2951313
  31.2918553  50.1684913  73.0831313  31.4208553  49.4604913  72.5911313
  30.9248553  49.8504913  73.8081313  31.2568553  50.0164913  73.1181313
  40.9848553  57.8494913  73.5401313  41.0438553  58.4994913  74.1191313
  40.7958553  57.1534913  74.0311313  40.9658553  57.8424913  73.6981313
  35.4808553  52.3664913  70.0521313  34.9698553  52.4194913  69.3461313
  36.2648553  52.6064913  69.7561313  35.5208553  52.4094913  69.9041313
  40.2078553  59.8964913  77.9711313  39.3608553  59.7024913  78.0521313
  40.5318553  59.7314913  78.7641313  40.1298553  59.8434913  78.1001313
  36.9598553  66.6264913  68.8571313  37.3988553  65.9294913  69.1451313
  37.1668553  67.2504913  69.4301313  37.0558553  66.6154913  68.9841313
  37.2858553  54.7604913  77.0221313  38.1318553  54.5704913  77.1201313
  36.9158553  53.9834913  76.8841313  37.3558553  54.6174913  77.0161313
  49.9028553  66.3444913  71.3491313  50.5968553  65.8774913  71.1011313
  49.3638553  65.7464913  71.6861313  49.9258553  66.1864913  71.3621313
  32.1068553  56.0984913  73.6771313  32.5958553  55.8064913  74.3381313
  32.2358553  55.5054913  73.0501313  32.1978553  55.9674913  73.6821313
  36.6318553  57.5324913  69.1631313  36.0218553  57.1274913  69.6371313
  36.2458553  57.6504913  68.3901313  36.4848553  57.4894913  69.1191313
  48.3978553  59.1914913  77.9651313  48.1118553  59.5924913  78.6851313
  49.2578553  59.1294913  78.0921313  48.4828553  59.2414913  78.0901313
  38.0868553  55.9934913  71.8731313  38.3588553  56.8194913  71.9401313
  37.2238553  56.0684913  71.7771313  37.9998553  56.1264913  71.8681313
  31.5668553  51.9634913  78.4091313  31.6108553  52.3074913  77.6081313
  32.3218553  52.2004913  78.7761313  31.6848553  52.0494913  78.3451313
  49.5288553  64.8244913  78.4941313  49.8188553  65.0814913  77.7131313
  50.2238553  64.9204913  79.0131313  49.6748553  64.8764913  78.4551313
  46.1338553  63.4274913  70.4761313  46.4678553  62.6214913  70.5111313
  45.3788553  63.3554913  70.9061313  46.0718553  63.2974913  70.5451313
  46.6158553  55.2614913  76.1351313  45.8708553  54.9384913  76.4531313
  46.6178553  56.0874913  76.4151313  46.5058553  55.3354913  76.2231313
  43.5078553  61.3024913  69.8791313  44.1918553  60.7884913  69.7101313
  43.0908553  61.3484913  69.1141313  43.5468553  61.2334913  69.7411313
  39.9698553  66.2684913  75.9021313  40.5158553  66.9474913  75.9561313
  39.6198553  66.3504913  75.1071313  39.9988553  66.3814913  75.7921313
  48.2338553  55.8264913  70.1231313  48.6118553  56.5034913  69.7231313
  47.3918553  56.0504913  70.1541313  48.1648553  55.9594913  70.0681313
  39.7468553  59.2724913  69.2061313  38.9418553  59.0954913  68.9211313
  39.7138553  60.1234913  69.3981313  39.6228553  59.3714913  69.1931313
  45.9288553  55.4254913  73.4981313  46.1358553  55.2244913  74.3221313
  46.6848553  55.6934913  73.1561313  46.0708553  55.4354913  73.5691313
  46.9508553  51.5084913  74.9721313  46.2368553  51.0374913  75.1431313
  46.7888553  51.8494913  74.1861313  46.8218553  51.4894913  74.8811313
  47.3938553  59.4524913  73.3521313  47.8698553  58.7234913  73.3041313
  46.5728553  59.1664913  73.2761313  47.3428553  59.3024913  73.3331313
  34.8528553  53.4664913  72.6631313  34.9788553  53.1374913  71.8651313
  34.0408553  53.2174913  72.8621313  34.7518553  53.3814913  72.5751313
  43.6098553  60.6194913  75.7071313  43.6858553  60.9604913  76.5061313
  43.7788553  59.7724913  75.8281313  43.6458553  60.5444913  75.8431313
  41.1318553  59.8934913  75.2721313  40.8338553  59.5784913  76.0291313
  41.8268553  60.3664913  75.5071313  41.1908553  59.9164913  75.4191313
  45.0608553  66.8494913  77.8021313  44.6098553  67.4924913  78.1811313
  45.7688553  66.7704913  78.3071313  45.0988553  66.9324913  77.9331313
  48.1638553  56.5654913  72.7941313  48.2668553  56.5074913  71.9301313
  48.9048553  56.2334913  73.1121313  48.2888553  56.5084913  72.7131313
  42.0838553  63.5304913  73.9011313  41.8788553  64.3634913  73.7421313
  41.3088553  63.1484913  74.0231313  41.9388553  63.5974913  73.8961313
  33.4578553  55.0874913  69.1961313  32.7858553  55.1014913  69.7521313
  33.5528553  54.2394913  69.0121313  33.3728553  54.9644913  69.2511313
  42.1388553  51.7014913  76.7861313  41.4388553  52.2194913  76.7301313
  42.1768553  51.3214913  76.0021313  42.0408553  51.7224913  76.6621313
  37.4458553  63.7924913  70.3101313  37.8868553  63.8724913  71.0581313
  36.6408553  63.5764913  70.5681313  37.3918553  63.7724913  70.4591313
  46.0408553  57.4974913  78.0771313  46.7068553  58.0384913  78.2371313
  45.6958553  57.8084913  77.3381313  46.0878553  57.6234913  77.9921313
  46.3538553  65.5634913  73.8841313  46.1798553  64.9094913  74.4341313
  47.0668553  65.2924913  73.4611313  46.4338553  65.4264913  73.9031313
  34.7748553  62.8624913  70.9111313  34.5308553  62.5554913  71.6911313
  34.7418553  62.1594913  70.3951313  34.7338553  62.7134913  70.9501313
  37.5938553  61.1074913  69.6541313  36.7758553  60.8394913  69.7941313
  37.5658553  61.9594913  69.8391313  37.4688553  61.1944913  69.7021313
  39.5958553  49.7494913  69.6181313  39.6738553  49.9964913  68.7851313
  38.8528553  50.1264913  69.8761313  39.4978553  49.8414913  69.5331313
  42.8188553  56.1674913  76.5311313  43.3698553  55.5604913  76.8311313
  42.3938553  56.4304913  77.2461313  42.8378553  56.1164913  76.6801313
  33.0668553  54.8174913  76.0171313  32.6988553  55.1194913  76.7481313
  33.6008553  54.1884913  76.3011313  33.0908553  54.7694913  76.1671313
  44.7888553  57.9984913  73.0931313  44.8568553  57.1484913  73.2741313
  43.9658553  58.0844913  72.8151313  44.6768553  57.8854913  73.0791313
  34.5408553  66.4924913  72.3031313  34.3958553  66.6484913  71.4571313
  35.4068553  66.5714913  72.3811313  34.6478553  66.5274913  72.1901313
  38.7078553  58.8894913  72.0311313  38.8078553  59.0284913  71.1761313
  39.5258553  58.8294913  72.3271313  38.8428553  58.9004913  71.9481313
  47.8678553  66.9534913  69.5111313  48.5048553  66.8194913  70.0921313
  47.5268553  66.1594913  69.3941313  47.9118553  66.8164913  69.5791313
  43.9428553  63.2184913  71.8331313  43.6918553  63.0904913  72.6591313
  43.6258553  62.5234913  71.4121313  43.8588553  63.0974913  71.8931313
  35.2278553  65.3074913  78.7801313  35.1488553  64.4974913  78.4641313
  34.7838553  65.7944913  78.2081313  35.1508553  65.2594913  78.6491313
  40.8288553  61.4264913  71.2631313  41.5458553  61.0794913  70.9071313
  40.7948553  62.2264913  70.9151313  40.9298553  61.4934913  71.1591313
  42.0468553  56.9834913  60.1728903  41.5228553  57.5794913  60.5358903
  42.4438553  56.6154913  60.8568903  42.0278553  57.0174913  60.3278903
  31.9158553  61.1234913  55.6288903  31.4748553  61.2414913  56.3718903
  31.6328553  60.3484913  55.3438903  31.8088553  61.0264913  55.6968903
  48.1908553  64.4244913  53.1438903  48.8918553  63.9054913  53.1398903
  47.6038553  63.9794913  52.6748903  48.2078553  64.2814913  53.0738903
  34.7978553  60.1784913  50.8078903  34.4058553  59.8074913  50.1218903
  34.7178553  59.5804913  51.4368903  34.7278553  60.0354913  50.7988903
  44.7178553  58.0504913  56.8488903  44.7978553  58.0544913  55.9798903
  44.1338553  57.4184913  56.9978903  44.6428553  57.9574913  56.7428903
  34.4248553  61.8194913  54.7078903  35.0328553  61.6494913  55.3108903
  33.6738553  61.6794913  55.1288903  34.4038553  61.7734913  54.8588903
  33.3158553  64.9104913  50.7848903  33.7828553  64.9944913  50.0528903
  33.7708553  64.3324913  51.2538903  33.4518553  64.8374913  50.7458903
  31.8558553  63.8584913  61.8838903  31.9848553  63.5784913  62.6998903
  31.2458553  63.3174913  61.5748903  31.7848553  63.7374913  61.9588903
  38.4298553  61.3834913  66.9508903  38.1938553  61.3804913  67.7908903
  37.6818553  61.2354913  66.5268903  38.2838553  61.3604913  67.0118903
  33.3018553  58.3794913  56.0858903  32.8398553  57.9874913  55.4588903
  34.0018553  57.8664913  56.1778903  33.3368553  58.2464913  56.0068903
  38.4118553  64.5754913  64.2138903  38.5498553  65.3354913  63.8068903
  39.2028553  64.2104913  64.2408903  38.5488553  64.6344913  64.1578903
  35.3028553  56.4794913  56.1088903  36.1198553  56.2924913  56.3518903
  34.8258553  55.8654913  56.5048903  35.3528553  56.3614913  56.2038903
  39.5068553  62.4604913  58.7188903  39.8548553  61.6614913  58.7488903
  40.1718553  62.9644913  58.4638903  39.6568553  62.4164913  58.6858903
  39.5638553  61.9094913  54.9298903  39.8948553  61.2654913  55.4158903
  39.8038553  61.6984913  54.1188903  39.6478553  61.7834913  54.8818903
  41.5318553  56.0404913  66.2688903  40.6838553  55.9414913  66.0908903
  41.5608553  56.7854913  66.7228903  41.4108553  56.1364913  66.3098903
  46.0898553  49.0004913  65.3828903  45.9318553  49.7694913  65.0008903
  45.3178553  48.7804913  65.7268903  45.9518553  49.0814913  65.3778903
  31.7578553  56.1404913  59.0988903  31.5018553  56.9714913  59.0238903
  31.0938553  55.7574913  59.5158903  31.6218553  56.2064913  59.1498903
  31.6678553  65.8504913  56.9988903  31.0758553  66.4084913  56.6858903
  32.0938553  65.5814913  56.2868903  31.6438553  65.8924913  56.8478903
  37.5078553  63.6944913  54.4788903  36.9288553  63.4194913  55.0708903
  38.1318553  63.0854913  54.5038903  37.5148553  63.5644913  54.5698903
  43.6508553  65.9824913  52.0008903  44.3778553  66.4544913  52.1028903
  43.8798553  65.1884913  52.2808903  43.7928553  65.9354913  52.0578903
  41.8188553  66.3744913  53.9908903  42.0328553  66.9014913  54.6528903
  42.5858553  66.2004913  53.6118903  41.9638553  66.4264913  54.0328903
  34.7868553  50.9574913  59.5898903  34.2658553  50.3294913  59.2818903
  35.3778553  50.5204913  60.0608903  34.7978553  50.7994913  59.6138903
  38.0928553  53.0904913  68.8878903  38.2098553  52.6364913  68.1518903
  38.3808553  53.8884913  68.6848903  38.1528553  53.1414913  68.7488903
  33.2128553  64.5204913  54.9298903  33.8688553  63.9454913  54.9448903
  33.6018553  65.2694913  54.7088903  33.3678553  64.5454913  54.8998903
  48.9458553  53.6144913  56.1918903  48.5998553  54.2924913  56.6178903
  48.3098553  53.0164913  56.2078903  48.8008553  53.6264913  56.2568903
  44.2578553  66.3844913  62.2958903  45.0018553  66.8404913  62.2858903
  44.1368553  66.1704913  61.4588903  44.3498553  66.4204913  62.1708903
  33.8258553  52.6874913  67.8718903  33.0478553  52.2974913  67.7998903
  34.3168553  52.2754913  67.2808903  33.7828553  52.5684913  67.7738903
  34.0308553  63.0074913  58.4298903  34.4538553  62.6514913  57.7558903
  34.3548553  62.5854913  59.1218903  34.1408553  62.8924913  58.4328903
  37.2618553  65.8594913  57.7258903  38.1058553  65.9634913  57.5308903
  36.9648553  66.6774913  57.7938903  37.3428553  65.9954913  57.7068903
  40.4748553  50.3304913  67.0398903  40.6528553  49.5214913  66.7648903
  40.3318553  50.7714913  66.3008903  40.4798553  50.2764913  66.8898903
  45.8318553  67.5694913  52.4008903  46.4968553  67.4214913  51.8558903
  46.1918553  67.4864913  53.1908903  45.9838553  67.5354913  52.4368903
  36.2598553  67.0784913  63.4658903  36.5518553  67.0114913  64.2858903
  35.6338553  66.4734913  63.4208903  36.2108553  66.9794913  63.5808903
  48.6208553  51.9374913  61.5608903  49.3778553  52.0094913  61.1328903
  48.6838553  51.1644913  61.9598903  48.7418553  51.8344913  61.5558903
  31.1738553  53.2354913  65.4578903  31.1698553  53.8224913  66.1038903
  31.7678553  53.5474913  64.9008903  31.2608553  53.3684913  65.4708903
  43.5118553  63.5694913  65.9998903  43.4778553  63.9514913  66.7838903
  44.3658553  63.5274913  65.8288903  43.6328553  63.6194913  66.0908903
  40.6498553  63.7664913  50.7498903  40.4688553  64.3114913  51.4068903
  41.4158553  64.0564913  50.4488903  40.7358553  63.8904913  50.8028903
  44.1568553  51.6624913  51.8038903  44.6968553  50.9804913  51.8798903
  44.2188553  52.0604913  52.5778903  44.2458553  51.6204913  51.9298903
  34.2528553  65.2404913  62.5878903  33.5548553  64.7324913  62.7138903
  34.5128553  65.0354913  61.7798903  34.1878553  65.1354913  62.4868903
  41.9638553  66.7334913  63.4978903  42.7318553  66.6534913  63.0918903
  41.3808553  66.6124913  62.8598903  41.9908553  66.7034913  63.3438903
  48.2408553  67.3364913  56.3988903  47.7858553  68.0534913  56.5998903
  47.6268553  66.7654913  56.1568903  48.0828553  67.3584913  56.3928903
  45.2378553  63.1814913  55.9428903  45.9388553  62.6994913  56.1318903
  44.5778553  62.6124913  55.9878903  45.2438553  63.0264913  55.9768903
  35.6138553  64.0914913  65.1548903  36.4548553  64.1544913  64.9328903
  35.5768553  64.4884913  65.9308903  35.7328553  64.1594913  65.2368903
  37.5768553  59.6024913  59.9038903  37.7488553  59.3924913  60.7328903
  36.9218553  59.0684913  59.6878903  37.5058553  59.4924913  59.9948903
  43.8048553  53.5164913  63.4188903  43.7098553  53.8354913  64.2248903
  43.2118553  52.8774913  63.3808903  43.7028553  53.4684913  63.5328903
  38.3268553  59.5404913  62.4938903  38.3798553  60.3874913  62.6958903
  38.0418553  59.1704913  63.2308903  38.2928553  59.6104913  62.6318903
  44.5038553  60.2354913  61.6238903  43.9898553  59.8234913  62.1948903
  44.3778553  61.0794913  61.8048903  44.4098553  60.2994913  61.7348903
  45.0608553  49.4604913  56.2548903  45.1098553  49.1424913  57.0658903
  45.3838553  48.8164913  55.7618903  45.1158553  49.3184913  56.3018903
  31.1478553  63.9114913  68.7048903  31.9038553  64.2604913  68.9628903
  31.3248553  63.0584913  68.6478903  31.2858553  63.8364913  68.7348903
  47.5248553  53.6964913  64.5628903  48.2968553  53.4714913  64.8998903
  47.0498553  53.9134913  65.2628903  47.5688553  53.6954913  64.7158903
  47.7568553  60.6744913  51.7508903  47.8758553  60.3874913  52.5658903
  48.5638553  60.6954913  51.4208903  47.8928553  60.6354913  51.8228903
  33.6598553  67.1314913  58.3188903  32.9868553  66.6334913  58.0738903
  34.0628553  67.3164913  57.5678903  33.6198553  67.0854913  58.1718903
  33.2098553  54.0814913  60.6148903  34.0528553  54.3014913  60.5718903
  32.8208553  54.6544913  60.0838903  33.2768553  54.1984913  60.5298903
  49.9908553  65.1834913  66.0048903  49.3088553  65.4934913  65.5578903
  49.6218553  64.7254913  66.6498903  49.8348553  65.1614913  66.0338903
  45.6518553  57.2114913  51.3358903  45.4318553  57.9424913  50.9138903
  45.2038553  57.2624913  52.0828903  45.5528553  57.3264913  51.3838903
  37.2608553  60.4134913  55.3168903  37.9738553  60.9084913  55.4068903
  37.4828553  59.8464913  54.6908903  37.3988553  60.4024913  55.2378903
  31.4168553  62.0564913  58.6368903  30.7498553  62.5444913  58.9128903
  32.0968553  62.6014913  58.6658903  31.4188553  62.2084913  58.6818903
  39.0638553  55.7664913  68.7328903  38.5798553  56.3434913  69.1748903
  39.0358553  56.0614913  67.9118903  38.9878553  55.8954913  68.6768903
  50.1618553  56.4504913  63.3448903  50.3768553  55.6504913  63.0688903
  49.3118553  56.5104913  63.1558903  50.0678553  56.3414913  63.2758903
  31.4828553  58.7404913  53.7398903  31.2978553  57.9014913  53.8918903
  32.1418553  58.7044913  53.1698903  31.5528553  58.6114913  53.6778903
  47.8408553  51.6304913  53.0678903  48.5868553  51.2234913  53.2668903
  48.1038553  52.3454913  52.6428903  47.9898553  51.6764913  53.0348903
  41.7838553  64.1164913  57.6438903  41.2608553  64.7504913  57.3508903
  42.0938553  63.7524913  56.9148903  41.7518553  64.1564913  57.4928903
  31.6548553  62.9044913  53.3148903  32.2068553  63.4734913  53.6788903
  31.4228553  62.3894913  53.9798903  31.7018553  62.9124913  53.4668903
  35.8588553  61.9044913  60.4038903  36.3258553  62.1934913  61.0818903
  36.4308553  61.4264913  59.9498903  36.0128553  61.8764913  60.4368903
  31.4848553  61.3534913  50.9428903  32.2408553  60.9214913  51.0008903
  31.4998553  61.8854913  51.6338903  31.5988553  61.3684913  51.0538903
  32.4248553  59.5744913  58.9478903  32.8558553  59.4454913  58.2008903
  32.2198553  60.4224913  58.9218903  32.4578553  59.6804913  58.8338903
  47.8248553  65.5654913  64.0948903  47.1538553  66.0794913  64.3128903
  47.8878553  65.6654913  63.2308903  47.7348553  65.6564913  63.9998903
  36.5088553  63.0904913  57.2298903  36.6348553  63.9334913  57.4168903
  37.1768553  62.6914913  57.6258903  36.6268553  63.1564913  57.3158903
  34.6388553  56.5734913  67.0918903  34.1028553  56.0674913  67.5598903
  34.6588553  56.1834913  66.3118903  34.5618553  56.4404913  67.0458903
  35.2908553  57.8004913  58.8308903  34.5098553  57.7414913  58.4478903
  35.3628553  57.0484913  59.2678903  35.1858553  57.6814913  58.8388903
  35.7208553  57.5374913  62.2988903  35.7458553  56.8624913  61.7478903
  35.0748553  58.0334913  61.9868903  35.6298553  57.5104913  62.1718903
  45.6158553  55.2504913  60.6948903  44.9538553  55.5784913  61.1578903
  45.8028553  55.8844913  60.1258903  45.5458553  55.3924913  60.6788903
  39.8208553  66.3144913  61.6908903  39.5438553  65.6734913  61.1678903
  39.6128553  67.0404913  61.2528903  39.7498553  66.3274913  61.5488903
  42.2608553  51.1564913  64.1238903  42.4098553  50.3314913  63.8808903
  42.6398553  51.2114913  64.9078903  42.3388553  51.0424913  64.2038903
  33.5198553  58.8924913  67.8578903  33.4828553  59.3934913  67.1438903
  33.8508553  58.1404913  67.5628903  33.5628553  58.8544913  67.7088903
  45.1228553  61.0974913  66.1158903  45.6068553  61.8154913  66.2138903
  45.5168553  60.6704913  65.4648903  45.2528553  61.1404913  66.0338903
  39.4188553  63.9424913  67.2928903  39.7728553  63.7644913  68.0698903
  38.9828553  63.2134913  67.0938903  39.4068553  63.8084913  67.3788903
  42.5798553  57.8584913  52.2048903  42.5718553  58.5804913  51.7148903
  41.9408553  57.9934913  52.7818903  42.4848553  57.9854913  52.2178903
  47.5518553  61.7284913  56.1858903  47.9078553  61.3784913  56.9008903
  47.5438553  61.0674913  55.6158903  47.6038553  61.5784913  56.2068903
  43.5968553  64.7944913  60.0298903  42.9938553  64.4984913  59.4728903
  44.1418553  65.2464913  59.5208903  43.5878553  64.8174913  59.8718903
  43.6098553  61.6454913  59.4298903  42.8128553  61.8694913  59.7038903
  43.8678553  61.0514913  60.0148903  43.5298553  61.5904913  59.5568903
  37.5018553  66.4574913  53.8778903  37.3548553  65.6814913  54.2488903
  38.1908553  66.3104913  53.3628903  37.5818553  66.3204913  53.8568903
  39.7938553  65.9734913  52.2798903  40.4158553  66.1364913  52.8698903
  39.8298553  66.6644913  51.7478903  39.8908553  66.0994913  52.2888903
  46.8698553  59.6434913  64.2758903  46.9248553  59.7684913  63.4138903
  47.6228553  59.9634913  64.5778903  46.9888553  59.7084913  64.1928903
  43.0608553  64.9924913  68.5528903  43.2248553  65.2754913  69.3618903
  43.3238553  65.6534913  68.0478903  43.1238553  65.1324913  68.5978903
  47.9018553  49.9414913  67.2628903  47.2648553  49.5414913  66.8208903
  47.9278553  49.5104913  68.0208903  47.8118553  49.8194913  67.3088903
  34.2948553  58.5074913  53.1088903  34.6188553  57.7284913  52.8868903
  34.9408553  58.8754913  53.5638903  34.4378553  58.4464913  53.1428903
  42.6008553  59.4494913  63.8758903  42.4458553  60.0594913  64.4798903
  43.1348553  58.8914913  64.2818903  42.6568553  59.4574913  64.0248903
  46.2108553  62.1784913  60.4028903  45.7318553  62.4764913  59.7368903
  45.8548553  61.4024913  60.5808903  46.0878553  62.1074913  60.3308903
  40.2078553  59.8964913  58.9648903  39.3608553  59.7024913  59.0458903
  40.5318553  59.7314913  59.7578903  40.1298553  59.8434913  59.0938903
  36.9598553  66.6264913  49.8508903  37.3988553  65.9294913  50.1388903
  37.1668553  67.2504913  50.4238903  37.0558553  66.6154913  49.9778903
  34.0558553  59.5894913  61.2808903  34.7778553  60.0774913  61.2438903
  33.7858553  59.5594913  60.4518903  34.1228553  59.6574913  61.1528903
  49.9028553  66.3444913  52.3428903  50.5968553  65.8774913  52.0948903
  49.3638553  65.7464913  52.6798903  49.9258553  66.1864913  52.3558903
  47.1418553  59.1204913  61.5218903  47.1348553  58.3444913  61.9198903
  46.3008553  59.3544913  61.5148903  47.0168553  59.0404913  61.5798903
  33.4508553  60.6414913  65.5588903  33.0298553  60.1234913  64.9978903
  33.0988553  61.4274913  65.4158903  33.3368553  60.6814913  65.4548903
  48.3978553  59.1914913  58.9588903  48.1118553  59.5924913  59.6788903
  49.2578553  59.1294913  59.0858903  48.4828553  59.2414913  59.0838903
  46.0598553  53.1154913  67.4988903  45.5348553  53.5744913  68.0228903
  45.6988553  52.3204913  67.4928903  45.9288553  53.0654913  67.5748903
  31.5668553  51.9634913  59.4028903  31.6108553  52.3074913  58.6018903
  32.3218553  52.2004913  59.7698903  31.6848553  52.0494913  59.3388903
  49.5288553  64.8244913  59.4878903  49.8188553  65.0814913  58.7068903
  50.2238553  64.9204913  60.0068903  49.6748553  64.8764913  59.4488903
  44.5518553  56.6844913  67.5748903  44.6248553  56.7884913  68.4378903
  43.9178553  57.2424913  67.3538903  44.4688553  56.7824913  67.6698903
  46.8198553  57.0034913  65.9398903  47.1388553  57.7894913  66.1428903
  46.4498553  56.7334913  66.6828903  46.8128553  57.0794913  66.0798903
  46.1338553  63.4274913  51.4698903  46.4678553  62.6214913  51.5048903
  45.3788553  63.3554913  51.8998903  46.0718553  63.2974913  51.5388903
  46.6158553  55.2614913  57.1288903  45.8708553  54.9384913  57.4468903
  46.6178553  56.0874913  57.4088903  46.5058553  55.3354913  57.2168903
  49.5178553  57.5454913  68.6748903  49.4658553  57.2044913  67.8738903
  50.2548553  58.0124913  68.6528903  49.6188553  57.5644913  68.5528903
  49.0558553  61.2214913  64.8808903  49.6838553  60.6724913  64.6248903
  48.9948553  61.7864913  64.2188903  49.1398553  61.2244913  64.7448903
  43.5078553  61.3024913  50.8728903  44.1918553  60.7884913  50.7038903
  43.0908553  61.3484913  50.1078903  43.5468553  61.2334913  50.7348903
  38.1898553  62.4524913  62.1768903  37.8918553  63.0444913  62.7438903
  38.2448553  62.8944913  61.4278903  38.1538553  62.6054913  62.1498903
  36.1688553  61.4024913  65.5748903  35.3628553  61.1124913  65.7418903
  36.0798553  62.2704913  65.5808903  36.0368553  61.4874913  65.5998903
  45.5278553  51.5914913  64.5898903  46.2718553  52.0434913  64.5268903
  44.9618553  52.0614913  64.1208903  45.5548553  51.7284913  64.5118903
  40.7058553  58.8754913  61.6678903  41.1818553  59.2494913  62.2958903
  39.8828553  59.0094913  61.9268903  40.6548553  58.9504913  61.7988903
  39.9698553  66.2684913  56.8958903  40.5158553  66.9474913  56.9498903
  39.6198553  66.3504913  56.1008903  39.9988553  66.3814913  56.7858903
  46.8128553  49.5714913  62.2598903  46.5328553  50.3964913  62.2158903
  47.5288553  49.6244913  62.7558903  46.8778553  49.7014913  62.3268903
  38.1528553  64.4964913  60.2848903  37.5288553  65.0784913  60.1028903
  38.4008553  64.2104913  59.4988903  38.0968553  64.5404913  60.1418903
  42.4618553  61.1304913  67.2738903  43.2188553  61.4164913  66.9478903
  41.9148553  61.1824913  66.5958903  42.4928553  61.1804913  67.1248903
  46.3708553  63.6804913  65.7778903  46.7168553  63.9504913  66.5318903
  46.6648553  64.2624913  65.1978903  46.4658553  63.8064913  65.8038903
  48.2338553  55.8264913  51.1168903  48.6118553  56.5034913  50.7168903
  47.3918553  56.0504913  51.1478903  48.1648553  55.9594913  51.0618903
  39.7468553  59.2724913  50.1998903  38.9418553  59.0954913  49.9148903
  39.7138553  60.1234913  50.3918903  39.6228553  59.3714913  50.1868903
  43.6928553  54.4414913  65.9418903  43.0448553  54.9114913  66.2898903
  44.2578553  54.3524913  66.6008903  43.6808553  54.4974913  66.0908903
  43.3808553  55.9784913  62.2398903  43.6828553  56.3984913  62.9428903
  43.4168553  55.1384913  62.4718903  43.4308553  55.9164913  62.3778903
  40.8058553  66.1454913  66.1648903  41.2838553  65.5454913  65.7488903
  40.4548553  65.7024913  66.8298903  40.8248553  65.9914913  66.2018903
  45.9288553  55.4254913  54.4918903  46.1358553  55.2244913  55.3158903
  46.6848553  55.6934913  54.1498903  46.0708553  55.4354913  54.5628903
  46.9508553  51.5084913  55.9658903  46.2368553  51.0374913  56.1368903
  46.7888553  51.8494913  55.1798903  46.8218553  51.4894913  55.8748903
  47.3938553  59.4524913  54.3458903  47.8698553  58.7234913  54.2978903
  46.5728553  59.1664913  54.2698903  47.3428553  59.3024913  54.3268903
  40.8648553  61.3644913  65.1848903  40.0698553  61.3004913  65.5358903
  40.9358553  62.2114913  64.9898903  40.7578553  61.4794913  65.2078903
  31.7888553  50.7224913  66.4318903  31.6488553  51.5174913  66.1008903
  31.0028553  50.4794913  66.7208903  31.6518553  50.8044913  66.4258903
  36.6948553  67.5714913  60.5018903  36.7058553  67.6304913  61.3718903
  36.2698553  66.8244913  60.3518903  36.6338553  67.4694913  60.6078903
  43.6098553  60.6194913  56.7008903  43.6858553  60.9604913  57.4998903
  43.7788553  59.7724913  56.8218903  43.6458553  60.5444913  56.8368903
  41.1318553  59.8934913  56.2658903  40.8338553  59.5784913  57.0228903
  41.8268553  60.3664913  56.5008903  41.1908553  59.9164913  56.4128903
  41.3538553  64.0114913  64.2928903  42.0408553  63.8974913  64.8178903
  41.4878553  64.8024913  63.9488903  41.4748553  64.1114913  64.3198903
  49.5298553  56.6204913  66.1038903  48.6748553  56.4984913  66.2298903
  49.6828553  56.2254913  65.3408903  49.4258553  56.5434913  66.0098903
  44.0428553  57.2854913  64.6798903  43.7878553  56.5664913  65.1018903
  44.8638553  57.4014913  64.9498903  44.1268553  57.1964913  64.7818903
  33.4588553  67.0694913  65.9438903  32.8048553  66.5004913  66.0418903
  33.0838553  67.8424913  66.0948903  33.3068553  67.0994913  65.9808903
  41.9768553  58.4754913  67.8668903  42.2998553  59.1614913  67.4348903
  41.2728553  58.7984913  68.2688903  41.9198553  58.6244913  67.8618903
  45.0608553  66.8494913  58.7958903  44.6098553  67.4924913  59.1748903
  45.7688553  66.7704913  59.3008903  45.0988553  66.9324913  58.9268903
  41.7618553  61.9394913  61.7258903  41.0678553  62.3414913  62.0688903
  42.4388553  62.3724913  62.0648903  41.7588553  62.0624913  61.8268903
  47.1388553  64.5324913  68.3058903  47.9148553  64.1424913  68.3888903
  46.6698553  64.1964913  68.9608903  47.1838553  64.4254913  68.4148903
  34.8298553  55.4774913  64.0728903  35.2048553  56.0964913  63.5858903
  35.5038553  55.0034913  64.3578903  34.9848553  55.4994913  64.0428903
  32.6048553  53.9254913  63.3478903  32.6818553  53.7564913  62.4948903
  33.3508553  54.3314913  63.5448903  32.7258553  53.9604913  63.2508903
  48.1638553  56.5654913  53.7878903  48.2668553  56.5074913  52.9238903
  48.9048553  56.2334913  54.1058903  48.2888553  56.5084913  53.7068903
  35.1588553  51.3354913  65.7588903  35.0778553  50.4914913  65.9648903
  34.8448553  51.3794913  64.9458903  35.1008553  51.2174913  65.6688903
  42.0838553  63.5304913  54.8948903  41.8788553  64.3634913  54.7358903
  41.3088553  63.1484913  55.0168903  41.9388553  63.5974913  54.8898903
  32.0018553  59.1514913  63.5718903  32.3218553  59.3704913  62.7908903
  31.9018553  58.2864913  63.5168903  32.0338553  59.0564913  63.4488903
  43.1448553  51.5114913  66.9258903  43.2368553  52.2234913  67.4198903
  42.5078553  51.0664913  67.3228903  43.0638553  51.5504913  67.0578903
  37.4458553  63.7924913  51.3038903  37.8868553  63.8724913  52.0518903
  36.6408553  63.5764913  51.5618903  37.3918553  63.7724913  51.4528903
  45.7368553  52.2174913  60.5798903  46.5918553  52.3164913  60.7248903
  45.3678553  52.7704913  61.1448903  45.8088553  52.3144913  60.6848903
  36.7648553  58.4434913  64.9568903  36.3688553  59.2174913  65.0318903
  36.3588553  58.0704913  64.2808903  36.6468553  58.5024913  64.8678903
  46.0408553  57.4974913  59.0708903  46.7068553  58.0384913  59.2308903
  45.6958553  57.8084913  58.3318903  46.0878553  57.6234913  58.9858903
  46.3538553  65.5634913  54.8778903  46.1798553  64.9094913  55.4278903
  47.0668553  65.2924913  54.4548903  46.4338553  65.4264913  54.8968903
  34.7748553  62.8624913  51.9048903  34.5308553  62.5554913  52.6848903
  34.7418553  62.1594913  51.3888903  34.7338553  62.7134913  51.9438903
  37.5938553  61.1074913  50.6478903  36.7758553  60.8394913  50.7878903
  37.5658553  61.9594913  50.8328903  37.4688553  61.1944913  50.6958903
  49.2118553  50.0554913  63.7358903  49.1598553  50.0114913  64.6058903
  49.8988553  49.5524913  63.5458903  49.3058553  49.9754913  63.8358903
  44.0288553  63.0164913  62.5688903  44.2348553  63.3174913  63.3608903
  43.9678553  63.7384913  62.0838903  44.0498553  63.1674913  62.6138903
  43.5628553  67.2304913  66.8148903  42.8098553  67.2124913  66.3738903
  43.7308553  68.0824913  66.8988903  43.4768553  67.3534913  66.7618903
  38.7998553  56.4974913  65.9848903  38.4778553  55.9214913  65.4148903
  38.4408553  57.2524913  65.7388903  38.6998553  56.5234913  65.8648903
  48.8408553  61.6554913  62.0268903  48.8088553  60.7934913  61.8918903
  48.1478553  61.9574913  61.5928903  48.7338553  61.5724913  61.9428903
  37.2348553  66.8534913  66.2328903  37.2758553  66.9794913  67.0958903
  37.8858553  66.2934913  66.0768903  37.3368553  66.7894913  66.3378903
  46.9458553  64.9154913  60.8238903  47.4728553  64.8324913  60.1328903
  46.5548553  64.1374913  60.8778903  46.9658553  64.7884913  60.7298903
  34.4138553  51.5034913  63.0548903  34.0708553  50.7364913  62.8208903
  33.7188553  52.0274913  63.1188903  34.2608553  51.4674913  63.0298903
  34.8278553  65.2364913  67.5928903  35.4228553  65.6674913  68.0648903
  34.4638553  65.8604913  67.1038903  34.8618553  65.3924913  67.5898903
  32.7548553  63.2254913  64.5218903  32.1808553  63.6414913  65.0308903
  33.4878553  63.6904913  64.6168903  32.7788553  63.3554913  64.6108903
  44.7888553  57.9984913  54.0868903  44.8568553  57.1484913  54.2678903
  43.9658553  58.0844913  53.8088903  44.6768553  57.8854913  54.0728903
  34.5408553  66.4924913  53.2968903  34.3958553  66.6484913  52.4508903
  35.4068553  66.5714913  53.3748903  34.6478553  66.5274913  53.1838903
  47.8678553  66.9534913  50.5048903  48.5048553  66.8194913  51.0858903
  47.5268553  66.1594913  50.3878903  47.9118553  66.8164913  50.5728903
  48.0628553  59.3714913  67.2378903  48.6968553  59.2014913  67.8118903
  48.4798553  59.7744913  66.5858903  48.2178553  59.4064913  67.2268903
  43.9428553  63.2184913  52.8268903  43.6918553  63.0904913  53.6528903
  43.6258553  62.5234913  52.4058903  43.8588553  63.0974913  52.8868903
  48.6878553  53.9354913  67.9758903  48.4918553  54.5794913  68.5308903
  47.9658553  53.4454913  67.9678903  48.5528553  53.9584913  68.0568903
  48.5868553  54.8764913  60.9468903  47.7538553  55.1264913  60.8748903
  48.5308553  54.0364913  61.1758903  48.4558553  54.7894913  60.9698903
  37.8468553  51.8644913  66.1408903  38.0808553  51.2884913  65.5278903
  37.0048553  51.6834913  66.2818903  37.7568553  51.7524913  66.0708903
  45.4738553  59.4824913  68.5928903  46.3448553  59.4464913  68.5568903
  45.2548553  59.9024913  67.8608903  45.5708553  59.5384913  68.4798903
  35.2278553  65.3074913  59.7738903  35.1488553  64.4974913  59.4578903
  34.7838553  65.7944913  59.2018903  35.1508553  65.2594913  59.6428903
  40.8288553  61.4264913  52.2568903  41.5458553  61.0794913  51.9008903
  40.7948553  62.2264913  51.9088903  40.9298553  61.4934913  52.1528903
  32.7998553  67.5514913  63.3548903  33.2928553  67.4954913  64.0728903
  32.9878553  66.8184913  62.9198903  32.9008553  67.4344913  63.3968903
  31.9158553  61.1234913  36.6226493  31.4748553  61.2414913  37.3656493
  31.6328553  60.3484913  36.3376493  31.8088553  61.0264913  36.6906493
  48.1908553  64.4244913  34.1376493  48.8918553  63.9054913  34.1336493
  47.6038553  63.9794913  33.6686493  48.2078553  64.2814913  34.0676493
  31.6588553  54.9154913  33.1296493  30.8808553  55.0774913  32.7696493
  31.6978553  54.0444913  33.1516493  31.5498553  54.8104913  33.0796493
  44.7178553  58.0504913  37.8426493  44.7978553  58.0544913  36.9736493
  44.1338553  57.4184913  37.9916493  44.6428553  57.9574913  37.7366493
  34.4248553  61.8194913  35.7016493  35.0328553  61.6494913  36.3046493
  33.6738553  61.6794913  36.1226493  34.4038553  61.7734913  35.8526493
  33.3158553  64.9104913  31.7786493  33.7828553  64.9944913  31.0466493
  33.7708553  64.3324913  32.2476493  33.4518553  64.8374913  31.7396493
  31.8558553  63.8584913  42.8776493  31.9848553  63.5784913  43.6936493
  31.2458553  63.3174913  42.5686493  31.7848553  63.7374913  42.9526493
  38.4298553  61.3834913  47.9446493  38.1938553  61.3804913  48.7846493
  37.6818553  61.2354913  47.5206493  38.2838553  61.3604913  48.0056493
  33.3018553  58.3794913  37.0796493  32.8398553  57.9874913  36.4526493
  34.0018553  57.8664913  37.1716493  33.3368553  58.2464913  37.0006493
  38.4118553  64.5754913  45.2076493  38.5498553  65.3354913  44.8006493
  39.2028553  64.2104913  45.2346493  38.5488553  64.6344913  45.1516493
  39.5068553  62.4604913  39.7126493  39.8548553  61.6614913  39.7426493
  40.1718553  62.9644913  39.4576493  39.6568553  62.4164913  39.6796493
  39.5638553  61.9094913  35.9236493  39.8948553  61.2654913  36.4096493
  39.8038553  61.6984913  35.1126493  39.6478553  61.7834913  35.8756493
  43.5518553  53.6414913  30.8906493  43.1018553  54.3224913  31.1976493
  43.6658553  53.1374913  31.5936493  43.5028553  53.6674913  31.0396493
  31.6678553  65.8504913  37.9926493  31.0758553  66.4084913  37.6796493
  32.0938553  65.5814913  37.2806493  31.6438553  65.8924913  37.8416493
  37.5078553  63.6944913  35.4726493  36.9288553  63.4194913  36.0646493
  38.1318553  63.0854913  35.4976493  37.5148553  63.5644913  35.5636493
  43.6508553  65.9824913  32.9946493  44.3778553  66.4544913  33.0966493
  43.8798553  65.1884913  33.2746493  43.7928553  65.9354913  33.0516493
  41.8188553  66.3744913  34.9846493  42.0328553  66.9014913  35.6466493
  42.5858553  66.2004913  34.6056493  41.9638553  66.4264913  35.0266493
  33.2128553  64.5204913  35.9236493  33.8688553  63.9454913  35.9386493
  33.6018553  65.2694913  35.7026493  33.3678553  64.5454913  35.8936493
  48.9458553  53.6144913  37.1856493  48.5998553  54.2924913  37.6116493
  48.3098553  53.0164913  37.2016493  48.8008553  53.6264913  37.2506493
  44.2578553  66.3844913  43.2896493  45.0018553  66.8404913  43.2796493
  44.1368553  66.1704913  42.4526493  44.3498553  66.4204913  43.1646493
  34.0308553  63.0074913  39.4236493  34.4538553  62.6514913  38.7496493
  34.3548553  62.5854913  40.1156493  34.1408553  62.8924913  39.4266493
  37.2618553  65.8594913  38.7196493  38.1058553  65.9634913  38.5246493
  36.9648553  66.6774913  38.7876493  37.3428553  65.9954913  38.7006493
  41.7908553  55.5954913  31.9276493  42.0718553  56.3834913  32.1766493
  41.0148553  55.7604913  31.5646493  41.7178553  55.7364913  31.9106493
  45.8318553  67.5694913  33.3946493  46.4968553  67.4214913  32.8496493
  46.1918553  67.4864913  34.1846493  45.9838553  67.5354913  33.4306493
  36.2598553  67.0784913  44.4596493  36.5518553  67.0114913  45.2796493
  35.6338553  66.4734913  44.4146493  36.2108553  66.9794913  44.5746493
  48.6208553  51.9374913  42.5546493  49.3778553  52.0094913  42.1266493
  48.6838553  51.1644913  42.9536493  48.7418553  51.8344913  42.5496493
  43.5118553  63.5694913  46.9936493  43.4778553  63.9514913  47.7776493
  44.3658553  63.5274913  46.8226493  43.6328553  63.6194913  47.0846493
  40.6498553  63.7664913  31.7436493  40.4688553  64.3114913  32.4006493
  41.4158553  64.0564913  31.4426493  40.7358553  63.8904913  31.7966493
  44.1568553  51.6624913  32.7976493  44.6968553  50.9804913  32.8736493
  44.2188553  52.0604913  33.5716493  44.2458553  51.6204913  32.9236493
  34.2528553  65.2404913  43.5816493  33.5548553  64.7324913  43.7076493
  34.5128553  65.0354913  42.7736493  34.1878553  65.1354913  43.4806493
  41.4148553  54.0384913  34.1116493  40.9068553  53.3764913  33.8576493
  41.4668553  54.5424913  33.4016493  41.3478553  54.0154913  33.9696493
  41.9638553  66.7334913  44.4916493  42.7318553  66.6534913  44.0856493
  41.3808553  66.6124913  43.8536493  41.9908553  66.7034913  44.3376493
  48.2408553  67.3364913  37.3926493  47.7858553  68.0534913  37.5936493
  47.6268553  66.7654913  37.1506493  48.0828553  67.3584913  37.3866493
  45.2378553  63.1814913  36.9366493  45.9388553  62.6994913  37.1256493
  44.5778553  62.6124913  36.9816493  45.2438553  63.0264913  36.9706493
  34.6208553  49.1694913  36.8726493  35.1568553  49.8574913  36.8626493
  34.6238553  48.8954913  36.0446493  34.6998553  49.2304913  36.7486493
  37.5768553  59.6024913  40.8976493  37.7488553  59.3924913  41.7266493
  36.9218553  59.0684913  40.6816493  37.5058553  59.4924913  40.9886493
  38.3268553  59.5404913  43.4876493  38.3798553  60.3874913  43.6896493
  38.0418553  59.1704913  44.2246493  38.2928553  59.6104913  43.6256493
  44.5038553  60.2354913  42.6176493  43.9898553  59.8234913  43.1886493
  44.3778553  61.0794913  42.7986493  44.4098553  60.2994913  42.7286493
  31.1478553  63.9114913  49.6986493  31.9038553  64.2604913  49.9566493
  31.3248553  63.0584913  49.6416493  31.2858553  63.8364913  49.7286493
  47.5248553  53.6964913  45.5566493  48.2968553  53.4714913  45.8936493
  47.0498553  53.9134913  46.2566493  47.5688553  53.6954913  45.7096493
  47.7568553  60.6744913  32.7446493  47.8758553  60.3874913  33.5596493
  48.5638553  60.6954913  32.4146493  47.8928553  60.6354913  32.8166493
  34.8928553  60.4064913  38.0756493  35.7438553  60.3264913  37.9026493
  34.5358553  59.7244913  37.6636493  34.9658553  60.2934913  37.9886493
  33.6598553  67.1314913  39.3126493  32.9868553  66.6334913  39.0676493
  34.0628553  67.3164913  38.5616493  33.6198553  67.0854913  39.1656493
  49.9908553  65.1834913  46.9986493  49.3088553  65.4934913  46.5516493
  49.6218553  64.7254913  47.6436493  49.8348553  65.1614913  47.0276493
  37.2608553  60.4134913  36.3106493  37.9738553  60.9084913  36.4006493
  37.4828553  59.8464913  35.6846493  37.3988553  60.4024913  36.2316493
  49.8388553  52.0724913  31.7826493  49.1768553  51.5044913  31.8056493
  49.6458553  52.5844913  31.1026493  49.7128553  52.0644913  31.6856493
  50.1618553  56.4504913  44.3386493  50.3768553  55.6504913  44.0626493
  49.3118553  56.5104913  44.1496493  50.0678553  56.3414913  44.2696493
  31.4828553  58.7404913  34.7336493  31.2978553  57.9014913  34.8856493
  32.1418553  58.7044913  34.1636493  31.5528553  58.6114913  34.6716493
  41.7838553  64.1164913  38.6376493  41.2608553  64.7504913  38.3446493
  42.0938553  63.7524913  37.9086493  41.7518553  64.1564913  38.4866493
  31.6548553  62.9044913  34.3086493  32.2068553  63.4734913  34.6726493
  31.4228553  62.3894913  34.9736493  31.7018553  62.9124913  34.4606493
  35.8588553  61.9044913  41.3976493  36.3258553  62.1934913  42.0756493
  36.4308553  61.4264913  40.9436493  36.0128553  61.8764913  41.4306493
  44.2948553  53.9184913  39.1346493  44.6388553  54.0704913  39.9216493
  43.8418553  53.1804913  39.2476493  44.2788553  53.8314913  39.2676493
  31.4848553  61.3534913  31.9366493  32.2408553  60.9214913  31.9946493
  31.4998553  61.8854913  32.6276493  31.5988553  61.3684913  32.0476493
  32.4248553  59.5744913  39.9416493  32.8558553  59.4454913  39.1946493
  32.2198553  60.4224913  39.9156493  32.4578553  59.6804913  39.8276493
  38.7708553  53.1384913  33.5916493  38.7688553  53.0214913  32.7266493
  38.5898553  53.9864913  33.6836493  38.7438553  53.2464913  33.4776493
  47.8248553  65.5654913  45.0886493  47.1538553  66.0794913  45.3066493
  47.8878553  65.6654913  44.2246493  47.7348553  65.6564913  44.9936493
  36.5088553  63.0904913  38.2236493  36.6348553  63.9334913  38.4106493
  37.1768553  62.6914913  38.6196493  36.6268553  63.1564913  38.3096493
  45.6158553  55.2504913  41.6886493  44.9538553  55.5784913  42.1516493
  45.8028553  55.8844913  41.1196493  45.5458553  55.3924913  41.6726493
  39.8208553  66.3144913  42.6846493  39.5438553  65.6734913  42.1616493
  39.6128553  67.0404913  42.2466493  39.7498553  66.3274913  42.5426493
  43.8088553  53.2194913  35.1996493  44.2988553  53.9364913  35.1226493
  43.0188553  53.4804913  34.9366493  43.7648553  53.3634913  35.1496493
  33.5198553  58.8924913  48.8516493  33.4828553  59.3934913  48.1376493
  33.8508553  58.1404913  48.5566493  33.5628553  58.8544913  48.7026493
  45.1228553  61.0974913  47.1096493  45.6068553  61.8154913  47.2076493
  45.5168553  60.6704913  46.4586493  45.2528553  61.1404913  47.0276493
  39.4188553  63.9424913  48.2866493  39.7728553  63.7644913  49.0636493
  38.9828553  63.2134913  48.0876493  39.4068553  63.8084913  48.3726493
  42.5798553  57.8584913  33.1986493  42.5718553  58.5804913  32.7086493
  41.9408553  57.9934913  33.7756493  42.4848553  57.9854913  33.2116493
  47.5518553  61.7284913  37.1796493  47.9078553  61.3784913  37.8946493
  47.5438553  61.0674913  36.6096493  47.6038553  61.5784913  37.2006493
  43.5968553  64.7944913  41.0236493  42.9938553  64.4984913  40.4666493
  44.1418553  65.2464913  40.5146493  43.5878553  64.8174913  40.8656493
  43.6098553  61.6454913  40.4236493  42.8128553  61.8694913  40.6976493
  43.8678553  61.0514913  41.0086493  43.5298553  61.5904913  40.5506493
  37.5018553  66.4574913  34.8716493  37.3548553  65.6814913  35.2426493
  38.1908553  66.3104913  34.3566493  37.5818553  66.3204913  34.8506493
  39.7938553  65.9734913  33.2736493  40.4158553  66.1364913  33.8636493
  39.8298553  66.6644913  32.7416493  39.8908553  66.0994913  33.2826493
  43.0608553  64.9924913  49.5466493  43.2248553  65.2754913  50.3556493
  43.3238553  65.6534913  49.0416493  43.1238553  65.1324913  49.5916493
  47.9018553  49.9414913  48.2566493  47.2648553  49.5414913  47.8146493
  47.9278553  49.5104913  49.0146493  47.8118553  49.8194913  48.3026493
  34.2948553  58.5074913  34.1026493  34.6188553  57.7284913  33.8806493
  34.9408553  58.8754913  34.5576493  34.4378553  58.4464913  34.1366493
  42.6008553  59.4494913  44.8696493  42.4458553  60.0594913  45.4736493
  43.1348553  58.8914913  45.2756493  42.6568553  59.4574913  45.0186493
  31.2918553  50.1684913  35.0706493  31.4208553  49.4604913  34.5786493
  30.9248553  49.8504913  35.7956493  31.2568553  50.0164913  35.1056493
  40.9848553  57.8494913  35.5276493  41.0438553  58.4994913  36.1066493
  40.7958553  57.1534913  36.0186493  40.9658553  57.8424913  35.6856493
  46.2108553  62.1784913  41.3966493  45.7318553  62.4764913  40.7306493
  45.8548553  61.4024913  41.5746493  46.0878553  62.1074913  41.3246493
  35.4808553  52.3664913  32.0396493  34.9698553  52.4194913  31.3336493
  36.2648553  52.6064913  31.7436493  35.5208553  52.4094913  31.8916493
  40.2078553  59.8964913  39.9586493  39.3608553  59.7024913  40.0396493
  40.5318553  59.7314913  40.7516493  40.1298553  59.8434913  40.0876493
  36.9598553  66.6264913  30.8446493  37.3988553  65.9294913  31.1326493
  37.1668553  67.2504913  31.4176493  37.0558553  66.6154913  30.9716493
  34.0558553  59.5894913  42.2746493  34.7778553  60.0774913  42.2376493
  33.7858553  59.5594913  41.4456493  34.1228553  59.6574913  42.1466493
  49.9028553  66.3444913  33.3366493  50.5968553  65.8774913  33.0886493
  49.3638553  65.7464913  33.6736493  49.9258553  66.1864913  33.3496493
  47.1418553  59.1204913  42.5156493  47.1348553  58.3444913  42.9136493
  46.3008553  59.3544913  42.5086493  47.0168553  59.0404913  42.5736493
  36.6318553  57.5324913  31.1506493  36.0218553  57.1274913  31.6246493
  36.2458553  57.6504913  30.3776493  36.4848553  57.4894913  31.1066493
  33.4508553  60.6414913  46.5526493  33.0298553  60.1234913  45.9916493
  33.0988553  61.4274913  46.4096493  33.3368553  60.6814913  46.4486493
  48.3978553  59.1914913  39.9526493  48.1118553  59.5924913  40.6726493
  49.2578553  59.1294913  40.0796493  48.4828553  59.2414913  40.0776493
  38.0868553  55.9934913  33.8606493  38.3588553  56.8194913  33.9276493
  37.2238553  56.0684913  33.7646493  37.9998553  56.1264913  33.8556493
  46.0598553  53.1154913  48.4926493  45.5348553  53.5744913  49.0166493
  45.6988553  52.3204913  48.4866493  45.9288553  53.0654913  48.5686493
  49.5288553  64.8244913  40.4816493  49.8188553  65.0814913  39.7006493
  50.2238553  64.9204913  41.0006493  49.6748553  64.8764913  40.4426493
  44.5518553  56.6844913  48.5686493  44.6248553  56.7884913  49.4316493
  43.9178553  57.2424913  48.3476493  44.4688553  56.7824913  48.6636493
  46.8198553  57.0034913  46.9336493  47.1388553  57.7894913  47.1366493
  46.4498553  56.7334913  47.6766493  46.8128553  57.0794913  47.0736493
  46.1338553  63.4274913  32.4636493  46.4678553  62.6214913  32.4986493
  45.3788553  63.3554913  32.8936493  46.0718553  63.2974913  32.5326493
  46.6158553  55.2614913  38.1226493  45.8708553  54.9384913  38.4406493
  46.6178553  56.0874913  38.4026493  46.5058553  55.3354913  38.2106493
  49.5178553  57.5454913  49.6686493  49.4658553  57.2044913  48.8676493
  50.2548553  58.0124913  49.6466493  49.6188553  57.5644913  49.5466493
  49.0558553  61.2214913  45.8746493  49.6838553  60.6724913  45.6186493
  48.9948553  61.7864913  45.2126493  49.1398553  61.2244913  45.7386493
  43.5078553  61.3024913  31.8666493  44.1918553  60.7884913  31.6976493
  43.0908553  61.3484913  31.1016493  43.5468553  61.2334913  31.7286493
  38.1898553  62.4524913  43.1706493  37.8918553  63.0444913  43.7376493
  38.2448553  62.8944913  42.4216493  38.1538553  62.6054913  43.1436493
  36.1688553  61.4024913  46.5686493  35.3628553  61.1124913  46.7356493
  36.0798553  62.2704913  46.5746493  36.0368553  61.4874913  46.5936493
  40.7058553  58.8754913  42.6616493  41.1818553  59.2494913  43.2896493
  39.8828553  59.0094913  42.9206493  40.6548553  58.9504913  42.7926493
  39.9698553  66.2684913  37.8896493  40.5158553  66.9474913  37.9436493
  39.6198553  66.3504913  37.0946493  39.9988553  66.3814913  37.7796493
  46.8128553  49.5714913  43.2536493  46.5328553  50.3964913  43.2096493
  47.5288553  49.6244913  43.7496493  46.8778553  49.7014913  43.3206493
  38.1528553  64.4964913  41.2786493  37.5288553  65.0784913  41.0966493
  38.4008553  64.2104913  40.4926493  38.0968553  64.5404913  41.1356493
  42.4618553  61.1304913  48.2676493  43.2188553  61.4164913  47.9416493
  41.9148553  61.1824913  47.5896493  42.4928553  61.1804913  48.1186493
  46.3708553  63.6804913  46.7716493  46.7168553  63.9504913  47.5256493
  46.6648553  64.2624913  46.1916493  46.4658553  63.8064913  46.7976493
  48.2338553  55.8264913  32.1106493  48.6118553  56.5034913  31.7106493
  47.3918553  56.0504913  32.1416493  48.1648553  55.9594913  32.0556493
  39.7468553  59.2724913  31.1936493  38.9418553  59.0954913  30.9086493
  39.7138553  60.1234913  31.3856493  39.6228553  59.3714913  31.1806493
  40.8058553  66.1454913  47.1586493  41.2838553  65.5454913  46.7426493
  40.4548553  65.7024913  47.8236493  40.8248553  65.9914913  47.1956493
  45.9288553  55.4254913  35.4856493  46.1358553  55.2244913  36.3096493
  46.6848553  55.6934913  35.1436493  46.0708553  55.4354913  35.5566493
  47.3938553  59.4524913  35.3396493  47.8698553  58.7234913  35.2916493
  46.5728553  59.1664913  35.2636493  47.3428553  59.3024913  35.3206493
  40.8648553  61.3644913  46.1786493  40.0698553  61.3004913  46.5296493
  40.9358553  62.2114913  45.9836493  40.7578553  61.4794913  46.2016493
  36.6948553  67.5714913  41.4956493  36.7058553  67.6304913  42.3656493
  36.2698553  66.8244913  41.3456493  36.6338553  67.4694913  41.6016493
  43.6098553  60.6194913  37.6946493  43.6858553  60.9604913  38.4936493
  43.7788553  59.7724913  37.8156493  43.6458553  60.5444913  37.8306493
  41.1318553  59.8934913  37.2596493  40.8338553  59.5784913  38.0166493
  41.8268553  60.3664913  37.4946493  41.1908553  59.9164913  37.4066493
  41.3538553  64.0114913  45.2866493  42.0408553  63.8974913  45.8116493
  41.4878553  64.8024913  44.9426493  41.4748553  64.1114913  45.3136493
  49.5298553  56.6204913  47.0976493  48.6748553  56.4984913  47.2236493
  49.6828553  56.2254913  46.3346493  49.4258553  56.5434913  47.0036493
  44.0428553  57.2854913  45.6736493  43.7878553  56.5664913  46.0956493
  44.8638553  57.4014913  45.9436493  44.1268553  57.1964913  45.7756493
  33.4588553  67.0694913  46.9376493  32.8048553  66.5004913  47.0356493
  33.0838553  67.8424913  47.0886493  33.3068553  67.0994913  46.9746493
  41.9768553  58.4754913  48.8606493  42.2998553  59.1614913  48.4286493
  41.2728553  58.7984913  49.2626493  41.9198553  58.6244913  48.8556493
  45.0608553  66.8494913  39.7896493  44.6098553  67.4924913  40.1686493
  45.7688553  66.7704913  40.2946493  45.0988553  66.9324913  39.9206493
  41.7618553  61.9394913  42.7196493  41.0678553  62.3414913  43.0626493
  42.4388553  62.3724913  43.0586493  41.7588553  62.0624913  42.8206493
  47.1388553  64.5324913  49.2996493  47.9148553  64.1424913  49.3826493
  46.6698553  64.1964913  49.9546493  47.1838553  64.4254913  49.4086493
  48.1638553  56.5654913  34.7816493  48.2668553  56.5074913  33.9176493
  48.9048553  56.2334913  35.0996493  48.2888553  56.5084913  34.7006493
  42.0838553  63.5304913  35.8886493  41.8788553  64.3634913  35.7296493
  41.3088553  63.1484913  36.0106493  41.9388553  63.5974913  35.8836493
  47.2658553  56.7114913  44.1376493  47.2638553  55.8484913  44.2616493
  47.3328553  57.0354913  44.9446493  47.2758553  56.6314913  44.2746493
  32.0018553  59.1514913  44.5656493  32.3218553  59.3704913  43.7846493
  31.9018553  58.2864913  44.5106493  32.0338553  59.0564913  44.4426493
  33.4578553  55.0874913  31.1836493  32.7858553  55.1014913  31.7396493
  33.5528553  54.2394913  30.9996493  33.3728553  54.9644913  31.2386493
  37.4458553  63.7924913  32.2976493  37.8868553  63.8724913  33.0456493
  36.6408553  63.5764913  32.5556493  37.3918553  63.7724913  32.4466493
  46.0408553  57.4974913  40.0646493  46.7068553  58.0384913  40.2246493
  45.6958553  57.8084913  39.3256493  46.0878553  57.6234913  39.9796493
  46.3538553  65.5634913  35.8716493  46.1798553  64.9094913  36.4216493
  47.0668553  65.2924913  35.4486493  46.4338553  65.4264913  35.8906493
  34.7748553  62.8624913  32.8986493  34.5308553  62.5554913  33.6786493
  34.7418553  62.1594913  32.3826493  34.7338553  62.7134913  32.9376493
  37.5938553  61.1074913  31.6416493  36.7758553  60.8394913  31.7816493
  37.5658553  61.9594913  31.8266493  37.4688553  61.1944913  31.6896493
  49.2118553  50.0554913  44.7296493  49.1598553  50.0114913  45.5996493
  49.8988553  49.5524913  44.5396493  49.3058553  49.9754913  44.8296493
  44.0288553  63.0164913  43.5626493  44.2348553  63.3174913  44.3546493
  43.9678553  63.7384913  43.0776493  44.0498553  63.1674913  43.6076493
  43.5628553  67.2304913  47.8086493  42.8098553  67.2124913  47.3676493
  43.7308553  68.0824913  47.8926493  43.4768553  67.3534913  47.7556493
  48.8408553  61.6554913  43.0206493  48.8088553  60.7934913  42.8856493
  48.1478553  61.9574913  42.5866493  48.7338553  61.5724913  42.9366493
  37.2348553  66.8534913  47.2266493  37.2758553  66.9794913  48.0896493
  37.8858553  66.2934913  47.0706493  37.3368553  66.7894913  47.3316493
  46.9458553  64.9154913  41.8176493  47.4728553  64.8324913  41.1266493
  46.5548553  64.1374913  41.8716493  46.9658553  64.7884913  41.7236493
  34.8278553  65.2364913  48.5866493  35.4228553  65.6674913  49.0586493
  34.4638553  65.8604913  48.0976493  34.8618553  65.3924913  48.5836493
  32.7548553  63.2254913  45.5156493  32.1808553  63.6414913  46.0246493
  33.4878553  63.6904913  45.6106493  32.7788553  63.3554913  45.6046493
  44.7888553  57.9984913  35.0806493  44.8568553  57.1484913  35.2616493
  43.9658553  58.0844913  34.8026493  44.6768553  57.8854913  35.0666493
  34.5408553  66.4924913  34.2906493  34.3958553  66.6484913  33.4446493
  35.4068553  66.5714913  34.3686493  34.6478553  66.5274913  34.1776493
  38.7078553  58.8894913  34.0186493  38.8078553  59.0284913  33.1636493
  39.5258553  58.8294913  34.3146493  38.8428553  58.9004913  33.9356493
  47.8678553  66.9534913  31.4986493  48.5048553  66.8194913  32.0796493
  47.5268553  66.1594913  31.3816493  47.9118553  66.8164913  31.5666493
  48.0628553  59.3714913  48.2316493  48.6968553  59.2014913  48.8056493
  48.4798553  59.7744913  47.5796493  48.2178553  59.4064913  48.2206493
  43.9428553  63.2184913  33.8206493  43.6918553  63.0904913  34.6466493
  43.6258553  62.5234913  33.3996493  43.8588553  63.0974913  33.8806493
  48.6878553  53.9354913  48.9696493  48.4918553  54.5794913  49.5246493
  47.9658553  53.4454913  48.9616493  48.5528553  53.9584913  49.0506493
  48.5868553  54.8764913  41.9406493  47.7538553  55.1264913  41.8686493
  48.5308553  54.0364913  42.1696493  48.4558553  54.7894913  41.9636493
  45.4738553  59.4824913  49.5866493  46.3448553  59.4464913  49.5506493
  45.2548553  59.9024913  48.8546493  45.5708553  59.5384913  49.4736493
  35.2278553  65.3074913  40.7676493  35.1488553  64.4974913  40.4516493
  34.7838553  65.7944913  40.1956493  35.1508553  65.2594913  40.6366493
  40.8288553  61.4264913  33.2506493  41.5458553  61.0794913  32.8946493
  40.7948553  62.2264913  32.9026493  40.9298553  61.4934913  33.1466493
  32.7998553  67.5514913  44.3486493  33.2928553  67.4954913  45.0666493
  32.9878553  66.8184913  43.9136493  32.9008553  67.4344913  44.3906493
  42.2378553  50.0674913  17.4894083  41.9928553  50.5554913  16.8094083
  43.1008553  49.9944913  17.3894083  42.3288553  50.1284913  17.3744083
  42.0468553  56.9834913  22.1604083  41.5228553  57.5794913  22.5234083
  42.4438553  56.6154913  22.8444083  42.0278553  57.0174913  22.3154083
  31.9158553  61.1234913  17.6164083  31.4748553  61.2414913  18.3594083
  31.6328553  60.3484913  17.3314083  31.8088553  61.0264913  17.6844083
  48.1908553  64.4244913  15.1314083  48.8918553  63.9054913  15.1274083
  47.6038553  63.9794913  14.6624083  48.2078553  64.2814913  15.0614083
  31.6588553  54.9154913  14.1234083  30.8808553  55.0774913  13.7634083
  31.6978553  54.0444913  14.1454083  31.5498553  54.8104913  14.0734083
  34.7978553  60.1784913  12.7954083  34.4058553  59.8074913  12.1094083
  34.7178553  59.5804913  13.4244083  34.7278553  60.0354913  12.7864083
  44.7178553  58.0504913  18.8364083  44.7978553  58.0544913  17.9674083
  44.1338553  57.4184913  18.9854083  44.6428553  57.9574913  18.7304083
  34.4248553  61.8194913  16.6954083  35.0328553  61.6494913  17.2984083
  33.6738553  61.6794913  17.1164083  34.4038553  61.7734913  16.8464083
  38.7068553  51.1544913  16.6444083  38.6368553  51.8314913  16.0984083
  39.4478553  50.7664913  16.3954083  38.8058553  51.1974913  16.5264083
  33.3158553  64.9104913  12.7724083  33.7828553  64.9944913  12.0404083
  33.7708553  64.3324913  13.2414083  33.4518553  64.8374913  12.7334083
  31.8558553  63.8584913  23.8714083  31.9848553  63.5784913  24.6874083
  31.2458553  63.3174913  23.5624083  31.7848553  63.7374913  23.9464083
  38.4298553  61.3834913  28.9384083  38.1938553  61.3804913  29.7784083
  37.6818553  61.2354913  28.5144083  38.2838553  61.3604913  28.9994083
  33.3018553  58.3794913  18.0734083  32.8398553  57.9874913  17.4464083
  34.0018553  57.8664913  18.1654083  33.3368553  58.2464913  17.9944083
  37.8098553  53.9894913  23.4204083  38.4878553  54.0074913  22.8714083
  37.7648553  53.1534913  23.6654083  37.9028553  53.8684913  23.3754083
  38.4118553  64.5754913  26.2014083  38.5498553  65.3354913  25.7944083
  39.2028553  64.2104913  26.2284083  38.5488553  64.6344913  26.1454083
  35.3028553  56.4794913  18.0964083  36.1198553  56.2924913  18.3394083
  34.8258553  55.8654913  18.4924083  35.3528553  56.3614913  18.1914083
  39.5068553  62.4604913  20.7064083  39.8548553  61.6614913  20.7364083
  40.1718553  62.9644913  20.4514083  39.6568553  62.4164913  20.6734083
  39.5638553  61.9094913  16.9174083  39.8948553  61.2654913  17.4034083
  39.8038553  61.6984913  16.1064083  39.6478553  61.7834913  16.8694083
  41.5318553  56.0404913  28.2564083  40.6838553  55.9414913  28.0784083
  41.5608553  56.7854913  28.7104083  41.4108553  56.1364913  28.2974083
  35.8998553  51.5734913  17.3624083  35.6038553  52.0744913  16.7124083
  36.7668553  51.6514913  17.3054083  35.9838553  51.6594913  17.2584083
  46.0898553  49.0004913  27.3704083  45.9318553  49.7694913  26.9884083
  45.3178553  48.7804913  27.7144083  45.9518553  49.0814913  27.3654083
  38.8788553  50.7154913  19.5854083  38.9518553  51.5754913  19.7144083
  38.8408553  50.6404913  18.7174083  38.8838553  50.8314913  19.4764083
  43.5518553  53.6414913  11.8844083  43.1018553  54.3224913  12.1914083
  43.6658553  53.1374913  12.5874083  43.5028553  53.6674913  12.0334083
  31.7578553  56.1404913  21.0864083  31.5018553  56.9714913  21.0114083
  31.0938553  55.7574913  21.5034083  31.6218553  56.2064913  21.1374083
  31.6678553  65.8504913  18.9864083  31.0758553  66.4084913  18.6734083
  32.0938553  65.5814913  18.2744083  31.6438553  65.8924913  18.8354083
  37.5078553  63.6944913  16.4664083  36.9288553  63.4194913  17.0584083
  38.1318553  63.0854913  16.4914083  37.5148553  63.5644913  16.5574083
  43.6508553  65.9824913  13.9884083  44.3778553  66.4544913  14.0904083
  43.8798553  65.1884913  14.2684083  43.7928553  65.9354913  14.0454083
  41.8188553  66.3744913  15.9784083  42.0328553  66.9014913  16.6404083
  42.5858553  66.2004913  15.5994083  41.9638553  66.4264913  16.0204083
  34.7868553  50.9574913  21.5774083  34.2658553  50.3294913  21.2694083
  35.3778553  50.5204913  22.0484083  34.7978553  50.7994913  21.6014083
  38.0928553  53.0904913  30.8754083  38.2098553  52.6364913  30.1394083
  38.3808553  53.8884913  30.6724083  38.1528553  53.1414913  30.7364083
  33.2128553  64.5204913  16.9174083  33.8688553  63.9454913  16.9324083
  33.6018553  65.2694913  16.6964083  33.3678553  64.5454913  16.8874083
  48.9458553  53.6144913  18.1794083  48.5998553  54.2924913  18.6054083
  48.3098553  53.0164913  18.1954083  48.8008553  53.6264913  18.2444083
  44.2578553  66.3844913  24.2834083  45.0018553  66.8404913  24.2734083
  44.1368553  66.1704913  23.4464083  44.3498553  66.4204913  24.1584083
  33.8258553  52.6874913  29.8594083  33.0478553  52.2974913  29.7874083
  34.3168553  52.2754913  29.2684083  33.7828553  52.5684913  29.7614083
  34.0308553  63.0074913  20.4174083  34.4538553  62.6514913  19.7434083
  34.3548553  62.5854913  21.1094083  34.1408553  62.8924913  20.4204083
  37.2618553  65.8594913  19.7134083  38.1058553  65.9634913  19.5184083
  36.9648553  66.6774913  19.7814083  37.3428553  65.9954913  19.6944083
  41.0688553  55.2564913  17.8004083  41.3558553  55.0244913  17.0104083
  41.8008553  55.3354913  18.2694083  41.2188553  55.2334913  17.7534083
  41.7908553  55.5954913  12.9214083  42.0718553  56.3834913  13.1704083
  41.0148553  55.7604913  12.5584083  41.7178553  55.7364913  12.9044083
  45.8318553  67.5694913  14.3884083  46.4968553  67.4214913  13.8434083
  46.1918553  67.4864913  15.1784083  45.9838553  67.5354913  14.4244083
  36.2598553  67.0784913  25.4534083  36.5518553  67.0114913  26.2734083
  35.6338553  66.4734913  25.4084083  36.2108553  66.9794913  25.5684083
  48.6208553  51.9374913  23.5484083  49.3778553  52.0094913  23.1204083
  48.6838553  51.1644913  23.9474083  48.7418553  51.8344913  23.5434083
  31.1738553  53.2354913  27.4454083  31.1698553  53.8224913  28.0914083
  31.7678553  53.5474913  26.8884083  31.2608553  53.3684913  27.4584083
  43.5118553  63.5694913  27.9874083  43.4778553  63.9514913  28.7714083
  44.3658553  63.5274913  27.8164083  43.6328553  63.6194913  28.0784083
  40.6498553  63.7664913  12.7374083  40.4688553  64.3114913  13.3944083
  41.4158553  64.0564913  12.4364083  40.7358553  63.8904913  12.7904083
  44.1568553  51.6624913  13.7914083  44.6968553  50.9804913  13.8674083
  44.2188553  52.0604913  14.5654083  44.2458553  51.6204913  13.9174083
  32.1108553  52.8304913  16.3604083  31.9968553  51.9664913  16.3914083
  31.6358553  53.1244913  17.0304083  32.0238553  52.7464913  16.4634083
  34.2528553  65.2404913  24.5754083  33.5548553  64.7324913  24.7014083
  34.5128553  65.0354913  23.7674083  34.1878553  65.1354913  24.4744083
  41.4148553  54.0384913  15.1054083  40.9068553  53.3764913  14.8514083
  41.4668553  54.5424913  14.3954083  41.3478553  54.0154913  14.9634083
  41.9638553  66.7334913  25.4854083  42.7318553  66.6534913  25.0794083
  41.3808553  66.6124913  24.8474083  41.9908553  66.7034913  25.3314083
  41.4148553  50.9794913  14.9964083  40.9598553  50.5774913  14.3704083
  42.1878553  51.1344913  14.6214083  41.4618553  50.9434913  14.8484083
  48.2408553  67.3364913  18.3864083  47.7858553  68.0534913  18.5874083
  47.6268553  66.7654913  18.1444083  48.0828553  67.3584913  18.3804083
  40.0128553  53.3464913  19.5184083  40.0868553  53.9144913  18.8604083
  40.1338553  53.8384913  20.2284083  40.0408553  53.5034913  19.5264083
  45.2378553  63.1814913  17.9304083  45.9388553  62.6994913  18.1194083
  44.5778553  62.6124913  17.9754083  45.2438553  63.0264913  17.9644083
  35.6138553  64.0914913  27.1424083  36.4548553  64.1544913  26.9204083
  35.5768553  64.4884913  27.9184083  35.7328553  64.1594913  27.2244083
  34.6208553  49.1694913  17.8664083  35.1568553  49.8574913  17.8564083
  34.6238553  48.8954913  17.0384083  34.6998553  49.2304913  17.7424083
  37.5768553  59.6024913  21.8914083  37.7488553  59.3924913  22.7204083
  36.9218553  59.0684913  21.6754083  37.5058553  59.4924913  21.9824083
  43.8048553  53.5164913  25.4064083  43.7098553  53.8354913  26.2124083
  43.2118553  52.8774913  25.3684083  43.7028553  53.4684913  25.5204083
  38.3268553  59.5404913  24.4814083  38.3798553  60.3874913  24.6834083
  38.0418553  59.1704913  25.2184083  38.2928553  59.6104913  24.6194083
  44.5038553  60.2354913  23.6114083  43.9898553  59.8234913  24.1824083
  44.3778553  61.0794913  23.7924083  44.4098553  60.2994913  23.7224083
  45.0608553  49.4604913  18.2424083  45.1098553  49.1424913  19.0534083
  45.3838553  48.8164913  17.7494083  45.1158553  49.3184913  18.2894083
  31.1478553  63.9114913  30.6924083  31.9038553  64.2604913  30.9504083
  31.3248553  63.0584913  30.6354083  31.2858553  63.8364913  30.7224083
  47.5248553  53.6964913  26.5504083  48.2968553  53.4714913  26.8874083
  47.0498553  53.9134913  27.2504083  47.5688553  53.6954913  26.7034083
  35.0688553  52.9794913  19.5204083  35.3408553  52.5494913  18.8124083
  34.8928553  52.3434913  20.0914083  35.0828553  52.8224913  19.5004083
  47.7568553  60.6744913  13.7384083  47.8758553  60.3874913  14.5534083
  48.5638553  60.6954913  13.4084083  47.8928553  60.6354913  13.8104083
  34.8928553  60.4064913  19.0694083  35.7438553  60.3264913  18.8964083
  34.5358553  59.7244913  18.6574083  34.9658553  60.2934913  18.9824083
  33.6598553  67.1314913  20.3064083  32.9868553  66.6334913  20.0614083
  34.0628553  67.3164913  19.5554083  33.6198553  67.0854913  20.1594083
  33.2098553  54.0814913  22.6024083  34.0528553  54.3014913  22.5594083
  32.8208553  54.6544913  22.0714083  33.2768553  54.1984913  22.5174083
  49.9908553  65.1834913  27.9924083  49.3088553  65.4934913  27.5454083
  49.6218553  64.7254913  28.6374083  49.8348553  65.1614913  28.0214083
  45.6518553  57.2114913  13.3234083  45.4318553  57.9424913  12.9014083
  45.2038553  57.2624913  14.0704083  45.5528553  57.3264913  13.3714083
  37.2608553  60.4134913  17.3044083  37.9738553  60.9084913  17.3944083
  37.4828553  59.8464913  16.6784083  37.3988553  60.4024913  17.2254083
  49.8388553  52.0724913  12.7764083  49.1768553  51.5044913  12.7994083
  49.6458553  52.5844913  12.0964083  49.7128553  52.0644913  12.6794083
  31.4168553  62.0564913  20.6244083  30.7498553  62.5444913  20.9004083
  32.0968553  62.6014913  20.6534083  31.4188553  62.2084913  20.6694083
  39.0638553  55.7664913  30.7204083  38.5798553  56.3434913  31.1624083
  39.0358553  56.0614913  29.8994083  38.9878553  55.8954913  30.6644083
  50.1618553  56.4504913  25.3324083  50.3768553  55.6504913  25.0564083
  49.3118553  56.5104913  25.1434083  50.0678553  56.3414913  25.2634083
  31.4828553  58.7404913  15.7274083  31.2978553  57.9014913  15.8794083
  32.1418553  58.7044913  15.1574083  31.5528553  58.6114913  15.6654083
  47.8408553  51.6304913  15.0554083  48.5868553  51.2234913  15.2544083
  48.1038553  52.3454913  14.6304083  47.9898553  51.6764913  15.0224083
  41.7838553  64.1164913  19.6314083  41.2608553  64.7504913  19.3384083
  42.0938553  63.7524913  18.9024083  41.7518553  64.1564913  19.4804083
  31.6548553  62.9044913  15.3024083  32.2068553  63.4734913  15.6664083
  31.4228553  62.3894913  15.9674083  31.7018553  62.9124913  15.4544083
  35.8588553  61.9044913  22.3914083  36.3258553  62.1934913  23.0694083
  36.4308553  61.4264913  21.9374083  36.0128553  61.8764913  22.4244083
  44.2948553  53.9184913  20.1284083  44.6388553  54.0704913  20.9154083
  43.8418553  53.1804913  20.2414083  44.2788553  53.8314913  20.2614083
  31.4848553  61.3534913  12.9304083  32.2408553  60.9214913  12.9884083
  31.4998553  61.8854913  13.6214083  31.5988553  61.3684913  13.0414083
  32.4248553  59.5744913  20.9354083  32.8558553  59.4454913  20.1884083
  32.2198553  60.4224913  20.9094083  32.4578553  59.6804913  20.8214083
  38.7708553  53.1384913  14.5854083  38.7688553  53.0214913  13.7204083
  38.5898553  53.9864913  14.6774083  38.7438553  53.2464913  14.4714083
  47.8248553  65.5654913  26.0824083  47.1538553  66.0794913  26.3004083
  47.8878553  65.6654913  25.2184083  47.7348553  65.6564913  25.9874083
  36.5088553  63.0904913  19.2174083  36.6348553  63.9334913  19.4044083
  37.1768553  62.6914913  19.6134083  36.6268553  63.1564913  19.3034083
  34.6388553  56.5734913  29.0794083  34.1028553  56.0674913  29.5474083
  34.6588553  56.1834913  28.2994083  34.5618553  56.4404913  29.0334083
  35.1238553  55.9704913  14.2194083  34.9958553  55.5224913  14.9574083
  34.5418553  55.6284913  13.6674083  35.0188553  55.8534913  14.2474083
  35.2908553  57.8004913  20.8184083  34.5098553  57.7414913  20.4354083
  35.3628553  57.0484913  21.2554083  35.1858553  57.6814913  20.8264083
  35.7208553  57.5374913  24.2864083  35.7458553  56.8624913  23.7354083
  35.0748553  58.0334913  23.9744083  35.6298553  57.5104913  24.1594083
  45.6158553  55.2504913  22.6824083  44.9538553  55.5784913  23.1454083
  45.8028553  55.8844913  22.1134083  45.5458553  55.3924913  22.6664083
  39.8208553  66.3144913  23.6784083  39.5438553  65.6734913  23.1554083
  39.6128553  67.0404913  23.2404083  39.7498553  66.3274913  23.5364083
  42.2608553  51.1564913  26.1114083  42.4098553  50.3314913  25.8684083
  42.6398553  51.2114913  26.8954083  42.3388553  51.0424913  26.1914083
  43.8088553  53.2194913  16.1934083  44.2988553  53.9364913  16.1164083
  43.0188553  53.4804913  15.9304083  43.7648553  53.3634913  16.1434083
  33.5198553  58.8924913  29.8454083  33.4828553  59.3934913  29.1314083
  33.8508553  58.1404913  29.5504083  33.5628553  58.8544913  29.6964083
  45.1228553  61.0974913  28.1034083  45.6068553  61.8154913  28.2014083
  45.5168553  60.6704913  27.4524083  45.2528553  61.1404913  28.0214083
  39.4188553  63.9424913  29.2804083  39.7728553  63.7644913  30.0574083
  38.9828553  63.2134913  29.0814083  39.4068553  63.8084913  29.3664083
  40.3908553  54.6894913  21.9184083  40.8708553  55.3884913  22.1264083
  40.7638553  54.0424913  22.3694083  40.5168553  54.6974913  22.0154083
  42.5798553  57.8584913  14.1924083  42.5718553  58.5804913  13.7024083
  41.9408553  57.9934913  14.7694083  42.4848553  57.9854913  14.2054083
  47.5518553  61.7284913  18.1734083  47.9078553  61.3784913  18.8884083
  47.5438553  61.0674913  17.6034083  47.6038553  61.5784913  18.1944083
  43.5968553  64.7944913  22.0174083  42.9938553  64.4984913  21.4604083
  44.1418553  65.2464913  21.5084083  43.5878553  64.8174913  21.8594083
  43.6098553  61.6454913  21.4174083  42.8128553  61.8694913  21.6914083
  43.8678553  61.0514913  22.0024083  43.5298553  61.5904913  21.5444083
  37.5018553  66.4574913  15.8654083  37.3548553  65.6814913  16.2364083
  38.1908553  66.3104913  15.3504083  37.5818553  66.3204913  15.8444083
  37.1728553  50.2004913  13.8534083  37.2698553  50.0934913  14.7144083
  36.4648553  50.7064913  13.7884083  37.0828553  50.2594913  13.9714083
  39.7938553  65.9734913  14.2674083  40.4158553  66.1364913  14.8574083
  39.8298553  66.6644913  13.7354083  39.8908553  66.0994913  14.2764083
  46.8698553  59.6434913  26.2634083  46.9248553  59.7684913  25.4014083
  47.6228553  59.9634913  26.5654083  46.9888553  59.7084913  26.1804083
  43.0608553  64.9924913  30.5404083  43.2248553  65.2754913  31.3494083
  43.3238553  65.6534913  30.0354083  43.1238553  65.1324913  30.5854083
  34.2948553  58.5074913  15.0964083  34.6188553  57.7284913  14.8744083
  34.9408553  58.8754913  15.5514083  34.4378553  58.4464913  15.1304083
  42.6008553  59.4494913  25.8634083  42.4458553  60.0594913  26.4674083
  43.1348553  58.8914913  26.2694083  42.6568553  59.4574913  26.0124083
  31.2918553  50.1684913  16.0644083  31.4208553  49.4604913  15.5724083
  30.9248553  49.8504913  16.7894083  31.2568553  50.0164913  16.0994083
  40.9848553  57.8494913  16.5214083  41.0438553  58.4994913  17.1004083
  40.7958553  57.1534913  17.0124083  40.9658553  57.8424913  16.6794083
  46.2108553  62.1784913  22.3904083  45.7318553  62.4764913  21.7244083
  45.8548553  61.4024913  22.5684083  46.0878553  62.1074913  22.3184083
  35.4808553  52.3664913  13.0334083  34.9698553  52.4194913  12.3274083
  36.2648553  52.6064913  12.7374083  35.5208553  52.4094913  12.8854083
  40.2078553  59.8964913  20.9524083  39.3608553  59.7024913  21.0334083
  40.5318553  59.7314913  21.7454083  40.1298553  59.8434913  21.0814083
  36.9598553  66.6264913  11.8384083  37.3988553  65.9294913  12.1264083
  37.1668553  67.2504913  12.4114083  37.0558553  66.6154913  11.9654083
  34.0558553  59.5894913  23.2684083  34.7778553  60.0774913  23.2314083
  33.7858553  59.5594913  22.4394083  34.1228553  59.6574913  23.1404083
  37.2858553  54.7604913  20.0034083  38.1318553  54.5704913  20.1014083
  36.9158553  53.9834913  19.8654083  37.3558553  54.6174913  19.9974083
  49.9028553  66.3444913  14.3304083  50.5968553  65.8774913  14.0824083
  49.3638553  65.7464913  14.6674083  49.9258553  66.1864913  14.3434083
  32.1068553  56.0984913  16.6584083  32.5958553  55.8064913  17.3194083
  32.2358553  55.5054913  16.0314083  32.1978553  55.9674913  16.6634083
  47.1418553  59.1204913  23.5094083  47.1348553  58.3444913  23.9074083
  46.3008553  59.3544913  23.5024083  47.0168553  59.0404913  23.5674083
  36.6318553  57.5324913  12.1444083  36.0218553  57.1274913  12.6184083
  36.2458553  57.6504913  11.3714083  36.4848553  57.4894913  12.1004083
  33.4508553  60.6414913  27.5464083  33.0298553  60.1234913  26.9854083
  33.0988553  61.4274913  27.4034083  33.3368553  60.6814913  27.4424083
  48.3978553  59.1914913  20.9464083  48.1118553  59.5924913  21.6664083
  49.2578553  59.1294913  21.0734083  48.4828553  59.2414913  21.0714083
  38.0868553  55.9934913  14.8544083  38.3588553  56.8194913  14.9214083
  37.2238553  56.0684913  14.7584083  37.9998553  56.1264913  14.8494083
  46.0598553  53.1154913  29.4864083  45.5348553  53.5744913  30.0104083
  45.6988553  52.3204913  29.4804083  45.9288553  53.0654913  29.5624083
  31.5668553  51.9634913  21.3904083  31.6108553  52.3074913  20.5894083
  32.3218553  52.2004913  21.7574083  31.6848553  52.0494913  21.3264083
  49.5288553  64.8244913  21.4754083  49.8188553  65.0814913  20.6944083
  50.2238553  64.9204913  21.9944083  49.6748553  64.8764913  21.4364083
  44.5518553  56.6844913  29.5624083  44.6248553  56.7884913  30.4254083
  43.9178553  57.2424913  29.3414083  44.4688553  56.7824913  29.6574083
  46.8198553  57.0034913  27.9274083  47.1388553  57.7894913  28.1304083
  46.4498553  56.7334913  28.6704083  46.8128553  57.0794913  28.0674083
  46.1338553  63.4274913  13.4574083  46.4678553  62.6214913  13.4924083
  45.3788553  63.3554913  13.8874083  46.0718553  63.2974913  13.5264083
  46.6158553  55.2614913  19.1164083  45.8708553  54.9384913  19.4344083
  46.6178553  56.0874913  19.3964083  46.5058553  55.3354913  19.2044083
  49.5178553  57.5454913  30.6624083  49.4658553  57.2044913  29.8614083
  50.2548553  58.0124913  30.6404083  49.6188553  57.5644913  30.5404083
  49.0558553  61.2214913  26.8684083  49.6838553  60.6724913  26.6124083
  48.9948553  61.7864913  26.2064083  49.1398553  61.2244913  26.7324083
  43.5078553  61.3024913  12.8604083  44.1918553  60.7884913  12.6914083
  43.0908553  61.3484913  12.0954083  43.5468553  61.2334913  12.7224083
  38.1898553  62.4524913  24.1644083  37.8918553  63.0444913  24.7314083
  38.2448553  62.8944913  23.4154083  38.1538553  62.6054913  24.1374083
  36.1688553  61.4024913  27.5624083  35.3628553  61.1124913  27.7294083
  36.0798553  62.2704913  27.5684083  36.0368553  61.4874913  27.5874083
  45.5278553  51.5914913  26.5774083  46.2718553  52.0434913  26.5144083
  44.9618553  52.0614913  26.1084083  45.5548553  51.7284913  26.4994083
  40.7058553  58.8754913  23.6554083  41.1818553  59.2494913  24.2834083
  39.8828553  59.0094913  23.9144083  40.6548553  58.9504913  23.7864083
  37.4158553  54.4784913  26.3964083  37.5768553  53.7344913  26.8234083
  37.3708553  54.2294913  25.5614083  37.4328553  54.3314913  26.3364083
  39.9698553  66.2684913  18.8834083  40.5158553  66.9474913  18.9374083
  39.6198553  66.3504913  18.0884083  39.9988553  66.3814913  18.7734083
  46.8128553  49.5714913  24.2474083  46.5328553  50.3964913  24.2034083
  47.5288553  49.6244913  24.7434083  46.8778553  49.7014913  24.3144083
  39.1678553  50.2864913  26.2764083  39.8728553  50.6064913  25.8744083
  39.4088553  49.4794913  26.5034083  39.3068553  50.2144913  26.2504083
  38.1528553  64.4964913  22.2724083  37.5288553  65.0784913  22.0904083
  38.4008553  64.2104913  21.4864083  38.0968553  64.5404913  22.1294083
  42.4618553  61.1304913  29.2614083  43.2188553  61.4164913  28.9354083
  41.9148553  61.1824913  28.5834083  42.4928553  61.1804913  29.1124083
  46.3708553  63.6804913  27.7654083  46.7168553  63.9504913  28.5194083
  46.6648553  64.2624913  27.1854083  46.4658553  63.8064913  27.7914083
  48.2338553  55.8264913  13.1044083  48.6118553  56.5034913  12.7044083
  47.3918553  56.0504913  13.1354083  48.1648553  55.9594913  13.0494083
  39.7468553  59.2724913  12.1874083  38.9418553  59.0954913  11.9024083
  39.7138553  60.1234913  12.3794083  39.6228553  59.3714913  12.1744083
  35.6768553  55.3394913  22.3374083  36.1168553  55.2364913  21.5914083
  36.2218553  55.0264913  22.9424083  35.8218553  55.2784913  22.3164083
  43.6928553  54.4414913  27.9294083  43.0448553  54.9114913  28.2774083
  44.2578553  54.3524913  28.5884083  43.6808553  54.4974913  28.0784083
  43.3808553  55.9784913  24.2274083  43.6828553  56.3984913  24.9304083
  43.4168553  55.1384913  24.4594083  43.4308553  55.9164913  24.3654083
  40.8058553  66.1454913  28.1524083  41.2838553  65.5454913  27.7364083
  40.4548553  65.7024913  28.8174083  40.8248553  65.9914913  28.1894083
  45.9288553  55.4254913  16.4794083  46.1358553  55.2244913  17.3034083
  46.6848553  55.6934913  16.1374083  46.0708553  55.4354913  16.5504083
  39.2238553  50.3244913  22.3844083  38.3978553  50.1754913  22.6214083
  39.1838553  50.3594913  21.5134083  39.0958553  50.3074913  22.2904083
  46.9508553  51.5084913  17.9534083  46.2368553  51.0374913  18.1244083
  46.7888553  51.8494913  17.1674083  46.8218553  51.4894913  17.8624083
  47.3938553  59.4524913  16.3334083  47.8698553  58.7234913  16.2854083
  46.5728553  59.1664913  16.2574083  47.3428553  59.3024913  16.3144083
  40.8648553  61.3644913  27.1724083  40.0698553  61.3004913  27.5234083
  40.9358553  62.2114913  26.9774083  40.7578553  61.4794913  27.1954083
  31.7888553  50.7224913  28.4194083  31.6488553  51.5174913  28.0884083
  31.0028553  50.4794913  28.7084083  31.6518553  50.8044913  28.4134083
  36.6948553  67.5714913  22.4894083  36.7058553  67.6304913  23.3594083
  36.2698553  66.8244913  22.3394083  36.6338553  67.4694913  22.5954083
  34.8528553  53.4664913  15.6444083  34.9788553  53.1374913  14.8464083
  34.0408553  53.2174913  15.8434083  34.7518553  53.3814913  15.5564083
  43.6098553  60.6194913  18.6884083  43.6858553  60.9604913  19.4874083
  43.7788553  59.7724913  18.8094083  43.6458553  60.5444913  18.8244083
  41.1318553  59.8934913  18.2534083  40.8338553  59.5784913  19.0104083
  41.8268553  60.3664913  18.4884083  41.1908553  59.9164913  18.4004083
  41.3538553  64.0114913  26.2804083  42.0408553  63.8974913  26.8054083
  41.4878553  64.8024913  25.9364083  41.4748553  64.1114913  26.3074083
  49.5298553  56.6204913  28.0914083  48.6748553  56.4984913  28.2174083
  49.6828553  56.2254913  27.3284083  49.4258553  56.5434913  27.9974083
  44.0428553  57.2854913  26.6674083  43.7878553  56.5664913  27.0894083
  44.8638553  57.4014913  26.9374083  44.1268553  57.1964913  26.7694083
  33.4588553  67.0694913  27.9314083  32.8048553  66.5004913  28.0294083
  33.0838553  67.8424913  28.0824083  33.3068553  67.0994913  27.9684083
  41.9768553  58.4754913  29.8544083  42.2998553  59.1614913  29.4224083
  41.2728553  58.7984913  30.2564083  41.9198553  58.6244913  29.8494083
  45.0608553  66.8494913  20.7834083  44.6098553  67.4924913  21.1624083
  45.7688553  66.7704913  21.2884083  45.0988553  66.9324913  20.9144083
  41.7618553  61.9394913  23.7134083  41.0678553  62.3414913  24.0564083
  42.4388553  62.3724913  24.0524083  41.7588553  62.0624913  23.8144083
  47.1388553  64.5324913  30.2934083  47.9148553  64.1424913  30.3764083
  46.6698553  64.1964913  30.9484083  47.1838553  64.4254913  30.4024083
  34.8298553  55.4774913  26.0604083  35.2048553  56.0964913  25.5734083
  35.5038553  55.0034913  26.3454083  34.9848553  55.4994913  26.0304083
  32.6048553  53.9254913  25.3354083  32.6818553  53.7564913  24.4824083
  33.3508553  54.3314913  25.5324083  32.7258553  53.9604913  25.2384083
  48.1638553  56.5654913  15.7754083  48.2668553  56.5074913  14.9114083
  48.9048553  56.2334913  16.0934083  48.2888553  56.5084913  15.6944083
  35.1588553  51.3354913  27.7464083  35.0778553  50.4914913  27.9524083
  34.8448553  51.3794913  26.9334083  35.1008553  51.2174913  27.6564083
  42.0838553  63.5304913  16.8824083  41.8788553  64.3634913  16.7234083
  41.3088553  63.1484913  17.0044083  41.9388553  63.5974913  16.8774083
  47.2658553  56.7114913  25.1314083  47.2638553  55.8484913  25.2554083
  47.3328553  57.0354913  25.9384083  47.2758553  56.6314913  25.2684083
  32.0018553  59.1514913  25.5594083  32.3218553  59.3704913  24.7784083
  31.9018553  58.2864913  25.5044083  32.0338553  59.0564913  25.4364083
  33.4578553  55.0874913  12.1774083  32.7858553  55.1014913  12.7334083
  33.5528553  54.2394913  11.9934083  33.3728553  54.9644913  12.2324083
  43.1448553  51.5114913  28.9134083  43.2368553  52.2234913  29.4074083
  42.5078553  51.0664913  29.3104083  43.0638553  51.5504913  29.0454083
  42.1388553  51.7014913  19.7674083  41.4388553  52.2194913  19.7114083
  42.1768553  51.3214913  18.9834083  42.0408553  51.7224913  19.6434083
  37.4458553  63.7924913  13.2914083  37.8868553  63.8724913  14.0394083
  36.6408553  63.5764913  13.5494083  37.3918553  63.7724913  13.4404083
  45.7368553  52.2174913  22.5674083  46.5918553  52.3164913  22.7124083
  45.3678553  52.7704913  23.1324083  45.8088553  52.3144913  22.6724083
  36.7648553  58.4434913  26.9444083  36.3688553  59.2174913  27.0194083
  36.3588553  58.0704913  26.2684083  36.6468553  58.5024913  26.8554083
  46.0408553  57.4974913  21.0584083  46.7068553  58.0384913  21.2184083
  45.6958553  57.8084913  20.3194083  46.0878553  57.6234913  20.9734083
  46.3538553  65.5634913  16.8654083  46.1798553  64.9094913  17.4154083
  47.0668553  65.2924913  16.4424083  46.4338553  65.4264913  16.8844083
  34.7748553  62.8624913  13.8924083  34.5308553  62.5554913  14.6724083
  34.7418553  62.1594913  13.3764083  34.7338553  62.7134913  13.9314083
  37.5938553  61.1074913  12.6354083  36.7758553  60.8394913  12.7754083
  37.5658553  61.9594913  12.8204083  37.4688553  61.1944913  12.6834083
  37.1938553  51.4204913  24.3944083  36.3298553  51.5044913  24.4744083
  37.4138553  50.9064913  25.0634083  37.0988553  51.3574913  24.5054083
  49.2118553  50.0554913  25.7234083  49.1598553  50.0114913  26.5934083
  49.8988553  49.5524913  25.5334083  49.3058553  49.9754913  25.8234083
  41.2968553  52.1684913  22.7684083  40.5598553  51.7144913  22.8814083
  41.8678553  51.7664913  23.2914083  41.2718553  52.0414913  22.8624083
  44.0288553  63.0164913  24.5564083  44.2348553  63.3174913  25.3484083
  43.9678553  63.7384913  24.0714083  44.0498553  63.1674913  24.6014083
  43.5628553  67.2304913  28.8024083  42.8098553  67.2124913  28.3614083
  43.7308553  68.0824913  28.8864083  43.4768553  67.3534913  28.7494083
  38.7998553  56.4974913  27.9724083  38.4778553  55.9214913  27.4024083
  38.4408553  57.2524913  27.7264083  38.6998553  56.5234913  27.8524083
  39.5958553  49.7494913  12.5994083  39.6738553  49.9964913  11.7664083
  38.8528553  50.1264913  12.8574083  39.4978553  49.8414913  12.5144083
  48.8408553  61.6554913  24.0144083  48.8088553  60.7934913  23.8794083
  48.1478553  61.9574913  23.5804083  48.7338553  61.5724913  23.9304083
  37.2348553  66.8534913  28.2204083  37.2758553  66.9794913  29.0834083
  37.8858553  66.2934913  28.0644083  37.3368553  66.7894913  28.3254083
  46.9458553  64.9154913  22.8114083  47.4728553  64.8324913  22.1204083
  46.5548553  64.1374913  22.8654083  46.9658553  64.7884913  22.7174083
  34.4138553  51.5034913  25.0424083  34.0708553  50.7364913  24.8084083
  33.7188553  52.0274913  25.1064083  34.2608553  51.4674913  25.0174083
  43.4598553  50.3594913  22.0194083  44.1298553  50.9034913  22.1464083
  42.9568553  50.7834913  21.4464083  43.4848553  50.5024913  21.9534083
  34.8278553  65.2364913  29.5804083  35.4228553  65.6674913  30.0524083
  34.4638553  65.8604913  29.0914083  34.8618553  65.3924913  29.5774083
  42.8188553  56.1674913  19.5124083  43.3698553  55.5604913  19.8124083
  42.3938553  56.4304913  20.2274083  42.8378553  56.1164913  19.6614083
  33.0668553  54.8174913  18.9984083  32.6988553  55.1194913  19.7294083
  33.6008553  54.1884913  19.2824083  33.0908553  54.7694913  19.1484083
  32.7548553  63.2254913  26.5094083  32.1808553  63.6414913  27.0184083
  33.4878553  63.6904913  26.6044083  32.7788553  63.3554913  26.5984083
  44.7888553  57.9984913  16.0744083  44.8568553  57.1484913  16.2554083
  43.9658553  58.0844913  15.7964083  44.6768553  57.8854913  16.0604083
  34.5408553  66.4924913  15.2844083  34.3958553  66.6484913  14.4384083
  35.4068553  66.5714913  15.3624083  34.6478553  66.5274913  15.1714083
  38.7078553  58.8894913  15.0124083  38.8078553  59.0284913  14.1574083
  39.5258553  58.8294913  15.3084083  38.8428553  58.9004913  14.9294083
  47.8678553  66.9534913  12.4924083  48.5048553  66.8194913  13.0734083
  47.5268553  66.1594913  12.3754083  47.9118553  66.8164913  12.5604083
  48.0628553  59.3714913  29.2254083  48.6968553  59.2014913  29.7994083
  48.4798553  59.7744913  28.5734083  48.2178553  59.4064913  29.2144083
  43.9428553  63.2184913  14.8144083  43.6918553  63.0904913  15.6404083
  43.6258553  62.5234913  14.3934083  43.8588553  63.0974913  14.8744083
  48.6878553  53.9354913  29.9634083  48.4918553  54.5794913  30.5184083
  47.9658553  53.4454913  29.9554083  48.5528553  53.9584913  30.0444083
  48.5868553  54.8764913  22.9344083  47.7538553  55.1264913  22.8624083
  48.5308553  54.0364913  23.1634083  48.4558553  54.7894913  22.9574083
  37.8468553  51.8644913  28.1284083  38.0808553  51.2884913  27.5154083
  37.0048553  51.6834913  28.2694083  37.7568553  51.7524913  28.0584083
  45.4738553  59.4824913  30.5804083  46.3448553  59.4464913  30.5444083
  45.2548553  59.9024913  29.8484083  45.5708553  59.5384913  30.4674083
  35.2278553  65.3074913  21.7614083  35.1488553  64.4974913  21.4454083
  34.7838553  65.7944913  21.1894083  35.1508553  65.2594913  21.6304083
  40.8288553  61.4264913  14.2444083  41.5458553  61.0794913  13.8884083
  40.7948553  62.2264913  13.8964083  40.9298553  61.4934913  14.1404083
  32.7998553  67.5514913  25.3424083  33.2928553  67.4954913  26.0604083
  32.9878553  66.8184913  24.9074083  32.9008553  67.4344913  25.3844083
  42.0468553  56.9834913   3.1541673  41.5228553  57.5794913   3.5171673
  42.4438553  56.6154913   3.8381673  42.0278553  57.0174913   3.3091673
  31.8558553  63.8584913   4.8651673  31.9848553  63.5784913   5.6811673
  31.2458553  63.3174913   4.5561673  31.7848553  63.7374913   4.9401673
  38.4298553  61.3834913   9.9321673  38.1938553  61.3804913  10.7721673
  37.6818553  61.2354913   9.5081673  38.2838553  61.3604913   9.9931673
  37.8098553  53.9894913   4.4141673  38.4878553  54.0074913   3.8651673
  37.7648553  53.1534913   4.6591673  37.9028553  53.8684913   4.3691673
  38.4118553  64.5754913   7.1951673  38.5498553  65.3354913   6.7881673
  39.2028553  64.2104913   7.2221673  38.5488553  64.6344913   7.1391673
  41.5318553  56.0404913   9.2501673  40.6838553  55.9414913   9.0721673
  41.5608553  56.7854913   9.7041673  41.4108553  56.1364913   9.2911673
  46.0898553  49.0004913   8.3641673  45.9318553  49.7694913   7.9821673
  45.3178553  48.7804913   8.7081673  45.9518553  49.0814913   8.3591673
  31.7578553  56.1404913   2.0801673  31.5018553  56.9714913   2.0051673
  31.0938553  55.7574913   2.4971673  31.6218553  56.2064913   2.1311673
  34.7868553  50.9574913   2.5711673  34.2658553  50.3294913   2.2631673
  35.3778553  50.5204913   3.0421673  34.7978553  50.7994913   2.5951673
  38.0928553  53.0904913  11.8691673  38.2098553  52.6364913  11.1331673
  38.3808553  53.8884913  11.6661673  38.1528553  53.1414913  11.7301673
  44.2578553  66.3844913   5.2771673  45.0018553  66.8404913   5.2671673
  44.1368553  66.1704913   4.4401673  44.3498553  66.4204913   5.1521673
  33.8258553  52.6874913  10.8531673  33.0478553  52.2974913  10.7811673
  34.3168553  52.2754913  10.2621673  33.7828553  52.5684913  10.7551673
  40.4748553  50.3304913  10.0211673  40.6528553  49.5214913   9.7461673
  40.3318553  50.7714913   9.2821673  40.4798553  50.2764913   9.8711673
  36.2598553  67.0784913   6.4471673  36.5518553  67.0114913   7.2671673
  35.6338553  66.4734913   6.4021673  36.2108553  66.9794913   6.5621673
  48.6208553  51.9374913   4.5421673  49.3778553  52.0094913   4.1141673
  48.6838553  51.1644913   4.9411673  48.7418553  51.8344913   4.5371673
  31.1738553  53.2354913   8.4391673  31.1698553  53.8224913   9.0851673
  31.7678553  53.5474913   7.8821673  31.2608553  53.3684913   8.4521673
  43.5118553  63.5694913   8.9811673  43.4778553  63.9514913   9.7651673
  44.3658553  63.5274913   8.8101673  43.6328553  63.6194913   9.0721673
  34.2528553  65.2404913   5.5691673  33.5548553  64.7324913   5.6951673
  34.5128553  65.0354913   4.7611673  34.1878553  65.1354913   5.4681673
  41.9638553  66.7334913   6.4791673  42.7318553  66.6534913   6.0731673
  41.3808553  66.6124913   5.8411673  41.9908553  66.7034913   6.3251673
  35.6138553  64.0914913   8.1361673  36.4548553  64.1544913   7.9141673
  35.5768553  64.4884913   8.9121673  35.7328553  64.1594913   8.2181673
  37.5768553  59.6024913   2.8851673  37.7488553  59.3924913   3.7141673
  36.9218553  59.0684913   2.6691673  37.5058553  59.4924913   2.9761673
  43.8048553  53.5164913   6.4001673  43.7098553  53.8354913   7.2061673
  43.2118553  52.8774913   6.3621673  43.7028553  53.4684913   6.5141673
  38.3268553  59.5404913   5.4751673  38.3798553  60.3874913   5.6771673
  38.0418553  59.1704913   6.2121673  38.2928553  59.6104913   5.6131673
  44.5038553  60.2354913   4.6051673  43.9898553  59.8234913   5.1761673
  44.3778553  61.0794913   4.7861673  44.4098553  60.2994913   4.7161673
  31.1478553  63.9114913  11.6861673  31.9038553  64.2604913  11.9441673
  31.3248553  63.0584913  11.6291673  31.2858553  63.8364913  11.7161673
  47.5248553  53.6964913   7.5441673  48.2968553  53.4714913   7.8811673
  47.0498553  53.9134913   8.2441673  47.5688553  53.6954913   7.6971673
  33.2098553  54.0814913   3.5961673  34.0528553  54.3014913   3.5531673
  32.8208553  54.6544913   3.0651673  33.2768553  54.1984913   3.5111673
  49.9908553  65.1834913   8.9861673  49.3088553  65.4934913   8.5391673
  49.6218553  64.7254913   9.6311673  49.8348553  65.1614913   9.0151673
  39.0638553  55.7664913  11.7141673  38.5798553  56.3434913  12.1561673
  39.0358553  56.0614913  10.8931673  38.9878553  55.8954913  11.6581673
  50.1618553  56.4504913   6.3261673  50.3768553  55.6504913   6.0501673
  49.3118553  56.5104913   6.1371673  50.0678553  56.3414913   6.2571673
  35.8588553  61.9044913   3.3851673  36.3258553  62.1934913   4.0631673
  36.4308553  61.4264913   2.9311673  36.0128553  61.8764913   3.4181673
  47.8248553  65.5654913   7.0761673  47.1538553  66.0794913   7.2941673
  47.8878553  65.6654913   6.2121673  47.7348553  65.6564913   6.9811673
  34.6388553  56.5734913  10.0731673  34.1028553  56.0674913  10.5411673
  34.6588553  56.1834913   9.2931673  34.5618553  56.4404913  10.0271673
  35.7208553  57.5374913   5.2801673  35.7458553  56.8624913   4.7291673
  35.0748553  58.0334913   4.9681673  35.6298553  57.5104913   5.1531673
  45.6158553  55.2504913   3.6761673  44.9538553  55.5784913   4.1391673
  45.8028553  55.8844913   3.1071673  45.5458553  55.3924913   3.6601673
  39.8208553  66.3144913   4.6721673  39.5438553  65.6734913   4.1491673
  39.6128553  67.0404913   4.2341673  39.7498553  66.3274913   4.5301673
  42.2608553  51.1564913   7.1051673  42.4098553  50.3314913   6.8621673
  42.6398553  51.2114913   7.8891673  42.3388553  51.0424913   7.1851673
  33.5198553  58.8924913  10.8391673  33.4828553  59.3934913  10.1251673
  33.8508553  58.1404913  10.5441673  33.5628553  58.8544913  10.6901673
  45.1228553  61.0974913   9.0971673  45.6068553  61.8154913   9.1951673
  45.5168553  60.6704913   8.4461673  45.2528553  61.1404913   9.0151673
  39.4188553  63.9424913  10.2741673  39.7728553  63.7644913  11.0511673
  38.9828553  63.2134913  10.0751673  39.4068553  63.8084913  10.3601673
  40.3908553  54.6894913   2.9121673  40.8708553  55.3884913   3.1201673
  40.7638553  54.0424913   3.3631673  40.5168553  54.6974913   3.0091673
  43.5968553  64.7944913   3.0111673  42.9938553  64.4984913   2.4541673
  44.1418553  65.2464913   2.5021673  43.5878553  64.8174913   2.8531673
  43.6098553  61.6454913   2.4111673  42.8128553  61.8694913   2.6851673
  43.8678553  61.0514913   2.9961673  43.5298553  61.5904913   2.5381673
  46.8698553  59.6434913   7.2571673  46.9248553  59.7684913   6.3951673
  47.6228553  59.9634913   7.5591673  46.9888553  59.7084913   7.1741673
  43.0608553  64.9924913  11.5341673  43.2248553  65.2754913  12.3431673
  43.3238553  65.6534913  11.0291673  43.1238553  65.1324913  11.5791673
  47.9018553  49.9414913  10.2441673  47.2648553  49.5414913   9.8021673
  47.9278553  49.5104913  11.0021673  47.8118553  49.8194913  10.2901673
  42.6008553  59.4494913   6.8571673  42.4458553  60.0594913   7.4611673
  43.1348553  58.8914913   7.2631673  42.6568553  59.4574913   7.0061673
  46.2108553  62.1784913   3.3841673  45.7318553  62.4764913   2.7181673
  45.8548553  61.4024913   3.5621673  46.0878553  62.1074913   3.3121673
  40.2078553  59.8964913   1.9461673  39.3608553  59.7024913   2.0271673
  40.5318553  59.7314913   2.7391673  40.1298553  59.8434913   2.0751673
  34.0558553  59.5894913   4.2621673  34.7778553  60.0774913   4.2251673
  33.7858553  59.5594913   3.4331673  34.1228553  59.6574913   4.1341673
  47.1418553  59.1204913   4.5031673  47.1348553  58.3444913   4.9011673
  46.3008553  59.3544913   4.4961673  47.0168553  59.0404913   4.5611673
  33.4508553  60.6414913   8.5401673  33.0298553  60.1234913   7.9791673
  33.0988553  61.4274913   8.3971673  33.3368553  60.6814913   8.4361673
  48.3978553  59.1914913   1.9401673  48.1118553  59.5924913   2.6601673
  49.2578553  59.1294913   2.0671673  48.4828553  59.2414913   2.0651673
  46.0598553  53.1154913  10.4801673  45.5348553  53.5744913  11.0041673
  45.6988553  52.3204913  10.4741673  45.9288553  53.0654913  10.5561673
  49.5288553  64.8244913   2.4691673  49.8188553  65.0814913   1.6881673
  50.2238553  64.9204913   2.9881673  49.6748553  64.8764913   2.4301673
  44.5518553  56.6844913  10.5561673  44.6248553  56.7884913  11.4191673
  43.9178553  57.2424913  10.3351673  44.4688553  56.7824913  10.6511673
  46.8198553  57.0034913   8.9211673  47.1388553  57.7894913   9.1241673
  46.4498553  56.7334913   9.6641673  46.8128553  57.0794913   9.0611673
  49.5178553  57.5454913  11.6561673  49.4658553  57.2044913  10.8551673
  50.2548553  58.0124913  11.6341673  49.6188553  57.5644913  11.5341673
  49.0558553  61.2214913   7.8621673  49.6838553  60.6724913   7.6061673
  48.9948553  61.7864913   7.2001673  49.1398553  61.2244913   7.7261673
  38.1898553  62.4524913   5.1581673  37.8918553  63.0444913   5.7251673
  38.2448553  62.8944913   4.4091673  38.1538553  62.6054913   5.1311673
  36.1688553  61.4024913   8.5561673  35.3628553  61.1124913   8.7231673
  36.0798553  62.2704913   8.5621673  36.0368553  61.4874913   8.5811673
  45.5278553  51.5914913   7.5711673  46.2718553  52.0434913   7.5081673
  44.9618553  52.0614913   7.1021673  45.5548553  51.7284913   7.4931673
  40.7058553  58.8754913   4.6491673  41.1818553  59.2494913   5.2771673
  39.8828553  59.0094913   4.9081673  40.6548553  58.9504913   4.7801673
  37.4158553  54.4784913   7.3901673  37.5768553  53.7344913   7.8171673
  37.3708553  54.2294913   6.5551673  37.4328553  54.3314913   7.3301673
  46.8128553  49.5714913   5.2411673  46.5328553  50.3964913   5.1971673
  47.5288553  49.6244913   5.7371673  46.8778553  49.7014913   5.3081673
  39.1678553  50.2864913   7.2701673  39.8728553  50.6064913   6.8681673
  39.4088553  49.4794913   7.4971673  39.3068553  50.2144913   7.2441673
  38.1528553  64.4964913   3.2661673  37.5288553  65.0784913   3.0841673
  38.4008553  64.2104913   2.4801673  38.0968553  64.5404913   3.1231673
  42.4618553  61.1304913  10.2551673  43.2188553  61.4164913   9.9291673
  41.9148553  61.1824913   9.5771673  42.4928553  61.1804913  10.1061673
  46.3708553  63.6804913   8.7591673  46.7168553  63.9504913   9.5131673
  46.6648553  64.2624913   8.1791673  46.4658553  63.8064913   8.7851673
  35.6768553  55.3394913   3.3311673  36.1168553  55.2364913   2.5851673
  36.2218553  55.0264913   3.9361673  35.8218553  55.2784913   3.3101673
  43.6928553  54.4414913   8.9231673  43.0448553  54.9114913   9.2711673
  44.2578553  54.3524913   9.5821673  43.6808553  54.4974913   9.0721673
  43.3808553  55.9784913   5.2211673  43.6828553  56.3984913   5.9241673
  43.4168553  55.1384913   5.4531673  43.4308553  55.9164913   5.3591673
  40.8058553  66.1454913   9.1461673  41.2838553  65.5454913   8.7301673
  40.4548553  65.7024913   9.8111673  40.8248553  65.9914913   9.1831673
  39.2238553  50.3244913   3.3781673  38.3978553  50.1754913   3.6151673
  39.1838553  50.3594913   2.5071673  39.0958553  50.3074913   3.2841673
  40.8648553  61.3644913   8.1661673  40.0698553  61.3004913   8.5171673
  40.9358553  62.2114913   7.9711673  40.7578553  61.4794913   8.1891673
  31.7888553  50.7224913   9.4131673  31.6488553  51.5174913   9.0821673
  31.0028553  50.4794913   9.7021673  31.6518553  50.8044913   9.4071673
  36.6948553  67.5714913   3.4831673  36.7058553  67.6304913   4.3531673
  36.2698553  66.8244913   3.3331673  36.6338553  67.4694913   3.5891673
  41.3538553  64.0114913   7.2741673  42.0408553  63.8974913   7.7991673
  41.4878553  64.8024913   6.9301673  41.4748553  64.1114913   7.3011673
  49.5298553  56.6204913   9.0851673  48.6748553  56.4984913   9.2111673
  49.6828553  56.2254913   8.3221673  49.4258553  56.5434913   8.9911673
  44.0428553  57.2854913   7.6611673  43.7878553  56.5664913   8.0831673
  44.8638553  57.4014913   7.9311673  44.1268553  57.1964913   7.7631673
  33.4588553  67.0694913   8.9251673  32.8048553  66.5004913   9.0231673
  33.0838553  67.8424913   9.0761673  33.3068553  67.0994913   8.9621673
  41.9768553  58.4754913  10.8481673  42.2998553  59.1614913  10.4161673
  41.2728553  58.7984913  11.2501673  41.9198553  58.6244913  10.8431673
  45.0608553  66.8494913   1.7771673  44.6098553  67.4924913   2.1561673
  45.7688553  66.7704913   2.2821673  45.0988553  66.9324913   1.9081673
  41.7618553  61.9394913   4.7071673  41.0678553  62.3414913   5.0501673
  42.4388553  62.3724913   5.0461673  41.7588553  62.0624913   4.8081673
  47.1388553  64.5324913  11.2871673  47.9148553  64.1424913  11.3701673
  46.6698553  64.1964913  11.9421673  47.1838553  64.4254913  11.3961673
  34.8298553  55.4774913   7.0541673  35.2048553  56.0964913   6.5671673
  35.5038553  55.0034913   7.3391673  34.9848553  55.4994913   7.0241673
  32.6048553  53.9254913   6.3291673  32.6818553  53.7564913   5.4761673
  33.3508553  54.3314913   6.5261673  32.7258553  53.9604913   6.2321673
  35.1588553  51.3354913   8.7401673  35.0778553  50.4914913   8.9461673
  34.8448553  51.3794913   7.9271673  35.1008553  51.2174913   8.6501673
  47.2658553  56.7114913   6.1251673  47.2638553  55.8484913   6.2491673
  47.3328553  57.0354913   6.9321673  47.2758553  56.6314913   6.2621673
  32.0018553  59.1514913   6.5531673  32.3218553  59.3704913   5.7721673
  31.9018553  58.2864913   6.4981673  32.0338553  59.0564913   6.4301673
  43.1448553  51.5114913   9.9071673  43.2368553  52.2234913  10.4011673
  42.5078553  51.0664913  10.3041673  43.0638553  51.5504913  10.0391673
  45.7368553  52.2174913   3.5611673  46.5918553  52.3164913   3.7061673
  45.3678553  52.7704913   4.1261673  45.8088553  52.3144913   3.6661673
  36.7648553  58.4434913   7.9381673  36.3688553  59.2174913   8.0131673
  36.3588553  58.0704913   7.2621673  36.6468553  58.5024913   7.8491673
  37.1938553  51.4204913   5.3881673  36.3298553  51.5044913   5.4681673
  37.4138553  50.9064913   6.0571673  37.0988553  51.3574913   5.4991673
  49.2118553  50.0554913   6.7171673  49.1598553  50.0114913   7.5871673
  49.8988553  49.5524913   6.5271673  49.3058553  49.9754913   6.8171673
  41.2968553  52.1684913   3.7621673  40.5598553  51.7144913   3.8751673
  41.8678553  51.7664913   4.2851673  41.2718553  52.0414913   3.8561673
  44.0288553  63.0164913   5.5501673  44.2348553  63.3174913   6.3421673
  43.9678553  63.7384913   5.0651673  44.0498553  63.1674913   5.5951673
  43.5628553  67.2304913   9.7961673  42.8098553  67.2124913   9.3551673
  43.7308553  68.0824913   9.8801673  43.4768553  67.3534913   9.7431673
  38.7998553  56.4974913   8.9661673  38.4778553  55.9214913   8.3961673
  38.4408553  57.2524913   8.7201673  38.6998553  56.5234913   8.8461673
  48.8408553  61.6554913   5.0081673  48.8088553  60.7934913   4.8731673
  48.1478553  61.9574913   4.5741673  48.7338553  61.5724913   4.9241673
  37.2348553  66.8534913   9.2141673  37.2758553  66.9794913  10.0771673
  37.8858553  66.2934913   9.0581673  37.3368553  66.7894913   9.3191673
  46.9458553  64.9154913   3.8051673  47.4728553  64.8324913   3.1141673
  46.5548553  64.1374913   3.8591673  46.9658553  64.7884913   3.7111673
  34.4138553  51.5034913   6.0361673  34.0708553  50.7364913   5.8021673
  33.7188553  52.0274913   6.1001673  34.2608553  51.4674913   6.0111673
  43.4598553  50.3594913   3.0131673  44.1298553  50.9034913   3.1401673
  42.9568553  50.7834913   2.4401673  43.4848553  50.5024913   2.9471673
  34.8278553  65.2364913  10.5741673  35.4228553  65.6674913  11.0461673
  34.4638553  65.8604913  10.0851673  34.8618553  65.3924913  10.5711673
  32.7548553  63.2254913   7.5031673  32.1808553  63.6414913   8.0121673
  33.4878553  63.6904913   7.5981673  32.7788553  63.3554913   7.5921673
  48.0628553  59.3714913  10.2191673  48.6968553  59.2014913  10.7931673
  48.4798553  59.7744913   9.5671673  48.2178553  59.4064913  10.2081673
  48.6878553  53.9354913  10.9571673  48.4918553  54.5794913  11.5121673
  47.9658553  53.4454913  10.9491673  48.5528553  53.9584913  11.0381673
  48.5868553  54.8764913   3.9281673  47.7538553  55.1264913   3.8561673
  48.5308553  54.0364913   4.1571673  48.4558553  54.7894913   3.9511673
  37.8468553  51.8644913   9.1221673  38.0808553  51.2884913   8.5091673
  37.0048553  51.6834913   9.2631673  37.7568553  51.7524913   9.0521673
  45.4738553  59.4824913  11.5741673  46.3448553  59.4464913  11.5381673
  45.2548553  59.9024913  10.8421673  45.5708553  59.5384913  11.4611673
  35.2278553  65.3074913   2.7551673  35.1488553  64.4974913   2.4391673
  34.7838553  65.7944913   2.1831673  35.1508553  65.2594913   2.6241673
  32.7998553  67.5514913   6.3361673  33.2928553  67.4954913   7.0541673
  32.9878553  66.8184913   5.9011673  32.9008553  67.4344913   6.3781673
  42.2378553  31.5893833  74.5081313  41.9928553  32.0773833  73.8281313
  43.1008553  31.5163833  74.4081313  42.3288553  31.6503833  74.3931313
  31.9158553  42.6453833  74.6351313  31.4748553  42.7633833  75.3781313
  31.6328553  41.8703833  74.3501313  31.8088553  42.5483833  74.7031313
  48.1908553  45.9463833  72.1501313  48.8918553  45.4273833  72.1461313
  47.6038553  45.5013833  71.6811313  48.2078553  45.8033833  72.0801313
  31.6588553  36.4373833  71.1421313  30.8808553  36.5993833  70.7821313
  31.6978553  35.5663833  71.1641313  31.5498553  36.3323833  71.0921313
  34.7978553  41.7003833  69.8141313  34.4058553  41.3293833  69.1281313
  34.7178553  41.1023833  70.4431313  34.7278553  41.5573833  69.8051313
  44.7178553  39.5723833  75.8551313  44.7978553  39.5763833  74.9861313
  44.1338553  38.9403833  76.0041313  44.6428553  39.4793833  75.7491313
  34.4248553  43.3413833  73.7141313  35.0328553  43.1713833  74.3171313
  33.6738553  43.2013833  74.1351313  34.4038553  43.2953833  73.8651313
  38.7068553  32.6763833  73.6631313  38.6368553  33.3533833  73.1171313
  39.4478553  32.2883833  73.4141313  38.8058553  32.7193833  73.5451313
  33.3158553  46.4323833  69.7911313  33.7828553  46.5163833  69.0591313
  33.7708553  45.8543833  70.2601313  33.4518553  46.3593833  69.7521313
  33.3018553  39.9013833  75.0921313  32.8398553  39.5093833  74.4651313
  34.0018553  39.3883833  75.1841313  33.3368553  39.7683833  75.0131313
  35.3028553  38.0013833  75.1151313  36.1198553  37.8143833  75.3581313
  34.8258553  37.3873833  75.5111313  35.3528553  37.8833833  75.2101313
  39.5068553  43.9823833  77.7251313  39.8548553  43.1833833  77.7551313
  40.1718553  44.4863833  77.4701313  39.6568553  43.9383833  77.6921313
  39.5638553  43.4313833  73.9361313  39.8948553  42.7873833  74.4221313
  39.8038553  43.2203833  73.1251313  39.6478553  43.3053833  73.8881313
  35.8998553  33.0953833  74.3811313  35.6038553  33.5963833  73.7311313
  36.7668553  33.1733833  74.3241313  35.9838553  33.1813833  74.2771313
  38.8788553  32.2373833  76.6041313  38.9518553  33.0973833  76.7331313
  38.8408553  32.1623833  75.7361313  38.8838553  32.3533833  76.4951313
  43.5518553  35.1633833  68.9031313  43.1018553  35.8443833  69.2101313
  43.6658553  34.6593833  69.6061313  43.5028553  35.1893833  69.0521313
  31.7578553  37.6623833  78.1051313  31.5018553  38.4933833  78.0301313
  31.0938553  37.2793833  78.5221313  31.6218553  37.7283833  78.1561313
  31.6678553  47.3723833  76.0051313  31.0758553  47.9303833  75.6921313
  32.0938553  47.1033833  75.2931313  31.6438553  47.4143833  75.8541313
  37.5078553  45.2163833  73.4851313  36.9288553  44.9413833  74.0771313
  38.1318553  44.6073833  73.5101313  37.5148553  45.0863833  73.5761313
  43.6508553  47.5043833  71.0071313  44.3778553  47.9763833  71.1091313
  43.8798553  46.7103833  71.2871313  43.7928553  47.4573833  71.0641313
  41.8188553  47.8963833  72.9971313  42.0328553  48.4233833  73.6591313
  42.5858553  47.7223833  72.6181313  41.9638553  47.9483833  73.0391313
  33.2128553  46.0423833  73.9361313  33.8688553  45.4673833  73.9511313
  33.6018553  46.7913833  73.7151313  33.3678553  46.0673833  73.9061313
  48.9458553  35.1363833  75.1981313  48.5998553  35.8143833  75.6241313
  48.3098553  34.5383833  75.2141313  48.8008553  35.1483833  75.2631313
  34.0308553  44.5293833  77.4361313  34.4538553  44.1733833  76.7621313
  34.3548553  44.1073833  78.1281313  34.1408553  44.4143833  77.4391313
  37.2618553  47.3813833  76.7321313  38.1058553  47.4853833  76.5371313
  36.9648553  48.1993833  76.8001313  37.3428553  47.5173833  76.7131313
  41.0688553  36.7783833  74.8191313  41.3558553  36.5463833  74.0291313
  41.8008553  36.8573833  75.2881313  41.2188553  36.7553833  74.7721313
  41.7908553  37.1173833  69.9401313  42.0718553  37.9053833  70.1891313
  41.0148553  37.2823833  69.5771313  41.7178553  37.2583833  69.9231313
  45.8318553  49.0913833  71.4071313  46.4968553  48.9433833  70.8621313
  46.1918553  49.0083833  72.1971313  45.9838553  49.0573833  71.4431313
  40.6498553  45.2883833  69.7561313  40.4688553  45.8333833  70.4131313
  41.4158553  45.5783833  69.4551313  40.7358553  45.4123833  69.8091313
  44.1568553  33.1843833  70.8101313  44.6968553  32.5023833  70.8861313
  44.2188553  33.5823833  71.5841313  44.2458553  33.1423833  70.9361313
  32.1108553  34.3523833  73.3791313  31.9968553  33.4883833  73.4101313
  31.6358553  34.6463833  74.0491313  32.0238553  34.2683833  73.4821313
  41.4148553  35.5603833  72.1241313  40.9068553  34.8983833  71.8701313
  41.4668553  36.0643833  71.4141313  41.3478553  35.5373833  71.9821313
  41.4148553  32.5013833  72.0151313  40.9598553  32.0993833  71.3891313
  42.1878553  32.6563833  71.6401313  41.4618553  32.4653833  71.8671313
  48.2408553  48.8583833  75.4051313  47.7858553  49.5753833  75.6061313
  47.6268553  48.2873833  75.1631313  48.0828553  48.8803833  75.3991313
  40.0128553  34.8683833  76.5371313  40.0868553  35.4363833  75.8791313
  40.1338553  35.3603833  77.2471313  40.0408553  35.0253833  76.5451313
  45.2378553  44.7033833  74.9491313  45.9388553  44.2213833  75.1381313
  44.5778553  44.1343833  74.9941313  45.2438553  44.5483833  74.9831313
  34.6208553  30.6913833  74.8851313  35.1568553  31.3793833  74.8751313
  34.6238553  30.4173833  74.0571313  34.6998553  30.7523833  74.7611313
  45.0608553  30.9823833  75.2611313  45.1098553  30.6643833  76.0721313
  45.3838553  30.3383833  74.7681313  45.1158553  30.8403833  75.3081313
  35.0688553  34.5013833  76.5391313  35.3408553  34.0713833  75.8311313
  34.8928553  33.8653833  77.1101313  35.0828553  34.3443833  76.5191313
  47.7568553  42.1963833  70.7571313  47.8758553  41.9093833  71.5721313
  48.5638553  42.2173833  70.4271313  47.8928553  42.1573833  70.8291313
  34.8928553  41.9283833  76.0881313  35.7438553  41.8483833  75.9151313
  34.5358553  41.2463833  75.6761313  34.9658553  41.8153833  76.0011313
  33.6598553  48.6533833  77.3251313  32.9868553  48.1553833  77.0801313
  34.0628553  48.8383833  76.5741313  33.6198553  48.6073833  77.1781313
  45.6518553  38.7333833  70.3421313  45.4318553  39.4643833  69.9201313
  45.2038553  38.7843833  71.0891313  45.5528553  38.8483833  70.3901313
  37.2608553  41.9353833  74.3231313  37.9738553  42.4303833  74.4131313
  37.4828553  41.3683833  73.6971313  37.3988553  41.9243833  74.2441313
  49.8388553  33.5943833  69.7951313  49.1768553  33.0263833  69.8181313
  49.6458553  34.1063833  69.1151313  49.7128553  33.5863833  69.6981313
  31.4168553  43.5783833  77.6431313  30.7498553  44.0663833  77.9191313
  32.0968553  44.1233833  77.6721313  31.4188553  43.7303833  77.6881313
  31.4828553  40.2623833  72.7461313  31.2978553  39.4233833  72.8981313
  32.1418553  40.2263833  72.1761313  31.5528553  40.1333833  72.6841313
  47.8408553  33.1523833  72.0741313  48.5868553  32.7453833  72.2731313
  48.1038553  33.8673833  71.6491313  47.9898553  33.1983833  72.0411313
  41.7838553  45.6383833  76.6501313  41.2608553  46.2723833  76.3571313
  42.0938553  45.2743833  75.9211313  41.7518553  45.6783833  76.4991313
  31.6548553  44.4263833  72.3211313  32.2068553  44.9953833  72.6851313
  31.4228553  43.9113833  72.9861313  31.7018553  44.4343833  72.4731313
  44.2948553  35.4403833  77.1471313  44.6388553  35.5923833  77.9341313
  43.8418553  34.7023833  77.2601313  44.2788553  35.3533833  77.2801313
  31.4848553  42.8753833  69.9491313  32.2408553  42.4433833  70.0071313
  31.4998553  43.4073833  70.6401313  31.5988553  42.8903833  70.0601313
  32.4248553  41.0963833  77.9541313  32.8558553  40.9673833  77.2071313
  32.2198553  41.9443833  77.9281313  32.4578553  41.2023833  77.8401313
  38.7708553  34.6603833  71.6041313  38.7688553  34.5433833  70.7391313
  38.5898553  35.5083833  71.6961313  38.7438553  34.7683833  71.4901313
  36.5088553  44.6123833  76.2361313  36.6348553  45.4553833  76.4231313
  37.1768553  44.2133833  76.6321313  36.6268553  44.6783833  76.3221313
  35.1238553  37.4923833  71.2381313  34.9958553  37.0443833  71.9761313
  34.5418553  37.1503833  70.6861313  35.0188553  37.3753833  71.2661313
  35.2908553  39.3223833  77.8371313  34.5098553  39.2633833  77.4541313
  35.3628553  38.5703833  78.2741313  35.1858553  39.2033833  77.8451313
  43.8088553  34.7413833  73.2121313  44.2988553  35.4583833  73.1351313
  43.0188553  35.0023833  72.9491313  43.7648553  34.8853833  73.1621313
  42.5798553  39.3803833  71.2111313  42.5718553  40.1023833  70.7211313
  41.9408553  39.5153833  71.7881313  42.4848553  39.5073833  71.2241313
  47.5518553  43.2503833  75.1921313  47.9078553  42.9003833  75.9071313
  47.5438553  42.5893833  74.6221313  47.6038553  43.1003833  75.2131313
  43.6098553  43.1673833  78.4361313  42.8128553  43.3913833  78.7101313
  43.8678553  42.5733833  79.0211313  43.5298553  43.1123833  78.5631313
  37.5018553  47.9793833  72.8841313  37.3548553  47.2033833  73.2551313
  38.1908553  47.8323833  72.3691313  37.5818553  47.8423833  72.8631313
  37.1728553  31.7223833  70.8721313  37.2698553  31.6153833  71.7331313
  36.4648553  32.2283833  70.8071313  37.0828553  31.7813833  70.9901313
  39.7938553  47.4953833  71.2861313  40.4158553  47.6583833  71.8761313
  39.8298553  48.1863833  70.7541313  39.8908553  47.6213833  71.2951313
  34.2948553  40.0293833  72.1151313  34.6188553  39.2503833  71.8931313
  34.9408553  40.3973833  72.5701313  34.4378553  39.9683833  72.1491313
  31.2918553  31.6903833  73.0831313  31.4208553  30.9823833  72.5911313
  30.9248553  31.3723833  73.8081313  31.2568553  31.5383833  73.1181313
  40.9848553  39.3713833  73.5401313  41.0438553  40.0213833  74.1191313
  40.7958553  38.6753833  74.0311313  40.9658553  39.3643833  73.6981313
  35.4808553  33.8883833  70.0521313  34.9698553  33.9413833  69.3461313
  36.2648553  34.1283833  69.7561313  35.5208553  33.9313833  69.9041313
  40.2078553  41.4183833  77.9711313  39.3608553  41.2243833  78.0521313
  40.5318553  41.2533833  78.7641313  40.1298553  41.3653833  78.1001313
  36.9598553  48.1483833  68.8571313  37.3988553  47.4513833  69.1451313
  37.1668553  48.7723833  69.4301313  37.0558553  48.1373833  68.9841313
  37.2858553  36.2823833  77.0221313  38.1318553  36.0923833  77.1201313
  36.9158553  35.5053833  76.8841313  37.3558553  36.1393833  77.0161313
  49.9028553  47.8663833  71.3491313  50.5968553  47.3993833  71.1011313
  49.3638553  47.2683833  71.6861313  49.9258553  47.7083833  71.3621313
  32.1068553  37.6203833  73.6771313  32.5958553  37.3283833  74.3381313
  32.2358553  37.0273833  73.0501313  32.1978553  37.4893833  73.6821313
  36.6318553  39.0543833  69.1631313  36.0218553  38.6493833  69.6371313
  36.2458553  39.1723833  68.3901313  36.4848553  39.0113833  69.1191313
  48.3978553  40.7133833  77.9651313  48.1118553  41.1143833  78.6851313
  49.2578553  40.6513833  78.0921313  48.4828553  40.7633833  78.0901313
  38.0868553  37.5153833  71.8731313  38.3588553  38.3413833  71.9401313
  37.2238553  37.5903833  71.7771313  37.9998553  37.6483833  71.8681313
  31.5668553  33.4853833  78.4091313  31.6108553  33.8293833  77.6081313
  32.3218553  33.7223833  78.7761313  31.6848553  33.5713833  78.3451313
  49.5288553  46.3463833  78.4941313  49.8188553  46.6033833  77.7131313
  50.2238553  46.4423833  79.0131313  49.6748553  46.3983833  78.4551313
  46.1338553  44.9493833  70.4761313  46.4678553  44.1433833  70.5111313
  45.3788553  44.8773833  70.9061313  46.0718553  44.8193833  70.5451313
  46.6158553  36.7833833  76.1351313  45.8708553  36.4603833  76.4531313
  46.6178553  37.6093833  76.4151313  46.5058553  36.8573833  76.2231313
  43.5078553  42.8243833  69.8791313  44.1918553  42.3103833  69.7101313
  43.0908553  42.8703833  69.1141313  43.5468553  42.7553833  69.7411313
  39.9698553  47.7903833  75.9021313  40.5158553  48.4693833  75.9561313
  39.6198553  47.8723833  75.1071313  39.9988553  47.9033833  75.7921313
  48.2338553  37.3483833  70.1231313  48.6118553  38.0253833  69.7231313
  47.3918553  37.5723833  70.1541313  48.1648553  37.4813833  70.0681313
  39.7468553  40.7943833  69.2061313  38.9418553  40.6173833  68.9211313
  39.7138553  41.6453833  69.3981313  39.6228553  40.8933833  69.1931313
  45.9288553  36.9473833  73.4981313  46.1358553  36.7463833  74.3221313
  46.6848553  37.2153833  73.1561313  46.0708553  36.9573833  73.5691313
  46.9508553  33.0303833  74.9721313  46.2368553  32.5593833  75.1431313
  46.7888553  33.3713833  74.1861313  46.8218553  33.0113833  74.8811313
  47.3938553  40.9743833  73.3521313  47.8698553  40.2453833  73.3041313
  46.5728553  40.6883833  73.2761313  47.3428553  40.8243833  73.3331313
  34.8528553  34.9883833  72.6631313  34.9788553  34.6593833  71.8651313
  34.0408553  34.7393833  72.8621313  34.7518553  34.9033833  72.5751313
  43.6098553  42.1413833  75.7071313  43.6858553  42.4823833  76.5061313
  43.7788553  41.2943833  75.8281313  43.6458553  42.0663833  75.8431313
  41.1318553  41.4153833  75.2721313  40.8338553  41.1003833  76.0291313
  41.8268553  41.8883833  75.5071313  41.1908553  41.4383833  75.4191313
  45.0608553  48.3713833  77.8021313  44.6098553  49.0143833  78.1811313
  45.7688553  48.2923833  78.3071313  45.0988553  48.4543833  77.9331313
  48.1638553  38.0873833  72.7941313  48.2668553  38.0293833  71.9301313
  48.9048553  37.7553833  73.1121313  48.2888553  38.0303833  72.7131313
  42.0838553  45.0523833  73.9011313  41.8788553  45.8853833  73.7421313
  41.3088553  44.6703833  74.0231313  41.9388553  45.1193833  73.8961313
  33.4578553  36.6093833  69.1961313  32.7858553  36.6233833  69.7521313
  33.5528553  35.7613833  69.0121313  33.3728553  36.4863833  69.2511313
  42.1388553  33.2233833  76.7861313  41.4388553  33.7413833  76.7301313
  42.1768553  32.8433833  76.0021313  42.0408553  33.2443833  76.6621313
  37.4458553  45.3143833  70.3101313  37.8868553  45.3943833  71.0581313
  36.6408553  45.0983833  70.5681313  37.3918553  45.2943833  70.4591313
  46.0408553  39.0193833  78.0771313  46.7068553  39.5603833  78.2371313
  45.6958553  39.3303833  77.3381313  46.0878553  39.1453833  77.9921313
  46.3538553  47.0853833  73.8841313  46.1798553  46.4313833  74.4341313
  47.0668553  46.8143833  73.4611313  46.4338553  46.9483833  73.9031313
  34.7748553  44.3843833  70.9111313  34.5308553  44.0773833  71.6911313
  34.7418553  43.6813833  70.3951313  34.7338553  44.2353833  70.9501313
  37.5938553  42.6293833  69.6541313  36.7758553  42.3613833  69.7941313
  37.5658553  43.4813833  69.8391313  37.4688553  42.7163833  69.7021313
  39.5958553  31.2713833  69.6181313  39.6738553  31.5183833  68.7851313
  38.8528553  31.6483833  69.8761313  39.4978553  31.3633833  69.5331313
  42.8188553  37.6893833  76.5311313  43.3698553  37.0823833  76.8311313
  42.3938553  37.9523833  77.2461313  42.8378553  37.6383833  76.6801313
  33.0668553  36.3393833  76.0171313  32.6988553  36.6413833  76.7481313
  33.6008553  35.7103833  76.3011313  33.0908553  36.2913833  76.1671313
  44.7888553  39.5203833  73.0931313  44.8568553  38.6703833  73.2741313
  43.9658553  39.6063833  72.8151313  44.6768553  39.4073833  73.0791313
  38.7078553  40.4113833  72.0311313  38.8078553  40.5503833  71.1761313
  39.5258553  40.3513833  72.3271313  38.8428553  40.4223833  71.9481313
  47.8678553  48.4753833  69.5111313  48.5048553  48.3413833  70.0921313
  47.5268553  47.6813833  69.3941313  47.9118553  48.3383833  69.5791313
  43.9428553  44.7403833  71.8331313  43.6918553  44.6123833  72.6591313
  43.6258553  44.0453833  71.4121313  43.8588553  44.6193833  71.8931313
  35.2278553  46.8293833  78.7801313  35.1488553  46.0193833  78.4641313
  34.7838553  47.3163833  78.2081313  35.1508553  46.7813833  78.6491313
  40.8288553  42.9483833  71.2631313  41.5458553  42.6013833  70.9071313
  40.7948553  43.7483833  70.9151313  40.9298553  43.0153833  71.1591313
  42.0468553  38.5053833  60.1728903  41.5228553  39.1013833  60.5358903
  42.4438553  38.1373833  60.8568903  42.0278553  38.5393833  60.3278903
  48.1908553  45.9463833  53.1438903  48.8918553  45.4273833  53.1398903
  47.6038553  45.5013833  52.6748903  48.2078553  45.8033833  53.0738903
  44.7178553  39.5723833  56.8488903  44.7978553  39.5763833  55.9798903
  44.1338553  38.9403833  56.9978903  44.6428553  39.4793833  56.7428903
  38.4298553  42.9053833  66.9508903  38.1938553  42.9023833  67.7908903
  37.6818553  42.7573833  66.5268903  38.2838553  42.8823833  67.0118903
  37.8098553  35.5113833  61.4328903  38.4878553  35.5293833  60.8838903
  37.7648553  34.6753833  61.6778903  37.9028553  35.3903833  61.3878903
  38.4118553  46.0973833  64.2138903  38.5498553  46.8573833  63.8068903
  39.2028553  45.7323833  64.2408903  38.5488553  46.1563833  64.1578903
  39.5068553  43.9823833  58.7188903  39.8548553  43.1833833  58.7488903
  40.1718553  44.4863833  58.4638903  39.6568553  43.9383833  58.6858903
  41.5318553  37.5623833  66.2688903  40.6838553  37.4633833  66.0908903
  41.5608553  38.3073833  66.7228903  41.4108553  37.6583833  66.3098903
  46.0898553  30.5223833  65.3828903  45.9318553  31.2913833  65.0008903
  45.3178553  30.3023833  65.7268903  45.9518553  30.6033833  65.3778903
  31.7578553  37.6623833  59.0988903  31.5018553  38.4933833  59.0238903
  31.0938553  37.2793833  59.5158903  31.6218553  37.7283833  59.1498903
  31.6678553  47.3723833  56.9988903  31.0758553  47.9303833  56.6858903
  32.0938553  47.1033833  56.2868903  31.6438553  47.4143833  56.8478903
  43.6508553  47.5043833  52.0008903  44.3778553  47.9763833  52.1028903
  43.8798553  46.7103833  52.2808903  43.7928553  47.4573833  52.0578903
  34.7868553  32.4793833  59.5898903  34.2658553  31.8513833  59.2818903
  35.3778553  32.0423833  60.0608903  34.7978553  32.3213833  59.6138903
  38.0928553  34.6123833  68.8878903  38.2098553  34.1583833  68.1518903
  38.3808553  35.4103833  68.6848903  38.1528553  34.6633833  68.7488903
  48.9458553  35.1363833  56.1918903  48.5998553  35.8143833  56.6178903
  48.3098553  34.5383833  56.2078903  48.8008553  35.1483833  56.2568903
  44.2578553  47.9063833  62.2958903  45.0018553  48.3623833  62.2858903
  44.1368553  47.6923833  61.4588903  44.3498553  47.9423833  62.1708903
  33.8258553  34.2093833  67.8718903  33.0478553  33.8193833  67.7998903
  34.3168553  33.7973833  67.2808903  33.7828553  34.0903833  67.7738903
  34.0308553  44.5293833  58.4298903  34.4538553  44.1733833  57.7558903
  34.3548553  44.1073833  59.1218903  34.1408553  44.4143833  58.4328903
  40.4748553  31.8523833  67.0398903  40.6528553  31.0433833  66.7648903
  40.3318553  32.2933833  66.3008903  40.4798553  31.7983833  66.8898903
  41.7908553  37.1173833  50.9338903  42.0718553  37.9053833  51.1828903
  41.0148553  37.2823833  50.5708903  41.7178553  37.2583833  50.9168903
  45.8318553  49.0913833  52.4008903  46.4968553  48.9433833  51.8558903
  46.1918553  49.0083833  53.1908903  45.9838553  49.0573833  52.4368903
  36.2598553  48.6003833  63.4658903  36.5518553  48.5333833  64.2858903
  35.6338553  47.9953833  63.4208903  36.2108553  48.5013833  63.5808903
  48.6208553  33.4593833  61.5608903  49.3778553  33.5313833  61.1328903
  48.6838553  32.6863833  61.9598903  48.7418553  33.3563833  61.5558903
  31.1738553  34.7573833  65.4578903  31.1698553  35.3443833  66.1038903
  31.7678553  35.0693833  64.9008903  31.2608553  34.8903833  65.4708903
  43.5118553  45.0913833  65.9998903  43.4778553  45.4733833  66.7838903
  44.3658553  45.0493833  65.8288903  43.6328553  45.1413833  66.0908903
  44.1568553  33.1843833  51.8038903  44.6968553  32.5023833  51.8798903
  44.2188553  33.5823833  52.5778903  44.2458553  33.1423833  51.9298903
  34.2528553  46.7623833  62.5878903  33.5548553  46.2543833  62.7138903
  34.5128553  46.5573833  61.7798903  34.1878553  46.6573833  62.4868903
  41.9638553  48.2553833  63.4978903  42.7318553  48.1753833  63.0918903
  41.3808553  48.1343833  62.8598903  41.9908553  48.2253833  63.3438903
  48.2408553  48.8583833  56.3988903  47.7858553  49.5753833  56.5998903
  47.6268553  48.2873833  56.1568903  48.0828553  48.8803833  56.3928903
  45.2378553  44.7033833  55.9428903  45.9388553  44.2213833  56.1318903
  44.5778553  44.1343833  55.9878903  45.2438553  44.5483833  55.9768903
  35.6138553  45.6133833  65.1548903  36.4548553  45.6763833  64.9328903
  35.5768553  46.0103833  65.9308903  35.7328553  45.6813833  65.2368903
  37.5768553  41.1243833  59.9038903  37.7488553  40.9143833  60.7328903
  36.9218553  40.5903833  59.6878903  37.5058553  41.0143833  59.9948903
  43.8048553  35.0383833  63.4188903  43.7098553  35.3573833  64.2248903
  43.2118553  34.3993833  63.3808903  43.7028553  34.9903833  63.5328903
  38.3268553  41.0623833  62.4938903  38.3798553  41.9093833  62.6958903
  38.0418553  40.6923833  63.2308903  38.2928553  41.1323833  62.6318903
  44.5038553  41.7573833  61.6238903  43.9898553  41.3453833  62.1948903
  44.3778553  42.6013833  61.8048903  44.4098553  41.8213833  61.7348903
  45.0608553  30.9823833  56.2548903  45.1098553  30.6643833  57.0658903
  45.3838553  30.3383833  55.7618903  45.1158553  30.8403833  56.3018903
  31.1478553  45.4333833  68.7048903  31.9038553  45.7823833  68.9628903
  31.3248553  44.5803833  68.6478903  31.2858553  45.3583833  68.7348903
  47.5248553  35.2183833  64.5628903  48.2968553  34.9933833  64.8998903
  47.0498553  35.4353833  65.2628903  47.5688553  35.2173833  64.7158903
  47.7568553  42.1963833  51.7508903  47.8758553  41.9093833  52.5658903
  48.5638553  42.2173833  51.4208903  47.8928553  42.1573833  51.8228903
  33.6598553  48.6533833  58.3188903  32.9868553  48.1553833  58.0738903
  34.0628553  48.8383833  57.5678903  33.6198553  48.6073833  58.1718903
  33.2098553  35.6033833  60.6148903  34.0528553  35.8233833  60.5718903
  32.8208553  36.1763833  60.0838903  33.2768553  35.7203833  60.5298903
  49.9908553  46.7053833  66.0048903  49.3088553  47.0153833  65.5578903
  49.6218553  46.2473833  66.6498903  49.8348553  46.6833833  66.0338903
  45.6518553  38.7333833  51.3358903  45.4318553  39.4643833  50.9138903
  45.2038553  38.7843833  52.0828903  45.5528553  38.8483833  51.3838903
  49.8388553  33.5943833  50.7888903  49.1768553  33.0263833  50.8118903
  49.6458553  34.1063833  50.1088903  49.7128553  33.5863833  50.6918903
  31.4168553  43.5783833  58.6368903  30.7498553  44.0663833  58.9128903
  32.0968553  44.1233833  58.6658903  31.4188553  43.7303833  58.6818903
  39.0638553  37.2883833  68.7328903  38.5798553  37.8653833  69.1748903
  39.0358553  37.5833833  67.9118903  38.9878553  37.4173833  68.6768903
  50.1618553  37.9723833  63.3448903  50.3768553  37.1723833  63.0688903
  49.3118553  38.0323833  63.1558903  50.0678553  37.8633833  63.2758903
  35.8588553  43.4263833  60.4038903  36.3258553  43.7153833  61.0818903
  36.4308553  42.9483833  59.9498903  36.0128553  43.3983833  60.4368903
  44.2948553  35.4403833  58.1408903  44.6388553  35.5923833  58.9278903
  43.8418553  34.7023833  58.2538903  44.2788553  35.3533833  58.2738903
  32.4248553  41.0963833  58.9478903  32.8558553  40.9673833  58.2008903
  32.2198553  41.9443833  58.9218903  32.4578553  41.2023833  58.8338903
  47.8248553  47.0873833  64.0948903  47.1538553  47.6013833  64.3128903
  47.8878553  47.1873833  63.2308903  47.7348553  47.1783833  63.9998903
  34.6388553  38.0953833  67.0918903  34.1028553  37.5893833  67.5598903
  34.6588553  37.7053833  66.3118903  34.5618553  37.9623833  67.0458903
  35.7208553  39.0593833  62.2988903  35.7458553  38.3843833  61.7478903
  35.0748553  39.5553833  61.9868903  35.6298553  39.0323833  62.1718903
  45.6158553  36.7723833  60.6948903  44.9538553  37.1003833  61.1578903
  45.8028553  37.4063833  60.1258903  45.5458553  36.9143833  60.6788903
  42.2608553  32.6783833  64.1238903  42.4098553  31.8533833  63.8808903
  42.6398553  32.7333833  64.9078903  42.3388553  32.5643833  64.2038903
  43.8088553  34.7413833  54.2058903  44.2988553  35.4583833  54.1288903
  43.0188553  35.0023833  53.9428903  43.7648553  34.8853833  54.1558903
  33.5198553  40.4143833  67.8578903  33.4828553  40.9153833  67.1438903
  33.8508553  39.6623833  67.5628903  33.5628553  40.3763833  67.7088903
  45.1228553  42.6193833  66.1158903  45.6068553  43.3373833  66.2138903
  45.5168553  42.1923833  65.4648903  45.2528553  42.6623833  66.0338903
  39.4188553  45.4643833  67.2928903  39.7728553  45.2863833  68.0698903
  38.9828553  44.7353833  67.0938903  39.4068553  45.3303833  67.3788903
  40.3908553  36.2113833  59.9308903  40.8708553  36.9103833  60.1388903
  40.7638553  35.5643833  60.3818903  40.5168553  36.2193833  60.0278903
  43.5968553  46.3163833  60.0298903  42.9938553  46.0203833  59.4728903
  44.1418553  46.7683833  59.5208903  43.5878553  46.3393833  59.8718903
  43.6098553  43.1673833  59.4298903  42.8128553  43.3913833  59.7038903
  43.8678553  42.5733833  60.0148903  43.5298553  43.1123833  59.5568903
  46.8698553  41.1653833  64.2758903  46.9248553  41.2903833  63.4138903
  47.6228553  41.4853833  64.5778903  46.9888553  41.2303833  64.1928903
  43.0608553  46.5143833  68.5528903  43.2248553  46.7973833  69.3618903
  43.3238553  47.1753833  68.0478903  43.1238553  46.6543833  68.5978903
  47.9018553  31.4633833  67.2628903  47.2648553  31.0633833  66.8208903
  47.9278553  31.0323833  68.0208903  47.8118553  31.3413833  67.3088903
  31.2918553  31.6903833  54.0768903  31.4208553  30.9823833  53.5848903
  30.9248553  31.3723833  54.8018903  31.2568553  31.5383833  54.1118903
  46.2108553  43.7003833  60.4028903  45.7318553  43.9983833  59.7368903
  45.8548553  42.9243833  60.5808903  46.0878553  43.6293833  60.3308903
  40.2078553  41.4183833  58.9648903  39.3608553  41.2243833  59.0458903
  40.5318553  41.2533833  59.7578903  40.1298553  41.3653833  59.0938903
  34.0558553  41.1113833  61.2808903  34.7778553  41.5993833  61.2438903
  33.7858553  41.0813833  60.4518903  34.1228553  41.1793833  61.1528903
  49.9028553  47.8663833  52.3428903  50.5968553  47.3993833  52.0948903
  49.3638553  47.2683833  52.6798903  49.9258553  47.7083833  52.3558903
  47.1418553  40.6423833  61.5218903  47.1348553  39.8663833  61.9198903
  46.3008553  40.8763833  61.5148903  47.0168553  40.5623833  61.5798903
  33.4508553  42.1633833  65.5588903  33.0298553  41.6453833  64.9978903
  33.0988553  42.9493833  65.4158903  33.3368553  42.2033833  65.4548903
  48.3978553  40.7133833  58.9588903  48.1118553  41.1143833  59.6788903
  49.2578553  40.6513833  59.0858903  48.4828553  40.7633833  59.0838903
  46.0598553  34.6373833  67.4988903  45.5348553  35.0963833  68.0228903
  45.6988553  33.8423833  67.4928903  45.9288553  34.5873833  67.5748903
  31.5668553  33.4853833  59.4028903  31.6108553  33.8293833  58.6018903
  32.3218553  33.7223833  59.7698903  31.6848553  33.5713833  59.3388903
  49.5288553  46.3463833  59.4878903  49.8188553  46.6033833  58.7068903
  50.2238553  46.4423833  60.0068903  49.6748553  46.3983833  59.4488903
  44.5518553  38.2063833  67.5748903  44.6248553  38.3103833  68.4378903
  43.9178553  38.7643833  67.3538903  44.4688553  38.3043833  67.6698903
  46.8198553  38.5253833  65.9398903  47.1388553  39.3113833  66.1428903
  46.4498553  38.2553833  66.6828903  46.8128553  38.6013833  66.0798903
  46.1338553  44.9493833  51.4698903  46.4678553  44.1433833  51.5048903
  45.3788553  44.8773833  51.8998903  46.0718553  44.8193833  51.5388903
  46.6158553  36.7833833  57.1288903  45.8708553  36.4603833  57.4468903
  46.6178553  37.6093833  57.4088903  46.5058553  36.8573833  57.2168903
  49.5178553  39.0673833  68.6748903  49.4658553  38.7263833  67.8738903
  50.2548553  39.5343833  68.6528903  49.6188553  39.0863833  68.5528903
  49.0558553  42.7433833  64.8808903  49.6838553  42.1943833  64.6248903
  48.9948553  43.3083833  64.2188903  49.1398553  42.7463833  64.7448903
  38.1898553  43.9743833  62.1768903  37.8918553  44.5663833  62.7438903
  38.2448553  44.4163833  61.4278903  38.1538553  44.1273833  62.1498903
  36.1688553  42.9243833  65.5748903  35.3628553  42.6343833  65.7418903
  36.0798553  43.7923833  65.5808903  36.0368553  43.0093833  65.5998903
  45.5278553  33.1133833  64.5898903  46.2718553  33.5653833  64.5268903
  44.9618553  33.5833833  64.1208903  45.5548553  33.2503833  64.5118903
  40.7058553  40.3973833  61.6678903  41.1818553  40.7713833  62.2958903
  39.8828553  40.5313833  61.9268903  40.6548553  40.4723833  61.7988903
  37.4158553  36.0003833  64.4088903  37.5768553  35.2563833  64.8358903
  37.3708553  35.7513833  63.5738903  37.4328553  35.8533833  64.3488903
  46.8128553  31.0933833  62.2598903  46.5328553  31.9183833  62.2158903
  47.5288553  31.1463833  62.7558903  46.8778553  31.2233833  62.3268903
  39.1678553  31.8083833  64.2888903  39.8728553  32.1283833  63.8868903
  39.4088553  31.0013833  64.5158903  39.3068553  31.7363833  64.2628903
  38.1528553  46.0183833  60.2848903  37.5288553  46.6003833  60.1028903
  38.4008553  45.7323833  59.4988903  38.0968553  46.0623833  60.1418903
  42.4618553  42.6523833  67.2738903  43.2188553  42.9383833  66.9478903
  41.9148553  42.7043833  66.5958903  42.4928553  42.7023833  67.1248903
  46.3708553  45.2023833  65.7778903  46.7168553  45.4723833  66.5318903
  46.6648553  45.7843833  65.1978903  46.4658553  45.3283833  65.8038903
  48.2338553  37.3483833  51.1168903  48.6118553  38.0253833  50.7168903
  47.3918553  37.5723833  51.1478903  48.1648553  37.4813833  51.0618903
  35.6768553  36.8613833  60.3498903  36.1168553  36.7583833  59.6038903
  36.2218553  36.5483833  60.9548903  35.8218553  36.8003833  60.3288903
  43.6928553  35.9633833  65.9418903  43.0448553  36.4333833  66.2898903
  44.2578553  35.8743833  66.6008903  43.6808553  36.0193833  66.0908903
  43.3808553  37.5003833  62.2398903  43.6828553  37.9203833  62.9428903
  43.4168553  36.6603833  62.4718903  43.4308553  37.4383833  62.3778903
  40.8058553  47.6673833  66.1648903  41.2838553  47.0673833  65.7488903
  40.4548553  47.2243833  66.8298903  40.8248553  47.5133833  66.2018903
  45.9288553  36.9473833  54.4918903  46.1358553  36.7463833  55.3158903
  46.6848553  37.2153833  54.1498903  46.0708553  36.9573833  54.5628903
  39.2238553  31.8463833  60.3968903  38.3978553  31.6973833  60.6338903
  39.1838553  31.8813833  59.5258903  39.0958553  31.8293833  60.3028903
  46.9508553  33.0303833  55.9658903  46.2368553  32.5593833  56.1368903
  46.7888553  33.3713833  55.1798903  46.8218553  33.0113833  55.8748903
  47.3938553  40.9743833  54.3458903  47.8698553  40.2453833  54.2978903
  46.5728553  40.6883833  54.2698903  47.3428553  40.8243833  54.3268903
  40.8648553  42.8863833  65.1848903  40.0698553  42.8223833  65.5358903
  40.9358553  43.7333833  64.9898903  40.7578553  43.0013833  65.2078903
  31.7888553  32.2443833  66.4318903  31.6488553  33.0393833  66.1008903
  31.0028553  32.0013833  66.7208903  31.6518553  32.3263833  66.4258903
  43.6098553  42.1413833  56.7008903  43.6858553  42.4823833  57.4998903
  43.7788553  41.2943833  56.8218903  43.6458553  42.0663833  56.8368903
  41.3538553  45.5333833  64.2928903  42.0408553  45.4193833  64.8178903
  41.4878553  46.3243833  63.9488903  41.4748553  45.6333833  64.3198903
  49.5298553  38.1423833  66.1038903  48.6748553  38.0203833  66.2298903
  49.6828553  37.7473833  65.3408903  49.4258553  38.0653833  66.0098903
  44.0428553  38.8073833  64.6798903  43.7878553  38.0883833  65.1018903
  44.8638553  38.9233833  64.9498903  44.1268553  38.7183833  64.7818903
  33.4588553  48.5913833  65.9438903  32.8048553  48.0223833  66.0418903
  33.0838553  49.3643833  66.0948903  33.3068553  48.6213833  65.9808903
  41.9768553  39.9973833  67.8668903  42.2998553  40.6833833  67.4348903
  41.2728553  40.3203833  68.2688903  41.9198553  40.1463833  67.8618903
  45.0608553  48.3713833  58.7958903  44.6098553  49.0143833  59.1748903
  45.7688553  48.2923833  59.3008903  45.0988553  48.4543833  58.9268903
  41.7618553  43.4613833  61.7258903  41.0678553  43.8633833  62.0688903
  42.4388553  43.8943833  62.0648903  41.7588553  43.5843833  61.8268903
  47.1388553  46.0543833  68.3058903  47.9148553  45.6643833  68.3888903
  46.6698553  45.7183833  68.9608903  47.1838553  45.9473833  68.4148903
  34.8298553  36.9993833  64.0728903  35.2048553  37.6183833  63.5858903
  35.5038553  36.5253833  64.3578903  34.9848553  37.0213833  64.0428903
  32.6048553  35.4473833  63.3478903  32.6818553  35.2783833  62.4948903
  33.3508553  35.8533833  63.5448903  32.7258553  35.4823833  63.2508903
  48.1638553  38.0873833  53.7878903  48.2668553  38.0293833  52.9238903
  48.9048553  37.7553833  54.1058903  48.2888553  38.0303833  53.7068903
  35.1588553  32.8573833  65.7588903  35.0778553  32.0133833  65.9648903
  34.8448553  32.9013833  64.9458903  35.1008553  32.7393833  65.6688903
  47.2658553  38.2333833  63.1438903  47.2638553  37.3703833  63.2678903
  47.3328553  38.5573833  63.9508903  47.2758553  38.1533833  63.2808903
  32.0018553  40.6733833  63.5718903  32.3218553  40.8923833  62.7908903
  31.9018553  39.8083833  63.5168903  32.0338553  40.5783833  63.4488903
  43.1448553  33.0333833  66.9258903  43.2368553  33.7453833  67.4198903
  42.5078553  32.5883833  67.3228903  43.0638553  33.0723833  67.0578903
  42.1388553  33.2233833  57.7798903  41.4388553  33.7413833  57.7238903
  42.1768553  32.8433833  56.9958903  42.0408553  33.2443833  57.6558903
  45.7368553  33.7393833  60.5798903  46.5918553  33.8383833  60.7248903
  45.3678553  34.2923833  61.1448903  45.8088553  33.8363833  60.6848903
  36.7648553  39.9653833  64.9568903  36.3688553  40.7393833  65.0318903
  36.3588553  39.5923833  64.2808903  36.6468553  40.0243833  64.8678903
  46.0408553  39.0193833  59.0708903  46.7068553  39.5603833  59.2308903
  45.6958553  39.3303833  58.3318903  46.0878553  39.1453833  58.9858903
  46.3538553  47.0853833  54.8778903  46.1798553  46.4313833  55.4278903
  47.0668553  46.8143833  54.4548903  46.4338553  46.9483833  54.8968903
  37.1938553  32.9423833  62.4068903  36.3298553  33.0263833  62.4868903
  37.4138553  32.4283833  63.0758903  37.0988553  32.8793833  62.5178903
  49.2118553  31.5773833  63.7358903  49.1598553  31.5333833  64.6058903
  49.8988553  31.0743833  63.5458903  49.3058553  31.4973833  63.8358903
  41.2968553  33.6903833  60.7808903  40.5598553  33.2363833  60.8938903
  41.8678553  33.2883833  61.3038903  41.2718553  33.5633833  60.8748903
  44.0288553  44.5383833  62.5688903  44.2348553  44.8393833  63.3608903
  43.9678553  45.2603833  62.0838903  44.0498553  44.6893833  62.6138903
  43.5628553  48.7523833  66.8148903  42.8098553  48.7343833  66.3738903
  43.7308553  49.6043833  66.8988903  43.4768553  48.8753833  66.7618903
  38.7998553  38.0193833  65.9848903  38.4778553  37.4433833  65.4148903
  38.4408553  38.7743833  65.7388903  38.6998553  38.0453833  65.8648903
  48.8408553  43.1773833  62.0268903  48.8088553  42.3153833  61.8918903
  48.1478553  43.4793833  61.5928903  48.7338553  43.0943833  61.9428903
  37.2348553  48.3753833  66.2328903  37.2758553  48.5013833  67.0958903
  37.8858553  47.8153833  66.0768903  37.3368553  48.3113833  66.3378903
  46.9458553  46.4373833  60.8238903  47.4728553  46.3543833  60.1328903
  46.5548553  45.6593833  60.8778903  46.9658553  46.3103833  60.7298903
  34.4138553  33.0253833  63.0548903  34.0708553  32.2583833  62.8208903
  33.7188553  33.5493833  63.1188903  34.2608553  32.9893833  63.0298903
  43.4598553  31.8813833  60.0318903  44.1298553  32.4253833  60.1588903
  42.9568553  32.3053833  59.4588903  43.4848553  32.0243833  59.9658903
  34.8278553  46.7583833  67.5928903  35.4228553  47.1893833  68.0648903
  34.4638553  47.3823833  67.1038903  34.8618553  46.9143833  67.5898903
  42.8188553  37.6893833  57.5248903  43.3698553  37.0823833  57.8248903
  42.3938553  37.9523833  58.2398903  42.8378553  37.6383833  57.6738903
  32.7548553  44.7473833  64.5218903  32.1808553  45.1633833  65.0308903
  33.4878553  45.2123833  64.6168903  32.7788553  44.8773833  64.6108903
  44.7888553  39.5203833  54.0868903  44.8568553  38.6703833  54.2678903
  43.9658553  39.6063833  53.8088903  44.6768553  39.4073833  54.0728903
  47.8678553  48.4753833  50.5048903  48.5048553  48.3413833  51.0858903
  47.5268553  47.6813833  50.3878903  47.9118553  48.3383833  50.5728903
  48.0628553  40.8933833  67.2378903  48.6968553  40.7233833  67.8118903
  48.4798553  41.2963833  66.5858903  48.2178553  40.9283833  67.2268903
  43.9428553  44.7403833  52.8268903  43.6918553  44.6123833  53.6528903
  43.6258553  44.0453833  52.4058903  43.8588553  44.6193833  52.8868903
  48.6878553  35.4573833  67.9758903  48.4918553  36.1013833  68.5308903
  47.9658553  34.9673833  67.9678903  48.5528553  35.4803833  68.0568903
  45.4738553  41.0043833  68.5928903  46.3448553  40.9683833  68.5568903
  45.2548553  41.4243833  67.8608903  45.5708553  41.0603833  68.4798903
  35.2278553  46.8293833  59.7738903  35.1488553  46.0193833  59.4578903
  34.7838553  47.3163833  59.2018903  35.1508553  46.7813833  59.6428903
  32.7998553  49.0733833  63.3548903  33.2928553  49.0173833  64.0728903
  32.9878553  48.3403833  62.9198903  32.9008553  48.9563833  63.3968903
  33.3158553  46.4323833  31.7786493  33.7828553  46.5163833  31.0466493
  33.7708553  45.8543833  32.2476493  33.4518553  46.3593833  31.7396493
  31.6678553  47.3723833  37.9926493  31.0758553  47.9303833  37.6796493
  32.0938553  47.1033833  37.2806493  31.6438553  47.4143833  37.8416493
  33.2128553  46.0423833  35.9236493  33.8688553  45.4673833  35.9386493
  33.6018553  46.7913833  35.7026493  33.3678553  46.0673833  35.8936493
  37.2618553  47.3813833  38.7196493  38.1058553  47.4853833  38.5246493
  36.9648553  48.1993833  38.7876493  37.3428553  47.5173833  38.7006493
  48.6208553  33.4593833  42.5546493  49.3778553  33.5313833  42.1266493
  48.6838553  32.6863833  42.9536493  48.7418553  33.3563833  42.5496493
  49.9908553  46.7053833  46.9986493  49.3088553  47.0153833  46.5516493
  49.6218553  46.2473833  47.6436493  49.8348553  46.6833833  47.0276493
  31.4168553  43.5783833  39.6306493  30.7498553  44.0663833  39.9066493
  32.0968553  44.1233833  39.6596493  31.4188553  43.7303833  39.6756493
  50.1618553  37.9723833  44.3386493  50.3768553  37.1723833  44.0626493
  49.3118553  38.0323833  44.1496493  50.0678553  37.8633833  44.2696493
  47.9018553  31.4633833  48.2566493  47.2648553  31.0633833  47.8146493
  47.9278553  31.0323833  49.0146493  47.8118553  31.3413833  48.3026493
  46.2108553  43.7003833  41.3966493  45.7318553  43.9983833  40.7306493
  45.8548553  42.9243833  41.5746493  46.0878553  43.6293833  41.3246493
  47.1418553  40.6423833  42.5156493  47.1348553  39.8663833  42.9136493
  46.3008553  40.8763833  42.5086493  47.0168553  40.5623833  42.5736493
  48.3978553  40.7133833  39.9526493  48.1118553  41.1143833  40.6726493
  49.2578553  40.6513833  40.0796493  48.4828553  40.7633833  40.0776493
  49.5288553  46.3463833  40.4816493  49.8188553  46.6033833  39.7006493
  50.2238553  46.4423833  41.0006493  49.6748553  46.3983833  40.4426493
  49.5178553  39.0673833  49.6686493  49.4658553  38.7263833  48.8676493
  50.2548553  39.5343833  49.6466493  49.6188553  39.0863833  49.5466493
  49.0558553  42.7433833  45.8746493  49.6838553  42.1943833  45.6186493
  48.9948553  43.3083833  45.2126493  49.1398553  42.7463833  45.7386493
  49.5298553  38.1423833  47.0976493  48.6748553  38.0203833  47.2236493
  49.6828553  37.7473833  46.3346493  49.4258553  38.0653833  47.0036493
  45.0608553  48.3713833  39.7896493  44.6098553  49.0143833  40.1686493
  45.7688553  48.2923833  40.2946493  45.0988553  48.4543833  39.9206493
  47.2658553  38.2333833  44.1376493  47.2638553  37.3703833  44.2616493
  47.3328553  38.5573833  44.9446493  47.2758553  38.1533833  44.2746493
  46.0408553  39.0193833  40.0646493  46.7068553  39.5603833  40.2246493
  45.6958553  39.3303833  39.3256493  46.0878553  39.1453833  39.9796493
  49.2118553  31.5773833  44.7296493  49.1598553  31.5333833  45.5996493
  49.8988553  31.0743833  44.5396493  49.3058553  31.4973833  44.8296493
  48.8408553  43.1773833  43.0206493  48.8088553  42.3153833  42.8856493
  48.1478553  43.4793833  42.5866493  48.7338553  43.0943833  42.9366493
  46.9458553  46.4373833  41.8176493  47.4728553  46.3543833  41.1266493
  46.5548553  45.6593833  41.8716493  46.9658553  46.3103833  41.7236493
  34.5408553  48.0143833  34.2906493  34.3958553  48.1703833  33.4446493
  35.4068553  48.0933833  34.3686493  34.6478553  48.0493833  34.1776493
  48.6878553  35.4573833  48.9696493  48.4918553  36.1013833  49.5246493
  47.9658553  34.9673833  48.9616493  48.5528553  35.4803833  49.0506493
  42.2378553  31.5893833  17.4894083  41.9928553  32.0773833  16.8094083
  43.1008553  31.5163833  17.3894083  42.3288553  31.6503833  17.3744083
  31.9158553  42.6453833  17.6164083  31.4748553  42.7633833  18.3594083
  31.6328553  41.8703833  17.3314083  31.8088553  42.5483833  17.6844083
  48.1908553  45.9463833  15.1314083  48.8918553  45.4273833  15.1274083
  47.6038553  45.5013833  14.6624083  48.2078553  45.8033833  15.0614083
  31.6588553  36.4373833  14.1234083  30.8808553  36.5993833  13.7634083
  31.6978553  35.5663833  14.1454083  31.5498553  36.3323833  14.0734083
  34.7978553  41.7003833  12.7954083  34.4058553  41.3293833  12.1094083
  34.7178553  41.1023833  13.4244083  34.7278553  41.5573833  12.7864083
  34.4248553  43.3413833  16.6954083  35.0328553  43.1713833  17.2984083
  33.6738553  43.2013833  17.1164083  34.4038553  43.2953833  16.8464083
  38.7068553  32.6763833  16.6444083  38.6368553  33.3533833  16.0984083
  39.4478553  32.2883833  16.3954083  38.8058553  32.7193833  16.5264083
  33.3158553  46.4323833  12.7724083  33.7828553  46.5163833  12.0404083
  33.7708553  45.8543833  13.2414083  33.4518553  46.3593833  12.7334083
  31.8558553  45.3803833  23.8714083  31.9848553  45.1003833  24.6874083
  31.2458553  44.8393833  23.5624083  31.7848553  45.2593833  23.9464083
  33.3018553  39.9013833  18.0734083  32.8398553  39.5093833  17.4464083
  34.0018553  39.3883833  18.1654083  33.3368553  39.7683833  17.9944083
  37.8098553  35.5113833  23.4204083  38.4878553  35.5293833  22.8714083
  37.7648553  34.6753833  23.6654083  37.9028553  35.3903833  23.3754083
  38.4118553  46.0973833  26.2014083  38.5498553  46.8573833  25.7944083
  39.2028553  45.7323833  26.2284083  38.5488553  46.1563833  26.1454083
  35.3028553  38.0013833  18.0964083  36.1198553  37.8143833  18.3394083
  34.8258553  37.3873833  18.4924083  35.3528553  37.8833833  18.1914083
  39.5068553  43.9823833  20.7064083  39.8548553  43.1833833  20.7364083
  40.1718553  44.4863833  20.4514083  39.6568553  43.9383833  20.6734083
  39.5638553  43.4313833  16.9174083  39.8948553  42.7873833  17.4034083
  39.8038553  43.2203833  16.1064083  39.6478553  43.3053833  16.8694083
  41.5318553  37.5623833  28.2564083  40.6838553  37.4633833  28.0784083
  41.5608553  38.3073833  28.7104083  41.4108553  37.6583833  28.2974083
  35.8998553  33.0953833  17.3624083  35.6038553  33.5963833  16.7124083
  36.7668553  33.1733833  17.3054083  35.9838553  33.1813833  17.2584083
  38.8788553  32.2373833  19.5854083  38.9518553  33.0973833  19.7144083
  38.8408553  32.1623833  18.7174083  38.8838553  32.3533833  19.4764083
  43.5518553  35.1633833  11.8844083  43.1018553  35.8443833  12.1914083
  43.6658553  34.6593833  12.5874083  43.5028553  35.1893833  12.0334083
  31.7578553  37.6623833  21.0864083  31.5018553  38.4933833  21.0114083
  31.0938553  37.2793833  21.5034083  31.6218553  37.7283833  21.1374083
  31.6678553  47.3723833  18.9864083  31.0758553  47.9303833  18.6734083
  32.0938553  47.1033833  18.2744083  31.6438553  47.4143833  18.8354083
  37.5078553  45.2163833  16.4664083  36.9288553  44.9413833  17.0584083
  38.1318553  44.6073833  16.4914083  37.5148553  45.0863833  16.5574083
  43.6508553  47.5043833  13.9884083  44.3778553  47.9763833  14.0904083
  43.8798553  46.7103833  14.2684083  43.7928553  47.4573833  14.0454083
  34.7868553  32.4793833  21.5774083  34.2658553  31.8513833  21.2694083
  35.3778553  32.0423833  22.0484083  34.7978553  32.3213833  21.6014083
  33.2128553  46.0423833  16.9174083  33.8688553  45.4673833  16.9324083
  33.6018553  46.7913833  16.6964083  33.3678553  46.0673833  16.8874083
  44.2578553  47.9063833  24.2834083  45.0018553  48.3623833  24.2734083
  44.1368553  47.6923833  23.4464083  44.3498553  47.9423833  24.1584083
  34.0308553  44.5293833  20.4174083  34.4538553  44.1733833  19.7434083
  34.3548553  44.1073833  21.1094083  34.1408553  44.4143833  20.4204083
  37.2618553  47.3813833  19.7134083  38.1058553  47.4853833  19.5184083
  36.9648553  48.1993833  19.7814083  37.3428553  47.5173833  19.6944083
  41.0688553  36.7783833  17.8004083  41.3558553  36.5463833  17.0104083
  41.8008553  36.8573833  18.2694083  41.2188553  36.7553833  17.7534083
  41.7908553  37.1173833  12.9214083  42.0718553  37.9053833  13.1704083
  41.0148553  37.2823833  12.5584083  41.7178553  37.2583833  12.9044083
  45.8318553  49.0913833  14.3884083  46.4968553  48.9433833  13.8434083
  46.1918553  49.0083833  15.1784083  45.9838553  49.0573833  14.4244083
  36.2598553  48.6003833  25.4534083  36.5518553  48.5333833  26.2734083
  35.6338553  47.9953833  25.4084083  36.2108553  48.5013833  25.5684083
  31.1738553  34.7573833  27.4454083  31.1698553  35.3443833  28.0914083
  31.7678553  35.0693833  26.8884083  31.2608553  34.8903833  27.4584083
  40.6498553  45.2883833  12.7374083  40.4688553  45.8333833  13.3944083
  41.4158553  45.5783833  12.4364083  40.7358553  45.4123833  12.7904083
  44.1568553  33.1843833  13.7914083  44.6968553  32.5023833  13.8674083
  44.2188553  33.5823833  14.5654083  44.2458553  33.1423833  13.9174083
  32.1108553  34.3523833  16.3604083  31.9968553  33.4883833  16.3914083
  31.6358553  34.6463833  17.0304083  32.0238553  34.2683833  16.4634083
  34.2528553  46.7623833  24.5754083  33.5548553  46.2543833  24.7014083
  34.5128553  46.5573833  23.7674083  34.1878553  46.6573833  24.4744083
  41.4148553  35.5603833  15.1054083  40.9068553  34.8983833  14.8514083
  41.4668553  36.0643833  14.3954083  41.3478553  35.5373833  14.9634083
  41.4148553  32.5013833  14.9964083  40.9598553  32.0993833  14.3704083
  42.1878553  32.6563833  14.6214083  41.4618553  32.4653833  14.8484083
  48.2408553  48.8583833  18.3864083  47.7858553  49.5753833  18.5874083
  47.6268553  48.2873833  18.1444083  48.0828553  48.8803833  18.3804083
  45.2378553  44.7033833  17.9304083  45.9388553  44.2213833  18.1194083
  44.5778553  44.1343833  17.9754083  45.2438553  44.5483833  17.9644083
  35.6138553  45.6133833  27.1424083  36.4548553  45.6763833  26.9204083
  35.5768553  46.0103833  27.9184083  35.7328553  45.6813833  27.2244083
  37.5768553  41.1243833  21.8914083  37.7488553  40.9143833  22.7204083
  36.9218553  40.5903833  21.6754083  37.5058553  41.0143833  21.9824083
  44.5038553  41.7573833  23.6114083  43.9898553  41.3453833  24.1824083
  44.3778553  42.6013833  23.7924083  44.4098553  41.8213833  23.7224083
  31.1478553  45.4333833  30.6924083  31.9038553  45.7823833  30.9504083
  31.3248553  44.5803833  30.6354083  31.2858553  45.3583833  30.7224083
  35.0688553  34.5013833  19.5204083  35.3408553  34.0713833  18.8124083
  34.8928553  33.8653833  20.0914083  35.0828553  34.3443833  19.5004083
  47.7568553  42.1963833  13.7384083  47.8758553  41.9093833  14.5534083
  48.5638553  42.2173833  13.4084083  47.8928553  42.1573833  13.8104083
  34.8928553  41.9283833  19.0694083  35.7438553  41.8483833  18.8964083
  34.5358553  41.2463833  18.6574083  34.9658553  41.8153833  18.9824083
  33.6598553  48.6533833  20.3064083  32.9868553  48.1553833  20.0614083
  34.0628553  48.8383833  19.5554083  33.6198553  48.6073833  20.1594083
  33.2098553  35.6033833  22.6024083  34.0528553  35.8233833  22.5594083
  32.8208553  36.1763833  22.0714083  33.2768553  35.7203833  22.5174083
  45.6518553  38.7333833  13.3234083  45.4318553  39.4643833  12.9014083
  45.2038553  38.7843833  14.0704083  45.5528553  38.8483833  13.3714083
  37.2608553  41.9353833  17.3044083  37.9738553  42.4303833  17.3944083
  37.4828553  41.3683833  16.6784083  37.3988553  41.9243833  17.2254083
  49.8388553  33.5943833  12.7764083  49.1768553  33.0263833  12.7994083
  49.6458553  34.1063833  12.0964083  49.7128553  33.5863833  12.6794083
  31.4168553  43.5783833  20.6244083  30.7498553  44.0663833  20.9004083
  32.0968553  44.1233833  20.6534083  31.4188553  43.7303833  20.6694083
  31.4828553  40.2623833  15.7274083  31.2978553  39.4233833  15.8794083
  32.1418553  40.2263833  15.1574083  31.5528553  40.1333833  15.6654083
  47.8408553  33.1523833  15.0554083  48.5868553  32.7453833  15.2544083
  48.1038553  33.8673833  14.6304083  47.9898553  33.1983833  15.0224083
  41.7838553  45.6383833  19.6314083  41.2608553  46.2723833  19.3384083
  42.0938553  45.2743833  18.9024083  41.7518553  45.6783833  19.4804083
  31.6548553  44.4263833  15.3024083  32.2068553  44.9953833  15.6664083
  31.4228553  43.9113833  15.9674083  31.7018553  44.4343833  15.4544083
  35.8588553  43.4263833  22.3914083  36.3258553  43.7153833  23.0694083
  36.4308553  42.9483833  21.9374083  36.0128553  43.3983833  22.4244083
  31.4848553  42.8753833  12.9304083  32.2408553  42.4433833  12.9884083
  31.4998553  43.4073833  13.6214083  31.5988553  42.8903833  13.0414083
  32.4248553  41.0963833  20.9354083  32.8558553  40.9673833  20.1884083
  32.2198553  41.9443833  20.9094083  32.4578553  41.2023833  20.8214083
  38.7708553  34.6603833  14.5854083  38.7688553  34.5433833  13.7204083
  38.5898553  35.5083833  14.6774083  38.7438553  34.7683833  14.4714083
  47.8248553  47.0873833  26.0824083  47.1538553  47.6013833  26.3004083
  47.8878553  47.1873833  25.2184083  47.7348553  47.1783833  25.9874083
  36.5088553  44.6123833  19.2174083  36.6348553  45.4553833  19.4044083
  37.1768553  44.2133833  19.6134083  36.6268553  44.6783833  19.3034083
  35.1238553  37.4923833  14.2194083  34.9958553  37.0443833  14.9574083
  34.5418553  37.1503833  13.6674083  35.0188553  37.3753833  14.2474083
  35.2908553  39.3223833  20.8184083  34.5098553  39.2633833  20.4354083
  35.3628553  38.5703833  21.2554083  35.1858553  39.2033833  20.8264083
  35.7208553  39.0593833  24.2864083  35.7458553  38.3843833  23.7354083
  35.0748553  39.5553833  23.9744083  35.6298553  39.0323833  24.1594083
  39.8208553  47.8363833  23.6784083  39.5438553  47.1953833  23.1554083
  39.6128553  48.5623833  23.2404083  39.7498553  47.8493833  23.5364083
  45.1228553  42.6193833  28.1034083  45.6068553  43.3373833  28.2014083
  45.5168553  42.1923833  27.4524083  45.2528553  42.6623833  28.0214083
  47.5518553  43.2503833  18.1734083  47.9078553  42.9003833  18.8884083
  47.5438553  42.5893833  17.6034083  47.6038553  43.1003833  18.1944083
  43.5968553  46.3163833  22.0174083  42.9938553  46.0203833  21.4604083
  44.1418553  46.7683833  21.5084083  43.5878553  46.3393833  21.8594083
  43.6098553  43.1673833  21.4174083  42.8128553  43.3913833  21.6914083
  43.8678553  42.5733833  22.0024083  43.5298553  43.1123833  21.5444083
  37.5018553  47.9793833  15.8654083  37.3548553  47.2033833  16.2364083
  38.1908553  47.8323833  15.3504083  37.5818553  47.8423833  15.8444083
  37.1728553  31.7223833  13.8534083  37.2698553  31.6153833  14.7144083
  36.4648553  32.2283833  13.7884083  37.0828553  31.7813833  13.9714083
  39.7938553  47.4953833  14.2674083  40.4158553  47.6583833  14.8574083
  39.8298553  48.1863833  13.7354083  39.8908553  47.6213833  14.2764083
  46.8698553  41.1653833  26.2634083  46.9248553  41.2903833  25.4014083
  47.6228553  41.4853833  26.5654083  46.9888553  41.2303833  26.1804083
  34.2948553  40.0293833  15.0964083  34.6188553  39.2503833  14.8744083
  34.9408553  40.3973833  15.5514083  34.4378553  39.9683833  15.1304083
  31.2918553  31.6903833  16.0644083  31.4208553  30.9823833  15.5724083
  30.9248553  31.3723833  16.7894083  31.2568553  31.5383833  16.0994083
  40.9848553  39.3713833  16.5214083  41.0438553  40.0213833  17.1004083
  40.7958553  38.6753833  17.0124083  40.9658553  39.3643833  16.6794083
  46.2108553  43.7003833  22.3904083  45.7318553  43.9983833  21.7244083
  45.8548553  42.9243833  22.5684083  46.0878553  43.6293833  22.3184083
  35.4808553  33.8883833  13.0334083  34.9698553  33.9413833  12.3274083
  36.2648553  34.1283833  12.7374083  35.5208553  33.9313833  12.8854083
  40.2078553  41.4183833  20.9524083  39.3608553  41.2243833  21.0334083
  40.5318553  41.2533833  21.7454083  40.1298553  41.3653833  21.0814083
  36.9598553  48.1483833  11.8384083  37.3988553  47.4513833  12.1264083
  37.1668553  48.7723833  12.4114083  37.0558553  48.1373833  11.9654083
  34.0558553  41.1113833  23.2684083  34.7778553  41.5993833  23.2314083
  33.7858553  41.0813833  22.4394083  34.1228553  41.1793833  23.1404083
  37.2858553  36.2823833  20.0034083  38.1318553  36.0923833  20.1014083
  36.9158553  35.5053833  19.8654083  37.3558553  36.1393833  19.9974083
  49.9028553  47.8663833  14.3304083  50.5968553  47.3993833  14.0824083
  49.3638553  47.2683833  14.6674083  49.9258553  47.7083833  14.3434083
  32.1068553  37.6203833  16.6584083  32.5958553  37.3283833  17.3194083
  32.2358553  37.0273833  16.0314083  32.1978553  37.4893833  16.6634083
  36.6318553  39.0543833  12.1444083  36.0218553  38.6493833  12.6184083
  36.2458553  39.1723833  11.3714083  36.4848553  39.0113833  12.1004083
  48.3978553  40.7133833  20.9464083  48.1118553  41.1143833  21.6664083
  49.2578553  40.6513833  21.0734083  48.4828553  40.7633833  21.0714083
  38.0868553  37.5153833  14.8544083  38.3588553  38.3413833  14.9214083
  37.2238553  37.5903833  14.7584083  37.9998553  37.6483833  14.8494083
  31.5668553  33.4853833  21.3904083  31.6108553  33.8293833  20.5894083
  32.3218553  33.7223833  21.7574083  31.6848553  33.5713833  21.3264083
  49.5288553  46.3463833  21.4754083  49.8188553  46.6033833  20.6944083
  50.2238553  46.4423833  21.9944083  49.6748553  46.3983833  21.4364083
  44.5518553  38.2063833  29.5624083  44.6248553  38.3103833  30.4254083
  43.9178553  38.7643833  29.3414083  44.4688553  38.3043833  29.6574083
  46.1338553  44.9493833  13.4574083  46.4678553  44.1433833  13.4924083
  45.3788553  44.8773833  13.8874083  46.0718553  44.8193833  13.5264083
  43.5078553  42.8243833  12.8604083  44.1918553  42.3103833  12.6914083
  43.0908553  42.8703833  12.0954083  43.5468553  42.7553833  12.7224083
  38.1898553  43.9743833  24.1644083  37.8918553  44.5663833  24.7314083
  38.2448553  44.4163833  23.4154083  38.1538553  44.1273833  24.1374083
  39.9698553  47.7903833  18.8834083  40.5158553  48.4693833  18.9374083
  39.6198553  47.8723833  18.0884083  39.9988553  47.9033833  18.7734083
  38.1528553  46.0183833  22.2724083  37.5288553  46.6003833  22.0904083
  38.4008553  45.7323833  21.4864083  38.0968553  46.0623833  22.1294083
  46.3708553  45.2023833  27.7654083  46.7168553  45.4723833  28.5194083
  46.6648553  45.7843833  27.1854083  46.4658553  45.3283833  27.7914083
  48.2338553  37.3483833  13.1044083  48.6118553  38.0253833  12.7044083
  47.3918553  37.5723833  13.1354083  48.1648553  37.4813833  13.0494083
  39.7468553  40.7943833  12.1874083  38.9418553  40.6173833  11.9024083
  39.7138553  41.6453833  12.3794083  39.6228553  40.8933833  12.1744083
  35.6768553  36.8613833  22.3374083  36.1168553  36.7583833  21.5914083
  36.2218553  36.5483833  22.9424083  35.8218553  36.8003833  22.3164083
  45.9288553  36.9473833  16.4794083  46.1358553  36.7463833  17.3034083
  46.6848553  37.2153833  16.1374083  46.0708553  36.9573833  16.5504083
  47.3938553  40.9743833  16.3334083  47.8698553  40.2453833  16.2854083
  46.5728553  40.6883833  16.2574083  47.3428553  40.8243833  16.3144083
  31.7888553  32.2443833  28.4194083  31.6488553  33.0393833  28.0884083
  31.0028553  32.0013833  28.7084083  31.6518553  32.3263833  28.4134083
  34.8528553  34.9883833  15.6444083  34.9788553  34.6593833  14.8464083
  34.0408553  34.7393833  15.8434083  34.7518553  34.9033833  15.5564083
  43.6098553  42.1413833  18.6884083  43.6858553  42.4823833  19.4874083
  43.7788553  41.2943833  18.8094083  43.6458553  42.0663833  18.8244083
  41.1318553  41.4153833  18.2534083  40.8338553  41.1003833  19.0104083
  41.8268553  41.8883833  18.4884083  41.1908553  41.4383833  18.4004083
  44.0428553  38.8073833  26.6674083  43.7878553  38.0883833  27.0894083
  44.8638553  38.9233833  26.9374083  44.1268553  38.7183833  26.7694083
  33.4588553  48.5913833  27.9314083  32.8048553  48.0223833  28.0294083
  33.0838553  49.3643833  28.0824083  33.3068553  48.6213833  27.9684083
  45.0608553  48.3713833  20.7834083  44.6098553  49.0143833  21.1624083
  45.7688553  48.2923833  21.2884083  45.0988553  48.4543833  20.9144083
  41.7618553  43.4613833  23.7134083  41.0678553  43.8633833  24.0564083
  42.4388553  43.8943833  24.0524083  41.7588553  43.5843833  23.8144083
  34.8298553  36.9993833  26.0604083  35.2048553  37.6183833  25.5734083
  35.5038553  36.5253833  26.3454083  34.9848553  37.0213833  26.0304083
  32.6048553  35.4473833  25.3354083  32.6818553  35.2783833  24.4824083
  33.3508553  35.8533833  25.5324083  32.7258553  35.4823833  25.2384083
  48.1638553  38.0873833  15.7754083  48.2668553  38.0293833  14.9114083
  48.9048553  37.7553833  16.0934083  48.2888553  38.0303833  15.6944083
  42.0838553  45.0523833  16.8824083  41.8788553  45.8853833  16.7234083
  41.3088553  44.6703833  17.0044083  41.9388553  45.1193833  16.8774083
  32.0018553  40.6733833  25.5594083  32.3218553  40.8923833  24.7784083
  31.9018553  39.8083833  25.5044083  32.0338553  40.5783833  25.4364083
  33.4578553  36.6093833  12.1774083  32.7858553  36.6233833  12.7334083
  33.5528553  35.7613833  11.9934083  33.3728553  36.4863833  12.2324083
  37.4458553  45.3143833  13.2914083  37.8868553  45.3943833  14.0394083
  36.6408553  45.0983833  13.5494083  37.3918553  45.2943833  13.4404083
  46.3538553  47.0853833  16.8654083  46.1798553  46.4313833  17.4154083
  47.0668553  46.8143833  16.4424083  46.4338553  46.9483833  16.8844083
  34.7748553  44.3843833  13.8924083  34.5308553  44.0773833  14.6724083
  34.7418553  43.6813833  13.3764083  34.7338553  44.2353833  13.9314083
  37.5938553  42.6293833  12.6354083  36.7758553  42.3613833  12.7754083
  37.5658553  43.4813833  12.8204083  37.4688553  42.7163833  12.6834083
  44.0288553  44.5383833  24.5564083  44.2348553  44.8393833  25.3484083
  43.9678553  45.2603833  24.0714083  44.0498553  44.6893833  24.6014083
  39.5958553  31.2713833  12.5994083  39.6738553  31.5183833  11.7664083
  38.8528553  31.6483833  12.8574083  39.4978553  31.3633833  12.5144083
  48.8408553  43.1773833  24.0144083  48.8088553  42.3153833  23.8794083
  48.1478553  43.4793833  23.5804083  48.7338553  43.0943833  23.9304083
  37.2348553  48.3753833  28.2204083  37.2758553  48.5013833  29.0834083
  37.8858553  47.8153833  28.0644083  37.3368553  48.3113833  28.3254083
  34.4138553  33.0253833  25.0424083  34.0708553  32.2583833  24.8084083
  33.7188553  33.5493833  25.1064083  34.2608553  32.9893833  25.0174083
  34.8278553  46.7583833  29.5804083  35.4228553  47.1893833  30.0524083
  34.4638553  47.3823833  29.0914083  34.8618553  46.9143833  29.5774083
  33.0668553  36.3393833  18.9984083  32.6988553  36.6413833  19.7294083
  33.6008553  35.7103833  19.2824083  33.0908553  36.2913833  19.1484083
  32.7548553  44.7473833  26.5094083  32.1808553  45.1633833  27.0184083
  33.4878553  45.2123833  26.6044083  32.7788553  44.8773833  26.5984083
  44.7888553  39.5203833  16.0744083  44.8568553  38.6703833  16.2554083
  43.9658553  39.6063833  15.7964083  44.6768553  39.4073833  16.0604083
  34.5408553  48.0143833  15.2844083  34.3958553  48.1703833  14.4384083
  35.4068553  48.0933833  15.3624083  34.6478553  48.0493833  15.1714083
  38.7078553  40.4113833  15.0124083  38.8078553  40.5503833  14.1574083
  39.5258553  40.3513833  15.3084083  38.8428553  40.4223833  14.9294083
  47.8678553  48.4753833  12.4924083  48.5048553  48.3413833  13.0734083
  47.5268553  47.6813833  12.3754083  47.9118553  48.3383833  12.5604083
  43.9428553  44.7403833  14.8144083  43.6918553  44.6123833  15.6404083
  43.6258553  44.0453833  14.3934083  43.8588553  44.6193833  14.8744083
  35.2278553  46.8293833  21.7614083  35.1488553  46.0193833  21.4454083
  34.7838553  47.3163833  21.1894083  35.1508553  46.7813833  21.6304083
  40.8288553  42.9483833  14.2444083  41.5458553  42.6013833  13.8884083
  40.7948553  43.7483833  13.8964083  40.9298553  43.0153833  14.1404083
  32.7998553  49.0733833  25.3424083  33.2928553  49.0173833  26.0604083
  32.9878553  48.3403833  24.9074083  32.9008553  48.9563833  25.3844083
  42.0468553  38.5053833   3.1541673  41.5228553  39.1013833   3.5171673
  42.4438553  38.1373833   3.8381673  42.0278553  38.5393833   3.3091673
  31.8558553  45.3803833   4.8651673  31.9848553  45.1003833   5.6811673
  31.2458553  44.8393833   4.5561673  31.7848553  45.2593833   4.9401673
  38.4298553  42.9053833   9.9321673  38.1938553  42.9023833  10.7721673
  37.6818553  42.7573833   9.5081673  38.2838553  42.8823833   9.9931673
  37.8098553  35.5113833   4.4141673  38.4878553  35.5293833   3.8651673
  37.7648553  34.6753833   4.6591673  37.9028553  35.3903833   4.3691673
  38.4118553  46.0973833   7.1951673  38.5498553  46.8573833   6.7881673
  39.2028553  45.7323833   7.2221673  38.5488553  46.1563833   7.1391673
  41.5318553  37.5623833   9.2501673  40.6838553  37.4633833   9.0721673
  41.5608553  38.3073833   9.7041673  41.4108553  37.6583833   9.2911673
  46.0898553  30.5223833   8.3641673  45.9318553  31.2913833   7.9821673
  45.3178553  30.3023833   8.7081673  45.9518553  30.6033833   8.3591673
  31.7578553  37.6623833   2.0801673  31.5018553  38.4933833   2.0051673
  31.0938553  37.2793833   2.4971673  31.6218553  37.7283833   2.1311673
  34.7868553  32.4793833   2.5711673  34.2658553  31.8513833   2.2631673
  35.3778553  32.0423833   3.0421673  34.7978553  32.3213833   2.5951673
  38.0928553  34.6123833  11.8691673  38.2098553  34.1583833  11.1331673
  38.3808553  35.4103833  11.6661673  38.1528553  34.6633833  11.7301673
  44.2578553  47.9063833   5.2771673  45.0018553  48.3623833   5.2671673
  44.1368553  47.6923833   4.4401673  44.3498553  47.9423833   5.1521673
  33.8258553  34.2093833  10.8531673  33.0478553  33.8193833  10.7811673
  34.3168553  33.7973833  10.2621673  33.7828553  34.0903833  10.7551673
  40.4748553  31.8523833  10.0211673  40.6528553  31.0433833   9.7461673
  40.3318553  32.2933833   9.2821673  40.4798553  31.7983833   9.8711673
  36.2598553  48.6003833   6.4471673  36.5518553  48.5333833   7.2671673
  35.6338553  47.9953833   6.4021673  36.2108553  48.5013833   6.5621673
  48.6208553  33.4593833   4.5421673  49.3778553  33.5313833   4.1141673
  48.6838553  32.6863833   4.9411673  48.7418553  33.3563833   4.5371673
  31.1738553  34.7573833   8.4391673  31.1698553  35.3443833   9.0851673
  31.7678553  35.0693833   7.8821673  31.2608553  34.8903833   8.4521673
  43.5118553  45.0913833   8.9811673  43.4778553  45.4733833   9.7651673
  44.3658553  45.0493833   8.8101673  43.6328553  45.1413833   9.0721673
  34.2528553  46.7623833   5.5691673  33.5548553  46.2543833   5.6951673
  34.5128553  46.5573833   4.7611673  34.1878553  46.6573833   5.4681673
  41.9638553  48.2553833   6.4791673  42.7318553  48.1753833   6.0731673
  41.3808553  48.1343833   5.8411673  41.9908553  48.2253833   6.3251673
  35.6138553  45.6133833   8.1361673  36.4548553  45.6763833   7.9141673
  35.5768553  46.0103833   8.9121673  35.7328553  45.6813833   8.2181673
  37.5768553  41.1243833   2.8851673  37.7488553  40.9143833   3.7141673
  36.9218553  40.5903833   2.6691673  37.5058553  41.0143833   2.9761673
  43.8048553  35.0383833   6.4001673  43.7098553  35.3573833   7.2061673
  43.2118553  34.3993833   6.3621673  43.7028553  34.9903833   6.5141673
  38.3268553  41.0623833   5.4751673  38.3798553  41.9093833   5.6771673
  38.0418553  40.6923833   6.2121673  38.2928553  41.1323833   5.6131673
  44.5038553  41.7573833   4.6051673  43.9898553  41.3453833   5.1761673
  44.3778553  42.6013833   4.7861673  44.4098553  41.8213833   4.7161673
  31.1478553  45.4333833  11.6861673  31.9038553  45.7823833  11.9441673
  31.3248553  44.5803833  11.6291673  31.2858553  45.3583833  11.7161673
  47.5248553  35.2183833   7.5441673  48.2968553  34.9933833   7.8811673
  47.0498553  35.4353833   8.2441673  47.5688553  35.2173833   7.6971673
  33.2098553  35.6033833   3.5961673  34.0528553  35.8233833   3.5531673
  32.8208553  36.1763833   3.0651673  33.2768553  35.7203833   3.5111673
  49.9908553  46.7053833   8.9861673  49.3088553  47.0153833   8.5391673
  49.6218553  46.2473833   9.6311673  49.8348553  46.6833833   9.0151673
  39.0638553  37.2883833  11.7141673  38.5798553  37.8653833  12.1561673
  39.0358553  37.5833833  10.8931673  38.9878553  37.4173833  11.6581673
  50.1618553  37.9723833   6.3261673  50.3768553  37.1723833   6.0501673
  49.3118553  38.0323833   6.1371673  50.0678553  37.8633833   6.2571673
  35.8588553  43.4263833   3.3851673  36.3258553  43.7153833   4.0631673
  36.4308553  42.9483833   2.9311673  36.0128553  43.3983833   3.4181673
  47.8248553  47.0873833   7.0761673  47.1538553  47.6013833   7.2941673
  47.8878553  47.1873833   6.2121673  47.7348553  47.1783833   6.9811673
  34.6388553  38.0953833  10.0731673  34.1028553  37.5893833  10.5411673
  34.6588553  37.7053833   9.2931673  34.5618553  37.9623833  10.0271673
  35.7208553  39.0593833   5.2801673  35.7458553  38.3843833   4.7291673
  35.0748553  39.5553833   4.9681673  35.6298553  39.0323833   5.1531673
  45.6158553  36.7723833   3.6761673  44.9538553  37.1003833   4.1391673
  45.8028553  37.4063833   3.1071673  45.5458553  36.9143833   3.6601673
  39.8208553  47.8363833   4.6721673  39.5438553  47.1953833   4.1491673
  39.6128553  48.5623833   4.2341673  39.7498553  47.8493833   4.5301673
  42.2608553  32.6783833   7.1051673  42.4098553  31.8533833   6.8621673
  42.6398553  32.7333833   7.8891673  42.3388553  32.5643833   7.1851673
  33.5198553  40.4143833  10.8391673  33.4828553  40.9153833  10.1251673
  33.8508553  39.6623833  10.5441673  33.5628553  40.3763833  10.6901673
  45.1228553  42.6193833   9.0971673  45.6068553  43.3373833   9.1951673
  45.5168553  42.1923833   8.4461673  45.2528553  42.6623833   9.0151673
  39.4188553  45.4643833  10.2741673  39.7728553  45.2863833  11.0511673
  38.9828553  44.7353833  10.0751673  39.4068553  45.3303833  10.3601673
  40.3908553  36.2113833   2.9121673  40.8708553  36.9103833   3.1201673
  40.7638553  35.5643833   3.3631673  40.5168553  36.2193833   3.0091673
  43.5968553  46.3163833   3.0111673  42.9938553  46.0203833   2.4541673
  44.1418553  46.7683833   2.5021673  43.5878553  46.3393833   2.8531673
  43.6098553  43.1673833   2.4111673  42.8128553  43.3913833   2.6851673
  43.8678553  42.5733833   2.9961673  43.5298553  43.1123833   2.5381673
  46.8698553  41.1653833   7.2571673  46.9248553  41.2903833   6.3951673
  47.6228553  41.4853833   7.5591673  46.9888553  41.2303833   7.1741673
  43.0608553  46.5143833  11.5341673  43.2248553  46.7973833  12.3431673
  43.3238553  47.1753833  11.0291673  43.1238553  46.6543833  11.5791673
  47.9018553  31.4633833  10.2441673  47.2648553  31.0633833   9.8021673
  47.9278553  31.0323833  11.0021673  47.8118553  31.3413833  10.2901673
  42.6008553  40.9713833   6.8571673  42.4458553  41.5813833   7.4611673
  43.1348553  40.4133833   7.2631673  42.6568553  40.9793833   7.0061673
  46.2108553  43.7003833   3.3841673  45.7318553  43.9983833   2.7181673
  45.8548553  42.9243833   3.5621673  46.0878553  43.6293833   3.3121673
  40.2078553  41.4183833   1.9461673  39.3608553  41.2243833   2.0271673
  40.5318553  41.2533833   2.7391673  40.1298553  41.3653833   2.0751673
  34.0558553  41.1113833   4.2621673  34.7778553  41.5993833   4.2251673
  33.7858553  41.0813833   3.4331673  34.1228553  41.1793833   4.1341673
  47.1418553  40.6423833   4.5031673  47.1348553  39.8663833   4.9011673
  46.3008553  40.8763833   4.4961673  47.0168553  40.5623833   4.5611673
  33.4508553  42.1633833   8.5401673  33.0298553  41.6453833   7.9791673
  33.0988553  42.9493833   8.3971673  33.3368553  42.2033833   8.4361673
  48.3978553  40.7133833   1.9401673  48.1118553  41.1143833   2.6601673
  49.2578553  40.6513833   2.0671673  48.4828553  40.7633833   2.0651673
  46.0598553  34.6373833  10.4801673  45.5348553  35.0963833  11.0041673
  45.6988553  33.8423833  10.4741673  45.9288553  34.5873833  10.5561673
  49.5288553  46.3463833   2.4691673  49.8188553  46.6033833   1.6881673
  50.2238553  46.4423833   2.9881673  49.6748553  46.3983833   2.4301673
  44.5518553  38.2063833  10.5561673  44.6248553  38.3103833  11.4191673
  43.9178553  38.7643833  10.3351673  44.4688553  38.3043833  10.6511673
  46.8198553  38.5253833   8.9211673  47.1388553  39.3113833   9.1241673
  46.4498553  38.2553833   9.6641673  46.8128553  38.6013833   9.0611673
  49.5178553  39.0673833  11.6561673  49.4658553  38.7263833  10.8551673
  50.2548553  39.5343833  11.6341673  49.6188553  39.0863833  11.5341673
  49.0558553  42.7433833   7.8621673  49.6838553  42.1943833   7.6061673
  48.9948553  43.3083833   7.2001673  49.1398553  42.7463833   7.7261673
  38.1898553  43.9743833   5.1581673  37.8918553  44.5663833   5.7251673
  38.2448553  44.4163833   4.4091673  38.1538553  44.1273833   5.1311673
  36.1688553  42.9243833   8.5561673  35.3628553  42.6343833   8.7231673
  36.0798553  43.7923833   8.5621673  36.0368553  43.0093833   8.5811673
  45.5278553  33.1133833   7.5711673  46.2718553  33.5653833   7.5081673
  44.9618553  33.5833833   7.1021673  45.5548553  33.2503833   7.4931673
  40.7058553  40.3973833   4.6491673  41.1818553  40.7713833   5.2771673
  39.8828553  40.5313833   4.9081673  40.6548553  40.4723833   4.7801673
  37.4158553  36.0003833   7.3901673  37.5768553  35.2563833   7.8171673
  37.3708553  35.7513833   6.5551673  37.4328553  35.8533833   7.3301673
  46.8128553  31.0933833   5.2411673  46.5328553  31.9183833   5.1971673
  47.5288553  31.1463833   5.7371673  46.8778553  31.2233833   5.3081673
  39.1678553  31.8083833   7.2701673  39.8728553  32.1283833   6.8681673
  39.4088553  31.0013833   7.4971673  39.3068553  31.7363833   7.2441673
  38.1528553  46.0183833   3.2661673  37.5288553  46.6003833   3.0841673
  38.4008553  45.7323833   2.4801673  38.0968553  46.0623833   3.1231673
  42.4618553  42.6523833  10.2551673  43.2188553  42.9383833   9.9291673
  41.9148553  42.7043833   9.5771673  42.4928553  42.7023833  10.1061673
  46.3708553  45.2023833   8.7591673  46.7168553  45.4723833   9.5131673
  46.6648553  45.7843833   8.1791673  46.4658553  45.3283833   8.7851673
  35.6768553  36.8613833   3.3311673  36.1168553  36.7583833   2.5851673
  36.2218553  36.5483833   3.9361673  35.8218553  36.8003833   3.3101673
  43.6928553  35.9633833   8.9231673  43.0448553  36.4333833   9.2711673
  44.2578553  35.8743833   9.5821673  43.6808553  36.0193833   9.0721673
  43.3808553  37.5003833   5.2211673  43.6828553  37.9203833   5.9241673
  43.4168553  36.6603833   5.4531673  43.4308553  37.4383833   5.3591673
  40.8058553  47.6673833   9.1461673  41.2838553  47.0673833   8.7301673
  40.4548553  47.2243833   9.8111673  40.8248553  47.5133833   9.1831673
  39.2238553  31.8463833   3.3781673  38.3978553  31.6973833   3.6151673
  39.1838553  31.8813833   2.5071673  39.0958553  31.8293833   3.2841673
  40.8648553  42.8863833   8.1661673  40.0698553  42.8223833   8.5171673
  40.9358553  43.7333833   7.9711673  40.7578553  43.0013833   8.1891673
  31.7888553  32.2443833   9.4131673  31.6488553  33.0393833   9.0821673
  31.0028553  32.0013833   9.7021673  31.6518553  32.3263833   9.4071673
  36.6948553  49.0933833   3.4831673  36.7058553  49.1523833   4.3531673
  36.2698553  48.3463833   3.3331673  36.6338553  48.9913833   3.5891673
  41.3538553  45.5333833   7.2741673  42.0408553  45.4193833   7.7991673
  41.4878553  46.3243833   6.9301673  41.4748553  45.6333833   7.3011673
  49.5298553  38.1423833   9.0851673  48.6748553  38.0203833   9.2111673
  49.6828553  37.7473833   8.3221673  49.4258553  38.0653833   8.9911673
  44.0428553  38.8073833   7.6611673  43.7878553  38.0883833   8.0831673
  44.8638553  38.9233833   7.9311673  44.1268553  38.7183833   7.7631673
  33.4588553  48.5913833   8.9251673  32.8048553  48.0223833   9.0231673
  33.0838553  49.3643833   9.0761673  33.3068553  48.6213833   8.9621673
  41.9768553  39.9973833  10.8481673  42.2998553  40.6833833  10.4161673
  41.2728553  40.3203833  11.2501673  41.9198553  40.1463833  10.8431673
  45.0608553  48.3713833   1.7771673  44.6098553  49.0143833   2.1561673
  45.7688553  48.2923833   2.2821673  45.0988553  48.4543833   1.9081673
  41.7618553  43.4613833   4.7071673  41.0678553  43.8633833   5.0501673
  42.4388553  43.8943833   5.0461673  41.7588553  43.5843833   4.8081673
  47.1388553  46.0543833  11.2871673  47.9148553  45.6643833  11.3701673
  46.6698553  45.7183833  11.9421673  47.1838553  45.9473833  11.3961673
  34.8298553  36.9993833   7.0541673  35.2048553  37.6183833   6.5671673
  35.5038553  36.5253833   7.3391673  34.9848553  37.0213833   7.0241673
  32.6048553  35.4473833   6.3291673  32.6818553  35.2783833   5.4761673
  33.3508553  35.8533833   6.5261673  32.7258553  35.4823833   6.2321673
  35.1588553  32.8573833   8.7401673  35.0778553  32.0133833   8.9461673
  34.8448553  32.9013833   7.9271673  35.1008553  32.7393833   8.6501673
  47.2658553  38.2333833   6.1251673  47.2638553  37.3703833   6.2491673
  47.3328553  38.5573833   6.9321673  47.2758553  38.1533833   6.2621673
  32.0018553  40.6733833   6.5531673  32.3218553  40.8923833   5.7721673
  31.9018553  39.8083833   6.4981673  32.0338553  40.5783833   6.4301673
  43.1448553  33.0333833   9.9071673  43.2368553  33.7453833  10.4011673
  42.5078553  32.5883833  10.3041673  43.0638553  33.0723833  10.0391673
  45.7368553  33.7393833   3.5611673  46.5918553  33.8383833   3.7061673
  45.3678553  34.2923833   4.1261673  45.8088553  33.8363833   3.6661673
  36.7648553  39.9653833   7.9381673  36.3688553  40.7393833   8.0131673
  36.3588553  39.5923833   7.2621673  36.6468553  40.0243833   7.8491673
  37.1938553  32.9423833   5.3881673  36.3298553  33.0263833   5.4681673
  37.4138553  32.4283833   6.0571673  37.0988553  32.8793833   5.4991673
  49.2118553  31.5773833   6.7171673  49.1598553  31.5333833   7.5871673
  49.8988553  31.0743833   6.5271673  49.3058553  31.4973833   6.8171673
  41.2968553  33.6903833   3.7621673  40.5598553  33.2363833   3.8751673
  41.8678553  33.2883833   4.2851673  41.2718553  33.5633833   3.8561673
  44.0288553  44.5383833   5.5501673  44.2348553  44.8393833   6.3421673
  43.9678553  45.2603833   5.0651673  44.0498553  44.6893833   5.5951673
  43.5628553  48.7523833   9.7961673  42.8098553  48.7343833   9.3551673
  43.7308553  49.6043833   9.8801673  43.4768553  48.8753833   9.7431673
  38.7998553  38.0193833   8.9661673  38.4778553  37.4433833   8.3961673
  38.4408553  38.7743833   8.7201673  38.6998553  38.0453833   8.8461673
  48.8408553  43.1773833   5.0081673  48.8088553  42.3153833   4.8731673
  48.1478553  43.4793833   4.5741673  48.7338553  43.0943833   4.9241673
  37.2348553  48.3753833   9.2141673  37.2758553  48.5013833  10.0771673
  37.8858553  47.8153833   9.0581673  37.3368553  48.3113833   9.3191673
  46.9458553  46.4373833   3.8051673  47.4728553  46.3543833   3.1141673
  46.5548553  45.6593833   3.8591673  46.9658553  46.3103833   3.7111673
  34.4138553  33.0253833   6.0361673  34.0708553  32.2583833   5.8021673
  33.7188553  33.5493833   6.1001673  34.2608553  32.9893833   6.0111673
  43.4598553  31.8813833   3.0131673  44.1298553  32.4253833   3.1401673
  42.9568553  32.3053833   2.4401673  43.4848553  32.0243833   2.9471673
  34.8278553  46.7583833  10.5741673  35.4228553  47.1893833  11.0461673
  34.4638553  47.3823833  10.0851673  34.8618553  46.9143833  10.5711673
  32.7548553  44.7473833   7.5031673  32.1808553  45.1633833   8.0121673
  33.4878553  45.2123833   7.5981673  32.7788553  44.8773833   7.5921673
  48.0628553  40.8933833  10.2191673  48.6968553  40.7233833  10.7931673
  48.4798553  41.2963833   9.5671673  48.2178553  40.9283833  10.2081673
  48.6878553  35.4573833  10.9571673  48.4918553  36.1013833  11.5121673
  47.9658553  34.9673833  10.9491673  48.5528553  35.4803833  11.0381673
  48.5868553  36.3983833   3.9281673  47.7538553  36.6483833   3.8561673
  48.5308553  35.5583833   4.1571673  48.4558553  36.3113833   3.9511673
  37.8468553  33.3863833   9.1221673  38.0808553  32.8103833   8.5091673
  37.0048553  33.2053833   9.2631673  37.7568553  33.2743833   9.0521673
  45.4738553  41.0043833  11.5741673  46.3448553  40.9683833  11.5381673
  45.2548553  41.4243833  10.8421673  45.5708553  41.0603833  11.4611673
  35.2278553  46.8293833   2.7551673  35.1488553  46.0193833   2.4391673
  34.7838553  47.3163833   2.1831673  35.1508553  46.7813833   2.6241673
  32.7998553  49.0733833   6.3361673  33.2928553  49.0173833   7.0541673
  32.9878553  48.3403833   5.9011673  32.9008553  48.9563833   6.3781673
  42.2378553  13.1112753  74.5081313  41.9928553  13.5992753  73.8281313
  43.1008553  13.0382753  74.4081313  42.3288553  13.1722753  74.3931313
  31.9158553  24.1672753  74.6351313  31.4748553  24.2852753  75.3781313
  31.6328553  23.3922753  74.3501313  31.8088553  24.0702753  74.7031313
  48.1908553  27.4682753  72.1501313  48.8918553  26.9492753  72.1461313
  47.6038553  27.0232753  71.6811313  48.2078553  27.3252753  72.0801313
  31.6588553  17.9592753  71.1421313  30.8808553  18.1212753  70.7821313
  31.6978553  17.0882753  71.1641313  31.5498553  17.8542753  71.0921313
  34.7978553  23.2222753  69.8141313  34.4058553  22.8512753  69.1281313
  34.7178553  22.6242753  70.4431313  34.7278553  23.0792753  69.8051313
  44.7178553  21.0942753  75.8551313  44.7978553  21.0982753  74.9861313
  44.1338553  20.4622753  76.0041313  44.6428553  21.0012753  75.7491313
  34.4248553  24.8632753  73.7141313  35.0328553  24.6932753  74.3171313
  33.6738553  24.7232753  74.1351313  34.4038553  24.8172753  73.8651313
  38.7068553  14.1982753  73.6631313  38.6368553  14.8752753  73.1171313
  39.4478553  13.8102753  73.4141313  38.8058553  14.2412753  73.5451313
  33.3158553  27.9542753  69.7911313  33.7828553  28.0382753  69.0591313
  33.7708553  27.3762753  70.2601313  33.4518553  27.8812753  69.7521313
  33.3018553  21.4232753  75.0921313  32.8398553  21.0312753  74.4651313
  34.0018553  20.9102753  75.1841313  33.3368553  21.2902753  75.0131313
  35.3028553  19.5232753  75.1151313  36.1198553  19.3362753  75.3581313
  34.8258553  18.9092753  75.5111313  35.3528553  19.4052753  75.2101313
  39.5068553  25.5042753  77.7251313  39.8548553  24.7052753  77.7551313
  40.1718553  26.0082753  77.4701313  39.6568553  25.4602753  77.6921313
  39.5638553  24.9532753  73.9361313  39.8948553  24.3092753  74.4221313
  39.8038553  24.7422753  73.1251313  39.6478553  24.8272753  73.8881313
  35.8998553  14.6172753  74.3811313  35.6038553  15.1182753  73.7311313
  36.7668553  14.6952753  74.3241313  35.9838553  14.7032753  74.2771313
  38.8788553  13.7592753  76.6041313  38.9518553  14.6192753  76.7331313
  38.8408553  13.6842753  75.7361313  38.8838553  13.8752753  76.4951313
  43.5518553  16.6852753  68.9031313  43.1018553  17.3662753  69.2101313
  43.6658553  16.1812753  69.6061313  43.5028553  16.7112753  69.0521313
  31.7578553  19.1842753  78.1051313  31.5018553  20.0152753  78.0301313
  31.0938553  18.8012753  78.5221313  31.6218553  19.2502753  78.1561313
  31.6678553  28.8942753  76.0051313  31.0758553  29.4522753  75.6921313
  32.0938553  28.6252753  75.2931313  31.6438553  28.9362753  75.8541313
  37.5078553  26.7382753  73.4851313  36.9288553  26.4632753  74.0771313
  38.1318553  26.1292753  73.5101313  37.5148553  26.6082753  73.5761313
  43.6508553  29.0262753  71.0071313  44.3778553  29.4982753  71.1091313
  43.8798553  28.2322753  71.2871313  43.7928553  28.9792753  71.0641313
  41.8188553  29.4182753  72.9971313  42.0328553  29.9452753  73.6591313
  42.5858553  29.2442753  72.6181313  41.9638553  29.4702753  73.0391313
  33.2128553  27.5642753  73.9361313  33.8688553  26.9892753  73.9511313
  33.6018553  28.3132753  73.7151313  33.3678553  27.5892753  73.9061313
  48.9458553  16.6582753  75.1981313  48.5998553  17.3362753  75.6241313
  48.3098553  16.0602753  75.2141313  48.8008553  16.6702753  75.2631313
  34.0308553  26.0512753  77.4361313  34.4538553  25.6952753  76.7621313
  34.3548553  25.6292753  78.1281313  34.1408553  25.9362753  77.4391313
  37.2618553  28.9032753  76.7321313  38.1058553  29.0072753  76.5371313
  36.9648553  29.7212753  76.8001313  37.3428553  29.0392753  76.7131313
  41.0688553  18.3002753  74.8191313  41.3558553  18.0682753  74.0291313
  41.8008553  18.3792753  75.2881313  41.2188553  18.2772753  74.7721313
  41.7908553  18.6392753  69.9401313  42.0718553  19.4272753  70.1891313
  41.0148553  18.8042753  69.5771313  41.7178553  18.7802753  69.9231313
  45.8318553  30.6132753  71.4071313  46.4968553  30.4652753  70.8621313
  46.1918553  30.5302753  72.1971313  45.9838553  30.5792753  71.4431313
  40.6498553  26.8102753  69.7561313  40.4688553  27.3552753  70.4131313
  41.4158553  27.1002753  69.4551313  40.7358553  26.9342753  69.8091313
  44.1568553  14.7062753  70.8101313  44.6968553  14.0242753  70.8861313
  44.2188553  15.1042753  71.5841313  44.2458553  14.6642753  70.9361313
  32.1108553  15.8742753  73.3791313  31.9968553  15.0102753  73.4101313
  31.6358553  16.1682753  74.0491313  32.0238553  15.7902753  73.4821313
  41.4148553  17.0822753  72.1241313  40.9068553  16.4202753  71.8701313
  41.4668553  17.5862753  71.4141313  41.3478553  17.0592753  71.9821313
  41.4148553  14.0232753  72.0151313  40.9598553  13.6212753  71.3891313
  42.1878553  14.1782753  71.6401313  41.4618553  13.9872753  71.8671313
  48.2408553  30.3802753  75.4051313  47.7858553  31.0972753  75.6061313
  47.6268553  29.8092753  75.1631313  48.0828553  30.4022753  75.3991313
  40.0128553  16.3902753  76.5371313  40.0868553  16.9582753  75.8791313
  40.1338553  16.8822753  77.2471313  40.0408553  16.5472753  76.5451313
  45.2378553  26.2252753  74.9491313  45.9388553  25.7432753  75.1381313
  44.5778553  25.6562753  74.9941313  45.2438553  26.0702753  74.9831313
  34.6208553  12.2132753  74.8851313  35.1568553  12.9012753  74.8751313
  34.6238553  11.9392753  74.0571313  34.6998553  12.2742753  74.7611313
  45.0608553  12.5042753  75.2611313  45.1098553  12.1862753  76.0721313
  45.3838553  11.8602753  74.7681313  45.1158553  12.3622753  75.3081313
  35.0688553  16.0232753  76.5391313  35.3408553  15.5932753  75.8311313
  34.8928553  15.3872753  77.1101313  35.0828553  15.8662753  76.5191313
  47.7568553  23.7182753  70.7571313  47.8758553  23.4312753  71.5721313
  48.5638553  23.7392753  70.4271313  47.8928553  23.6792753  70.8291313
  34.8928553  23.4502753  76.0881313  35.7438553  23.3702753  75.9151313
  34.5358553  22.7682753  75.6761313  34.9658553  23.3372753  76.0011313
  33.6598553  30.1752753  77.3251313  32.9868553  29.6772753  77.0801313
  34.0628553  30.3602753  76.5741313  33.6198553  30.1292753  77.1781313
  45.6518553  20.2552753  70.3421313  45.4318553  20.9862753  69.9201313
  45.2038553  20.3062753  71.0891313  45.5528553  20.3702753  70.3901313
  37.2608553  23.4572753  74.3231313  37.9738553  23.9522753  74.4131313
  37.4828553  22.8902753  73.6971313  37.3988553  23.4462753  74.2441313
  49.8388553  15.1162753  69.7951313  49.1768553  14.5482753  69.8181313
  49.6458553  15.6282753  69.1151313  49.7128553  15.1082753  69.6981313
  31.4168553  25.1002753  77.6431313  30.7498553  25.5882753  77.9191313
  32.0968553  25.6452753  77.6721313  31.4188553  25.2522753  77.6881313
  31.4828553  21.7842753  72.7461313  31.2978553  20.9452753  72.8981313
  32.1418553  21.7482753  72.1761313  31.5528553  21.6552753  72.6841313
  47.8408553  14.6742753  72.0741313  48.5868553  14.2672753  72.2731313
  48.1038553  15.3892753  71.6491313  47.9898553  14.7202753  72.0411313
  41.7838553  27.1602753  76.6501313  41.2608553  27.7942753  76.3571313
  42.0938553  26.7962753  75.9211313  41.7518553  27.2002753  76.4991313
  31.6548553  25.9482753  72.3211313  32.2068553  26.5172753  72.6851313
  31.4228553  25.4332753  72.9861313  31.7018553  25.9562753  72.4731313
  44.2948553  16.9622753  77.1471313  44.6388553  17.1142753  77.9341313
  43.8418553  16.2242753  77.2601313  44.2788553  16.8752753  77.2801313
  31.4848553  24.3972753  69.9491313  32.2408553  23.9652753  70.0071313
  31.4998553  24.9292753  70.6401313  31.5988553  24.4122753  70.0601313
  32.4248553  22.6182753  77.9541313  32.8558553  22.4892753  77.2071313
  32.2198553  23.4662753  77.9281313  32.4578553  22.7242753  77.8401313
  38.7708553  16.1822753  71.6041313  38.7688553  16.0652753  70.7391313
  38.5898553  17.0302753  71.6961313  38.7438553  16.2902753  71.4901313
  36.5088553  26.1342753  76.2361313  36.6348553  26.9772753  76.4231313
  37.1768553  25.7352753  76.6321313  36.6268553  26.2002753  76.3221313
  35.1238553  19.0142753  71.2381313  34.9958553  18.5662753  71.9761313
  34.5418553  18.6722753  70.6861313  35.0188553  18.8972753  71.2661313
  35.2908553  20.8442753  77.8371313  34.5098553  20.7852753  77.4541313
  35.3628553  20.0922753  78.2741313  35.1858553  20.7252753  77.8451313
  43.8088553  16.2632753  73.2121313  44.2988553  16.9802753  73.1351313
  43.0188553  16.5242753  72.9491313  43.7648553  16.4072753  73.1621313
  42.5798553  20.9022753  71.2111313  42.5718553  21.6242753  70.7211313
  41.9408553  21.0372753  71.7881313  42.4848553  21.0292753  71.2241313
  47.5518553  24.7722753  75.1921313  47.9078553  24.4222753  75.9071313
  47.5438553  24.1112753  74.6221313  47.6038553  24.6222753  75.2131313
  43.6098553  24.6892753  78.4361313  42.8128553  24.9132753  78.7101313
  43.8678553  24.0952753  79.0211313  43.5298553  24.6342753  78.5631313
  37.5018553  29.5012753  72.8841313  37.3548553  28.7252753  73.2551313
  38.1908553  29.3542753  72.3691313  37.5818553  29.3642753  72.8631313
  37.1728553  13.2442753  70.8721313  37.2698553  13.1372753  71.7331313
  36.4648553  13.7502753  70.8071313  37.0828553  13.3032753  70.9901313
  39.7938553  29.0172753  71.2861313  40.4158553  29.1802753  71.8761313
  39.8298553  29.7082753  70.7541313  39.8908553  29.1432753  71.2951313
  34.2948553  21.5512753  72.1151313  34.6188553  20.7722753  71.8931313
  34.9408553  21.9192753  72.5701313  34.4378553  21.4902753  72.1491313
  31.2918553  13.2122753  73.0831313  31.4208553  12.5042753  72.5911313
  30.9248553  12.8942753  73.8081313  31.2568553  13.0602753  73.1181313
  40.9848553  20.8932753  73.5401313  41.0438553  21.5432753  74.1191313
  40.7958553  20.1972753  74.0311313  40.9658553  20.8862753  73.6981313
  35.4808553  15.4102753  70.0521313  34.9698553  15.4632753  69.3461313
  36.2648553  15.6502753  69.7561313  35.5208553  15.4532753  69.9041313
  40.2078553  22.9402753  77.9711313  39.3608553  22.7462753  78.0521313
  40.5318553  22.7752753  78.7641313  40.1298553  22.8872753  78.1001313
  36.9598553  29.6702753  68.8571313  37.3988553  28.9732753  69.1451313
  37.1668553  30.2942753  69.4301313  37.0558553  29.6592753  68.9841313
  37.2858553  17.8042753  77.0221313  38.1318553  17.6142753  77.1201313
  36.9158553  17.0272753  76.8841313  37.3558553  17.6612753  77.0161313
  49.9028553  29.3882753  71.3491313  50.5968553  28.9212753  71.1011313
  49.3638553  28.7902753  71.6861313  49.9258553  29.2302753  71.3621313
  32.1068553  19.1422753  73.6771313  32.5958553  18.8502753  74.3381313
  32.2358553  18.5492753  73.0501313  32.1978553  19.0112753  73.6821313
  36.6318553  20.5762753  69.1631313  36.0218553  20.1712753  69.6371313
  36.2458553  20.6942753  68.3901313  36.4848553  20.5332753  69.1191313
  48.3978553  22.2352753  77.9651313  48.1118553  22.6362753  78.6851313
  49.2578553  22.1732753  78.0921313  48.4828553  22.2852753  78.0901313
  38.0868553  19.0372753  71.8731313  38.3588553  19.8632753  71.9401313
  37.2238553  19.1122753  71.7771313  37.9998553  19.1702753  71.8681313
  31.5668553  15.0072753  78.4091313  31.6108553  15.3512753  77.6081313
  32.3218553  15.2442753  78.7761313  31.6848553  15.0932753  78.3451313
  49.5288553  27.8682753  78.4941313  49.8188553  28.1252753  77.7131313
  50.2238553  27.9642753  79.0131313  49.6748553  27.9202753  78.4551313
  46.1338553  26.4712753  70.4761313  46.4678553  25.6652753  70.5111313
  45.3788553  26.3992753  70.9061313  46.0718553  26.3412753  70.5451313
  46.6158553  18.3052753  76.1351313  45.8708553  17.9822753  76.4531313
  46.6178553  19.1312753  76.4151313  46.5058553  18.3792753  76.2231313
  43.5078553  24.3462753  69.8791313  44.1918553  23.8322753  69.7101313
  43.0908553  24.3922753  69.1141313  43.5468553  24.2772753  69.7411313
  39.9698553  29.3122753  75.9021313  40.5158553  29.9912753  75.9561313
  39.6198553  29.3942753  75.1071313  39.9988553  29.4252753  75.7921313
  48.2338553  18.8702753  70.1231313  48.6118553  19.5472753  69.7231313
  47.3918553  19.0942753  70.1541313  48.1648553  19.0032753  70.0681313
  39.7468553  22.3162753  69.2061313  38.9418553  22.1392753  68.9211313
  39.7138553  23.1672753  69.3981313  39.6228553  22.4152753  69.1931313
  45.9288553  18.4692753  73.4981313  46.1358553  18.2682753  74.3221313
  46.6848553  18.7372753  73.1561313  46.0708553  18.4792753  73.5691313
  46.9508553  14.5522753  74.9721313  46.2368553  14.0812753  75.1431313
  46.7888553  14.8932753  74.1861313  46.8218553  14.5332753  74.8811313
  47.3938553  22.4962753  73.3521313  47.8698553  21.7672753  73.3041313
  46.5728553  22.2102753  73.2761313  47.3428553  22.3462753  73.3331313
  34.8528553  16.5102753  72.6631313  34.9788553  16.1812753  71.8651313
  34.0408553  16.2612753  72.8621313  34.7518553  16.4252753  72.5751313
  43.6098553  23.6632753  75.7071313  43.6858553  24.0042753  76.5061313
  43.7788553  22.8162753  75.8281313  43.6458553  23.5882753  75.8431313
  41.1318553  22.9372753  75.2721313  40.8338553  22.6222753  76.0291313
  41.8268553  23.4102753  75.5071313  41.1908553  22.9602753  75.4191313
  45.0608553  29.8932753  77.8021313  44.6098553  30.5362753  78.1811313
  45.7688553  29.8142753  78.3071313  45.0988553  29.9762753  77.9331313
  48.1638553  19.6092753  72.7941313  48.2668553  19.5512753  71.9301313
  48.9048553  19.2772753  73.1121313  48.2888553  19.5522753  72.7131313
  42.0838553  26.5742753  73.9011313  41.8788553  27.4072753  73.7421313
  41.3088553  26.1922753  74.0231313  41.9388553  26.6412753  73.8961313
  33.4578553  18.1312753  69.1961313  32.7858553  18.1452753  69.7521313
  33.5528553  17.2832753  69.0121313  33.3728553  18.0082753  69.2511313
  42.1388553  14.7452753  76.7861313  41.4388553  15.2632753  76.7301313
  42.1768553  14.3652753  76.0021313  42.0408553  14.7662753  76.6621313
  37.4458553  26.8362753  70.3101313  37.8868553  26.9162753  71.0581313
  36.6408553  26.6202753  70.5681313  37.3918553  26.8162753  70.4591313
  46.0408553  20.5412753  78.0771313  46.7068553  21.0822753  78.2371313
  45.6958553  20.8522753  77.3381313  46.0878553  20.6672753  77.9921313
  46.3538553  28.6072753  73.8841313  46.1798553  27.9532753  74.4341313
  47.0668553  28.3362753  73.4611313  46.4338553  28.4702753  73.9031313
  34.7748553  25.9062753  70.9111313  34.5308553  25.5992753  71.6911313
  34.7418553  25.2032753  70.3951313  34.7338553  25.7572753  70.9501313
  37.5938553  24.1512753  69.6541313  36.7758553  23.8832753  69.7941313
  37.5658553  25.0032753  69.8391313  37.4688553  24.2382753  69.7021313
  39.5958553  12.7932753  69.6181313  39.6738553  13.0402753  68.7851313
  38.8528553  13.1702753  69.8761313  39.4978553  12.8852753  69.5331313
  42.8188553  19.2112753  76.5311313  43.3698553  18.6042753  76.8311313
  42.3938553  19.4742753  77.2461313  42.8378553  19.1602753  76.6801313
  33.0668553  17.8612753  76.0171313  32.6988553  18.1632753  76.7481313
  33.6008553  17.2322753  76.3011313  33.0908553  17.8132753  76.1671313
  44.7888553  21.0422753  73.0931313  44.8568553  20.1922753  73.2741313
  43.9658553  21.1282753  72.8151313  44.6768553  20.9292753  73.0791313
  34.5408553  29.5362753  72.3031313  34.3958553  29.6922753  71.4571313
  35.4068553  29.6152753  72.3811313  34.6478553  29.5712753  72.1901313
  38.7078553  21.9332753  72.0311313  38.8078553  22.0722753  71.1761313
  39.5258553  21.8732753  72.3271313  38.8428553  21.9442753  71.9481313
  47.8678553  29.9972753  69.5111313  48.5048553  29.8632753  70.0921313
  47.5268553  29.2032753  69.3941313  47.9118553  29.8602753  69.5791313
  43.9428553  26.2622753  71.8331313  43.6918553  26.1342753  72.6591313
  43.6258553  25.5672753  71.4121313  43.8588553  26.1412753  71.8931313
  35.2278553  28.3512753  78.7801313  35.1488553  27.5412753  78.4641313
  34.7838553  28.8382753  78.2081313  35.1508553  28.3032753  78.6491313
  40.8288553  24.4702753  71.2631313  41.5458553  24.1232753  70.9071313
  40.7948553  25.2702753  70.9151313  40.9298553  24.5372753  71.1591313
  42.2378553  13.1112753  55.5018903  41.9928553  13.5992753  54.8218903
  43.1008553  13.0382753  55.4018903  42.3288553  13.1722753  55.3868903
  42.0468553  20.0272753  60.1728903  41.5228553  20.6232753  60.5358903
  42.4438553  19.6592753  60.8568903  42.0278553  20.0612753  60.3278903
  31.9158553  24.1672753  55.6288903  31.4748553  24.2852753  56.3718903
  31.6328553  23.3922753  55.3438903  31.8088553  24.0702753  55.6968903
  48.1908553  27.4682753  53.1438903  48.8918553  26.9492753  53.1398903
  47.6038553  27.0232753  52.6748903  48.2078553  27.3252753  53.0738903
  31.6588553  17.9592753  52.1358903  30.8808553  18.1212753  51.7758903
  31.6978553  17.0882753  52.1578903  31.5498553  17.8542753  52.0858903
  34.7978553  23.2222753  50.8078903  34.4058553  22.8512753  50.1218903
  34.7178553  22.6242753  51.4368903  34.7278553  23.0792753  50.7988903
  44.7178553  21.0942753  56.8488903  44.7978553  21.0982753  55.9798903
  44.1338553  20.4622753  56.9978903  44.6428553  21.0012753  56.7428903
  34.4248553  24.8632753  54.7078903  35.0328553  24.6932753  55.3108903
  33.6738553  24.7232753  55.1288903  34.4038553  24.8172753  54.8588903
  38.7068553  14.1982753  54.6568903  38.6368553  14.8752753  54.1108903
  39.4478553  13.8102753  54.4078903  38.8058553  14.2412753  54.5388903
  31.8558553  26.9022753  61.8838903  31.9848553  26.6222753  62.6998903
  31.2458553  26.3612753  61.5748903  31.7848553  26.7812753  61.9588903
  38.4298553  24.4272753  66.9508903  38.1938553  24.4242753  67.7908903
  37.6818553  24.2792753  66.5268903  38.2838553  24.4042753  67.0118903
  33.3018553  21.4232753  56.0858903  32.8398553  21.0312753  55.4588903
  34.0018553  20.9102753  56.1778903  33.3368553  21.2902753  56.0068903
  37.8098553  17.0332753  61.4328903  38.4878553  17.0512753  60.8838903
  37.7648553  16.1972753  61.6778903  37.9028553  16.9122753  61.3878903
  38.4118553  27.6192753  64.2138903  38.5498553  28.3792753  63.8068903
  39.2028553  27.2542753  64.2408903  38.5488553  27.6782753  64.1578903
  35.3028553  19.5232753  56.1088903  36.1198553  19.3362753  56.3518903
  34.8258553  18.9092753  56.5048903  35.3528553  19.4052753  56.2038903
  39.5068553  25.5042753  58.7188903  39.8548553  24.7052753  58.7488903
  40.1718553  26.0082753  58.4638903  39.6568553  25.4602753  58.6858903
  39.5638553  24.9532753  54.9298903  39.8948553  24.3092753  55.4158903
  39.8038553  24.7422753  54.1188903  39.6478553  24.8272753  54.8818903
  41.5318553  19.0842753  66.2688903  40.6838553  18.9852753  66.0908903
  41.5608553  19.8292753  66.7228903  41.4108553  19.1802753  66.3098903
  35.8998553  14.6172753  55.3748903  35.6038553  15.1182753  54.7248903
  36.7668553  14.6952753  55.3178903  35.9838553  14.7032753  55.2708903
  46.0898553  12.0442753  65.3828903  45.9318553  12.8132753  65.0008903
  45.3178553  11.8242753  65.7268903  45.9518553  12.1252753  65.3778903
  38.8788553  13.7592753  57.5978903  38.9518553  14.6192753  57.7268903
  38.8408553  13.6842753  56.7298903  38.8838553  13.8752753  57.4888903
  43.5518553  16.6852753  49.8968903  43.1018553  17.3662753  50.2038903
  43.6658553  16.1812753  50.5998903  43.5028553  16.7112753  50.0458903
  31.7578553  19.1842753  59.0988903  31.5018553  20.0152753  59.0238903
  31.0938553  18.8012753  59.5158903  31.6218553  19.2502753  59.1498903
  31.6678553  28.8942753  56.9988903  31.0758553  29.4522753  56.6858903
  32.0938553  28.6252753  56.2868903  31.6438553  28.9362753  56.8478903
  37.5078553  26.7382753  54.4788903  36.9288553  26.4632753  55.0708903
  38.1318553  26.1292753  54.5038903  37.5148553  26.6082753  54.5698903
  43.6508553  29.0262753  52.0008903  44.3778553  29.4982753  52.1028903
  43.8798553  28.2322753  52.2808903  43.7928553  28.9792753  52.0578903
  34.7868553  14.0012753  59.5898903  34.2658553  13.3732753  59.2818903
  35.3778553  13.5642753  60.0608903  34.7978553  13.8432753  59.6138903
  38.0928553  16.1342753  68.8878903  38.2098553  15.6802753  68.1518903
  38.3808553  16.9322753  68.6848903  38.1528553  16.1852753  68.7488903
  33.2128553  27.5642753  54.9298903  33.8688553  26.9892753  54.9448903
  33.6018553  28.3132753  54.7088903  33.3678553  27.5892753  54.8998903
  48.9458553  16.6582753  56.1918903  48.5998553  17.3362753  56.6178903
  48.3098553  16.0602753  56.2078903  48.8008553  16.6702753  56.2568903
  33.8258553  15.7312753  67.8718903  33.0478553  15.3412753  67.7998903
  34.3168553  15.3192753  67.2808903  33.7828553  15.6122753  67.7738903
  37.2618553  28.9032753  57.7258903  38.1058553  29.0072753  57.5308903
  36.9648553  29.7212753  57.7938903  37.3428553  29.0392753  57.7068903
  40.4748553  13.3742753  67.0398903  40.6528553  12.5652753  66.7648903
  40.3318553  13.8152753  66.3008903  40.4798553  13.3202753  66.8898903
  41.7908553  18.6392753  50.9338903  42.0718553  19.4272753  51.1828903
  41.0148553  18.8042753  50.5708903  41.7178553  18.7802753  50.9168903
  45.8318553  30.6132753  52.4008903  46.4968553  30.4652753  51.8558903
  46.1918553  30.5302753  53.1908903  45.9838553  30.5792753  52.4368903
  36.2598553  30.1222753  63.4658903  36.5518553  30.0552753  64.2858903
  35.6338553  29.5172753  63.4208903  36.2108553  30.0232753  63.5808903
  48.6208553  14.9812753  61.5608903  49.3778553  15.0532753  61.1328903
  48.6838553  14.2082753  61.9598903  48.7418553  14.8782753  61.5558903
  31.1738553  16.2792753  65.4578903  31.1698553  16.8662753  66.1038903
  31.7678553  16.5912753  64.9008903  31.2608553  16.4122753  65.4708903
  43.5118553  26.6132753  65.9998903  43.4778553  26.9952753  66.7838903
  44.3658553  26.5712753  65.8288903  43.6328553  26.6632753  66.0908903
  40.6498553  26.8102753  50.7498903  40.4688553  27.3552753  51.4068903
  41.4158553  27.1002753  50.4488903  40.7358553  26.9342753  50.8028903
  44.1568553  14.7062753  51.8038903  44.6968553  14.0242753  51.8798903
  44.2188553  15.1042753  52.5778903  44.2458553  14.6642753  51.9298903
  32.1108553  15.8742753  54.3728903  31.9968553  15.0102753  54.4038903
  31.6358553  16.1682753  55.0428903  32.0238553  15.7902753  54.4758903
  34.2528553  28.2842753  62.5878903  33.5548553  27.7762753  62.7138903
  34.5128553  28.0792753  61.7798903  34.1878553  28.1792753  62.4868903
  41.4148553  17.0822753  53.1178903  40.9068553  16.4202753  52.8638903
  41.4668553  17.5862753  52.4078903  41.3478553  17.0592753  52.9758903
  41.9638553  29.7772753  63.4978903  42.7318553  29.6972753  63.0918903
  41.3808553  29.6562753  62.8598903  41.9908553  29.7472753  63.3438903
  41.4148553  14.0232753  53.0088903  40.9598553  13.6212753  52.3828903
  42.1878553  14.1782753  52.6338903  41.4618553  13.9872753  52.8608903
  48.2408553  30.3802753  56.3988903  47.7858553  31.0972753  56.5998903
  47.6268553  29.8092753  56.1568903  48.0828553  30.4022753  56.3928903
  40.0128553  16.3902753  57.5308903  40.0868553  16.9582753  56.8728903
  40.1338553  16.8822753  58.2408903  40.0408553  16.5472753  57.5388903
  45.2378553  26.2252753  55.9428903  45.9388553  25.7432753  56.1318903
  44.5778553  25.6562753  55.9878903  45.2438553  26.0702753  55.9768903
  35.6138553  27.1352753  65.1548903  36.4548553  27.1982753  64.9328903
  35.5768553  27.5322753  65.9308903  35.7328553  27.2032753  65.2368903
  34.6208553  12.2132753  55.8788903  35.1568553  12.9012753  55.8688903
  34.6238553  11.9392753  55.0508903  34.6998553  12.2742753  55.7548903
  37.5768553  22.6462753  59.9038903  37.7488553  22.4362753  60.7328903
  36.9218553  22.1122753  59.6878903  37.5058553  22.5362753  59.9948903
  43.8048553  16.5602753  63.4188903  43.7098553  16.8792753  64.2248903
  43.2118553  15.9212753  63.3808903  43.7028553  16.5122753  63.5328903
  38.3268553  22.5842753  62.4938903  38.3798553  23.4312753  62.6958903
  38.0418553  22.2142753  63.2308903  38.2928553  22.6542753  62.6318903
  44.5038553  23.2792753  61.6238903  43.9898553  22.8672753  62.1948903
  44.3778553  24.1232753  61.8048903  44.4098553  23.3432753  61.7348903
  45.0608553  12.5042753  56.2548903  45.1098553  12.1862753  57.0658903
  45.3838553  11.8602753  55.7618903  45.1158553  12.3622753  56.3018903
  31.1478553  26.9552753  68.7048903  31.9038553  27.3042753  68.9628903
  31.3248553  26.1022753  68.6478903  31.2858553  26.8802753  68.7348903
  47.5248553  16.7402753  64.5628903  48.2968553  16.5152753  64.8998903
  47.0498553  16.9572753  65.2628903  47.5688553  16.7392753  64.7158903
  35.0688553  16.0232753  57.5328903  35.3408553  15.5932753  56.8248903
  34.8928553  15.3872753  58.1038903  35.0828553  15.8662753  57.5128903
  47.7568553  23.7182753  51.7508903  47.8758553  23.4312753  52.5658903
  48.5638553  23.7392753  51.4208903  47.8928553  23.6792753  51.8228903
  34.8928553  23.4502753  57.0818903  35.7438553  23.3702753  56.9088903
  34.5358553  22.7682753  56.6698903  34.9658553  23.3372753  56.9948903
  33.6598553  30.1752753  58.3188903  32.9868553  29.6772753  58.0738903
  34.0628553  30.3602753  57.5678903  33.6198553  30.1292753  58.1718903
  33.2098553  17.1252753  60.6148903  34.0528553  17.3452753  60.5718903
  32.8208553  17.6982753  60.0838903  33.2768553  17.2422753  60.5298903
  49.9908553  28.2272753  66.0048903  49.3088553  28.5372753  65.5578903
  49.6218553  27.7692753  66.6498903  49.8348553  28.2052753  66.0338903
  45.6518553  20.2552753  51.3358903  45.4318553  20.9862753  50.9138903
  45.2038553  20.3062753  52.0828903  45.5528553  20.3702753  51.3838903
  37.2608553  23.4572753  55.3168903  37.9738553  23.9522753  55.4068903
  37.4828553  22.8902753  54.6908903  37.3988553  23.4462753  55.2378903
  49.8388553  15.1162753  50.7888903  49.1768553  14.5482753  50.8118903
  49.6458553  15.6282753  50.1088903  49.7128553  15.1082753  50.6918903
  31.4168553  25.1002753  58.6368903  30.7498553  25.5882753  58.9128903
  32.0968553  25.6452753  58.6658903  31.4188553  25.2522753  58.6818903
  39.0638553  18.8102753  68.7328903  38.5798553  19.3872753  69.1748903
  39.0358553  19.1052753  67.9118903  38.9878553  18.9392753  68.6768903
  50.1618553  19.4942753  63.3448903  50.3768553  18.6942753  63.0688903
  49.3118553  19.5542753  63.1558903  50.0678553  19.3852753  63.2758903
  31.4828553  21.7842753  53.7398903  31.2978553  20.9452753  53.8918903
  32.1418553  21.7482753  53.1698903  31.5528553  21.6552753  53.6778903
  47.8408553  14.6742753  53.0678903  48.5868553  14.2672753  53.2668903
  48.1038553  15.3892753  52.6428903  47.9898553  14.7202753  53.0348903
  41.7838553  27.1602753  57.6438903  41.2608553  27.7942753  57.3508903
  42.0938553  26.7962753  56.9148903  41.7518553  27.2002753  57.4928903
  31.6548553  25.9482753  53.3148903  32.2068553  26.5172753  53.6788903
  31.4228553  25.4332753  53.9798903  31.7018553  25.9562753  53.4668903
  35.8588553  24.9482753  60.4038903  36.3258553  25.2372753  61.0818903
  36.4308553  24.4702753  59.9498903  36.0128553  24.9202753  60.4368903
  44.2948553  16.9622753  58.1408903  44.6388553  17.1142753  58.9278903
  43.8418553  16.2242753  58.2538903  44.2788553  16.8752753  58.2738903
  31.4848553  24.3972753  50.9428903  32.2408553  23.9652753  51.0008903
  31.4998553  24.9292753  51.6338903  31.5988553  24.4122753  51.0538903
  32.4248553  22.6182753  58.9478903  32.8558553  22.4892753  58.2008903
  32.2198553  23.4662753  58.9218903  32.4578553  22.7242753  58.8338903
  38.7708553  16.1822753  52.5978903  38.7688553  16.0652753  51.7328903
  38.5898553  17.0302753  52.6898903  38.7438553  16.2902753  52.4838903
  47.8248553  28.6092753  64.0948903  47.1538553  29.1232753  64.3128903
  47.8878553  28.7092753  63.2308903  47.7348553  28.7002753  63.9998903
  36.5088553  26.1342753  57.2298903  36.6348553  26.9772753  57.4168903
  37.1768553  25.7352753  57.6258903  36.6268553  26.2002753  57.3158903
  34.6388553  19.6172753  67.0918903  34.1028553  19.1112753  67.5598903
  34.6588553  19.2272753  66.3118903  34.5618553  19.4842753  67.0458903
  35.1238553  19.0142753  52.2318903  34.9958553  18.5662753  52.9698903
  34.5418553  18.6722753  51.6798903  35.0188553  18.8972753  52.2598903
  35.2908553  20.8442753  58.8308903  34.5098553  20.7852753  58.4478903
  35.3628553  20.0922753  59.2678903  35.1858553  20.7252753  58.8388903
  35.7208553  20.5812753  62.2988903  35.7458553  19.9062753  61.7478903
  35.0748553  21.0772753  61.9868903  35.6298553  20.5542753  62.1718903
  45.6158553  18.2942753  60.6948903  44.9538553  18.6222753  61.1578903
  45.8028553  18.9282753  60.1258903  45.5458553  18.4362753  60.6788903
  39.8208553  29.3582753  61.6908903  39.5438553  28.7172753  61.1678903
  39.6128553  30.0842753  61.2528903  39.7498553  29.3712753  61.5488903
  42.2608553  14.2002753  64.1238903  42.4098553  13.3752753  63.8808903
  42.6398553  14.2552753  64.9078903  42.3388553  14.0862753  64.2038903
  43.8088553  16.2632753  54.2058903  44.2988553  16.9802753  54.1288903
  43.0188553  16.5242753  53.9428903  43.7648553  16.4072753  54.1558903
  33.5198553  21.9362753  67.8578903  33.4828553  22.4372753  67.1438903
  33.8508553  21.1842753  67.5628903  33.5628553  21.8982753  67.7088903
  45.1228553  24.1412753  66.1158903  45.6068553  24.8592753  66.2138903
  45.5168553  23.7142753  65.4648903  45.2528553  24.1842753  66.0338903
  39.4188553  26.9862753  67.2928903  39.7728553  26.8082753  68.0698903
  38.9828553  26.2572753  67.0938903  39.4068553  26.8522753  67.3788903
  40.3908553  17.7332753  59.9308903  40.8708553  18.4322753  60.1388903
  40.7638553  17.0862753  60.3818903  40.5168553  17.7412753  60.0278903
  42.5798553  20.9022753  52.2048903  42.5718553  21.6242753  51.7148903
  41.9408553  21.0372753  52.7818903  42.4848553  21.0292753  52.2178903
  47.5518553  24.7722753  56.1858903  47.9078553  24.4222753  56.9008903
  47.5438553  24.1112753  55.6158903  47.6038553  24.6222753  56.2068903
  43.5968553  27.8382753  60.0298903  42.9938553  27.5422753  59.4728903
  44.1418553  28.2902753  59.5208903  43.5878553  27.8612753  59.8718903
  43.6098553  24.6892753  59.4298903  42.8128553  24.9132753  59.7038903
  43.8678553  24.0952753  60.0148903  43.5298553  24.6342753  59.5568903
  37.1728553  13.2442753  51.8658903  37.2698553  13.1372753  52.7268903
  36.4648553  13.7502753  51.8008903  37.0828553  13.3032753  51.9838903
  46.8698553  22.6872753  64.2758903  46.9248553  22.8122753  63.4138903
  47.6228553  23.0072753  64.5778903  46.9888553  22.7522753  64.1928903
  43.0608553  28.0362753  68.5528903  43.2248553  28.3192753  69.3618903
  43.3238553  28.6972753  68.0478903  43.1238553  28.1762753  68.5978903
  47.9018553  12.9852753  67.2628903  47.2648553  12.5852753  66.8208903
  47.9278553  12.5542753  68.0208903  47.8118553  12.8632753  67.3088903
  34.2948553  21.5512753  53.1088903  34.6188553  20.7722753  52.8868903
  34.9408553  21.9192753  53.5638903  34.4378553  21.4902753  53.1428903
  42.6008553  22.4932753  63.8758903  42.4458553  23.1032753  64.4798903
  43.1348553  21.9352753  64.2818903  42.6568553  22.5012753  64.0248903
  31.2918553  13.2122753  54.0768903  31.4208553  12.5042753  53.5848903
  30.9248553  12.8942753  54.8018903  31.2568553  13.0602753  54.1118903
  40.9848553  20.8932753  54.5338903  41.0438553  21.5432753  55.1128903
  40.7958553  20.1972753  55.0248903  40.9658553  20.8862753  54.6918903
  46.2108553  25.2222753  60.4028903  45.7318553  25.5202753  59.7368903
  45.8548553  24.4462753  60.5808903  46.0878553  25.1512753  60.3308903
  35.4808553  15.4102753  51.0458903  34.9698553  15.4632753  50.3398903
  36.2648553  15.6502753  50.7498903  35.5208553  15.4532753  50.8978903
  40.2078553  22.9402753  58.9648903  39.3608553  22.7462753  59.0458903
  40.5318553  22.7752753  59.7578903  40.1298553  22.8872753  59.0938903
  34.0558553  22.6332753  61.2808903  34.7778553  23.1212753  61.2438903
  33.7858553  22.6032753  60.4518903  34.1228553  22.7012753  61.1528903
  37.2858553  17.8042753  58.0158903  38.1318553  17.6142753  58.1138903
  36.9158553  17.0272753  57.8778903  37.3558553  17.6612753  58.0098903
  49.9028553  29.3882753  52.3428903  50.5968553  28.9212753  52.0948903
  49.3638553  28.7902753  52.6798903  49.9258553  29.2302753  52.3558903
  32.1068553  19.1422753  54.6708903  32.5958553  18.8502753  55.3318903
  32.2358553  18.5492753  54.0438903  32.1978553  19.0112753  54.6758903
  47.1418553  22.1642753  61.5218903  47.1348553  21.3882753  61.9198903
  46.3008553  22.3982753  61.5148903  47.0168553  22.0842753  61.5798903
  36.6318553  20.5762753  50.1568903  36.0218553  20.1712753  50.6308903
  36.2458553  20.6942753  49.3838903  36.4848553  20.5332753  50.1128903
  33.4508553  23.6852753  65.5588903  33.0298553  23.1672753  64.9978903
  33.0988553  24.4712753  65.4158903  33.3368553  23.7252753  65.4548903
  48.3978553  22.2352753  58.9588903  48.1118553  22.6362753  59.6788903
  49.2578553  22.1732753  59.0858903  48.4828553  22.2852753  59.0838903
  38.0868553  19.0372753  52.8668903  38.3588553  19.8632753  52.9338903
  37.2238553  19.1122753  52.7708903  37.9998553  19.1702753  52.8618903
  46.0598553  16.1592753  67.4988903  45.5348553  16.6182753  68.0228903
  45.6988553  15.3642753  67.4928903  45.9288553  16.1092753  67.5748903
  31.5668553  15.0072753  59.4028903  31.6108553  15.3512753  58.6018903
  32.3218553  15.2442753  59.7698903  31.6848553  15.0932753  59.3388903
  49.5288553  27.8682753  59.4878903  49.8188553  28.1252753  58.7068903
  50.2238553  27.9642753  60.0068903  49.6748553  27.9202753  59.4488903
  44.5518553  19.7282753  67.5748903  44.6248553  19.8322753  68.4378903
  43.9178553  20.2862753  67.3538903  44.4688553  19.8262753  67.6698903
  46.8198553  20.0472753  65.9398903  47.1388553  20.8332753  66.1428903
  46.4498553  19.7772753  66.6828903  46.8128553  20.1232753  66.0798903
  46.1338553  26.4712753  51.4698903  46.4678553  25.6652753  51.5048903
  45.3788553  26.3992753  51.8998903  46.0718553  26.3412753  51.5388903
  46.6158553  18.3052753  57.1288903  45.8708553  17.9822753  57.4468903
  46.6178553  19.1312753  57.4088903  46.5058553  18.3792753  57.2168903
  49.5178553  20.5892753  68.6748903  49.4658553  20.2482753  67.8738903
  50.2548553  21.0562753  68.6528903  49.6188553  20.6082753  68.5528903
  49.0558553  24.2652753  64.8808903  49.6838553  23.7162753  64.6248903
  48.9948553  24.8302753  64.2188903  49.1398553  24.2682753  64.7448903
  43.5078553  24.3462753  50.8728903  44.1918553  23.8322753  50.7038903
  43.0908553  24.3922753  50.1078903  43.5468553  24.2772753  50.7348903
  38.1898553  25.4962753  62.1768903  37.8918553  26.0882753  62.7438903
  38.2448553  25.9382753  61.4278903  38.1538553  25.6492753  62.1498903
  36.1688553  24.4462753  65.5748903  35.3628553  24.1562753  65.7418903
  36.0798553  25.3142753  65.5808903  36.0368553  24.5312753  65.5998903
  45.5278553  14.6352753  64.5898903  46.2718553  15.0872753  64.5268903
  44.9618553  15.1052753  64.1208903  45.5548553  14.7722753  64.5118903
  40.7058553  21.9192753  61.6678903  41.1818553  22.2932753  62.2958903
  39.8828553  22.0532753  61.9268903  40.6548553  21.9942753  61.7988903
  37.4158553  17.5222753  64.4088903  37.5768553  16.7782753  64.8358903
  37.3708553  17.2732753  63.5738903  37.4328553  17.3752753  64.3488903
  39.9698553  29.3122753  56.8958903  40.5158553  29.9912753  56.9498903
  39.6198553  29.3942753  56.1008903  39.9988553  29.4252753  56.7858903
  46.8128553  12.6152753  62.2598903  46.5328553  13.4402753  62.2158903
  47.5288553  12.6682753  62.7558903  46.8778553  12.7452753  62.3268903
  39.1678553  13.3302753  64.2888903  39.8728553  13.6502753  63.8868903
  39.4088553  12.5232753  64.5158903  39.3068553  13.2582753  64.2628903
  38.1528553  27.5402753  60.2848903  37.5288553  28.1222753  60.1028903
  38.4008553  27.2542753  59.4988903  38.0968553  27.5842753  60.1418903
  42.4618553  24.1742753  67.2738903  43.2188553  24.4602753  66.9478903
  41.9148553  24.2262753  66.5958903  42.4928553  24.2242753  67.1248903
  46.3708553  26.7242753  65.7778903  46.7168553  26.9942753  66.5318903
  46.6648553  27.3062753  65.1978903  46.4658553  26.8502753  65.8038903
  48.2338553  18.8702753  51.1168903  48.6118553  19.5472753  50.7168903
  47.3918553  19.0942753  51.1478903  48.1648553  19.0032753  51.0618903
  39.7468553  22.3162753  50.1998903  38.9418553  22.1392753  49.9148903
  39.7138553  23.1672753  50.3918903  39.6228553  22.4152753  50.1868903
  35.6768553  18.3832753  60.3498903  36.1168553  18.2802753  59.6038903
  36.2218553  18.0702753  60.9548903  35.8218553  18.3222753  60.3288903
  43.6928553  17.4852753  65.9418903  43.0448553  17.9552753  66.2898903
  44.2578553  17.3962753  66.6008903  43.6808553  17.5412753  66.0908903
  43.3808553  19.0222753  62.2398903  43.6828553  19.4422753  62.9428903
  43.4168553  18.1822753  62.4718903  43.4308553  18.9602753  62.3778903
  40.8058553  29.1892753  66.1648903  41.2838553  28.5892753  65.7488903
  40.4548553  28.7462753  66.8298903  40.8248553  29.0352753  66.2018903
  45.9288553  18.4692753  54.4918903  46.1358553  18.2682753  55.3158903
  46.6848553  18.7372753  54.1498903  46.0708553  18.4792753  54.5628903
  39.2238553  13.3682753  60.3968903  38.3978553  13.2192753  60.6338903
  39.1838553  13.4032753  59.5258903  39.0958553  13.3512753  60.3028903
  46.9508553  14.5522753  55.9658903  46.2368553  14.0812753  56.1368903
  46.7888553  14.8932753  55.1798903  46.8218553  14.5332753  55.8748903
  47.3938553  22.4962753  54.3458903  47.8698553  21.7672753  54.2978903
  46.5728553  22.2102753  54.2698903  47.3428553  22.3462753  54.3268903
  40.8648553  24.4082753  65.1848903  40.0698553  24.3442753  65.5358903
  40.9358553  25.2552753  64.9898903  40.7578553  24.5232753  65.2078903
  31.7888553  13.7662753  66.4318903  31.6488553  14.5612753  66.1008903
  31.0028553  13.5232753  66.7208903  31.6518553  13.8482753  66.4258903
  36.6948553  30.6152753  60.5018903  36.7058553  30.6742753  61.3718903
  36.2698553  29.8682753  60.3518903  36.6338553  30.5132753  60.6078903
  34.8528553  16.5102753  53.6568903  34.9788553  16.1812753  52.8588903
  34.0408553  16.2612753  53.8558903  34.7518553  16.4252753  53.5688903
  43.6098553  23.6632753  56.7008903  43.6858553  24.0042753  57.4998903
  43.7788553  22.8162753  56.8218903  43.6458553  23.5882753  56.8368903
  41.1318553  22.9372753  56.2658903  40.8338553  22.6222753  57.0228903
  41.8268553  23.4102753  56.5008903  41.1908553  22.9602753  56.4128903
  41.3538553  27.0552753  64.2928903  42.0408553  26.9412753  64.8178903
  41.4878553  27.8462753  63.9488903  41.4748553  27.1552753  64.3198903
  49.5298553  19.6642753  66.1038903  48.6748553  19.5422753  66.2298903
  49.6828553  19.2692753  65.3408903  49.4258553  19.5872753  66.0098903
  44.0428553  20.3292753  64.6798903  43.7878553  19.6102753  65.1018903
  44.8638553  20.4452753  64.9498903  44.1268553  20.2402753  64.7818903
  33.4588553  30.1132753  65.9438903  32.8048553  29.5442753  66.0418903
  33.0838553  30.8862753  66.0948903  33.3068553  30.1432753  65.9808903
  41.9768553  21.5192753  67.8668903  42.2998553  22.2052753  67.4348903
  41.2728553  21.8422753  68.2688903  41.9198553  21.6682753  67.8618903
  45.0608553  29.8932753  58.7958903  44.6098553  30.5362753  59.1748903
  45.7688553  29.8142753  59.3008903  45.0988553  29.9762753  58.9268903
  41.7618553  24.9832753  61.7258903  41.0678553  25.3852753  62.0688903
  42.4388553  25.4162753  62.0648903  41.7588553  25.1062753  61.8268903
  47.1388553  27.5762753  68.3058903  47.9148553  27.1862753  68.3888903
  46.6698553  27.2402753  68.9608903  47.1838553  27.4692753  68.4148903
  34.8298553  18.5212753  64.0728903  35.2048553  19.1402753  63.5858903
  35.5038553  18.0472753  64.3578903  34.9848553  18.5432753  64.0428903
  32.6048553  16.9692753  63.3478903  32.6818553  16.8002753  62.4948903
  33.3508553  17.3752753  63.5448903  32.7258553  17.0042753  63.2508903
  48.1638553  19.6092753  53.7878903  48.2668553  19.5512753  52.9238903
  48.9048553  19.2772753  54.1058903  48.2888553  19.5522753  53.7068903
  35.1588553  14.3792753  65.7588903  35.0778553  13.5352753  65.9648903
  34.8448553  14.4232753  64.9458903  35.1008553  14.2612753  65.6688903
  42.0838553  26.5742753  54.8948903  41.8788553  27.4072753  54.7358903
  41.3088553  26.1922753  55.0168903  41.9388553  26.6412753  54.8898903
  47.2658553  19.7552753  63.1438903  47.2638553  18.8922753  63.2678903
  47.3328553  20.0792753  63.9508903  47.2758553  19.6752753  63.2808903
  32.0018553  22.1952753  63.5718903  32.3218553  22.4142753  62.7908903
  31.9018553  21.3302753  63.5168903  32.0338553  22.1002753  63.4488903
  33.4578553  18.1312753  50.1898903  32.7858553  18.1452753  50.7458903
  33.5528553  17.2832753  50.0058903  33.3728553  18.0082753  50.2448903
  43.1448553  14.5552753  66.9258903  43.2368553  15.2672753  67.4198903
  42.5078553  14.1102753  67.3228903  43.0638553  14.5942753  67.0578903
  42.1388553  14.7452753  57.7798903  41.4388553  15.2632753  57.7238903
  42.1768553  14.3652753  56.9958903  42.0408553  14.7662753  57.6558903
  45.7368553  15.2612753  60.5798903  46.5918553  15.3602753  60.7248903
  45.3678553  15.8142753  61.1448903  45.8088553  15.3582753  60.6848903
  36.7648553  21.4872753  64.9568903  36.3688553  22.2612753  65.0318903
  36.3588553  21.1142753  64.2808903  36.6468553  21.5462753  64.8678903
  46.0408553  20.5412753  59.0708903  46.7068553  21.0822753  59.2308903
  45.6958553  20.8522753  58.3318903  46.0878553  20.6672753  58.9858903
  46.3538553  28.6072753  54.8778903  46.1798553  27.9532753  55.4278903
  47.0668553  28.3362753  54.4548903  46.4338553  28.4702753  54.8968903
  37.5938553  24.1512753  50.6478903  36.7758553  23.8832753  50.7878903
  37.5658553  25.0032753  50.8328903  37.4688553  24.2382753  50.6958903
  37.1938553  14.4642753  62.4068903  36.3298553  14.5482753  62.4868903
  37.4138553  13.9502753  63.0758903  37.0988553  14.4012753  62.5178903
  49.2118553  13.0992753  63.7358903  49.1598553  13.0552753  64.6058903
  49.8988553  12.5962753  63.5458903  49.3058553  13.0192753  63.8358903
  41.2968553  15.2122753  60.7808903  40.5598553  14.7582753  60.8938903
  41.8678553  14.8102753  61.3038903  41.2718553  15.0852753  60.8748903
  44.0288553  26.0602753  62.5688903  44.2348553  26.3612753  63.3608903
  43.9678553  26.7822753  62.0838903  44.0498553  26.2112753  62.6138903
  43.5628553  30.2742753  66.8148903  42.8098553  30.2562753  66.3738903
  43.7308553  31.1262753  66.8988903  43.4768553  30.3972753  66.7618903
  38.7998553  19.5412753  65.9848903  38.4778553  18.9652753  65.4148903
  38.4408553  20.2962753  65.7388903  38.6998553  19.5672753  65.8648903
  39.5958553  12.7932753  50.6118903  39.6738553  13.0402753  49.7788903
  38.8528553  13.1702753  50.8698903  39.4978553  12.8852753  50.5268903
  48.8408553  24.6992753  62.0268903  48.8088553  23.8372753  61.8918903
  48.1478553  25.0012753  61.5928903  48.7338553  24.6162753  61.9428903
  37.2348553  29.8972753  66.2328903  37.2758553  30.0232753  67.0958903
  37.8858553  29.3372753  66.0768903  37.3368553  29.8332753  66.3378903
  46.9458553  27.9592753  60.8238903  47.4728553  27.8762753  60.1328903
  46.5548553  27.1812753  60.8778903  46.9658553  27.8322753  60.7298903
  34.4138553  14.5472753  63.0548903  34.0708553  13.7802753  62.8208903
  33.7188553  15.0712753  63.1188903  34.2608553  14.5112753  63.0298903
  43.4598553  13.4032753  60.0318903  44.1298553  13.9472753  60.1588903
  42.9568553  13.8272753  59.4588903  43.4848553  13.5462753  59.9658903
  34.8278553  28.2802753  67.5928903  35.4228553  28.7112753  68.0648903
  34.4638553  28.9042753  67.1038903  34.8618553  28.4362753  67.5898903
  42.8188553  19.2112753  57.5248903  43.3698553  18.6042753  57.8248903
  42.3938553  19.4742753  58.2398903  42.8378553  19.1602753  57.6738903
  33.0668553  17.8612753  57.0108903  32.6988553  18.1632753  57.7418903
  33.6008553  17.2322753  57.2948903  33.0908553  17.8132753  57.1608903
  32.7548553  26.2692753  64.5218903  32.1808553  26.6852753  65.0308903
  33.4878553  26.7342753  64.6168903  32.7788553  26.3992753  64.6108903
  44.7888553  21.0422753  54.0868903  44.8568553  20.1922753  54.2678903
  43.9658553  21.1282753  53.8088903  44.6768553  20.9292753  54.0728903
  38.7078553  21.9332753  53.0248903  38.8078553  22.0722753  52.1698903
  39.5258553  21.8732753  53.3208903  38.8428553  21.9442753  52.9418903
  47.8678553  29.9972753  50.5048903  48.5048553  29.8632753  51.0858903
  47.5268553  29.2032753  50.3878903  47.9118553  29.8602753  50.5728903
  48.0628553  22.4152753  67.2378903  48.6968553  22.2452753  67.8118903
  48.4798553  22.8182753  66.5858903  48.2178553  22.4502753  67.2268903
  48.6878553  16.9792753  67.9758903  48.4918553  17.6232753  68.5308903
  47.9658553  16.4892753  67.9678903  48.5528553  17.0022753  68.0568903
  48.5868553  17.9202753  60.9468903  47.7538553  18.1702753  60.8748903
  48.5308553  17.0802753  61.1758903  48.4558553  17.8332753  60.9698903
  37.8468553  14.9082753  66.1408903  38.0808553  14.3322753  65.5278903
  37.0048553  14.7272753  66.2818903  37.7568553  14.7962753  66.0708903
  45.4738553  22.5262753  68.5928903  46.3448553  22.4902753  68.5568903
  45.2548553  22.9462753  67.8608903  45.5708553  22.5822753  68.4798903
  35.2278553  28.3512753  59.7738903  35.1488553  27.5412753  59.4578903
  34.7838553  28.8382753  59.2018903  35.1508553  28.3032753  59.6428903
  40.8288553  24.4702753  52.2568903  41.5458553  24.1232753  51.9008903
  40.7948553  25.2702753  51.9088903  40.9298553  24.5372753  52.1528903
  32.7998553  30.5952753  63.3548903  33.2928553  30.5392753  64.0728903
  32.9878553  29.8622753  62.9198903  32.9008553  30.4782753  63.3968903
  42.2378553  13.1112753  36.4956493  41.9928553  13.5992753  35.8156493
  43.1008553  13.0382753  36.3956493  42.3288553  13.1722753  36.3806493
  42.0468553  20.0272753  41.1666493  41.5228553  20.6232753  41.5296493
  42.4438553  19.6592753  41.8506493  42.0278553  20.0612753  41.3216493
  31.6588553  17.9592753  33.1296493  30.8808553  18.1212753  32.7696493
  31.6978553  17.0882753  33.1516493  31.5498553  17.8542753  33.0796493
  44.7178553  21.0942753  37.8426493  44.7978553  21.0982753  36.9736493
  44.1338553  20.4622753  37.9916493  44.6428553  21.0012753  37.7366493
  38.7068553  14.1982753  35.6506493  38.6368553  14.8752753  35.1046493
  39.4478553  13.8102753  35.4016493  38.8058553  14.2412753  35.5326493
  38.4298553  24.4272753  47.9446493  38.1938553  24.4242753  48.7846493
  37.6818553  24.2792753  47.5206493  38.2838553  24.4042753  48.0056493
  37.8098553  17.0332753  42.4266493  38.4878553  17.0512753  41.8776493
  37.7648553  16.1972753  42.6716493  37.9028553  16.9122753  42.3816493
  35.3028553  19.5232753  37.1026493  36.1198553  19.3362753  37.3456493
  34.8258553  18.9092753  37.4986493  35.3528553  19.4052753  37.1976493
  39.5638553  24.9532753  35.9236493  39.8948553  24.3092753  36.4096493
  39.8038553  24.7422753  35.1126493  39.6478553  24.8272753  35.8756493
  41.5318553  19.0842753  47.2626493  40.6838553  18.9852753  47.0846493
  41.5608553  19.8292753  47.7166493  41.4108553  19.1802753  47.3036493
  35.8998553  14.6172753  36.3686493  35.6038553  15.1182753  35.7186493
  36.7668553  14.6952753  36.3116493  35.9838553  14.7032753  36.2646493
  46.0898553  12.0442753  46.3766493  45.9318553  12.8132753  45.9946493
  45.3178553  11.8242753  46.7206493  45.9518553  12.1252753  46.3716493
  38.8788553  13.7592753  38.5916493  38.9518553  14.6192753  38.7206493
  38.8408553  13.6842753  37.7236493  38.8838553  13.8752753  38.4826493
  43.5518553  16.6852753  30.8906493  43.1018553  17.3662753  31.1976493
  43.6658553  16.1812753  31.5936493  43.5028553  16.7112753  31.0396493
  31.7578553  19.1842753  40.0926493  31.5018553  20.0152753  40.0176493
  31.0938553  18.8012753  40.5096493  31.6218553  19.2502753  40.1436493
  34.7868553  14.0012753  40.5836493  34.2658553  13.3732753  40.2756493
  35.3778553  13.5642753  41.0546493  34.7978553  13.8432753  40.6076493
  38.0928553  16.1342753  49.8816493  38.2098553  15.6802753  49.1456493
  38.3808553  16.9322753  49.6786493  38.1528553  16.1852753  49.7426493
  48.9458553  16.6582753  37.1856493  48.5998553  17.3362753  37.6116493
  48.3098553  16.0602753  37.2016493  48.8008553  16.6702753  37.2506493
  33.8258553  15.7312753  48.8656493  33.0478553  15.3412753  48.7936493
  34.3168553  15.3192753  48.2746493  33.7828553  15.6122753  48.7676493
  40.4748553  13.3742753  48.0336493  40.6528553  12.5652753  47.7586493
  40.3318553  13.8152753  47.2946493  40.4798553  13.3202753  47.8836493
  41.0688553  18.3002753  36.8066493  41.3558553  18.0682753  36.0166493
  41.8008553  18.3792753  37.2756493  41.2188553  18.2772753  36.7596493
  41.7908553  18.6392753  31.9276493  42.0718553  19.4272753  32.1766493
  41.0148553  18.8042753  31.5646493  41.7178553  18.7802753  31.9106493
  48.6208553  14.9812753  42.5546493  49.3778553  15.0532753  42.1266493
  48.6838553  14.2082753  42.9536493  48.7418553  14.8782753  42.5496493
  31.1738553  16.2792753  46.4516493  31.1698553  16.8662753  47.0976493
  31.7678553  16.5912753  45.8946493  31.2608553  16.4122753  46.4646493
  40.6498553  26.8102753  31.7436493  40.4688553  27.3552753  32.4006493
  41.4158553  27.1002753  31.4426493  40.7358553  26.9342753  31.7966493
  44.1568553  14.7062753  32.7976493  44.6968553  14.0242753  32.8736493
  44.2188553  15.1042753  33.5716493  44.2458553  14.6642753  32.9236493
  32.1108553  15.8742753  35.3666493  31.9968553  15.0102753  35.3976493
  31.6358553  16.1682753  36.0366493  32.0238553  15.7902753  35.4696493
  41.4148553  17.0822753  34.1116493  40.9068553  16.4202753  33.8576493
  41.4668553  17.5862753  33.4016493  41.3478553  17.0592753  33.9696493
  41.4148553  14.0232753  34.0026493  40.9598553  13.6212753  33.3766493
  42.1878553  14.1782753  33.6276493  41.4618553  13.9872753  33.8546493
  40.0128553  16.3902753  38.5246493  40.0868553  16.9582753  37.8666493
  40.1338553  16.8822753  39.2346493  40.0408553  16.5472753  38.5326493
  34.6208553  12.2132753  36.8726493  35.1568553  12.9012753  36.8626493
  34.6238553  11.9392753  36.0446493  34.6998553  12.2742753  36.7486493
  37.5768553  22.6462753  40.8976493  37.7488553  22.4362753  41.7266493
  36.9218553  22.1122753  40.6816493  37.5058553  22.5362753  40.9886493
  43.8048553  16.5602753  44.4126493  43.7098553  16.8792753  45.2186493
  43.2118553  15.9212753  44.3746493  43.7028553  16.5122753  44.5266493
  38.3268553  22.5842753  43.4876493  38.3798553  23.4312753  43.6896493
  38.0418553  22.2142753  44.2246493  38.2928553  22.6542753  43.6256493
  45.0608553  12.5042753  37.2486493  45.1098553  12.1862753  38.0596493
  45.3838553  11.8602753  36.7556493  45.1158553  12.3622753  37.2956493
  31.1478553  26.9552753  49.6986493  31.9038553  27.3042753  49.9566493
  31.3248553  26.1022753  49.6416493  31.2858553  26.8802753  49.7286493
  47.5248553  16.7402753  45.5566493  48.2968553  16.5152753  45.8936493
  47.0498553  16.9572753  46.2566493  47.5688553  16.7392753  45.7096493
  35.0688553  16.0232753  38.5266493  35.3408553  15.5932753  37.8186493
  34.8928553  15.3872753  39.0976493  35.0828553  15.8662753  38.5066493
  33.2098553  17.1252753  41.6086493  34.0528553  17.3452753  41.5656493
  32.8208553  17.6982753  41.0776493  33.2768553  17.2422753  41.5236493
  49.9908553  28.2272753  46.9986493  49.3088553  28.5372753  46.5516493
  49.6218553  27.7692753  47.6436493  49.8348553  28.2052753  47.0276493
  45.6518553  20.2552753  32.3296493  45.4318553  20.9862753  31.9076493
  45.2038553  20.3062753  33.0766493  45.5528553  20.3702753  32.3776493
  49.8388553  15.1162753  31.7826493  49.1768553  14.5482753  31.8056493
  49.6458553  15.6282753  31.1026493  49.7128553  15.1082753  31.6856493
  39.0638553  18.8102753  49.7266493  38.5798553  19.3872753  50.1686493
  39.0358553  19.1052753  48.9056493  38.9878553  18.9392753  49.6706493
  50.1618553  19.4942753  44.3386493  50.3768553  18.6942753  44.0626493
  49.3118553  19.5542753  44.1496493  50.0678553  19.3852753  44.2696493
  31.4828553  21.7842753  34.7336493  31.2978553  20.9452753  34.8856493
  32.1418553  21.7482753  34.1636493  31.5528553  21.6552753  34.6716493
  47.8408553  14.6742753  34.0616493  48.5868553  14.2672753  34.2606493
  48.1038553  15.3892753  33.6366493  47.9898553  14.7202753  34.0286493
  44.2948553  16.9622753  39.1346493  44.6388553  17.1142753  39.9216493
  43.8418553  16.2242753  39.2476493  44.2788553  16.8752753  39.2676493
  31.4848553  24.3972753  31.9366493  32.2408553  23.9652753  31.9946493
  31.4998553  24.9292753  32.6276493  31.5988553  24.4122753  32.0476493
  38.7708553  16.1822753  33.5916493  38.7688553  16.0652753  32.7266493
  38.5898553  17.0302753  33.6836493  38.7438553  16.2902753  33.4776493
  34.6388553  19.6172753  48.0856493  34.1028553  19.1112753  48.5536493
  34.6588553  19.2272753  47.3056493  34.5618553  19.4842753  48.0396493
  35.1238553  19.0142753  33.2256493  34.9958553  18.5662753  33.9636493
  34.5418553  18.6722753  32.6736493  35.0188553  18.8972753  33.2536493
  35.2908553  20.8442753  39.8246493  34.5098553  20.7852753  39.4416493
  35.3628553  20.0922753  40.2616493  35.1858553  20.7252753  39.8326493
  35.7208553  20.5812753  43.2926493  35.7458553  19.9062753  42.7416493
  35.0748553  21.0772753  42.9806493  35.6298553  20.5542753  43.1656493
  45.6158553  18.2942753  41.6886493  44.9538553  18.6222753  42.1516493
  45.8028553  18.9282753  41.1196493  45.5458553  18.4362753  41.6726493
  42.2608553  14.2002753  45.1176493  42.4098553  13.3752753  44.8746493
  42.6398553  14.2552753  45.9016493  42.3388553  14.0862753  45.1976493
  43.8088553  16.2632753  35.1996493  44.2988553  16.9802753  35.1226493
  43.0188553  16.5242753  34.9366493  43.7648553  16.4072753  35.1496493
  33.5198553  21.9362753  48.8516493  33.4828553  22.4372753  48.1376493
  33.8508553  21.1842753  48.5566493  33.5628553  21.8982753  48.7026493
  45.1228553  24.1412753  47.1096493  45.6068553  24.8592753  47.2076493
  45.5168553  23.7142753  46.4586493  45.2528553  24.1842753  47.0276493
  37.1728553  13.2442753  32.8596493  37.2698553  13.1372753  33.7206493
  36.4648553  13.7502753  32.7946493  37.0828553  13.3032753  32.9776493
  46.8698553  22.6872753  45.2696493  46.9248553  22.8122753  44.4076493
  47.6228553  23.0072753  45.5716493  46.9888553  22.7522753  45.1866493
  43.0608553  28.0362753  49.5466493  43.2248553  28.3192753  50.3556493
  43.3238553  28.6972753  49.0416493  43.1238553  28.1762753  49.5916493
  47.9018553  12.9852753  48.2566493  47.2648553  12.5852753  47.8146493
  47.9278553  12.5542753  49.0146493  47.8118553  12.8632753  48.3026493
  34.2948553  21.5512753  34.1026493  34.6188553  20.7722753  33.8806493
  34.9408553  21.9192753  34.5576493  34.4378553  21.4902753  34.1366493
  42.6008553  22.4932753  44.8696493  42.4458553  23.1032753  45.4736493
  43.1348553  21.9352753  45.2756493  42.6568553  22.5012753  45.0186493
  31.2918553  13.2122753  35.0706493  31.4208553  12.5042753  34.5786493
  30.9248553  12.8942753  35.7956493  31.2568553  13.0602753  35.1056493
  40.9848553  20.8932753  35.5276493  41.0438553  21.5432753  36.1066493
  40.7958553  20.1972753  36.0186493  40.9658553  20.8862753  35.6856493
  35.4808553  15.4102753  32.0396493  34.9698553  15.4632753  31.3336493
  36.2648553  15.6502753  31.7436493  35.5208553  15.4532753  31.8916493
  40.2078553  22.9402753  39.9586493  39.3608553  22.7462753  40.0396493
  40.5318553  22.7752753  40.7516493  40.1298553  22.8872753  40.0876493
  34.0558553  22.6332753  42.2746493  34.7778553  23.1212753  42.2376493
  33.7858553  22.6032753  41.4456493  34.1228553  22.7012753  42.1466493
  37.2858553  17.8042753  39.0096493  38.1318553  17.6142753  39.1076493
  36.9158553  17.0272753  38.8716493  37.3558553  17.6612753  39.0036493
  32.1068553  19.1422753  35.6646493  32.5958553  18.8502753  36.3256493
  32.2358553  18.5492753  35.0376493  32.1978553  19.0112753  35.6696493
  47.1418553  22.1642753  42.5156493  47.1348553  21.3882753  42.9136493
  46.3008553  22.3982753  42.5086493  47.0168553  22.0842753  42.5736493
  36.6318553  20.5762753  31.1506493  36.0218553  20.1712753  31.6246493
  36.2458553  20.6942753  30.3776493  36.4848553  20.5332753  31.1066493
  48.3978553  22.2352753  39.9526493  48.1118553  22.6362753  40.6726493
  49.2578553  22.1732753  40.0796493  48.4828553  22.2852753  40.0776493
  38.0868553  19.0372753  33.8606493  38.3588553  19.8632753  33.9276493
  37.2238553  19.1122753  33.7646493  37.9998553  19.1702753  33.8556493
  46.0598553  16.1592753  48.4926493  45.5348553  16.6182753  49.0166493
  45.6988553  15.3642753  48.4866493  45.9288553  16.1092753  48.5686493
  31.5668553  15.0072753  40.3966493  31.6108553  15.3512753  39.5956493
  32.3218553  15.2442753  40.7636493  31.6848553  15.0932753  40.3326493
  49.5288553  27.8682753  40.4816493  49.8188553  28.1252753  39.7006493
  50.2238553  27.9642753  41.0006493  49.6748553  27.9202753  40.4426493
  44.5518553  19.7282753  48.5686493  44.6248553  19.8322753  49.4316493
  43.9178553  20.2862753  48.3476493  44.4688553  19.8262753  48.6636493
  46.8198553  20.0472753  46.9336493  47.1388553  20.8332753  47.1366493
  46.4498553  19.7772753  47.6766493  46.8128553  20.1232753  47.0736493
  46.6158553  18.3052753  38.1226493  45.8708553  17.9822753  38.4406493
  46.6178553  19.1312753  38.4026493  46.5058553  18.3792753  38.2106493
  49.5178553  20.5892753  49.6686493  49.4658553  20.2482753  48.8676493
  50.2548553  21.0562753  49.6466493  49.6188553  20.6082753  49.5466493
  49.0558553  24.2652753  45.8746493  49.6838553  23.7162753  45.6186493
  48.9948553  24.8302753  45.2126493  49.1398553  24.2682753  45.7386493
  43.5078553  24.3462753  31.8666493  44.1918553  23.8322753  31.6976493
  43.0908553  24.3922753  31.1016493  43.5468553  24.2772753  31.7286493
  45.5278553  14.6352753  45.5836493  46.2718553  15.0872753  45.5206493
  44.9618553  15.1052753  45.1146493  45.5548553  14.7722753  45.5056493
  40.7058553  21.9192753  42.6616493  41.1818553  22.2932753  43.2896493
  39.8828553  22.0532753  42.9206493  40.6548553  21.9942753  42.7926493
  37.4158553  17.5222753  45.4026493  37.5768553  16.7782753  45.8296493
  37.3708553  17.2732753  44.5676493  37.4328553  17.3752753  45.3426493
  46.8128553  12.6152753  43.2536493  46.5328553  13.4402753  43.2096493
  47.5288553  12.6682753  43.7496493  46.8778553  12.7452753  43.3206493
  39.1678553  13.3302753  45.2826493  39.8728553  13.6502753  44.8806493
  39.4088553  12.5232753  45.5096493  39.3068553  13.2582753  45.2566493
  42.4618553  24.1742753  48.2676493  43.2188553  24.4602753  47.9416493
  41.9148553  24.2262753  47.5896493  42.4928553  24.2242753  48.1186493
  48.2338553  18.8702753  32.1106493  48.6118553  19.5472753  31.7106493
  47.3918553  19.0942753  32.1416493  48.1648553  19.0032753  32.0556493
  39.7468553  22.3162753  31.1936493  38.9418553  22.1392753  30.9086493
  39.7138553  23.1672753  31.3856493  39.6228553  22.4152753  31.1806493
  35.6768553  18.3832753  41.3436493  36.1168553  18.2802753  40.5976493
  36.2218553  18.0702753  41.9486493  35.8218553  18.3222753  41.3226493
  43.6928553  17.4852753  46.9356493  43.0448553  17.9552753  47.2836493
  44.2578553  17.3962753  47.5946493  43.6808553  17.5412753  47.0846493
  43.3808553  19.0222753  43.2336493  43.6828553  19.4422753  43.9366493
  43.4168553  18.1822753  43.4656493  43.4308553  18.9602753  43.3716493
  45.9288553  18.4692753  35.4856493  46.1358553  18.2682753  36.3096493
  46.6848553  18.7372753  35.1436493  46.0708553  18.4792753  35.5566493
  39.2238553  13.3682753  41.3906493  38.3978553  13.2192753  41.6276493
  39.1838553  13.4032753  40.5196493  39.0958553  13.3512753  41.2966493
  40.8648553  24.4082753  46.1786493  40.0698553  24.3442753  46.5296493
  40.9358553  25.2552753  45.9836493  40.7578553  24.5232753  46.2016493
  31.7888553  13.7662753  47.4256493  31.6488553  14.5612753  47.0946493
  31.0028553  13.5232753  47.7146493  31.6518553  13.8482753  47.4196493
  34.8528553  16.5102753  34.6506493  34.9788553  16.1812753  33.8526493
  34.0408553  16.2612753  34.8496493  34.7518553  16.4252753  34.5626493
  41.1318553  22.9372753  37.2596493  40.8338553  22.6222753  38.0166493
  41.8268553  23.4102753  37.4946493  41.1908553  22.9602753  37.4066493
  49.5298553  19.6642753  47.0976493  48.6748553  19.5422753  47.2236493
  49.6828553  19.2692753  46.3346493  49.4258553  19.5872753  47.0036493
  44.0428553  20.3292753  45.6736493  43.7878553  19.6102753  46.0956493
  44.8638553  20.4452753  45.9436493  44.1268553  20.2402753  45.7756493
  47.1388553  27.5762753  49.2996493  47.9148553  27.1862753  49.3826493
  46.6698553  27.2402753  49.9546493  47.1838553  27.4692753  49.4086493
  34.8298553  18.5212753  45.0666493  35.2048553  19.1402753  44.5796493
  35.5038553  18.0472753  45.3516493  34.9848553  18.5432753  45.0366493
  32.6048553  16.9692753  44.3416493  32.6818553  16.8002753  43.4886493
  33.3508553  17.3752753  44.5386493  32.7258553  17.0042753  44.2446493
  48.1638553  19.6092753  34.7816493  48.2668553  19.5512753  33.9176493
  48.9048553  19.2772753  35.0996493  48.2888553  19.5522753  34.7006493
  35.1588553  14.3792753  46.7526493  35.0778553  13.5352753  46.9586493
  34.8448553  14.4232753  45.9396493  35.1008553  14.2612753  46.6626493
  47.2658553  19.7552753  44.1376493  47.2638553  18.8922753  44.2616493
  47.3328553  20.0792753  44.9446493  47.2758553  19.6752753  44.2746493
  32.0018553  22.1952753  44.5656493  32.3218553  22.4142753  43.7846493
  31.9018553  21.3302753  44.5106493  32.0338553  22.1002753  44.4426493
  33.4578553  18.1312753  31.1836493  32.7858553  18.1452753  31.7396493
  33.5528553  17.2832753  30.9996493  33.3728553  18.0082753  31.2386493
  43.1448553  14.5552753  47.9196493  43.2368553  15.2672753  48.4136493
  42.5078553  14.1102753  48.3166493  43.0638553  14.5942753  48.0516493
  42.1388553  14.7452753  38.7736493  41.4388553  15.2632753  38.7176493
  42.1768553  14.3652753  37.9896493  42.0408553  14.7662753  38.6496493
  45.7368553  15.2612753  41.5736493  46.5918553  15.3602753  41.7186493
  45.3678553  15.8142753  42.1386493  45.8088553  15.3582753  41.6786493
  36.7648553  21.4872753  45.9506493  36.3688553  22.2612753  46.0256493
  36.3588553  21.1142753  45.2746493  36.6468553  21.5462753  45.8616493
  46.0408553  20.5412753  40.0646493  46.7068553  21.0822753  40.2246493
  45.6958553  20.8522753  39.3256493  46.0878553  20.6672753  39.9796493
  37.1938553  14.4642753  43.4006493  36.3298553  14.5482753  43.4806493
  37.4138553  13.9502753  44.0696493  37.0988553  14.4012753  43.5116493
  49.2118553  13.0992753  44.7296493  49.1598553  13.0552753  45.5996493
  49.8988553  12.5962753  44.5396493  49.3058553  13.0192753  44.8296493
  41.2968553  15.2122753  41.7746493  40.5598553  14.7582753  41.8876493
  41.8678553  14.8102753  42.2976493  41.2718553  15.0852753  41.8686493
  38.7998553  19.5412753  46.9786493  38.4778553  18.9652753  46.4086493
  38.4408553  20.2962753  46.7326493  38.6998553  19.5672753  46.8586493
  39.5958553  12.7932753  31.6056493  39.6738553  13.0402753  30.7726493
  38.8528553  13.1702753  31.8636493  39.4978553  12.8852753  31.5206493
  48.8408553  24.6992753  43.0206493  48.8088553  23.8372753  42.8856493
  48.1478553  25.0012753  42.5866493  48.7338553  24.6162753  42.9366493
  34.4138553  14.5472753  44.0486493  34.0708553  13.7802753  43.8146493
  33.7188553  15.0712753  44.1126493  34.2608553  14.5112753  44.0236493
  43.4598553  13.4032753  41.0256493  44.1298553  13.9472753  41.1526493
  42.9568553  13.8272753  40.4526493  43.4848553  13.5462753  40.9596493
  42.8188553  19.2112753  38.5186493  43.3698553  18.6042753  38.8186493
  42.3938553  19.4742753  39.2336493  42.8378553  19.1602753  38.6676493
  33.0668553  17.8612753  38.0046493  32.6988553  18.1632753  38.7356493
  33.6008553  17.2322753  38.2886493  33.0908553  17.8132753  38.1546493
  44.7888553  21.0422753  35.0806493  44.8568553  20.1922753  35.2616493
  43.9658553  21.1282753  34.8026493  44.6768553  20.9292753  35.0666493
  38.7078553  21.9332753  34.0186493  38.8078553  22.0722753  33.1636493
  39.5258553  21.8732753  34.3146493  38.8428553  21.9442753  33.9356493
  48.0628553  22.4152753  48.2316493  48.6968553  22.2452753  48.8056493
  48.4798553  22.8182753  47.5796493  48.2178553  22.4502753  48.2206493
  48.6878553  16.9792753  48.9696493  48.4918553  17.6232753  49.5246493
  47.9658553  16.4892753  48.9616493  48.5528553  17.0022753  49.0506493
  48.5868553  17.9202753  41.9406493  47.7538553  18.1702753  41.8686493
  48.5308553  17.0802753  42.1696493  48.4558553  17.8332753  41.9636493
  37.8468553  14.9082753  47.1346493  38.0808553  14.3322753  46.5216493
  37.0048553  14.7272753  47.2756493  37.7568553  14.7962753  47.0646493
  45.4738553  22.5262753  49.5866493  46.3448553  22.4902753  49.5506493
  45.2548553  22.9462753  48.8546493  45.5708553  22.5822753  49.4736493
  40.8288553  24.4702753  33.2506493  41.5458553  24.1232753  32.8946493
  40.7948553  25.2702753  32.9026493  40.9298553  24.5372753  33.1466493
  42.2378553  13.1112753  17.4894083  41.9928553  13.5992753  16.8094083
  43.1008553  13.0382753  17.3894083  42.3288553  13.1722753  17.3744083
  42.0468553  20.0272753  22.1604083  41.5228553  20.6232753  22.5234083
  42.4438553  19.6592753  22.8444083  42.0278553  20.0612753  22.3154083
  31.9158553  24.1672753  17.6164083  31.4748553  24.2852753  18.3594083
  31.6328553  23.3922753  17.3314083  31.8088553  24.0702753  17.6844083
  48.1908553  27.4682753  15.1314083  48.8918553  26.9492753  15.1274083
  47.6038553  27.0232753  14.6624083  48.2078553  27.3252753  15.0614083
  31.6588553  17.9592753  14.1234083  30.8808553  18.1212753  13.7634083
  31.6978553  17.0882753  14.1454083  31.5498553  17.8542753  14.0734083
  34.7978553  23.2222753  12.7954083  34.4058553  22.8512753  12.1094083
  34.7178553  22.6242753  13.4244083  34.7278553  23.0792753  12.7864083
  44.7178553  21.0942753  18.8364083  44.7978553  21.0982753  17.9674083
  44.1338553  20.4622753  18.9854083  44.6428553  21.0012753  18.7304083
  34.4248553  24.8632753  16.6954083  35.0328553  24.6932753  17.2984083
  33.6738553  24.7232753  17.1164083  34.4038553  24.8172753  16.8464083
  38.7068553  14.1982753  16.6444083  38.6368553  14.8752753  16.0984083
  39.4478553  13.8102753  16.3954083  38.8058553  14.2412753  16.5264083
  33.3158553  27.9542753  12.7724083  33.7828553  28.0382753  12.0404083
  33.7708553  27.3762753  13.2414083  33.4518553  27.8812753  12.7334083
  31.8558553  26.9022753  23.8714083  31.9848553  26.6222753  24.6874083
  31.2458553  26.3612753  23.5624083  31.7848553  26.7812753  23.9464083
  38.4298553  24.4272753  28.9384083  38.1938553  24.4242753  29.7784083
  37.6818553  24.2792753  28.5144083  38.2838553  24.4042753  28.9994083
  33.3018553  21.4232753  18.0734083  32.8398553  21.0312753  17.4464083
  34.0018553  20.9102753  18.1654083  33.3368553  21.2902753  17.9944083
  37.8098553  17.0332753  23.4204083  38.4878553  17.0512753  22.8714083
  37.7648553  16.1972753  23.6654083  37.9028553  16.9122753  23.3754083
  35.3028553  19.5232753  18.0964083  36.1198553  19.3362753  18.3394083
  34.8258553  18.9092753  18.4924083  35.3528553  19.4052753  18.1914083
  39.5068553  25.5042753  20.7064083  39.8548553  24.7052753  20.7364083
  40.1718553  26.0082753  20.4514083  39.6568553  25.4602753  20.6734083
  41.5318553  19.0842753  28.2564083  40.6838553  18.9852753  28.0784083
  41.5608553  19.8292753  28.7104083  41.4108553  19.1802753  28.2974083
  35.8998553  14.6172753  17.3624083  35.6038553  15.1182753  16.7124083
  36.7668553  14.6952753  17.3054083  35.9838553  14.7032753  17.2584083
  46.0898553  12.0442753  27.3704083  45.9318553  12.8132753  26.9884083
  45.3178553  11.8242753  27.7144083  45.9518553  12.1252753  27.3654083
  38.8788553  13.7592753  19.5854083  38.9518553  14.6192753  19.7144083
  38.8408553  13.6842753  18.7174083  38.8838553  13.8752753  19.4764083
  43.5518553  16.6852753  11.8844083  43.1018553  17.3662753  12.1914083
  43.6658553  16.1812753  12.5874083  43.5028553  16.7112753  12.0334083
  31.7578553  19.1842753  21.0864083  31.5018553  20.0152753  21.0114083
  31.0938553  18.8012753  21.5034083  31.6218553  19.2502753  21.1374083
  31.6678553  28.8942753  18.9864083  31.0758553  29.4522753  18.6734083
  32.0938553  28.6252753  18.2744083  31.6438553  28.9362753  18.8354083
  37.5078553  26.7382753  16.4664083  36.9288553  26.4632753  17.0584083
  38.1318553  26.1292753  16.4914083  37.5148553  26.6082753  16.5574083
  43.6508553  29.0262753  13.9884083  44.3778553  29.4982753  14.0904083
  43.8798553  28.2322753  14.2684083  43.7928553  28.9792753  14.0454083
  41.8188553  29.4182753  15.9784083  42.0328553  29.9452753  16.6404083
  42.5858553  29.2442753  15.5994083  41.9638553  29.4702753  16.0204083
  34.7868553  14.0012753  21.5774083  34.2658553  13.3732753  21.2694083
  35.3778553  13.5642753  22.0484083  34.7978553  13.8432753  21.6014083
  38.0928553  16.1342753  30.8754083  38.2098553  15.6802753  30.1394083
  38.3808553  16.9322753  30.6724083  38.1528553  16.1852753  30.7364083
  33.2128553  27.5642753  16.9174083  33.8688553  26.9892753  16.9324083
  33.6018553  28.3132753  16.6964083  33.3678553  27.5892753  16.8874083
  48.9458553  16.6582753  18.1794083  48.5998553  17.3362753  18.6054083
  48.3098553  16.0602753  18.1954083  48.8008553  16.6702753  18.2444083
  33.8258553  15.7312753  29.8594083  33.0478553  15.3412753  29.7874083
  34.3168553  15.3192753  29.2684083  33.7828553  15.6122753  29.7614083
  34.0308553  26.0512753  20.4174083  34.4538553  25.6952753  19.7434083
  34.3548553  25.6292753  21.1094083  34.1408553  25.9362753  20.4204083
  37.2618553  28.9032753  19.7134083  38.1058553  29.0072753  19.5184083
  36.9648553  29.7212753  19.7814083  37.3428553  29.0392753  19.6944083
  40.4748553  13.3742753  29.0274083  40.6528553  12.5652753  28.7524083
  40.3318553  13.8152753  28.2884083  40.4798553  13.3202753  28.8774083
  41.0688553  18.3002753  17.8004083  41.3558553  18.0682753  17.0104083
  41.8008553  18.3792753  18.2694083  41.2188553  18.2772753  17.7534083
  41.7908553  18.6392753  12.9214083  42.0718553  19.4272753  13.1704083
  41.0148553  18.8042753  12.5584083  41.7178553  18.7802753  12.9044083
  45.8318553  30.6132753  14.3884083  46.4968553  30.4652753  13.8434083
  46.1918553  30.5302753  15.1784083  45.9838553  30.5792753  14.4244083
  48.6208553  14.9812753  23.5484083  49.3778553  15.0532753  23.1204083
  48.6838553  14.2082753  23.9474083  48.7418553  14.8782753  23.5434083
  31.1738553  16.2792753  27.4454083  31.1698553  16.8662753  28.0914083
  31.7678553  16.5912753  26.8884083  31.2608553  16.4122753  27.4584083
  43.5118553  26.6132753  27.9874083  43.4778553  26.9952753  28.7714083
  44.3658553  26.5712753  27.8164083  43.6328553  26.6632753  28.0784083
  40.6498553  26.8102753  12.7374083  40.4688553  27.3552753  13.3944083
  41.4158553  27.1002753  12.4364083  40.7358553  26.9342753  12.7904083
  44.1568553  14.7062753  13.7914083  44.6968553  14.0242753  13.8674083
  44.2188553  15.1042753  14.5654083  44.2458553  14.6642753  13.9174083
  32.1108553  15.8742753  16.3604083  31.9968553  15.0102753  16.3914083
  31.6358553  16.1682753  17.0304083  32.0238553  15.7902753  16.4634083
  34.2528553  28.2842753  24.5754083  33.5548553  27.7762753  24.7014083
  34.5128553  28.0792753  23.7674083  34.1878553  28.1792753  24.4744083
  41.4148553  17.0822753  15.1054083  40.9068553  16.4202753  14.8514083
  41.4668553  17.5862753  14.3954083  41.3478553  17.0592753  14.9634083
  41.4148553  14.0232753  14.9964083  40.9598553  13.6212753  14.3704083
  42.1878553  14.1782753  14.6214083  41.4618553  13.9872753  14.8484083
  48.2408553  30.3802753  18.3864083  47.7858553  31.0972753  18.5874083
  47.6268553  29.8092753  18.1444083  48.0828553  30.4022753  18.3804083
  40.0128553  16.3902753  19.5184083  40.0868553  16.9582753  18.8604083
  40.1338553  16.8822753  20.2284083  40.0408553  16.5472753  19.5264083
  45.2378553  26.2252753  17.9304083  45.9388553  25.7432753  18.1194083
  44.5778553  25.6562753  17.9754083  45.2438553  26.0702753  17.9644083
  34.6208553  12.2132753  17.8664083  35.1568553  12.9012753  17.8564083
  34.6238553  11.9392753  17.0384083  34.6998553  12.2742753  17.7424083
  37.5768553  22.6462753  21.8914083  37.7488553  22.4362753  22.7204083
  36.9218553  22.1122753  21.6754083  37.5058553  22.5362753  21.9824083
  43.8048553  16.5602753  25.4064083  43.7098553  16.8792753  26.2124083
  43.2118553  15.9212753  25.3684083  43.7028553  16.5122753  25.5204083
  38.3268553  22.5842753  24.4814083  38.3798553  23.4312753  24.6834083
  38.0418553  22.2142753  25.2184083  38.2928553  22.6542753  24.6194083
  45.0608553  12.5042753  18.2424083  45.1098553  12.1862753  19.0534083
  45.3838553  11.8602753  17.7494083  45.1158553  12.3622753  18.2894083
  31.1478553  26.9552753  30.6924083  31.9038553  27.3042753  30.9504083
  31.3248553  26.1022753  30.6354083  31.2858553  26.8802753  30.7224083
  47.5248553  16.7402753  26.5504083  48.2968553  16.5152753  26.8874083
  47.0498553  16.9572753  27.2504083  47.5688553  16.7392753  26.7034083
  35.0688553  16.0232753  19.5204083  35.3408553  15.5932753  18.8124083
  34.8928553  15.3872753  20.0914083  35.0828553  15.8662753  19.5004083
  47.7568553  23.7182753  13.7384083  47.8758553  23.4312753  14.5534083
  48.5638553  23.7392753  13.4084083  47.8928553  23.6792753  13.8104083
  34.8928553  23.4502753  19.0694083  35.7438553  23.3702753  18.8964083
  34.5358553  22.7682753  18.6574083  34.9658553  23.3372753  18.9824083
  33.6598553  30.1752753  20.3064083  32.9868553  29.6772753  20.0614083
  34.0628553  30.3602753  19.5554083  33.6198553  30.1292753  20.1594083
  33.2098553  17.1252753  22.6024083  34.0528553  17.3452753  22.5594083
  32.8208553  17.6982753  22.0714083  33.2768553  17.2422753  22.5174083
  45.6518553  20.2552753  13.3234083  45.4318553  20.9862753  12.9014083
  45.2038553  20.3062753  14.0704083  45.5528553  20.3702753  13.3714083
  37.2608553  23.4572753  17.3044083  37.9738553  23.9522753  17.3944083
  37.4828553  22.8902753  16.6784083  37.3988553  23.4462753  17.2254083
  49.8388553  15.1162753  12.7764083  49.1768553  14.5482753  12.7994083
  49.6458553  15.6282753  12.0964083  49.7128553  15.1082753  12.6794083
  31.4168553  25.1002753  20.6244083  30.7498553  25.5882753  20.9004083
  32.0968553  25.6452753  20.6534083  31.4188553  25.2522753  20.6694083
  39.0638553  18.8102753  30.7204083  38.5798553  19.3872753  31.1624083
  39.0358553  19.1052753  29.8994083  38.9878553  18.9392753  30.6644083
  50.1618553  19.4942753  25.3324083  50.3768553  18.6942753  25.0564083
  49.3118553  19.5542753  25.1434083  50.0678553  19.3852753  25.2634083
  31.4828553  21.7842753  15.7274083  31.2978553  20.9452753  15.8794083
  32.1418553  21.7482753  15.1574083  31.5528553  21.6552753  15.6654083
  47.8408553  14.6742753  15.0554083  48.5868553  14.2672753  15.2544083
  48.1038553  15.3892753  14.6304083  47.9898553  14.7202753  15.0224083
  41.7838553  27.1602753  19.6314083  41.2608553  27.7942753  19.3384083
  42.0938553  26.7962753  18.9024083  41.7518553  27.2002753  19.4804083
  31.6548553  25.9482753  15.3024083  32.2068553  26.5172753  15.6664083
  31.4228553  25.4332753  15.9674083  31.7018553  25.9562753  15.4544083
  35.8588553  24.9482753  22.3914083  36.3258553  25.2372753  23.0694083
  36.4308553  24.4702753  21.9374083  36.0128553  24.9202753  22.4244083
  44.2948553  16.9622753  20.1284083  44.6388553  17.1142753  20.9154083
  43.8418553  16.2242753  20.2414083  44.2788553  16.8752753  20.2614083
  31.4848553  24.3972753  12.9304083  32.2408553  23.9652753  12.9884083
  31.4998553  24.9292753  13.6214083  31.5988553  24.4122753  13.0414083
  32.4248553  22.6182753  20.9354083  32.8558553  22.4892753  20.1884083
  32.2198553  23.4662753  20.9094083  32.4578553  22.7242753  20.8214083
  38.7708553  16.1822753  14.5854083  38.7688553  16.0652753  13.7204083
  38.5898553  17.0302753  14.6774083  38.7438553  16.2902753  14.4714083
  36.5088553  26.1342753  19.2174083  36.6348553  26.9772753  19.4044083
  37.1768553  25.7352753  19.6134083  36.6268553  26.2002753  19.3034083
  34.6388553  19.6172753  29.0794083  34.1028553  19.1112753  29.5474083
  34.6588553  19.2272753  28.2994083  34.5618553  19.4842753  29.0334083
  35.1238553  19.0142753  14.2194083  34.9958553  18.5662753  14.9574083
  34.5418553  18.6722753  13.6674083  35.0188553  18.8972753  14.2474083
  35.2908553  20.8442753  20.8184083  34.5098553  20.7852753  20.4354083
  35.3628553  20.0922753  21.2554083  35.1858553  20.7252753  20.8264083
  35.7208553  20.5812753  24.2864083  35.7458553  19.9062753  23.7354083
  35.0748553  21.0772753  23.9744083  35.6298553  20.5542753  24.1594083
  45.6158553  18.2942753  22.6824083  44.9538553  18.6222753  23.1454083
  45.8028553  18.9282753  22.1134083  45.5458553  18.4362753  22.6664083
  42.2608553  14.2002753  26.1114083  42.4098553  13.3752753  25.8684083
  42.6398553  14.2552753  26.8954083  42.3388553  14.0862753  26.1914083
  43.8088553  16.2632753  16.1934083  44.2988553  16.9802753  16.1164083
  43.0188553  16.5242753  15.9304083  43.7648553  16.4072753  16.1434083
  33.5198553  21.9362753  29.8454083  33.4828553  22.4372753  29.1314083
  33.8508553  21.1842753  29.5504083  33.5628553  21.8982753  29.6964083
  45.1228553  24.1412753  28.1034083  45.6068553  24.8592753  28.2014083
  45.5168553  23.7142753  27.4524083  45.2528553  24.1842753  28.0214083
  40.3908553  17.7332753  21.9184083  40.8708553  18.4322753  22.1264083
  40.7638553  17.0862753  22.3694083  40.5168553  17.7412753  22.0154083
  42.5798553  20.9022753  14.1924083  42.5718553  21.6242753  13.7024083
  41.9408553  21.0372753  14.7694083  42.4848553  21.0292753  14.2054083
  47.5518553  24.7722753  18.1734083  47.9078553  24.4222753  18.8884083
  47.5438553  24.1112753  17.6034083  47.6038553  24.6222753  18.1944083
  43.5968553  27.8382753  22.0174083  42.9938553  27.5422753  21.4604083
  44.1418553  28.2902753  21.5084083  43.5878553  27.8612753  21.8594083
  43.6098553  24.6892753  21.4174083  42.8128553  24.9132753  21.6914083
  43.8678553  24.0952753  22.0024083  43.5298553  24.6342753  21.5444083
  37.5018553  29.5012753  15.8654083  37.3548553  28.7252753  16.2364083
  38.1908553  29.3542753  15.3504083  37.5818553  29.3642753  15.8444083
  37.1728553  13.2442753  13.8534083  37.2698553  13.1372753  14.7144083
  36.4648553  13.7502753  13.7884083  37.0828553  13.3032753  13.9714083
  39.7938553  29.0172753  14.2674083  40.4158553  29.1802753  14.8574083
  39.8298553  29.7082753  13.7354083  39.8908553  29.1432753  14.2764083
  46.8698553  22.6872753  26.2634083  46.9248553  22.8122753  25.4014083
  47.6228553  23.0072753  26.5654083  46.9888553  22.7522753  26.1804083
  47.9018553  12.9852753  29.2504083  47.2648553  12.5852753  28.8084083
  47.9278553  12.5542753  30.0084083  47.8118553  12.8632753  29.2964083
  34.2948553  21.5512753  15.0964083  34.6188553  20.7722753  14.8744083
  34.9408553  21.9192753  15.5514083  34.4378553  21.4902753  15.1304083
  42.6008553  22.4932753  25.8634083  42.4458553  23.1032753  26.4674083
  43.1348553  21.9352753  26.2694083  42.6568553  22.5012753  26.0124083
  31.2918553  13.2122753  16.0644083  31.4208553  12.5042753  15.5724083
  30.9248553  12.8942753  16.7894083  31.2568553  13.0602753  16.0994083
  40.9848553  20.8932753  16.5214083  41.0438553  21.5432753  17.1004083
  40.7958553  20.1972753  17.0124083  40.9658553  20.8862753  16.6794083
  46.2108553  25.2222753  22.3904083  45.7318553  25.5202753  21.7244083
  45.8548553  24.4462753  22.5684083  46.0878553  25.1512753  22.3184083
  35.4808553  15.4102753  13.0334083  34.9698553  15.4632753  12.3274083
  36.2648553  15.6502753  12.7374083  35.5208553  15.4532753  12.8854083
  40.2078553  22.9402753  20.9524083  39.3608553  22.7462753  21.0334083
  40.5318553  22.7752753  21.7454083  40.1298553  22.8872753  21.0814083
  36.9598553  29.6702753  11.8384083  37.3988553  28.9732753  12.1264083
  37.1668553  30.2942753  12.4114083  37.0558553  29.6592753  11.9654083
  37.2858553  17.8042753  20.0034083  38.1318553  17.6142753  20.1014083
  36.9158553  17.0272753  19.8654083  37.3558553  17.6612753  19.9974083
  49.9028553  29.3882753  14.3304083  50.5968553  28.9212753  14.0824083
  49.3638553  28.7902753  14.6674083  49.9258553  29.2302753  14.3434083
  32.1068553  19.1422753  16.6584083  32.5958553  18.8502753  17.3194083
  32.2358553  18.5492753  16.0314083  32.1978553  19.0112753  16.6634083
  47.1418553  22.1642753  23.5094083  47.1348553  21.3882753  23.9074083
  46.3008553  22.3982753  23.5024083  47.0168553  22.0842753  23.5674083
  36.6318553  20.5762753  12.1444083  36.0218553  20.1712753  12.6184083
  36.2458553  20.6942753  11.3714083  36.4848553  20.5332753  12.1004083
  33.4508553  23.6852753  27.5464083  33.0298553  23.1672753  26.9854083
  33.0988553  24.4712753  27.4034083  33.3368553  23.7252753  27.4424083
  48.3978553  22.2352753  20.9464083  48.1118553  22.6362753  21.6664083
  49.2578553  22.1732753  21.0734083  48.4828553  22.2852753  21.0714083
  38.0868553  19.0372753  14.8544083  38.3588553  19.8632753  14.9214083
  37.2238553  19.1122753  14.7584083  37.9998553  19.1702753  14.8494083
  46.0598553  16.1592753  29.4864083  45.5348553  16.6182753  30.0104083
  45.6988553  15.3642753  29.4804083  45.9288553  16.1092753  29.5624083
  31.5668553  15.0072753  21.3904083  31.6108553  15.3512753  20.5894083
  32.3218553  15.2442753  21.7574083  31.6848553  15.0932753  21.3264083
  49.5288553  27.8682753  21.4754083  49.8188553  28.1252753  20.6944083
  50.2238553  27.9642753  21.9944083  49.6748553  27.9202753  21.4364083
  44.5518553  19.7282753  29.5624083  44.6248553  19.8322753  30.4254083
  43.9178553  20.2862753  29.3414083  44.4688553  19.8262753  29.6574083
  46.8198553  20.0472753  27.9274083  47.1388553  20.8332753  28.1304083
  46.4498553  19.7772753  28.6704083  46.8128553  20.1232753  28.0674083
  46.1338553  26.4712753  13.4574083  46.4678553  25.6652753  13.4924083
  45.3788553  26.3992753  13.8874083  46.0718553  26.3412753  13.5264083
  46.6158553  18.3052753  19.1164083  45.8708553  17.9822753  19.4344083
  46.6178553  19.1312753  19.3964083  46.5058553  18.3792753  19.2044083
  49.5178553  20.5892753  30.6624083  49.4658553  20.2482753  29.8614083
  50.2548553  21.0562753  30.6404083  49.6188553  20.6082753  30.5404083
  49.0558553  24.2652753  26.8684083  49.6838553  23.7162753  26.6124083
  48.9948553  24.8302753  26.2064083  49.1398553  24.2682753  26.7324083
  43.5078553  24.3462753  12.8604083  44.1918553  23.8322753  12.6914083
  43.0908553  24.3922753  12.0954083  43.5468553  24.2772753  12.7224083
  38.1898553  25.4962753  24.1644083  37.8918553  26.0882753  24.7314083
  38.2448553  25.9382753  23.4154083  38.1538553  25.6492753  24.1374083
  36.1688553  24.4462753  27.5624083  35.3628553  24.1562753  27.7294083
  36.0798553  25.3142753  27.5684083  36.0368553  24.5312753  27.5874083
  45.5278553  14.6352753  26.5774083  46.2718553  15.0872753  26.5144083
  44.9618553  15.1052753  26.1084083  45.5548553  14.7722753  26.4994083
  40.7058553  21.9192753  23.6554083  41.1818553  22.2932753  24.2834083
  39.8828553  22.0532753  23.9144083  40.6548553  21.9942753  23.7864083
  37.4158553  17.5222753  26.3964083  37.5768553  16.7782753  26.8234083
  37.3708553  17.2732753  25.5614083  37.4328553  17.3752753  26.3364083
  39.9698553  29.3122753  18.8834083  40.5158553  29.9912753  18.9374083
  39.6198553  29.3942753  18.0884083  39.9988553  29.4252753  18.7734083
  46.8128553  12.6152753  24.2474083  46.5328553  13.4402753  24.2034083
  47.5288553  12.6682753  24.7434083  46.8778553  12.7452753  24.3144083
  39.1678553  13.3302753  26.2764083  39.8728553  13.6502753  25.8744083
  39.4088553  12.5232753  26.5034083  39.3068553  13.2582753  26.2504083
  38.1528553  27.5402753  22.2724083  37.5288553  28.1222753  22.0904083
  38.4008553  27.2542753  21.4864083  38.0968553  27.5842753  22.1294083
  42.4618553  24.1742753  29.2614083  43.2188553  24.4602753  28.9354083
  41.9148553  24.2262753  28.5834083  42.4928553  24.2242753  29.1124083
  48.2338553  18.8702753  13.1044083  48.6118553  19.5472753  12.7044083
  47.3918553  19.0942753  13.1354083  48.1648553  19.0032753  13.0494083
  39.7468553  22.3162753  12.1874083  38.9418553  22.1392753  11.9024083
  39.7138553  23.1672753  12.3794083  39.6228553  22.4152753  12.1744083
  35.6768553  18.3832753  22.3374083  36.1168553  18.2802753  21.5914083
  36.2218553  18.0702753  22.9424083  35.8218553  18.3222753  22.3164083
  43.6928553  17.4852753  27.9294083  43.0448553  17.9552753  28.2774083
  44.2578553  17.3962753  28.5884083  43.6808553  17.5412753  28.0784083
  43.3808553  19.0222753  24.2274083  43.6828553  19.4422753  24.9304083
  43.4168553  18.1822753  24.4594083  43.4308553  18.9602753  24.3654083
  45.9288553  18.4692753  16.4794083  46.1358553  18.2682753  17.3034083
  46.6848553  18.7372753  16.1374083  46.0708553  18.4792753  16.5504083
  39.2238553  13.3682753  22.3844083  38.3978553  13.2192753  22.6214083
  39.1838553  13.4032753  21.5134083  39.0958553  13.3512753  22.2904083
  46.9508553  14.5522753  17.9534083  46.2368553  14.0812753  18.1244083
  46.7888553  14.8932753  17.1674083  46.8218553  14.5332753  17.8624083
  47.3938553  22.4962753  16.3334083  47.8698553  21.7672753  16.2854083
  46.5728553  22.2102753  16.2574083  47.3428553  22.3462753  16.3144083
  40.8648553  24.4082753  27.1724083  40.0698553  24.3442753  27.5234083
  40.9358553  25.2552753  26.9774083  40.7578553  24.5232753  27.1954083
  31.7888553  13.7662753  28.4194083  31.6488553  14.5612753  28.0884083
  31.0028553  13.5232753  28.7084083  31.6518553  13.8482753  28.4134083
  36.6948553  30.6152753  22.4894083  36.7058553  30.6742753  23.3594083
  36.2698553  29.8682753  22.3394083  36.6338553  30.5132753  22.5954083
  34.8528553  16.5102753  15.6444083  34.9788553  16.1812753  14.8464083
  34.0408553  16.2612753  15.8434083  34.7518553  16.4252753  15.5564083
  43.6098553  23.6632753  18.6884083  43.6858553  24.0042753  19.4874083
  43.7788553  22.8162753  18.8094083  43.6458553  23.5882753  18.8244083
  41.1318553  22.9372753  18.2534083  40.8338553  22.6222753  19.0104083
  41.8268553  23.4102753  18.4884083  41.1908553  22.9602753  18.4004083
  41.3538553  27.0552753  26.2804083  42.0408553  26.9412753  26.8054083
  41.4878553  27.8462753  25.9364083  41.4748553  27.1552753  26.3074083
  49.5298553  19.6642753  28.0914083  48.6748553  19.5422753  28.2174083
  49.6828553  19.2692753  27.3284083  49.4258553  19.5872753  27.9974083
  44.0428553  20.3292753  26.6674083  43.7878553  19.6102753  27.0894083
  44.8638553  20.4452753  26.9374083  44.1268553  20.2402753  26.7694083
  41.9768553  21.5192753  29.8544083  42.2998553  22.2052753  29.4224083
  41.2728553  21.8422753  30.2564083  41.9198553  21.6682753  29.8494083
  41.7618553  24.9832753  23.7134083  41.0678553  25.3852753  24.0564083
  42.4388553  25.4162753  24.0524083  41.7588553  25.1062753  23.8144083
  34.8298553  18.5212753  26.0604083  35.2048553  19.1402753  25.5734083
  35.5038553  18.0472753  26.3454083  34.9848553  18.5432753  26.0304083
  32.6048553  16.9692753  25.3354083  32.6818553  16.8002753  24.4824083
  33.3508553  17.3752753  25.5324083  32.7258553  17.0042753  25.2384083
  48.1638553  19.6092753  15.7754083  48.2668553  19.5512753  14.9114083
  48.9048553  19.2772753  16.0934083  48.2888553  19.5522753  15.6944083
  35.1588553  14.3792753  27.7464083  35.0778553  13.5352753  27.9524083
  34.8448553  14.4232753  26.9334083  35.1008553  14.2612753  27.6564083
  42.0838553  26.5742753  16.8824083  41.8788553  27.4072753  16.7234083
  41.3088553  26.1922753  17.0044083  41.9388553  26.6412753  16.8774083
  47.2658553  19.7552753  25.1314083  47.2638553  18.8922753  25.2554083
  47.3328553  20.0792753  25.9384083  47.2758553  19.6752753  25.2684083
  32.0018553  22.1952753  25.5594083  32.3218553  22.4142753  24.7784083
  31.9018553  21.3302753  25.5044083  32.0338553  22.1002753  25.4364083
  33.4578553  18.1312753  12.1774083  32.7858553  18.1452753  12.7334083
  33.5528553  17.2832753  11.9934083  33.3728553  18.0082753  12.2324083
  43.1448553  14.5552753  28.9134083  43.2368553  15.2672753  29.4074083
  42.5078553  14.1102753  29.3104083  43.0638553  14.5942753  29.0454083
  42.1388553  14.7452753  19.7674083  41.4388553  15.2632753  19.7114083
  42.1768553  14.3652753  18.9834083  42.0408553  14.7662753  19.6434083
  37.4458553  26.8362753  13.2914083  37.8868553  26.9162753  14.0394083
  36.6408553  26.6202753  13.5494083  37.3918553  26.8162753  13.4404083
  45.7368553  15.2612753  22.5674083  46.5918553  15.3602753  22.7124083
  45.3678553  15.8142753  23.1324083  45.8088553  15.3582753  22.6724083
  36.7648553  21.4872753  26.9444083  36.3688553  22.2612753  27.0194083
  36.3588553  21.1142753  26.2684083  36.6468553  21.5462753  26.8554083
  46.0408553  20.5412753  21.0584083  46.7068553  21.0822753  21.2184083
  45.6958553  20.8522753  20.3194083  46.0878553  20.6672753  20.9734083
  46.3538553  28.6072753  16.8654083  46.1798553  27.9532753  17.4154083
  47.0668553  28.3362753  16.4424083  46.4338553  28.4702753  16.8844083
  34.7748553  25.9062753  13.8924083  34.5308553  25.5992753  14.6724083
  34.7418553  25.2032753  13.3764083  34.7338553  25.7572753  13.9314083
  37.5938553  24.1512753  12.6354083  36.7758553  23.8832753  12.7754083
  37.5658553  25.0032753  12.8204083  37.4688553  24.2382753  12.6834083
  37.1938553  14.4642753  24.3944083  36.3298553  14.5482753  24.4744083
  37.4138553  13.9502753  25.0634083  37.0988553  14.4012753  24.5054083
  49.2118553  13.0992753  25.7234083  49.1598553  13.0552753  26.5934083
  49.8988553  12.5962753  25.5334083  49.3058553  13.0192753  25.8234083
  41.2968553  15.2122753  22.7684083  40.5598553  14.7582753  22.8814083
  41.8678553  14.8102753  23.2914083  41.2718553  15.0852753  22.8624083
  44.0288553  26.0602753  24.5564083  44.2348553  26.3612753  25.3484083
  43.9678553  26.7822753  24.0714083  44.0498553  26.2112753  24.6014083
  38.7998553  19.5412753  27.9724083  38.4778553  18.9652753  27.4024083
  38.4408553  20.2962753  27.7264083  38.6998553  19.5672753  27.8524083
  39.5958553  12.7932753  12.5994083  39.6738553  13.0402753  11.7664083
  38.8528553  13.1702753  12.8574083  39.4978553  12.8852753  12.5144083
  48.8408553  24.6992753  24.0144083  48.8088553  23.8372753  23.8794083
  48.1478553  25.0012753  23.5804083  48.7338553  24.6162753  23.9304083
  46.9458553  27.9592753  22.8114083  47.4728553  27.8762753  22.1204083
  46.5548553  27.1812753  22.8654083  46.9658553  27.8322753  22.7174083
  34.4138553  14.5472753  25.0424083  34.0708553  13.7802753  24.8084083
  33.7188553  15.0712753  25.1064083  34.2608553  14.5112753  25.0174083
  43.4598553  13.4032753  22.0194083  44.1298553  13.9472753  22.1464083
  42.9568553  13.8272753  21.4464083  43.4848553  13.5462753  21.9534083
  42.8188553  19.2112753  19.5124083  43.3698553  18.6042753  19.8124083
  42.3938553  19.4742753  20.2274083  42.8378553  19.1602753  19.6614083
  33.0668553  17.8612753  18.9984083  32.6988553  18.1632753  19.7294083
  33.6008553  17.2322753  19.2824083  33.0908553  17.8132753  19.1484083
  32.7548553  26.2692753  26.5094083  32.1808553  26.6852753  27.0184083
  33.4878553  26.7342753  26.6044083  32.7788553  26.3992753  26.5984083
  44.7888553  21.0422753  16.0744083  44.8568553  20.1922753  16.2554083
  43.9658553  21.1282753  15.7964083  44.6768553  20.9292753  16.0604083
  34.5408553  29.5362753  15.2844083  34.3958553  29.6922753  14.4384083
  35.4068553  29.6152753  15.3624083  34.6478553  29.5712753  15.1714083
  38.7078553  21.9332753  15.0124083  38.8078553  22.0722753  14.1574083
  39.5258553  21.8732753  15.3084083  38.8428553  21.9442753  14.9294083
  47.8678553  29.9972753  12.4924083  48.5048553  29.8632753  13.0734083
  47.5268553  29.2032753  12.3754083  47.9118553  29.8602753  12.5604083
  48.0628553  22.4152753  29.2254083  48.6968553  22.2452753  29.7994083
  48.4798553  22.8182753  28.5734083  48.2178553  22.4502753  29.2144083
  43.9428553  26.2622753  14.8144083  43.6918553  26.1342753  15.6404083
  43.6258553  25.5672753  14.3934083  43.8588553  26.1412753  14.8744083
  48.6878553  16.9792753  29.9634083  48.4918553  17.6232753  30.5184083
  47.9658553  16.4892753  29.9554083  48.5528553  17.0022753  30.0444083
  48.5868553  17.9202753  22.9344083  47.7538553  18.1702753  22.8624083
  48.5308553  17.0802753  23.1634083  48.4558553  17.8332753  22.9574083
  37.8468553  14.9082753  28.1284083  38.0808553  14.3322753  27.5154083
  37.0048553  14.7272753  28.2694083  37.7568553  14.7962753  28.0584083
  45.4738553  22.5262753  30.5804083  46.3448553  22.4902753  30.5444083
  45.2548553  22.9462753  29.8484083  45.5708553  22.5822753  30.4674083
  35.2278553  28.3512753  21.7614083  35.1488553  27.5412753  21.4454083
  34.7838553  28.8382753  21.1894083  35.1508553  28.3032753  21.6304083
  40.8288553  24.4702753  14.2444083  41.5458553  24.1232753  13.8884083
  40.7948553  25.2702753  13.8964083  40.9298553  24.5372753  14.1404083
  32.7998553  30.5952753  25.3424083  33.2928553  30.5392753  26.0604083
  32.9878553  29.8622753  24.9074083  32.9008553  30.4782753  25.3844083
  42.0468553  20.0272753   3.1541673  41.5228553  20.6232753   3.5171673
  42.4438553  19.6592753   3.8381673  42.0278553  20.0612753   3.3091673
  31.8558553  26.9022753   4.8651673  31.9848553  26.6222753   5.6811673
  31.2458553  26.3612753   4.5561673  31.7848553  26.7812753   4.9401673
  38.4298553  24.4272753   9.9321673  38.1938553  24.4242753  10.7721673
  37.6818553  24.2792753   9.5081673  38.2838553  24.4042753   9.9931673
  37.8098553  17.0332753   4.4141673  38.4878553  17.0512753   3.8651673
  37.7648553  16.1972753   4.6591673  37.9028553  16.9122753   4.3691673
  38.4118553  27.6192753   7.1951673  38.5498553  28.3792753   6.7881673
  39.2028553  27.2542753   7.2221673  38.5488553  27.6782753   7.1391673
  41.5318553  19.0842753   9.2501673  40.6838553  18.9852753   9.0721673
  41.5608553  19.8292753   9.7041673  41.4108553  19.1802753   9.2911673
  46.0898553  12.0442753   8.3641673  45.9318553  12.8132753   7.9821673
  45.3178553  11.8242753   8.7081673  45.9518553  12.1252753   8.3591673
  31.7578553  19.1842753   2.0801673  31.5018553  20.0152753   2.0051673
  31.0938553  18.8012753   2.4971673  31.6218553  19.2502753   2.1311673
  34.7868553  14.0012753   2.5711673  34.2658553  13.3732753   2.2631673
  35.3778553  13.5642753   3.0421673  34.7978553  13.8432753   2.5951673
  38.0928553  16.1342753  11.8691673  38.2098553  15.6802753  11.1331673
  38.3808553  16.9322753  11.6661673  38.1528553  16.1852753  11.7301673
  44.2578553  29.4282753   5.2771673  45.0018553  29.8842753   5.2671673
  44.1368553  29.2142753   4.4401673  44.3498553  29.4642753   5.1521673
  33.8258553  15.7312753  10.8531673  33.0478553  15.3412753  10.7811673
  34.3168553  15.3192753  10.2621673  33.7828553  15.6122753  10.7551673
  40.4748553  13.3742753  10.0211673  40.6528553  12.5652753   9.7461673
  40.3318553  13.8152753   9.2821673  40.4798553  13.3202753   9.8711673
  36.2598553  30.1222753   6.4471673  36.5518553  30.0552753   7.2671673
  35.6338553  29.5172753   6.4021673  36.2108553  30.0232753   6.5621673
  48.6208553  14.9812753   4.5421673  49.3778553  15.0532753   4.1141673
  48.6838553  14.2082753   4.9411673  48.7418553  14.8782753   4.5371673
  31.1738553  16.2792753   8.4391673  31.1698553  16.8662753   9.0851673
  31.7678553  16.5912753   7.8821673  31.2608553  16.4122753   8.4521673
  43.5118553  26.6132753   8.9811673  43.4778553  26.9952753   9.7651673
  44.3658553  26.5712753   8.8101673  43.6328553  26.6632753   9.0721673
  34.2528553  28.2842753   5.5691673  33.5548553  27.7762753   5.6951673
  34.5128553  28.0792753   4.7611673  34.1878553  28.1792753   5.4681673
  41.9638553  29.7772753   6.4791673  42.7318553  29.6972753   6.0731673
  41.3808553  29.6562753   5.8411673  41.9908553  29.7472753   6.3251673
  35.6138553  27.1352753   8.1361673  36.4548553  27.1982753   7.9141673
  35.5768553  27.5322753   8.9121673  35.7328553  27.2032753   8.2181673
  37.5768553  22.6462753   2.8851673  37.7488553  22.4362753   3.7141673
  36.9218553  22.1122753   2.6691673  37.5058553  22.5362753   2.9761673
  43.8048553  16.5602753   6.4001673  43.7098553  16.8792753   7.2061673
  43.2118553  15.9212753   6.3621673  43.7028553  16.5122753   6.5141673
  38.3268553  22.5842753   5.4751673  38.3798553  23.4312753   5.6771673
  38.0418553  22.2142753   6.2121673  38.2928553  22.6542753   5.6131673
  44.5038553  23.2792753   4.6051673  43.9898553  22.8672753   5.1761673
  44.3778553  24.1232753   4.7861673  44.4098553  23.3432753   4.7161673
  31.1478553  26.9552753  11.6861673  31.9038553  27.3042753  11.9441673
  31.3248553  26.1022753  11.6291673  31.2858553  26.8802753  11.7161673
  47.5248553  16.7402753   7.5441673  48.2968553  16.5152753   7.8811673
  47.0498553  16.9572753   8.2441673  47.5688553  16.7392753   7.6971673
  33.2098553  17.1252753   3.5961673  34.0528553  17.3452753   3.5531673
  32.8208553  17.6982753   3.0651673  33.2768553  17.2422753   3.5111673
  49.9908553  28.2272753   8.9861673  49.3088553  28.5372753   8.5391673
  49.6218553  27.7692753   9.6311673  49.8348553  28.2052753   9.0151673
  39.0638553  18.8102753  11.7141673  38.5798553  19.3872753  12.1561673
  39.0358553  19.1052753  10.8931673  38.9878553  18.9392753  11.6581673
  50.1618553  19.4942753   6.3261673  50.3768553  18.6942753   6.0501673
  49.3118553  19.5542753   6.1371673  50.0678553  19.3852753   6.2571673
  35.8588553  24.9482753   3.3851673  36.3258553  25.2372753   4.0631673
  36.4308553  24.4702753   2.9311673  36.0128553  24.9202753   3.4181673
  47.8248553  28.6092753   7.0761673  47.1538553  29.1232753   7.2941673
  47.8878553  28.7092753   6.2121673  47.7348553  28.7002753   6.9811673
  34.6388553  19.6172753  10.0731673  34.1028553  19.1112753  10.5411673
  34.6588553  19.2272753   9.2931673  34.5618553  19.4842753  10.0271673
  35.7208553  20.5812753   5.2801673  35.7458553  19.9062753   4.7291673
  35.0748553  21.0772753   4.9681673  35.6298553  20.5542753   5.1531673
  45.6158553  18.2942753   3.6761673  44.9538553  18.6222753   4.1391673
  45.8028553  18.9282753   3.1071673  45.5458553  18.4362753   3.6601673
  39.8208553  29.3582753   4.6721673  39.5438553  28.7172753   4.1491673
  39.6128553  30.0842753   4.2341673  39.7498553  29.3712753   4.5301673
  42.2608553  14.2002753   7.1051673  42.4098553  13.3752753   6.8621673
  42.6398553  14.2552753   7.8891673  42.3388553  14.0862753   7.1851673
  33.5198553  21.9362753  10.8391673  33.4828553  22.4372753  10.1251673
  33.8508553  21.1842753  10.5441673  33.5628553  21.8982753  10.6901673
  45.1228553  24.1412753   9.0971673  45.6068553  24.8592753   9.1951673
  45.5168553  23.7142753   8.4461673  45.2528553  24.1842753   9.0151673
  39.4188553  26.9862753  10.2741673  39.7728553  26.8082753  11.0511673
  38.9828553  26.2572753  10.0751673  39.4068553  26.8522753  10.3601673
  40.3908553  17.7332753   2.9121673  40.8708553  18.4322753   3.1201673
  40.7638553  17.0862753   3.3631673  40.5168553  17.7412753   3.0091673
  43.5968553  27.8382753   3.0111673  42.9938553  27.5422753   2.4541673
  44.1418553  28.2902753   2.5021673  43.5878553  27.8612753   2.8531673
  43.6098553  24.6892753   2.4111673  42.8128553  24.9132753   2.6851673
  43.8678553  24.0952753   2.9961673  43.5298553  24.6342753   2.5381673
  46.8698553  22.6872753   7.2571673  46.9248553  22.8122753   6.3951673
  47.6228553  23.0072753   7.5591673  46.9888553  22.7522753   7.1741673
  43.0608553  28.0362753  11.5341673  43.2248553  28.3192753  12.3431673
  43.3238553  28.6972753  11.0291673  43.1238553  28.1762753  11.5791673
  47.9018553  12.9852753  10.2441673  47.2648553  12.5852753   9.8021673
  47.9278553  12.5542753  11.0021673  47.8118553  12.8632753  10.2901673
  42.6008553  22.4932753   6.8571673  42.4458553  23.1032753   7.4611673
  43.1348553  21.9352753   7.2631673  42.6568553  22.5012753   7.0061673
  46.2108553  25.2222753   3.3841673  45.7318553  25.5202753   2.7181673
  45.8548553  24.4462753   3.5621673  46.0878553  25.1512753   3.3121673
  40.2078553  22.9402753   1.9461673  39.3608553  22.7462753   2.0271673
  40.5318553  22.7752753   2.7391673  40.1298553  22.8872753   2.0751673
  34.0558553  22.6332753   4.2621673  34.7778553  23.1212753   4.2251673
  33.7858553  22.6032753   3.4331673  34.1228553  22.7012753   4.1341673
  47.1418553  22.1642753   4.5031673  47.1348553  21.3882753   4.9011673
  46.3008553  22.3982753   4.4961673  47.0168553  22.0842753   4.5611673
  33.4508553  23.6852753   8.5401673  33.0298553  23.1672753   7.9791673
  33.0988553  24.4712753   8.3971673  33.3368553  23.7252753   8.4361673
  48.3978553  22.2352753   1.9401673  48.1118553  22.6362753   2.6601673
  49.2578553  22.1732753   2.0671673  48.4828553  22.2852753   2.0651673
  46.0598553  16.1592753  10.4801673  45.5348553  16.6182753  11.0041673
  45.6988553  15.3642753  10.4741673  45.9288553  16.1092753  10.5561673
  49.5288553  27.8682753   2.4691673  49.8188553  28.1252753   1.6881673
  50.2238553  27.9642753   2.9881673  49.6748553  27.9202753   2.4301673
  44.5518553  19.7282753  10.5561673  44.6248553  19.8322753  11.4191673
  43.9178553  20.2862753  10.3351673  44.4688553  19.8262753  10.6511673
  46.8198553  20.0472753   8.9211673  47.1388553  20.8332753   9.1241673
  46.4498553  19.7772753   9.6641673  46.8128553  20.1232753   9.0611673
  49.5178553  20.5892753  11.6561673  49.4658553  20.2482753  10.8551673
  50.2548553  21.0562753  11.6341673  49.6188553  20.6082753  11.5341673
  49.0558553  24.2652753   7.8621673  49.6838553  23.7162753   7.6061673
  48.9948553  24.8302753   7.2001673  49.1398553  24.2682753   7.7261673
  38.1898553  25.4962753   5.1581673  37.8918553  26.0882753   5.7251673
  38.2448553  25.9382753   4.4091673  38.1538553  25.6492753   5.1311673
  36.1688553  24.4462753   8.5561673  35.3628553  24.1562753   8.7231673
  36.0798553  25.3142753   8.5621673  36.0368553  24.5312753   8.5811673
  45.5278553  14.6352753   7.5711673  46.2718553  15.0872753   7.5081673
  44.9618553  15.1052753   7.1021673  45.5548553  14.7722753   7.4931673
  40.7058553  21.9192753   4.6491673  41.1818553  22.2932753   5.2771673
  39.8828553  22.0532753   4.9081673  40.6548553  21.9942753   4.7801673
  37.4158553  17.5222753   7.3901673  37.5768553  16.7782753   7.8171673
  37.3708553  17.2732753   6.5551673  37.4328553  17.3752753   7.3301673
  46.8128553  12.6152753   5.2411673  46.5328553  13.4402753   5.1971673
  47.5288553  12.6682753   5.7371673  46.8778553  12.7452753   5.3081673
  39.1678553  13.3302753   7.2701673  39.8728553  13.6502753   6.8681673
  39.4088553  12.5232753   7.4971673  39.3068553  13.2582753   7.2441673
  38.1528553  27.5402753   3.2661673  37.5288553  28.1222753   3.0841673
  38.4008553  27.2542753   2.4801673  38.0968553  27.5842753   3.1231673
  42.4618553  24.1742753  10.2551673  43.2188553  24.4602753   9.9291673
  41.9148553  24.2262753   9.5771673  42.4928553  24.2242753  10.1061673
  46.3708553  26.7242753   8.7591673  46.7168553  26.9942753   9.5131673
  46.6648553  27.3062753   8.1791673  46.4658553  26.8502753   8.7851673
  35.6768553  18.3832753   3.3311673  36.1168553  18.2802753   2.5851673
  36.2218553  18.0702753   3.9361673  35.8218553  18.3222753   3.3101673
  43.6928553  17.4852753   8.9231673  43.0448553  17.9552753   9.2711673
  44.2578553  17.3962753   9.5821673  43.6808553  17.5412753   9.0721673
  43.3808553  19.0222753   5.2211673  43.6828553  19.4422753   5.9241673
  43.4168553  18.1822753   5.4531673  43.4308553  18.9602753   5.3591673
  40.8058553  29.1892753   9.1461673  41.2838553  28.5892753   8.7301673
  40.4548553  28.7462753   9.8111673  40.8248553  29.0352753   9.1831673
  39.2238553  13.3682753   3.3781673  38.3978553  13.2192753   3.6151673
  39.1838553  13.4032753   2.5071673  39.0958553  13.3512753   3.2841673
  40.8648553  24.4082753   8.1661673  40.0698553  24.3442753   8.5171673
  40.9358553  25.2552753   7.9711673  40.7578553  24.5232753   8.1891673
  31.7888553  13.7662753   9.4131673  31.6488553  14.5612753   9.0821673
  31.0028553  13.5232753   9.7021673  31.6518553  13.8482753   9.4071673
  36.6948553  30.6152753   3.4831673  36.7058553  30.6742753   4.3531673
  36.2698553  29.8682753   3.3331673  36.6338553  30.5132753   3.5891673
  41.3538553  27.0552753   7.2741673  42.0408553  26.9412753   7.7991673
  41.4878553  27.8462753   6.9301673  41.4748553  27.1552753   7.3011673
  49.5298553  19.6642753   9.0851673  48.6748553  19.5422753   9.2111673
  49.6828553  19.2692753   8.3221673  49.4258553  19.5872753   8.9911673
  44.0428553  20.3292753   7.6611673  43.7878553  19.6102753   8.0831673
  44.8638553  20.4452753   7.9311673  44.1268553  20.2402753   7.7631673
  33.4588553  30.1132753   8.9251673  32.8048553  29.5442753   9.0231673
  33.0838553  30.8862753   9.0761673  33.3068553  30.1432753   8.9621673
  41.9768553  21.5192753  10.8481673  42.2998553  22.2052753  10.4161673
  41.2728553  21.8422753  11.2501673  41.9198553  21.6682753  10.8431673
  45.0608553  29.8932753   1.7771673  44.6098553  30.5362753   2.1561673
  45.7688553  29.8142753   2.2821673  45.0988553  29.9762753   1.9081673
  41.7618553  24.9832753   4.7071673  41.0678553  25.3852753   5.0501673
  42.4388553  25.4162753   5.0461673  41.7588553  25.1062753   4.8081673
  34.8298553  18.5212753   7.0541673  35.2048553  19.1402753   6.5671673
  35.5038553  18.0472753   7.3391673  34.9848553  18.5432753   7.0241673
  32.6048553  16.9692753   6.3291673  32.6818553  16.8002753   5.4761673
  33.3508553  17.3752753   6.5261673  32.7258553  17.0042753   6.2321673
  35.1588553  14.3792753   8.7401673  35.0778553  13.5352753   8.9461673
  34.8448553  14.4232753   7.9271673  35.1008553  14.2612753   8.6501673
  47.2658553  19.7552753   6.1251673  47.2638553  18.8922753   6.2491673
  47.3328553  20.0792753   6.9321673  47.2758553  19.6752753   6.2621673
  32.0018553  22.1952753   6.5531673  32.3218553  22.4142753   5.7721673
  31.9018553  21.3302753   6.4981673  32.0338553  22.1002753   6.4301673
  43.1448553  14.5552753   9.9071673  43.2368553  15.2672753  10.4011673
  42.5078553  14.1102753  10.3041673  43.0638553  14.5942753  10.0391673
  45.7368553  15.2612753   3.5611673  46.5918553  15.3602753   3.7061673
  45.3678553  15.8142753   4.1261673  45.8088553  15.3582753   3.6661673
  36.7648553  21.4872753   7.9381673  36.3688553  22.2612753   8.0131673
  36.3588553  21.1142753   7.2621673  36.6468553  21.5462753   7.8491673
  37.1938553  14.4642753   5.3881673  36.3298553  14.5482753   5.4681673
  37.4138553  13.9502753   6.0571673  37.0988553  14.4012753   5.4991673
  49.2118553  13.0992753   6.7171673  49.1598553  13.0552753   7.5871673
  49.8988553  12.5962753   6.5271673  49.3058553  13.0192753   6.8171673
  41.2968553  15.2122753   3.7621673  40.5598553  14.7582753   3.8751673
  41.8678553  14.8102753   4.2851673  41.2718553  15.0852753   3.8561673
  44.0288553  26.0602753   5.5501673  44.2348553  26.3612753   6.3421673
  43.9678553  26.7822753   5.0651673  44.0498553  26.2112753   5.5951673
  43.5628553  30.2742753   9.7961673  42.8098553  30.2562753   9.3551673
  43.7308553  31.1262753   9.8801673  43.4768553  30.3972753   9.7431673
  38.7998553  19.5412753   8.9661673  38.4778553  18.9652753   8.3961673
  38.4408553  20.2962753   8.7201673  38.6998553  19.5672753   8.8461673
  48.8408553  24.6992753   5.0081673  48.8088553  23.8372753   4.8731673
  48.1478553  25.0012753   4.5741673  48.7338553  24.6162753   4.9241673
  37.2348553  29.8972753   9.2141673  37.2758553  30.0232753  10.0771673
  37.8858553  29.3372753   9.0581673  37.3368553  29.8332753   9.3191673
  46.9458553  27.9592753   3.8051673  47.4728553  27.8762753   3.1141673
  46.5548553  27.1812753   3.8591673  46.9658553  27.8322753   3.7111673
  34.4138553  14.5472753   6.0361673  34.0708553  13.7802753   5.8021673
  33.7188553  15.0712753   6.1001673  34.2608553  14.5112753   6.0111673
  43.4598553  13.4032753   3.0131673  44.1298553  13.9472753   3.1401673
  42.9568553  13.8272753   2.4401673  43.4848553  13.5462753   2.9471673
  34.8278553  28.2802753  10.5741673  35.4228553  28.7112753  11.0461673
  34.4638553  28.9042753  10.0851673  34.8618553  28.4362753  10.5711673
  32.7548553  26.2692753   7.5031673  32.1808553  26.6852753   8.0121673
  33.4878553  26.7342753   7.5981673  32.7788553  26.3992753   7.5921673
  48.0628553  22.4152753  10.2191673  48.6968553  22.2452753  10.7931673
  48.4798553  22.8182753   9.5671673  48.2178553  22.4502753  10.2081673
  48.6878553  16.9792753  10.9571673  48.4918553  17.6232753  11.5121673
  47.9658553  16.4892753  10.9491673  48.5528553  17.0022753  11.0381673
  48.5868553  17.9202753   3.9281673  47.7538553  18.1702753   3.8561673
  48.5308553  17.0802753   4.1571673  48.4558553  17.8332753   3.9511673
  37.8468553  14.9082753   9.1221673  38.0808553  14.3322753   8.5091673
  37.0048553  14.7272753   9.2631673  37.7568553  14.7962753   9.0521673
  45.4738553  22.5262753  11.5741673  46.3448553  22.4902753  11.5381673
  45.2548553  22.9462753  10.8421673  45.5708553  22.5822753  11.4611673
  35.2278553  28.3512753   2.7551673  35.1488553  27.5412753   2.4391673
  34.7838553  28.8382753   2.1831673  35.1508553  28.3032753   2.6241673
  32.7998553  30.5952753   6.3361673  33.2928553  30.5392753   7.0541673
  32.9878553  29.8622753   5.9011673  32.9008553  30.4782753   6.3781673
  31.9158553   5.6891673  74.6351313  31.4748553   5.8071673  75.3781313
  31.6328553   4.9141673  74.3501313  31.8088553   5.5921673  74.7031313
  48.1908553   8.9901673  72.1501313  48.8918553   8.4711673  72.1461313
  47.6038553   8.5451673  71.6811313  48.2078553   8.8471673  72.0801313
  34.7978553   4.7441673  69.8141313  34.4058553   4.3731673  69.1281313
  34.7178553   4.1461673  70.4431313  34.7278553   4.6011673  69.8051313
  44.7178553   2.6161673  75.8551313  44.7978553   2.6201673  74.9861313
  44.1338553   1.9841673  76.0041313  44.6428553   2.5231673  75.7491313
  34.4248553   6.3851673  73.7141313  35.0328553   6.2151673  74.3171313
  33.6738553   6.2451673  74.1351313  34.4038553   6.3391673  73.8651313
  33.3158553   9.4761673  69.7911313  33.7828553   9.5601673  69.0591313
  33.7708553   8.8981673  70.2601313  33.4518553   9.4031673  69.7521313
  33.3018553   2.9451673  75.0921313  32.8398553   2.5531673  74.4651313
  34.0018553   2.4321673  75.1841313  33.3368553   2.8121673  75.0131313
  39.5068553   7.0261673  77.7251313  39.8548553   6.2271673  77.7551313
  40.1718553   7.5301673  77.4701313  39.6568553   6.9821673  77.6921313
  39.5638553   6.4751673  73.9361313  39.8948553   5.8311673  74.4221313
  39.8038553   6.2641673  73.1251313  39.6478553   6.3491673  73.8881313
  31.6678553  10.4161673  76.0051313  31.0758553  10.9741673  75.6921313
  32.0938553  10.1471673  75.2931313  31.6438553  10.4581673  75.8541313
  37.5078553   8.2601673  73.4851313  36.9288553   7.9851673  74.0771313
  38.1318553   7.6511673  73.5101313  37.5148553   8.1301673  73.5761313
  43.6508553  10.5481673  71.0071313  44.3778553  11.0201673  71.1091313
  43.8798553   9.7541673  71.2871313  43.7928553  10.5011673  71.0641313
  41.8188553  10.9401673  72.9971313  42.0328553  11.4671673  73.6591313
  42.5858553  10.7661673  72.6181313  41.9638553  10.9921673  73.0391313
  33.2128553   9.0861673  73.9361313  33.8688553   8.5111673  73.9511313
  33.6018553   9.8351673  73.7151313  33.3678553   9.1111673  73.9061313
  34.0308553   7.5731673  77.4361313  34.4538553   7.2171673  76.7621313
  34.3548553   7.1511673  78.1281313  34.1408553   7.4581673  77.4391313
  37.2618553  10.4251673  76.7321313  38.1058553  10.5291673  76.5371313
  36.9648553  11.2431673  76.8001313  37.3428553  10.5611673  76.7131313
  45.8318553  12.1351673  71.4071313  46.4968553  11.9871673  70.8621313
  46.1918553  12.0521673  72.1971313  45.9838553  12.1011673  71.4431313
  40.6498553   8.3321673  69.7561313  40.4688553   8.8771673  70.4131313
  41.4158553   8.6221673  69.4551313  40.7358553   8.4561673  69.8091313
  48.2408553  11.9021673  75.4051313  47.7858553  12.6191673  75.6061313
  47.6268553  11.3311673  75.1631313  48.0828553  11.9241673  75.3991313
  45.2378553   7.7471673  74.9491313  45.9388553   7.2651673  75.1381313
  44.5778553   7.1781673  74.9941313  45.2438553   7.5921673  74.9831313
  47.7568553   5.2401673  70.7571313  47.8758553   4.9531673  71.5721313
  48.5638553   5.2611673  70.4271313  47.8928553   5.2011673  70.8291313
  34.8928553   4.9721673  76.0881313  35.7438553   4.8921673  75.9151313
  34.5358553   4.2901673  75.6761313  34.9658553   4.8591673  76.0011313
  33.6598553  11.6971673  77.3251313  32.9868553  11.1991673  77.0801313
  34.0628553  11.8821673  76.5741313  33.6198553  11.6511673  77.1781313
  45.6518553   1.7771673  70.3421313  45.4318553   2.5081673  69.9201313
  45.2038553   1.8281673  71.0891313  45.5528553   1.8921673  70.3901313
  37.2608553   4.9791673  74.3231313  37.9738553   5.4741673  74.4131313
  37.4828553   4.4121673  73.6971313  37.3988553   4.9681673  74.2441313
  31.4168553   6.6221673  77.6431313  30.7498553   7.1101673  77.9191313
  32.0968553   7.1671673  77.6721313  31.4188553   6.7741673  77.6881313
  31.4828553   3.3061673  72.7461313  31.2978553   2.4671673  72.8981313
  32.1418553   3.2701673  72.1761313  31.5528553   3.1771673  72.6841313
  41.7838553   8.6821673  76.6501313  41.2608553   9.3161673  76.3571313
  42.0938553   8.3181673  75.9211313  41.7518553   8.7221673  76.4991313
  31.6548553   7.4701673  72.3211313  32.2068553   8.0391673  72.6851313
  31.4228553   6.9551673  72.9861313  31.7018553   7.4781673  72.4731313
  31.4848553   5.9191673  69.9491313  32.2408553   5.4871673  70.0071313
  31.4998553   6.4511673  70.6401313  31.5988553   5.9341673  70.0601313
  32.4248553   4.1401673  77.9541313  32.8558553   4.0111673  77.2071313
  32.2198553   4.9881673  77.9281313  32.4578553   4.2461673  77.8401313
  36.5088553   7.6561673  76.2361313  36.6348553   8.4991673  76.4231313
  37.1768553   7.2571673  76.6321313  36.6268553   7.7221673  76.3221313
  35.2908553   2.3661673  77.8371313  34.5098553   2.3071673  77.4541313
  35.3628553   1.6141673  78.2741313  35.1858553   2.2471673  77.8451313
  42.5798553   2.4241673  71.2111313  42.5718553   3.1461673  70.7211313
  41.9408553   2.5591673  71.7881313  42.4848553   2.5511673  71.2241313
  47.5518553   6.2941673  75.1921313  47.9078553   5.9441673  75.9071313
  47.5438553   5.6331673  74.6221313  47.6038553   6.1441673  75.2131313
  43.6098553   6.2111673  78.4361313  42.8128553   6.4351673  78.7101313
  43.8678553   5.6171673  79.0211313  43.5298553   6.1561673  78.5631313
  37.5018553  11.0231673  72.8841313  37.3548553  10.2471673  73.2551313
  38.1908553  10.8761673  72.3691313  37.5818553  10.8861673  72.8631313
  39.7938553  10.5391673  71.2861313  40.4158553  10.7021673  71.8761313
  39.8298553  11.2301673  70.7541313  39.8908553  10.6651673  71.2951313
  34.2948553   3.0731673  72.1151313  34.6188553   2.2941673  71.8931313
  34.9408553   3.4411673  72.5701313  34.4378553   3.0121673  72.1491313
  40.9848553   2.4151673  73.5401313  41.0438553   3.0651673  74.1191313
  40.7958553   1.7191673  74.0311313  40.9658553   2.4081673  73.6981313
  40.2078553   4.4621673  77.9711313  39.3608553   4.2681673  78.0521313
  40.5318553   4.2971673  78.7641313  40.1298553   4.4091673  78.1001313
  36.9598553  11.1921673  68.8571313  37.3988553  10.4951673  69.1451313
  37.1668553  11.8161673  69.4301313  37.0558553  11.1811673  68.9841313
  49.9028553  10.9101673  71.3491313  50.5968553  10.4431673  71.1011313
  49.3638553  10.3121673  71.6861313  49.9258553  10.7521673  71.3621313
  36.6318553   2.0981673  69.1631313  36.0218553   1.6931673  69.6371313
  36.2458553   2.2161673  68.3901313  36.4848553   2.0551673  69.1191313
  48.3978553   3.7571673  77.9651313  48.1118553   4.1581673  78.6851313
  49.2578553   3.6951673  78.0921313  48.4828553   3.8071673  78.0901313
  49.5288553   9.3901673  78.4941313  49.8188553   9.6471673  77.7131313
  50.2238553   9.4861673  79.0131313  49.6748553   9.4421673  78.4551313
  46.1338553   7.9931673  70.4761313  46.4678553   7.1871673  70.5111313
  45.3788553   7.9211673  70.9061313  46.0718553   7.8631673  70.5451313
  43.5078553   5.8681673  69.8791313  44.1918553   5.3541673  69.7101313
  43.0908553   5.9141673  69.1141313  43.5468553   5.7991673  69.7411313
  39.9698553  10.8341673  75.9021313  40.5158553  11.5131673  75.9561313
  39.6198553  10.9161673  75.1071313  39.9988553  10.9471673  75.7921313
  39.7468553   3.8381673  69.2061313  38.9418553   3.6611673  68.9211313
  39.7138553   4.6891673  69.3981313  39.6228553   3.9371673  69.1931313
  47.3938553   4.0181673  73.3521313  47.8698553   3.2891673  73.3041313
  46.5728553   3.7321673  73.2761313  47.3428553   3.8681673  73.3331313
  43.6098553   5.1851673  75.7071313  43.6858553   5.5261673  76.5061313
  43.7788553   4.3381673  75.8281313  43.6458553   5.1101673  75.8431313
  41.1318553   4.4591673  75.2721313  40.8338553   4.1441673  76.0291313
  41.8268553   4.9321673  75.5071313  41.1908553   4.4821673  75.4191313
  45.0608553  11.4151673  77.8021313  44.6098553  12.0581673  78.1811313
  45.7688553  11.3361673  78.3071313  45.0988553  11.4981673  77.9331313
  42.0838553   8.0961673  73.9011313  41.8788553   8.9291673  73.7421313
  41.3088553   7.7141673  74.0231313  41.9388553   8.1631673  73.8961313
  37.4458553   8.3581673  70.3101313  37.8868553   8.4381673  71.0581313
  36.6408553   8.1421673  70.5681313  37.3918553   8.3381673  70.4591313
  46.0408553   2.0631673  78.0771313  46.7068553   2.6041673  78.2371313
  45.6958553   2.3741673  77.3381313  46.0878553   2.1891673  77.9921313
  46.3538553  10.1291673  73.8841313  46.1798553   9.4751673  74.4341313
  47.0668553   9.8581673  73.4611313  46.4338553   9.9921673  73.9031313
  34.7748553   7.4281673  70.9111313  34.5308553   7.1211673  71.6911313
  34.7418553   6.7251673  70.3951313  34.7338553   7.2791673  70.9501313
  37.5938553   5.6731673  69.6541313  36.7758553   5.4051673  69.7941313
  37.5658553   6.5251673  69.8391313  37.4688553   5.7601673  69.7021313
  44.7888553   2.5641673  73.0931313  44.8568553   1.7141673  73.2741313
  43.9658553   2.6501673  72.8151313  44.6768553   2.4511673  73.0791313
  34.5408553  11.0581673  72.3031313  34.3958553  11.2141673  71.4571313
  35.4068553  11.1371673  72.3811313  34.6478553  11.0931673  72.1901313
  38.7078553   3.4551673  72.0311313  38.8078553   3.5941673  71.1761313
  39.5258553   3.3951673  72.3271313  38.8428553   3.4661673  71.9481313
  47.8678553  11.5191673  69.5111313  48.5048553  11.3851673  70.0921313
  47.5268553  10.7251673  69.3941313  47.9118553  11.3821673  69.5791313
  43.9428553   7.7841673  71.8331313  43.6918553   7.6561673  72.6591313
  43.6258553   7.0891673  71.4121313  43.8588553   7.6631673  71.8931313
  35.2278553   9.8731673  78.7801313  35.1488553   9.0631673  78.4641313
  34.7838553  10.3601673  78.2081313  35.1508553   9.8251673  78.6491313
  40.8288553   5.9921673  71.2631313  41.5458553   5.6451673  70.9071313
  40.7948553   6.7921673  70.9151313  40.9298553   6.0591673  71.1591313
  31.9158553   5.6891673  55.6288903  31.4748553   5.8071673  56.3718903
  31.6328553   4.9141673  55.3438903  31.8088553   5.5921673  55.6968903
  48.1908553   8.9901673  53.1438903  48.8918553   8.4711673  53.1398903
  47.6038553   8.5451673  52.6748903  48.2078553   8.8471673  53.0738903
  34.7978553   4.7441673  50.8078903  34.4058553   4.3731673  50.1218903
  34.7178553   4.1461673  51.4368903  34.7278553   4.6011673  50.7988903
  44.7178553   2.6161673  56.8488903  44.7978553   2.6201673  55.9798903
  44.1338553   1.9841673  56.9978903  44.6428553   2.5231673  56.7428903
  34.4248553   6.3851673  54.7078903  35.0328553   6.2151673  55.3108903
  33.6738553   6.2451673  55.1288903  34.4038553   6.3391673  54.8588903
  33.3158553   9.4761673  50.7848903  33.7828553   9.5601673  50.0528903
  33.7708553   8.8981673  51.2538903  33.4518553   9.4031673  50.7458903
  31.8558553   8.4241673  61.8838903  31.9848553   8.1441673  62.6998903
  31.2458553   7.8831673  61.5748903  31.7848553   8.3031673  61.9588903
  38.4298553   5.9491673  66.9508903  38.1938553   5.9461673  67.7908903
  37.6818553   5.8011673  66.5268903  38.2838553   5.9261673  67.0118903
  33.3018553   2.9451673  56.0858903  32.8398553   2.5531673  55.4588903
  34.0018553   2.4321673  56.1778903  33.3368553   2.8121673  56.0068903
  38.4118553   9.1411673  64.2138903  38.5498553   9.9011673  63.8068903
  39.2028553   8.7761673  64.2408903  38.5488553   9.2001673  64.1578903
  39.5068553   7.0261673  58.7188903  39.8548553   6.2271673  58.7488903
  40.1718553   7.5301673  58.4638903  39.6568553   6.9821673  58.6858903
  39.5638553   6.4751673  54.9298903  39.8948553   5.8311673  55.4158903
  39.8038553   6.2641673  54.1188903  39.6478553   6.3491673  54.8818903
  31.6678553  10.4161673  56.9988903  31.0758553  10.9741673  56.6858903
  32.0938553  10.1471673  56.2868903  31.6438553  10.4581673  56.8478903
  37.5078553   8.2601673  54.4788903  36.9288553   7.9851673  55.0708903
  38.1318553   7.6511673  54.5038903  37.5148553   8.1301673  54.5698903
  43.6508553  10.5481673  52.0008903  44.3778553  11.0201673  52.1028903
  43.8798553   9.7541673  52.2808903  43.7928553  10.5011673  52.0578903
  41.8188553  10.9401673  53.9908903  42.0328553  11.4671673  54.6528903
  42.5858553  10.7661673  53.6118903  41.9638553  10.9921673  54.0328903
  33.2128553   9.0861673  54.9298903  33.8688553   8.5111673  54.9448903
  33.6018553   9.8351673  54.7088903  33.3678553   9.1111673  54.8998903
  44.2578553  10.9501673  62.2958903  45.0018553  11.4061673  62.2858903
  44.1368553  10.7361673  61.4588903  44.3498553  10.9861673  62.1708903
  34.0308553   7.5731673  58.4298903  34.4538553   7.2171673  57.7558903
  34.3548553   7.1511673  59.1218903  34.1408553   7.4581673  58.4328903
  37.2618553  10.4251673  57.7258903  38.1058553  10.5291673  57.5308903
  36.9648553  11.2431673  57.7938903  37.3428553  10.5611673  57.7068903
  45.8318553  12.1351673  52.4008903  46.4968553  11.9871673  51.8558903
  46.1918553  12.0521673  53.1908903  45.9838553  12.1011673  52.4368903
  36.2598553  11.6441673  63.4658903  36.5518553  11.5771673  64.2858903
  35.6338553  11.0391673  63.4208903  36.2108553  11.5451673  63.5808903
  43.5118553   8.1351673  65.9998903  43.4778553   8.5171673  66.7838903
  44.3658553   8.0931673  65.8288903  43.6328553   8.1851673  66.0908903
  40.6498553   8.3321673  50.7498903  40.4688553   8.8771673  51.4068903
  41.4158553   8.6221673  50.4488903  40.7358553   8.4561673  50.8028903
  34.2528553   9.8061673  62.5878903  33.5548553   9.2981673  62.7138903
  34.5128553   9.6011673  61.7798903  34.1878553   9.7011673  62.4868903
  41.9638553  11.2991673  63.4978903  42.7318553  11.2191673  63.0918903
  41.3808553  11.1781673  62.8598903  41.9908553  11.2691673  63.3438903
  48.2408553  11.9021673  56.3988903  47.7858553  12.6191673  56.5998903
  47.6268553  11.3311673  56.1568903  48.0828553  11.9241673  56.3928903
  45.2378553   7.7471673  55.9428903  45.9388553   7.2651673  56.1318903
  44.5778553   7.1781673  55.9878903  45.2438553   7.5921673  55.9768903
  35.6138553   8.6571673  65.1548903  36.4548553   8.7201673  64.9328903
  35.5768553   9.0541673  65.9308903  35.7328553   8.7251673  65.2368903
  37.5768553   4.1681673  59.9038903  37.7488553   3.9581673  60.7328903
  36.9218553   3.6341673  59.6878903  37.5058553   4.0581673  59.9948903
  38.3268553   4.1061673  62.4938903  38.3798553   4.9531673  62.6958903
  38.0418553   3.7361673  63.2308903  38.2928553   4.1761673  62.6318903
  44.5038553   4.8011673  61.6238903  43.9898553   4.3891673  62.1948903
  44.3778553   5.6451673  61.8048903  44.4098553   4.8651673  61.7348903
  31.1478553   8.4771673  68.7048903  31.9038553   8.8261673  68.9628903
  31.3248553   7.6241673  68.6478903  31.2858553   8.4021673  68.7348903
  47.7568553   5.2401673  51.7508903  47.8758553   4.9531673  52.5658903
  48.5638553   5.2611673  51.4208903  47.8928553   5.2011673  51.8228903
  34.8928553   4.9721673  57.0818903  35.7438553   4.8921673  56.9088903
  34.5358553   4.2901673  56.6698903  34.9658553   4.8591673  56.9948903
  33.6598553  11.6971673  58.3188903  32.9868553  11.1991673  58.0738903
  34.0628553  11.8821673  57.5678903  33.6198553  11.6511673  58.1718903
  49.9908553   9.7491673  66.0048903  49.3088553  10.0591673  65.5578903
  49.6218553   9.2911673  66.6498903  49.8348553   9.7271673  66.0338903
  45.6518553   1.7771673  51.3358903  45.4318553   2.5081673  50.9138903
  45.2038553   1.8281673  52.0828903  45.5528553   1.8921673  51.3838903
  37.2608553   4.9791673  55.3168903  37.9738553   5.4741673  55.4068903
  37.4828553   4.4121673  54.6908903  37.3988553   4.9681673  55.2378903
  31.4168553   6.6221673  58.6368903  30.7498553   7.1101673  58.9128903
  32.0968553   7.1671673  58.6658903  31.4188553   6.7741673  58.6818903
  31.4828553   3.3061673  53.7398903  31.2978553   2.4671673  53.8918903
  32.1418553   3.2701673  53.1698903  31.5528553   3.1771673  53.6778903
  41.7838553   8.6821673  57.6438903  41.2608553   9.3161673  57.3508903
  42.0938553   8.3181673  56.9148903  41.7518553   8.7221673  57.4928903
  31.6548553   7.4701673  53.3148903  32.2068553   8.0391673  53.6788903
  31.4228553   6.9551673  53.9798903  31.7018553   7.4781673  53.4668903
  35.8588553   6.4701673  60.4038903  36.3258553   6.7591673  61.0818903
  36.4308553   5.9921673  59.9498903  36.0128553   6.4421673  60.4368903
  31.4848553   5.9191673  50.9428903  32.2408553   5.4871673  51.0008903
  31.4998553   6.4511673  51.6338903  31.5988553   5.9341673  51.0538903
  32.4248553   4.1401673  58.9478903  32.8558553   4.0111673  58.2008903
  32.2198553   4.9881673  58.9218903  32.4578553   4.2461673  58.8338903
  47.8248553  10.1311673  64.0948903  47.1538553  10.6451673  64.3128903
  47.8878553  10.2311673  63.2308903  47.7348553  10.2221673  63.9998903
  36.5088553   7.6561673  57.2298903  36.6348553   8.4991673  57.4168903
  37.1768553   7.2571673  57.6258903  36.6268553   7.7221673  57.3158903
  35.2908553   2.3661673  58.8308903  34.5098553   2.3071673  58.4478903
  35.3628553   1.6141673  59.2678903  35.1858553   2.2471673  58.8388903
  39.8208553  10.8801673  61.6908903  39.5438553  10.2391673  61.1678903
  39.6128553  11.6061673  61.2528903  39.7498553  10.8931673  61.5488903
  33.5198553   3.4581673  67.8578903  33.4828553   3.9591673  67.1438903
  33.8508553   2.7061673  67.5628903  33.5628553   3.4201673  67.7088903
  45.1228553   5.6631673  66.1158903  45.6068553   6.3811673  66.2138903
  45.5168553   5.2361673  65.4648903  45.2528553   5.7061673  66.0338903
  39.4188553   8.5081673  67.2928903  39.7728553   8.3301673  68.0698903
  38.9828553   7.7791673  67.0938903  39.4068553   8.3741673  67.3788903
  42.5798553   2.4241673  52.2048903  42.5718553   3.1461673  51.7148903
  41.9408553   2.5591673  52.7818903  42.4848553   2.5511673  52.2178903
  47.5518553   6.2941673  56.1858903  47.9078553   5.9441673  56.9008903
  47.5438553   5.6331673  55.6158903  47.6038553   6.1441673  56.2068903
  43.5968553   9.3601673  60.0298903  42.9938553   9.0641673  59.4728903
  44.1418553   9.8121673  59.5208903  43.5878553   9.3831673  59.8718903
  43.6098553   6.2111673  59.4298903  42.8128553   6.4351673  59.7038903
  43.8678553   5.6171673  60.0148903  43.5298553   6.1561673  59.5568903
  37.5018553  11.0231673  53.8778903  37.3548553  10.2471673  54.2488903
  38.1908553  10.8761673  53.3628903  37.5818553  10.8861673  53.8568903
  39.7938553  10.5391673  52.2798903  40.4158553  10.7021673  52.8698903
  39.8298553  11.2301673  51.7478903  39.8908553  10.6651673  52.2888903
  46.8698553   4.2091673  64.2758903  46.9248553   4.3341673  63.4138903
  47.6228553   4.5291673  64.5778903  46.9888553   4.2741673  64.1928903
  43.0608553   9.5581673  68.5528903  43.2248553   9.8411673  69.3618903
  43.3238553  10.2191673  68.0478903  43.1238553   9.6981673  68.5978903
  34.2948553   3.0731673  53.1088903  34.6188553   2.2941673  52.8868903
  34.9408553   3.4411673  53.5638903  34.4378553   3.0121673  53.1428903
  42.6008553   4.0151673  63.8758903  42.4458553   4.6251673  64.4798903
  43.1348553   3.4571673  64.2818903  42.6568553   4.0231673  64.0248903
  40.9848553   2.4151673  54.5338903  41.0438553   3.0651673  55.1128903
  40.7958553   1.7191673  55.0248903  40.9658553   2.4081673  54.6918903
  46.2108553   6.7441673  60.4028903  45.7318553   7.0421673  59.7368903
  45.8548553   5.9681673  60.5808903  46.0878553   6.6731673  60.3308903
  40.2078553   4.4621673  58.9648903  39.3608553   4.2681673  59.0458903
  40.5318553   4.2971673  59.7578903  40.1298553   4.4091673  59.0938903
  36.9598553  11.1921673  49.8508903  37.3988553  10.4951673  50.1388903
  37.1668553  11.8161673  50.4238903  37.0558553  11.1811673  49.9778903
  34.0558553   4.1551673  61.2808903  34.7778553   4.6431673  61.2438903
  33.7858553   4.1251673  60.4518903  34.1228553   4.2231673  61.1528903
  49.9028553  10.9101673  52.3428903  50.5968553  10.4431673  52.0948903
  49.3638553  10.3121673  52.6798903  49.9258553  10.7521673  52.3558903
  47.1418553   3.6861673  61.5218903  47.1348553   2.9101673  61.9198903
  46.3008553   3.9201673  61.5148903  47.0168553   3.6061673  61.5798903
  36.6318553   2.0981673  50.1568903  36.0218553   1.6931673  50.6308903
  36.2458553   2.2161673  49.3838903  36.4848553   2.0551673  50.1128903
  33.4508553   5.2071673  65.5588903  33.0298553   4.6891673  64.9978903
  33.0988553   5.9931673  65.4158903  33.3368553   5.2471673  65.4548903
  48.3978553   3.7571673  58.9588903  48.1118553   4.1581673  59.6788903
  49.2578553   3.6951673  59.0858903  48.4828553   3.8071673  59.0838903
  49.5288553   9.3901673  59.4878903  49.8188553   9.6471673  58.7068903
  50.2238553   9.4861673  60.0068903  49.6748553   9.4421673  59.4488903
  46.1338553   7.9931673  51.4698903  46.4678553   7.1871673  51.5048903
  45.3788553   7.9211673  51.8998903  46.0718553   7.8631673  51.5388903
  49.5178553   2.1111673  68.6748903  49.4658553   1.7701673  67.8738903
  50.2548553   2.5781673  68.6528903  49.6188553   2.1301673  68.5528903
  49.0558553   5.7871673  64.8808903  49.6838553   5.2381673  64.6248903
  48.9948553   6.3521673  64.2188903  49.1398553   5.7901673  64.7448903
  43.5078553   5.8681673  50.8728903  44.1918553   5.3541673  50.7038903
  43.0908553   5.9141673  50.1078903  43.5468553   5.7991673  50.7348903
  38.1898553   7.0181673  62.1768903  37.8918553   7.6101673  62.7438903
  38.2448553   7.4601673  61.4278903  38.1538553   7.1711673  62.1498903
  36.1688553   5.9681673  65.5748903  35.3628553   5.6781673  65.7418903
  36.0798553   6.8361673  65.5808903  36.0368553   6.0531673  65.5998903
  40.7058553   3.4411673  61.6678903  41.1818553   3.8151673  62.2958903
  39.8828553   3.5751673  61.9268903  40.6548553   3.5161673  61.7988903
  39.9698553  10.8341673  56.8958903  40.5158553  11.5131673  56.9498903
  39.6198553  10.9161673  56.1008903  39.9988553  10.9471673  56.7858903
  38.1528553   9.0621673  60.2848903  37.5288553   9.6441673  60.1028903
  38.4008553   8.7761673  59.4988903  38.0968553   9.1061673  60.1418903
  42.4618553   5.6961673  67.2738903  43.2188553   5.9821673  66.9478903
  41.9148553   5.7481673  66.5958903  42.4928553   5.7461673  67.1248903
  46.3708553   8.2461673  65.7778903  46.7168553   8.5161673  66.5318903
  46.6648553   8.8281673  65.1978903  46.4658553   8.3721673  65.8038903
  39.7468553   3.8381673  50.1998903  38.9418553   3.6611673  49.9148903
  39.7138553   4.6891673  50.3918903  39.6228553   3.9371673  50.1868903
  40.8058553  10.7111673  66.1648903  41.2838553  10.1111673  65.7488903
  40.4548553  10.2681673  66.8298903  40.8248553  10.5571673  66.2018903
  47.3938553   4.0181673  54.3458903  47.8698553   3.2891673  54.2978903
  46.5728553   3.7321673  54.2698903  47.3428553   3.8681673  54.3268903
  40.8648553   5.9301673  65.1848903  40.0698553   5.8661673  65.5358903
  40.9358553   6.7771673  64.9898903  40.7578553   6.0451673  65.2078903
  36.6948553  12.1371673  60.5018903  36.7058553  12.1961673  61.3718903
  36.2698553  11.3901673  60.3518903  36.6338553  12.0351673  60.6078903
  43.6098553   5.1851673  56.7008903  43.6858553   5.5261673  57.4998903
  43.7788553   4.3381673  56.8218903  43.6458553   5.1101673  56.8368903
  41.1318553   4.4591673  56.2658903  40.8338553   4.1441673  57.0228903
  41.8268553   4.9321673  56.5008903  41.1908553   4.4821673  56.4128903
  41.3538553   8.5771673  64.2928903  42.0408553   8.4631673  64.8178903
  41.4878553   9.3681673  63.9488903  41.4748553   8.6771673  64.3198903
  33.4588553  11.6351673  65.9438903  32.8048553  11.0661673  66.0418903
  33.0838553  12.4081673  66.0948903  33.3068553  11.6651673  65.9808903
  41.9768553   3.0411673  67.8668903  42.2998553   3.7271673  67.4348903
  41.2728553   3.3641673  68.2688903  41.9198553   3.1901673  67.8618903
  45.0608553  11.4151673  58.7958903  44.6098553  12.0581673  59.1748903
  45.7688553  11.3361673  59.3008903  45.0988553  11.4981673  58.9268903
  41.7618553   6.5051673  61.7258903  41.0678553   6.9071673  62.0688903
  42.4388553   6.9381673  62.0648903  41.7588553   6.6281673  61.8268903
  47.1388553   9.0981673  68.3058903  47.9148553   8.7081673  68.3888903
  46.6698553   8.7621673  68.9608903  47.1838553   8.9911673  68.4148903
  42.0838553   8.0961673  54.8948903  41.8788553   8.9291673  54.7358903
  41.3088553   7.7141673  55.0168903  41.9388553   8.1631673  54.8898903
  32.0018553   3.7171673  63.5718903  32.3218553   3.9361673  62.7908903
  31.9018553   2.8521673  63.5168903  32.0338553   3.6221673  63.4488903
  37.4458553   8.3581673  51.3038903  37.8868553   8.4381673  52.0518903
  36.6408553   8.1421673  51.5618903  37.3918553   8.3381673  51.4528903
  36.7648553   3.0091673  64.9568903  36.3688553   3.7831673  65.0318903
  36.3588553   2.6361673  64.2808903  36.6468553   3.0681673  64.8678903
  46.0408553   2.0631673  59.0708903  46.7068553   2.6041673  59.2308903
  45.6958553   2.3741673  58.3318903  46.0878553   2.1891673  58.9858903
  46.3538553  10.1291673  54.8778903  46.1798553   9.4751673  55.4278903
  47.0668553   9.8581673  54.4548903  46.4338553   9.9921673  54.8968903
  34.7748553   7.4281673  51.9048903  34.5308553   7.1211673  52.6848903
  34.7418553   6.7251673  51.3888903  34.7338553   7.2791673  51.9438903
  37.5938553   5.6731673  50.6478903  36.7758553   5.4051673  50.7878903
  37.5658553   6.5251673  50.8328903  37.4688553   5.7601673  50.6958903
  44.0288553   7.5821673  62.5688903  44.2348553   7.8831673  63.3608903
  43.9678553   8.3041673  62.0838903  44.0498553   7.7331673  62.6138903
  43.5628553  11.7961673  66.8148903  42.8098553  11.7781673  66.3738903
  43.7308553  12.6481673  66.8988903  43.4768553  11.9191673  66.7618903
  48.8408553   6.2211673  62.0268903  48.8088553   5.3591673  61.8918903
  48.1478553   6.5231673  61.5928903  48.7338553   6.1381673  61.9428903
  37.2348553  11.4191673  66.2328903  37.2758553  11.5451673  67.0958903
  37.8858553  10.8591673  66.0768903  37.3368553  11.3551673  66.3378903
  46.9458553   9.4811673  60.8238903  47.4728553   9.3981673  60.1328903
  46.5548553   8.7031673  60.8778903  46.9658553   9.3541673  60.7298903
  34.8278553   9.8021673  67.5928903  35.4228553  10.2331673  68.0648903
  34.4638553  10.4261673  67.1038903  34.8618553   9.9581673  67.5898903
  32.7548553   7.7911673  64.5218903  32.1808553   8.2071673  65.0308903
  33.4878553   8.2561673  64.6168903  32.7788553   7.9211673  64.6108903
  44.7888553   2.5641673  54.0868903  44.8568553   1.7141673  54.2678903
  43.9658553   2.6501673  53.8088903  44.6768553   2.4511673  54.0728903
  34.5408553  11.0581673  53.2968903  34.3958553  11.2141673  52.4508903
  35.4068553  11.1371673  53.3748903  34.6478553  11.0931673  53.1838903
  38.7078553   3.4551673  53.0248903  38.8078553   3.5941673  52.1698903
  39.5258553   3.3951673  53.3208903  38.8428553   3.4661673  52.9418903
  47.8678553  11.5191673  50.5048903  48.5048553  11.3851673  51.0858903
  47.5268553  10.7251673  50.3878903  47.9118553  11.3821673  50.5728903
  48.0628553   3.9371673  67.2378903  48.6968553   3.7671673  67.8118903
  48.4798553   4.3401673  66.5858903  48.2178553   3.9721673  67.2268903
  43.9428553   7.7841673  52.8268903  43.6918553   7.6561673  53.6528903
  43.6258553   7.0891673  52.4058903  43.8588553   7.6631673  52.8868903
  45.4738553   4.0481673  68.5928903  46.3448553   4.0121673  68.5568903
  45.2548553   4.4681673  67.8608903  45.5708553   4.1041673  68.4798903
  35.2278553   9.8731673  59.7738903  35.1488553   9.0631673  59.4578903
  34.7838553  10.3601673  59.2018903  35.1508553   9.8251673  59.6428903
  40.8288553   5.9921673  52.2568903  41.5458553   5.6451673  51.9008903
  40.7948553   6.7921673  51.9088903  40.9298553   6.0591673  52.1528903
  32.7998553  12.1171673  63.3548903  33.2928553  12.0611673  64.0728903
  32.9878553  11.3841673  62.9198903  32.9008553  12.0001673  63.3968903
  31.9158553   5.6891673  36.6226493  31.4748553   5.8071673  37.3656493
  31.6328553   4.9141673  36.3376493  31.8088553   5.5921673  36.6906493
  48.1908553   8.9901673  34.1376493  48.8918553   8.4711673  34.1336493
  47.6038553   8.5451673  33.6686493  48.2078553   8.8471673  34.0676493
  34.7978553   4.7441673  31.8016493  34.4058553   4.3731673  31.1156493
  34.7178553   4.1461673  32.4306493  34.7278553   4.6011673  31.7926493
  44.7178553   2.6161673  37.8426493  44.7978553   2.6201673  36.9736493
  44.1338553   1.9841673  37.9916493  44.6428553   2.5231673  37.7366493
  34.4248553   6.3851673  35.7016493  35.0328553   6.2151673  36.3046493
  33.6738553   6.2451673  36.1226493  34.4038553   6.3391673  35.8526493
  33.3158553   9.4761673  31.7786493  33.7828553   9.5601673  31.0466493
  33.7708553   8.8981673  32.2476493  33.4518553   9.4031673  31.7396493
  31.8558553   8.4241673  42.8776493  31.9848553   8.1441673  43.6936493
  31.2458553   7.8831673  42.5686493  31.7848553   8.3031673  42.9526493
  38.4298553   5.9491673  47.9446493  38.1938553   5.9461673  48.7846493
  37.6818553   5.8011673  47.5206493  38.2838553   5.9261673  48.0056493
  33.3018553   2.9451673  37.0796493  32.8398553   2.5531673  36.4526493
  34.0018553   2.4321673  37.1716493  33.3368553   2.8121673  37.0006493
  38.4118553   9.1411673  45.2076493  38.5498553   9.9011673  44.8006493
  39.2028553   8.7761673  45.2346493  38.5488553   9.2001673  45.1516493
  39.5068553   7.0261673  39.7126493  39.8548553   6.2271673  39.7426493
  40.1718553   7.5301673  39.4576493  39.6568553   6.9821673  39.6796493
  39.5638553   6.4751673  35.9236493  39.8948553   5.8311673  36.4096493
  39.8038553   6.2641673  35.1126493  39.6478553   6.3491673  35.8756493
  31.6678553  10.4161673  37.9926493  31.0758553  10.9741673  37.6796493
  32.0938553  10.1471673  37.2806493  31.6438553  10.4581673  37.8416493
  37.5078553   8.2601673  35.4726493  36.9288553   7.9851673  36.0646493
  38.1318553   7.6511673  35.4976493  37.5148553   8.1301673  35.5636493
  43.6508553  10.5481673  32.9946493  44.3778553  11.0201673  33.0966493
  43.8798553   9.7541673  33.2746493  43.7928553  10.5011673  33.0516493
  41.8188553  10.9401673  34.9846493  42.0328553  11.4671673  35.6466493
  42.5858553  10.7661673  34.6056493  41.9638553  10.9921673  35.0266493
  33.2128553   9.0861673  35.9236493  33.8688553   8.5111673  35.9386493
  33.6018553   9.8351673  35.7026493  33.3678553   9.1111673  35.8936493
  44.2578553  10.9501673  43.2896493  45.0018553  11.4061673  43.2796493
  44.1368553  10.7361673  42.4526493  44.3498553  10.9861673  43.1646493
  34.0308553   7.5731673  39.4236493  34.4538553   7.2171673  38.7496493
  34.3548553   7.1511673  40.1156493  34.1408553   7.4581673  39.4266493
  37.2618553  10.4251673  38.7196493  38.1058553  10.5291673  38.5246493
  36.9648553  11.2431673  38.7876493  37.3428553  10.5611673  38.7006493
  45.8318553  12.1351673  33.3946493  46.4968553  11.9871673  32.8496493
  46.1918553  12.0521673  34.1846493  45.9838553  12.1011673  33.4306493
  36.2598553  11.6441673  44.4596493  36.5518553  11.5771673  45.2796493
  35.6338553  11.0391673  44.4146493  36.2108553  11.5451673  44.5746493
  43.5118553   8.1351673  46.9936493  43.4778553   8.5171673  47.7776493
  44.3658553   8.0931673  46.8226493  43.6328553   8.1851673  47.0846493
  40.6498553   8.3321673  31.7436493  40.4688553   8.8771673  32.4006493
  41.4158553   8.6221673  31.4426493  40.7358553   8.4561673  31.7966493
  34.2528553   9.8061673  43.5816493  33.5548553   9.2981673  43.7076493
  34.5128553   9.6011673  42.7736493  34.1878553   9.7011673  43.4806493
  41.9638553  11.2991673  44.4916493  42.7318553  11.2191673  44.0856493
  41.3808553  11.1781673  43.8536493  41.9908553  11.2691673  44.3376493
  48.2408553  11.9021673  37.3926493  47.7858553  12.6191673  37.5936493
  47.6268553  11.3311673  37.1506493  48.0828553  11.9241673  37.3866493
  45.2378553   7.7471673  36.9366493  45.9388553   7.2651673  37.1256493
  44.5778553   7.1781673  36.9816493  45.2438553   7.5921673  36.9706493
  35.6138553   8.6571673  46.1486493  36.4548553   8.7201673  45.9266493
  35.5768553   9.0541673  46.9246493  35.7328553   8.7251673  46.2306493
  37.5768553   4.1681673  40.8976493  37.7488553   3.9581673  41.7266493
  36.9218553   3.6341673  40.6816493  37.5058553   4.0581673  40.9886493
  38.3268553   4.1061673  43.4876493  38.3798553   4.9531673  43.6896493
  38.0418553   3.7361673  44.2246493  38.2928553   4.1761673  43.6256493
  44.5038553   4.8011673  42.6176493  43.9898553   4.3891673  43.1886493
  44.3778553   5.6451673  42.7986493  44.4098553   4.8651673  42.7286493
  31.1478553   8.4771673  49.6986493  31.9038553   8.8261673  49.9566493
  31.3248553   7.6241673  49.6416493  31.2858553   8.4021673  49.7286493
  47.7568553   5.2401673  32.7446493  47.8758553   4.9531673  33.5596493
  48.5638553   5.2611673  32.4146493  47.8928553   5.2011673  32.8166493
  34.8928553   4.9721673  38.0756493  35.7438553   4.8921673  37.9026493
  34.5358553   4.2901673  37.6636493  34.9658553   4.8591673  37.9886493
  33.6598553  11.6971673  39.3126493  32.9868553  11.1991673  39.0676493
  34.0628553  11.8821673  38.5616493  33.6198553  11.6511673  39.1656493
  49.9908553   9.7491673  46.9986493  49.3088553  10.0591673  46.5516493
  49.6218553   9.2911673  47.6436493  49.8348553   9.7271673  47.0276493
  45.6518553   1.7771673  32.3296493  45.4318553   2.5081673  31.9076493
  45.2038553   1.8281673  33.0766493  45.5528553   1.8921673  32.3776493
  37.2608553   4.9791673  36.3106493  37.9738553   5.4741673  36.4006493
  37.4828553   4.4121673  35.6846493  37.3988553   4.9681673  36.2316493
  31.4168553   6.6221673  39.6306493  30.7498553   7.1101673  39.9066493
  32.0968553   7.1671673  39.6596493  31.4188553   6.7741673  39.6756493
  31.4828553   3.3061673  34.7336493  31.2978553   2.4671673  34.8856493
  32.1418553   3.2701673  34.1636493  31.5528553   3.1771673  34.6716493
  41.7838553   8.6821673  38.6376493  41.2608553   9.3161673  38.3446493
  42.0938553   8.3181673  37.9086493  41.7518553   8.7221673  38.4866493
  31.6548553   7.4701673  34.3086493  32.2068553   8.0391673  34.6726493
  31.4228553   6.9551673  34.9736493  31.7018553   7.4781673  34.4606493
  35.8588553   6.4701673  41.3976493  36.3258553   6.7591673  42.0756493
  36.4308553   5.9921673  40.9436493  36.0128553   6.4421673  41.4306493
  31.4848553   5.9191673  31.9366493  32.2408553   5.4871673  31.9946493
  31.4998553   6.4511673  32.6276493  31.5988553   5.9341673  32.0476493
  32.4248553   4.1401673  39.9416493  32.8558553   4.0111673  39.1946493
  32.2198553   4.9881673  39.9156493  32.4578553   4.2461673  39.8276493
  47.8248553  10.1311673  45.0886493  47.1538553  10.6451673  45.3066493
  47.8878553  10.2311673  44.2246493  47.7348553  10.2221673  44.9936493
  36.5088553   7.6561673  38.2236493  36.6348553   8.4991673  38.4106493
  37.1768553   7.2571673  38.6196493  36.6268553   7.7221673  38.3096493
  35.2908553   2.3661673  39.8246493  34.5098553   2.3071673  39.4416493
  35.3628553   1.6141673  40.2616493  35.1858553   2.2471673  39.8326493
  39.8208553  10.8801673  42.6846493  39.5438553  10.2391673  42.1616493
  39.6128553  11.6061673  42.2466493  39.7498553  10.8931673  42.5426493
  33.5198553   3.4581673  48.8516493  33.4828553   3.9591673  48.1376493
  33.8508553   2.7061673  48.5566493  33.5628553   3.4201673  48.7026493
  45.1228553   5.6631673  47.1096493  45.6068553   6.3811673  47.2076493
  45.5168553   5.2361673  46.4586493  45.2528553   5.7061673  47.0276493
  39.4188553   8.5081673  48.2866493  39.7728553   8.3301673  49.0636493
  38.9828553   7.7791673  48.0876493  39.4068553   8.3741673  48.3726493
  42.5798553   2.4241673  33.1986493  42.5718553   3.1461673  32.7086493
  41.9408553   2.5591673  33.7756493  42.4848553   2.5511673  33.2116493
  47.5518553   6.2941673  37.1796493  47.9078553   5.9441673  37.8946493
  47.5438553   5.6331673  36.6096493  47.6038553   6.1441673  37.2006493
  43.5968553   9.3601673  41.0236493  42.9938553   9.0641673  40.4666493
  44.1418553   9.8121673  40.5146493  43.5878553   9.3831673  40.8656493
  43.6098553   6.2111673  40.4236493  42.8128553   6.4351673  40.6976493
  43.8678553   5.6171673  41.0086493  43.5298553   6.1561673  40.5506493
  37.5018553  11.0231673  34.8716493  37.3548553  10.2471673  35.2426493
  38.1908553  10.8761673  34.3566493  37.5818553  10.8861673  34.8506493
  39.7938553  10.5391673  33.2736493  40.4158553  10.7021673  33.8636493
  39.8298553  11.2301673  32.7416493  39.8908553  10.6651673  33.2826493
  46.8698553   4.2091673  45.2696493  46.9248553   4.3341673  44.4076493
  47.6228553   4.5291673  45.5716493  46.9888553   4.2741673  45.1866493
  43.0608553   9.5581673  49.5466493  43.2248553   9.8411673  50.3556493
  43.3238553  10.2191673  49.0416493  43.1238553   9.6981673  49.5916493
  34.2948553   3.0731673  34.1026493  34.6188553   2.2941673  33.8806493
  34.9408553   3.4411673  34.5576493  34.4378553   3.0121673  34.1366493
  42.6008553   4.0151673  44.8696493  42.4458553   4.6251673  45.4736493
  43.1348553   3.4571673  45.2756493  42.6568553   4.0231673  45.0186493
  40.9848553   2.4151673  35.5276493  41.0438553   3.0651673  36.1066493
  40.7958553   1.7191673  36.0186493  40.9658553   2.4081673  35.6856493
  46.2108553   6.7441673  41.3966493  45.7318553   7.0421673  40.7306493
  45.8548553   5.9681673  41.5746493  46.0878553   6.6731673  41.3246493
  40.2078553   4.4621673  39.9586493  39.3608553   4.2681673  40.0396493
  40.5318553   4.2971673  40.7516493  40.1298553   4.4091673  40.0876493
  36.9598553  11.1921673  30.8446493  37.3988553  10.4951673  31.1326493
  37.1668553  11.8161673  31.4176493  37.0558553  11.1811673  30.9716493
  34.0558553   4.1551673  42.2746493  34.7778553   4.6431673  42.2376493
  33.7858553   4.1251673  41.4456493  34.1228553   4.2231673  42.1466493
  49.9028553  10.9101673  33.3366493  50.5968553  10.4431673  33.0886493
  49.3638553  10.3121673  33.6736493  49.9258553  10.7521673  33.3496493
  47.1418553   3.6861673  42.5156493  47.1348553   2.9101673  42.9136493
  46.3008553   3.9201673  42.5086493  47.0168553   3.6061673  42.5736493
  36.6318553   2.0981673  31.1506493  36.0218553   1.6931673  31.6246493
  36.2458553   2.2161673  30.3776493  36.4848553   2.0551673  31.1066493
  33.4508553   5.2071673  46.5526493  33.0298553   4.6891673  45.9916493
  33.0988553   5.9931673  46.4096493  33.3368553   5.2471673  46.4486493
  48.3978553   3.7571673  39.9526493  48.1118553   4.1581673  40.6726493
  49.2578553   3.6951673  40.0796493  48.4828553   3.8071673  40.0776493
  49.5288553   9.3901673  40.4816493  49.8188553   9.6471673  39.7006493
  50.2238553   9.4861673  41.0006493  49.6748553   9.4421673  40.4426493
  46.1338553   7.9931673  32.4636493  46.4678553   7.1871673  32.4986493
  45.3788553   7.9211673  32.8936493  46.0718553   7.8631673  32.5326493
  49.5178553   2.1111673  49.6686493  49.4658553   1.7701673  48.8676493
  50.2548553   2.5781673  49.6466493  49.6188553   2.1301673  49.5466493
  49.0558553   5.7871673  45.8746493  49.6838553   5.2381673  45.6186493
  48.9948553   6.3521673  45.2126493  49.1398553   5.7901673  45.7386493
  43.5078553   5.8681673  31.8666493  44.1918553   5.3541673  31.6976493
  43.0908553   5.9141673  31.1016493  43.5468553   5.7991673  31.7286493
  38.1898553   7.0181673  43.1706493  37.8918553   7.6101673  43.7376493
  38.2448553   7.4601673  42.4216493  38.1538553   7.1711673  43.1436493
  36.1688553   5.9681673  46.5686493  35.3628553   5.6781673  46.7356493
  36.0798553   6.8361673  46.5746493  36.0368553   6.0531673  46.5936493
  40.7058553   3.4411673  42.6616493  41.1818553   3.8151673  43.2896493
  39.8828553   3.5751673  42.9206493  40.6548553   3.5161673  42.7926493
  39.9698553  10.8341673  37.8896493  40.5158553  11.5131673  37.9436493
  39.6198553  10.9161673  37.0946493  39.9988553  10.9471673  37.7796493
  38.1528553   9.0621673  41.2786493  37.5288553   9.6441673  41.0966493
  38.4008553   8.7761673  40.4926493  38.0968553   9.1061673  41.1356493
  42.4618553   5.6961673  48.2676493  43.2188553   5.9821673  47.9416493
  41.9148553   5.7481673  47.5896493  42.4928553   5.7461673  48.1186493
  46.3708553   8.2461673  46.7716493  46.7168553   8.5161673  47.5256493
  46.6648553   8.8281673  46.1916493  46.4658553   8.3721673  46.7976493
  39.7468553   3.8381673  31.1936493  38.9418553   3.6611673  30.9086493
  39.7138553   4.6891673  31.3856493  39.6228553   3.9371673  31.1806493
  40.8058553  10.7111673  47.1586493  41.2838553  10.1111673  46.7426493
  40.4548553  10.2681673  47.8236493  40.8248553  10.5571673  47.1956493
  47.3938553   4.0181673  35.3396493  47.8698553   3.2891673  35.2916493
  46.5728553   3.7321673  35.2636493  47.3428553   3.8681673  35.3206493
  40.8648553   5.9301673  46.1786493  40.0698553   5.8661673  46.5296493
  40.9358553   6.7771673  45.9836493  40.7578553   6.0451673  46.2016493
  36.6948553  12.1371673  41.4956493  36.7058553  12.1961673  42.3656493
  36.2698553  11.3901673  41.3456493  36.6338553  12.0351673  41.6016493
  43.6098553   5.1851673  37.6946493  43.6858553   5.5261673  38.4936493
  43.7788553   4.3381673  37.8156493  43.6458553   5.1101673  37.8306493
  41.1318553   4.4591673  37.2596493  40.8338553   4.1441673  38.0166493
  41.8268553   4.9321673  37.4946493  41.1908553   4.4821673  37.4066493
  41.3538553   8.5771673  45.2866493  42.0408553   8.4631673  45.8116493
  41.4878553   9.3681673  44.9426493  41.4748553   8.6771673  45.3136493
  33.4588553  11.6351673  46.9376493  32.8048553  11.0661673  47.0356493
  33.0838553  12.4081673  47.0886493  33.3068553  11.6651673  46.9746493
  41.9768553   3.0411673  48.8606493  42.2998553   3.7271673  48.4286493
  41.2728553   3.3641673  49.2626493  41.9198553   3.1901673  48.8556493
  45.0608553  11.4151673  39.7896493  44.6098553  12.0581673  40.1686493
  45.7688553  11.3361673  40.2946493  45.0988553  11.4981673  39.9206493
  41.7618553   6.5051673  42.7196493  41.0678553   6.9071673  43.0626493
  42.4388553   6.9381673  43.0586493  41.7588553   6.6281673  42.8206493
  47.1388553   9.0981673  49.2996493  47.9148553   8.7081673  49.3826493
  46.6698553   8.7621673  49.9546493  47.1838553   8.9911673  49.4086493
  42.0838553   8.0961673  35.8886493  41.8788553   8.9291673  35.7296493
  41.3088553   7.7141673  36.0106493  41.9388553   8.1631673  35.8836493
  32.0018553   3.7171673  44.5656493  32.3218553   3.9361673  43.7846493
  31.9018553   2.8521673  44.5106493  32.0338553   3.6221673  44.4426493
  37.4458553   8.3581673  32.2976493  37.8868553   8.4381673  33.0456493
  36.6408553   8.1421673  32.5556493  37.3918553   8.3381673  32.4466493
  36.7648553   3.0091673  45.9506493  36.3688553   3.7831673  46.0256493
  36.3588553   2.6361673  45.2746493  36.6468553   3.0681673  45.8616493
  46.0408553   2.0631673  40.0646493  46.7068553   2.6041673  40.2246493
  45.6958553   2.3741673  39.3256493  46.0878553   2.1891673  39.9796493
  46.3538553  10.1291673  35.8716493  46.1798553   9.4751673  36.4216493
  47.0668553   9.8581673  35.4486493  46.4338553   9.9921673  35.8906493
  34.7748553   7.4281673  32.8986493  34.5308553   7.1211673  33.6786493
  34.7418553   6.7251673  32.3826493  34.7338553   7.2791673  32.9376493
  37.5938553   5.6731673  31.6416493  36.7758553   5.4051673  31.7816493
  37.5658553   6.5251673  31.8266493  37.4688553   5.7601673  31.6896493
  44.0288553   7.5821673  43.5626493  44.2348553   7.8831673  44.3546493
  43.9678553   8.3041673  43.0776493  44.0498553   7.7331673  43.6076493
  43.5628553  11.7961673  47.8086493  42.8098553  11.7781673  47.3676493
  43.7308553  12.6481673  47.8926493  43.4768553  11.9191673  47.7556493
  48.8408553   6.2211673  43.0206493  48.8088553   5.3591673  42.8856493
  48.1478553   6.5231673  42.5866493  48.7338553   6.1381673  42.9366493
  37.2348553  11.4191673  47.2266493  37.2758553  11.5451673  48.0896493
  37.8858553  10.8591673  47.0706493  37.3368553  11.3551673  47.3316493
  46.9458553   9.4811673  41.8176493  47.4728553   9.3981673  41.1266493
  46.5548553   8.7031673  41.8716493  46.9658553   9.3541673  41.7236493
  34.8278553   9.8021673  48.5866493  35.4228553  10.2331673  49.0586493
  34.4638553  10.4261673  48.0976493  34.8618553   9.9581673  48.5836493
  32.7548553   7.7911673  45.5156493  32.1808553   8.2071673  46.0246493
  33.4878553   8.2561673  45.6106493  32.7788553   7.9211673  45.6046493
  44.7888553   2.5641673  35.0806493  44.8568553   1.7141673  35.2616493
  43.9658553   2.6501673  34.8026493  44.6768553   2.4511673  35.0666493
  34.5408553  11.0581673  34.2906493  34.3958553  11.2141673  33.4446493
  35.4068553  11.1371673  34.3686493  34.6478553  11.0931673  34.1776493
  38.7078553   3.4551673  34.0186493  38.8078553   3.5941673  33.1636493
  39.5258553   3.3951673  34.3146493  38.8428553   3.4661673  33.9356493
  47.8678553  11.5191673  31.4986493  48.5048553  11.3851673  32.0796493
  47.5268553  10.7251673  31.3816493  47.9118553  11.3821673  31.5666493
  48.0628553   3.9371673  48.2316493  48.6968553   3.7671673  48.8056493
  48.4798553   4.3401673  47.5796493  48.2178553   3.9721673  48.2206493
  43.9428553   7.7841673  33.8206493  43.6918553   7.6561673  34.6466493
  43.6258553   7.0891673  33.3996493  43.8588553   7.6631673  33.8806493
  45.4738553   4.0481673  49.5866493  46.3448553   4.0121673  49.5506493
  45.2548553   4.4681673  48.8546493  45.5708553   4.1041673  49.4736493
  35.2278553   9.8731673  40.7676493  35.1488553   9.0631673  40.4516493
  34.7838553  10.3601673  40.1956493  35.1508553   9.8251673  40.6366493
  40.8288553   5.9921673  33.2506493  41.5458553   5.6451673  32.8946493
  40.7948553   6.7921673  32.9026493  40.9298553   6.0591673  33.1466493
  32.7998553  12.1171673  44.3486493  33.2928553  12.0611673  45.0666493
  32.9878553  11.3841673  43.9136493  32.9008553  12.0001673  44.3906493
  31.9158553   5.6891673  17.6164083  31.4748553   5.8071673  18.3594083
  31.6328553   4.9141673  17.3314083  31.8088553   5.5921673  17.6844083
  48.1908553   8.9901673  15.1314083  48.8918553   8.4711673  15.1274083
  47.6038553   8.5451673  14.6624083  48.2078553   8.8471673  15.0614083
  34.7978553   4.7441673  12.7954083  34.4058553   4.3731673  12.1094083
  34.7178553   4.1461673  13.4244083  34.7278553   4.6011673  12.7864083
  44.7178553   2.6161673  18.8364083  44.7978553   2.6201673  17.9674083
  44.1338553   1.9841673  18.9854083  44.6428553   2.5231673  18.7304083
  34.4248553   6.3851673  16.6954083  35.0328553   6.2151673  17.2984083
  33.6738553   6.2451673  17.1164083  34.4038553   6.3391673  16.8464083
  33.3158553   9.4761673  12.7724083  33.7828553   9.5601673  12.0404083
  33.7708553   8.8981673  13.2414083  33.4518553   9.4031673  12.7334083
  31.8558553   8.4241673  23.8714083  31.9848553   8.1441673  24.6874083
  31.2458553   7.8831673  23.5624083  31.7848553   8.3031673  23.9464083
  38.4298553   5.9491673  28.9384083  38.1938553   5.9461673  29.7784083
  37.6818553   5.8011673  28.5144083  38.2838553   5.9261673  28.9994083
  33.3018553   2.9451673  18.0734083  32.8398553   2.5531673  17.4464083
  34.0018553   2.4321673  18.1654083  33.3368553   2.8121673  17.9944083
  38.4118553   9.1411673  26.2014083  38.5498553   9.9011673  25.7944083
  39.2028553   8.7761673  26.2284083  38.5488553   9.2001673  26.1454083
  39.5068553   7.0261673  20.7064083  39.8548553   6.2271673  20.7364083
  40.1718553   7.5301673  20.4514083  39.6568553   6.9821673  20.6734083
  39.5638553   6.4751673  16.9174083  39.8948553   5.8311673  17.4034083
  39.8038553   6.2641673  16.1064083  39.6478553   6.3491673  16.8694083
  31.6678553  10.4161673  18.9864083  31.0758553  10.9741673  18.6734083
  32.0938553  10.1471673  18.2744083  31.6438553  10.4581673  18.8354083
  37.5078553   8.2601673  16.4664083  36.9288553   7.9851673  17.0584083
  38.1318553   7.6511673  16.4914083  37.5148553   8.1301673  16.5574083
  43.6508553  10.5481673  13.9884083  44.3778553  11.0201673  14.0904083
  43.8798553   9.7541673  14.2684083  43.7928553  10.5011673  14.0454083
  41.8188553  10.9401673  15.9784083  42.0328553  11.4671673  16.6404083
  42.5858553  10.7661673  15.5994083  41.9638553  10.9921673  16.0204083
  33.2128553   9.0861673  16.9174083  33.8688553   8.5111673  16.9324083
  33.6018553   9.8351673  16.6964083  33.3678553   9.1111673  16.8874083
  44.2578553  10.9501673  24.2834083  45.0018553  11.4061673  24.2734083
  44.1368553  10.7361673  23.4464083  44.3498553  10.9861673  24.1584083
  34.0308553   7.5731673  20.4174083  34.4538553   7.2171673  19.7434083
  34.3548553   7.1511673  21.1094083  34.1408553   7.4581673  20.4204083
  37.2618553  10.4251673  19.7134083  38.1058553  10.5291673  19.5184083
  36.9648553  11.2431673  19.7814083  37.3428553  10.5611673  19.6944083
  45.8318553  12.1351673  14.3884083  46.4968553  11.9871673  13.8434083
  46.1918553  12.0521673  15.1784083  45.9838553  12.1011673  14.4244083
  36.2598553  11.6441673  25.4534083  36.5518553  11.5771673  26.2734083
  35.6338553  11.0391673  25.4084083  36.2108553  11.5451673  25.5684083
  43.5118553   8.1351673  27.9874083  43.4778553   8.5171673  28.7714083
  44.3658553   8.0931673  27.8164083  43.6328553   8.1851673  28.0784083
  40.6498553   8.3321673  12.7374083  40.4688553   8.8771673  13.3944083
  41.4158553   8.6221673  12.4364083  40.7358553   8.4561673  12.7904083
  34.2528553   9.8061673  24.5754083  33.5548553   9.2981673  24.7014083
  34.5128553   9.6011673  23.7674083  34.1878553   9.7011673  24.4744083
  41.9638553  11.2991673  25.4854083  42.7318553  11.2191673  25.0794083
  41.3808553  11.1781673  24.8474083  41.9908553  11.2691673  25.3314083
  48.2408553  11.9021673  18.3864083  47.7858553  12.6191673  18.5874083
  47.6268553  11.3311673  18.1444083  48.0828553  11.9241673  18.3804083
  45.2378553   7.7471673  17.9304083  45.9388553   7.2651673  18.1194083
  44.5778553   7.1781673  17.9754083  45.2438553   7.5921673  17.9644083
  35.6138553   8.6571673  27.1424083  36.4548553   8.7201673  26.9204083
  35.5768553   9.0541673  27.9184083  35.7328553   8.7251673  27.2244083
  37.5768553   4.1681673  21.8914083  37.7488553   3.9581673  22.7204083
  36.9218553   3.6341673  21.6754083  37.5058553   4.0581673  21.9824083
  38.3268553   4.1061673  24.4814083  38.3798553   4.9531673  24.6834083
  38.0418553   3.7361673  25.2184083  38.2928553   4.1761673  24.6194083
  44.5038553   4.8011673  23.6114083  43.9898553   4.3891673  24.1824083
  44.3778553   5.6451673  23.7924083  44.4098553   4.8651673  23.7224083
  31.1478553   8.4771673  30.6924083  31.9038553   8.8261673  30.9504083
  31.3248553   7.6241673  30.6354083  31.2858553   8.4021673  30.7224083
  47.7568553   5.2401673  13.7384083  47.8758553   4.9531673  14.5534083
  48.5638553   5.2611673  13.4084083  47.8928553   5.2011673  13.8104083
  34.8928553   4.9721673  19.0694083  35.7438553   4.8921673  18.8964083
  34.5358553   4.2901673  18.6574083  34.9658553   4.8591673  18.9824083
  33.6598553  11.6971673  20.3064083  32.9868553  11.1991673  20.0614083
  34.0628553  11.8821673  19.5554083  33.6198553  11.6511673  20.1594083
  49.9908553   9.7491673  27.9924083  49.3088553  10.0591673  27.5454083
  49.6218553   9.2911673  28.6374083  49.8348553   9.7271673  28.0214083
  45.6518553   1.7771673  13.3234083  45.4318553   2.5081673  12.9014083
  45.2038553   1.8281673  14.0704083  45.5528553   1.8921673  13.3714083
  37.2608553   4.9791673  17.3044083  37.9738553   5.4741673  17.3944083
  37.4828553   4.4121673  16.6784083  37.3988553   4.9681673  17.2254083
  31.4168553   6.6221673  20.6244083  30.7498553   7.1101673  20.9004083
  32.0968553   7.1671673  20.6534083  31.4188553   6.7741673  20.6694083
  31.4828553   3.3061673  15.7274083  31.2978553   2.4671673  15.8794083
  32.1418553   3.2701673  15.1574083  31.5528553   3.1771673  15.6654083
  41.7838553   8.6821673  19.6314083  41.2608553   9.3161673  19.3384083
  42.0938553   8.3181673  18.9024083  41.7518553   8.7221673  19.4804083
  31.6548553   7.4701673  15.3024083  32.2068553   8.0391673  15.6664083
  31.4228553   6.9551673  15.9674083  31.7018553   7.4781673  15.4544083
  35.8588553   6.4701673  22.3914083  36.3258553   6.7591673  23.0694083
  36.4308553   5.9921673  21.9374083  36.0128553   6.4421673  22.4244083
  31.4848553   5.9191673  12.9304083  32.2408553   5.4871673  12.9884083
  31.4998553   6.4511673  13.6214083  31.5988553   5.9341673  13.0414083
  32.4248553   4.1401673  20.9354083  32.8558553   4.0111673  20.1884083
  32.2198553   4.9881673  20.9094083  32.4578553   4.2461673  20.8214083
  47.8248553  10.1311673  26.0824083  47.1538553  10.6451673  26.3004083
  47.8878553  10.2311673  25.2184083  47.7348553  10.2221673  25.9874083
  36.5088553   7.6561673  19.2174083  36.6348553   8.4991673  19.4044083
  37.1768553   7.2571673  19.6134083  36.6268553   7.7221673  19.3034083
  35.2908553   2.3661673  20.8184083  34.5098553   2.3071673  20.4354083
  35.3628553   1.6141673  21.2554083  35.1858553   2.2471673  20.8264083
  39.8208553  10.8801673  23.6784083  39.5438553  10.2391673  23.1554083
  39.6128553  11.6061673  23.2404083  39.7498553  10.8931673  23.5364083
  33.5198553   3.4581673  29.8454083  33.4828553   3.9591673  29.1314083
  33.8508553   2.7061673  29.5504083  33.5628553   3.4201673  29.6964083
  45.1228553   5.6631673  28.1034083  45.6068553   6.3811673  28.2014083
  45.5168553   5.2361673  27.4524083  45.2528553   5.7061673  28.0214083
  39.4188553   8.5081673  29.2804083  39.7728553   8.3301673  30.0574083
  38.9828553   7.7791673  29.0814083  39.4068553   8.3741673  29.3664083
  42.5798553   2.4241673  14.1924083  42.5718553   3.1461673  13.7024083
  41.9408553   2.5591673  14.7694083  42.4848553   2.5511673  14.2054083
  47.5518553   6.2941673  18.1734083  47.9078553   5.9441673  18.8884083
  47.5438553   5.6331673  17.6034083  47.6038553   6.1441673  18.1944083
  43.5968553   9.3601673  22.0174083  42.9938553   9.0641673  21.4604083
  44.1418553   9.8121673  21.5084083  43.5878553   9.3831673  21.8594083
  43.6098553   6.2111673  21.4174083  42.8128553   6.4351673  21.6914083
  43.8678553   5.6171673  22.0024083  43.5298553   6.1561673  21.5444083
  37.5018553  11.0231673  15.8654083  37.3548553  10.2471673  16.2364083
  38.1908553  10.8761673  15.3504083  37.5818553  10.8861673  15.8444083
  39.7938553  10.5391673  14.2674083  40.4158553  10.7021673  14.8574083
  39.8298553  11.2301673  13.7354083  39.8908553  10.6651673  14.2764083
  46.8698553   4.2091673  26.2634083  46.9248553   4.3341673  25.4014083
  47.6228553   4.5291673  26.5654083  46.9888553   4.2741673  26.1804083
  43.0608553   9.5581673  30.5404083  43.2248553   9.8411673  31.3494083
  43.3238553  10.2191673  30.0354083  43.1238553   9.6981673  30.5854083
  34.2948553   3.0731673  15.0964083  34.6188553   2.2941673  14.8744083
  34.9408553   3.4411673  15.5514083  34.4378553   3.0121673  15.1304083
  42.6008553   4.0151673  25.8634083  42.4458553   4.6251673  26.4674083
  43.1348553   3.4571673  26.2694083  42.6568553   4.0231673  26.0124083
  40.9848553   2.4151673  16.5214083  41.0438553   3.0651673  17.1004083
  40.7958553   1.7191673  17.0124083  40.9658553   2.4081673  16.6794083
  46.2108553   6.7441673  22.3904083  45.7318553   7.0421673  21.7244083
  45.8548553   5.9681673  22.5684083  46.0878553   6.6731673  22.3184083
  40.2078553   4.4621673  20.9524083  39.3608553   4.2681673  21.0334083
  40.5318553   4.2971673  21.7454083  40.1298553   4.4091673  21.0814083
  36.9598553  11.1921673  11.8384083  37.3988553  10.4951673  12.1264083
  37.1668553  11.8161673  12.4114083  37.0558553  11.1811673  11.9654083
  34.0558553   4.1551673  23.2684083  34.7778553   4.6431673  23.2314083
  33.7858553   4.1251673  22.4394083  34.1228553   4.2231673  23.1404083
  49.9028553  10.9101673  14.3304083  50.5968553  10.4431673  14.0824083
  49.3638553  10.3121673  14.6674083  49.9258553  10.7521673  14.3434083
  47.1418553   3.6861673  23.5094083  47.1348553   2.9101673  23.9074083
  46.3008553   3.9201673  23.5024083  47.0168553   3.6061673  23.5674083
  36.6318553   2.0981673  12.1444083  36.0218553   1.6931673  12.6184083
  36.2458553   2.2161673  11.3714083  36.4848553   2.0551673  12.1004083
  33.4508553   5.2071673  27.5464083  33.0298553   4.6891673  26.9854083
  33.0988553   5.9931673  27.4034083  33.3368553   5.2471673  27.4424083
  48.3978553   3.7571673  20.9464083  48.1118553   4.1581673  21.6664083
  49.2578553   3.6951673  21.0734083  48.4828553   3.8071673  21.0714083
  49.5288553   9.3901673  21.4754083  49.8188553   9.6471673  20.6944083
  50.2238553   9.4861673  21.9944083  49.6748553   9.4421673  21.4364083
  46.1338553   7.9931673  13.4574083  46.4678553   7.1871673  13.4924083
  45.3788553   7.9211673  13.8874083  46.0718553   7.8631673  13.5264083
  49.5178553   2.1111673  30.6624083  49.4658553   1.7701673  29.8614083
  50.2548553   2.5781673  30.6404083  49.6188553   2.1301673  30.5404083
  49.0558553   5.7871673  26.8684083  49.6838553   5.2381673  26.6124083
  48.9948553   6.3521673  26.2064083  49.1398553   5.7901673  26.7324083
  43.5078553   5.8681673  12.8604083  44.1918553   5.3541673  12.6914083
  43.0908553   5.9141673  12.0954083  43.5468553   5.7991673  12.7224083
  38.1898553   7.0181673  24.1644083  37.8918553   7.6101673  24.7314083
  38.2448553   7.4601673  23.4154083  38.1538553   7.1711673  24.1374083
  36.1688553   5.9681673  27.5624083  35.3628553   5.6781673  27.7294083
  36.0798553   6.8361673  27.5684083  36.0368553   6.0531673  27.5874083
  40.7058553   3.4411673  23.6554083  41.1818553   3.8151673  24.2834083
  39.8828553   3.5751673  23.9144083  40.6548553   3.5161673  23.7864083
  39.9698553  10.8341673  18.8834083  40.5158553  11.5131673  18.9374083
  39.6198553  10.9161673  18.0884083  39.9988553  10.9471673  18.7734083
  38.1528553   9.0621673  22.2724083  37.5288553   9.6441673  22.0904083
  38.4008553   8.7761673  21.4864083  38.0968553   9.1061673  22.1294083
  42.4618553   5.6961673  29.2614083  43.2188553   5.9821673  28.9354083
  41.9148553   5.7481673  28.5834083  42.4928553   5.7461673  29.1124083
  46.3708553   8.2461673  27.7654083  46.7168553   8.5161673  28.5194083
  46.6648553   8.8281673  27.1854083  46.4658553   8.3721673  27.7914083
  39.7468553   3.8381673  12.1874083  38.9418553   3.6611673  11.9024083
  39.7138553   4.6891673  12.3794083  39.6228553   3.9371673  12.1744083
  40.8058553  10.7111673  28.1524083  41.2838553  10.1111673  27.7364083
  40.4548553  10.2681673  28.8174083  40.8248553  10.5571673  28.1894083
  47.3938553   4.0181673  16.3334083  47.8698553   3.2891673  16.2854083
  46.5728553   3.7321673  16.2574083  47.3428553   3.8681673  16.3144083
  40.8648553   5.9301673  27.1724083  40.0698553   5.8661673  27.5234083
  40.9358553   6.7771673  26.9774083  40.7578553   6.0451673  27.1954083
  36.6948553  12.1371673  22.4894083  36.7058553  12.1961673  23.3594083
  36.2698553  11.3901673  22.3394083  36.6338553  12.0351673  22.5954083
  43.6098553   5.1851673  18.6884083  43.6858553   5.5261673  19.4874083
  43.7788553   4.3381673  18.8094083  43.6458553   5.1101673  18.8244083
  41.1318553   4.4591673  18.2534083  40.8338553   4.1441673  19.0104083
  41.8268553   4.9321673  18.4884083  41.1908553   4.4821673  18.4004083
  41.3538553   8.5771673  26.2804083  42.0408553   8.4631673  26.8054083
  41.4878553   9.3681673  25.9364083  41.4748553   8.6771673  26.3074083
  33.4588553  11.6351673  27.9314083  32.8048553  11.0661673  28.0294083
  33.0838553  12.4081673  28.0824083  33.3068553  11.6651673  27.9684083
  41.9768553   3.0411673  29.8544083  42.2998553   3.7271673  29.4224083
  41.2728553   3.3641673  30.2564083  41.9198553   3.1901673  29.8494083
  45.0608553  11.4151673  20.7834083  44.6098553  12.0581673  21.1624083
  45.7688553  11.3361673  21.2884083  45.0988553  11.4981673  20.9144083
  41.7618553   6.5051673  23.7134083  41.0678553   6.9071673  24.0564083
  42.4388553   6.9381673  24.0524083  41.7588553   6.6281673  23.8144083
  47.1388553   9.0981673  30.2934083  47.9148553   8.7081673  30.3764083
  46.6698553   8.7621673  30.9484083  47.1838553   8.9911673  30.4024083
  42.0838553   8.0961673  16.8824083  41.8788553   8.9291673  16.7234083
  41.3088553   7.7141673  17.0044083  41.9388553   8.1631673  16.8774083
  32.0018553   3.7171673  25.5594083  32.3218553   3.9361673  24.7784083
  31.9018553   2.8521673  25.5044083  32.0338553   3.6221673  25.4364083
  37.4458553   8.3581673  13.2914083  37.8868553   8.4381673  14.0394083
  36.6408553   8.1421673  13.5494083  37.3918553   8.3381673  13.4404083
  36.7648553   3.0091673  26.9444083  36.3688553   3.7831673  27.0194083
  36.3588553   2.6361673  26.2684083  36.6468553   3.0681673  26.8554083
  46.0408553   2.0631673  21.0584083  46.7068553   2.6041673  21.2184083
  45.6958553   2.3741673  20.3194083  46.0878553   2.1891673  20.9734083
  46.3538553  10.1291673  16.8654083  46.1798553   9.4751673  17.4154083
  47.0668553   9.8581673  16.4424083  46.4338553   9.9921673  16.8844083
  34.7748553   7.4281673  13.8924083  34.5308553   7.1211673  14.6724083
  34.7418553   6.7251673  13.3764083  34.7338553   7.2791673  13.9314083
  37.5938553   5.6731673  12.6354083  36.7758553   5.4051673  12.7754083
  37.5658553   6.5251673  12.8204083  37.4688553   5.7601673  12.6834083
  44.0288553   7.5821673  24.5564083  44.2348553   7.8831673  25.3484083
  43.9678553   8.3041673  24.0714083  44.0498553   7.7331673  24.6014083
  43.5628553  11.7961673  28.8024083  42.8098553  11.7781673  28.3614083
  43.7308553  12.6481673  28.8864083  43.4768553  11.9191673  28.7494083
  48.8408553   6.2211673  24.0144083  48.8088553   5.3591673  23.8794083
  48.1478553   6.5231673  23.5804083  48.7338553   6.1381673  23.9304083
  37.2348553  11.4191673  28.2204083  37.2758553  11.5451673  29.0834083
  37.8858553  10.8591673  28.0644083  37.3368553  11.3551673  28.3254083
  46.9458553   9.4811673  22.8114083  47.4728553   9.3981673  22.1204083
  46.5548553   8.7031673  22.8654083  46.9658553   9.3541673  22.7174083
  34.8278553   9.8021673  29.5804083  35.4228553  10.2331673  30.0524083
  34.4638553  10.4261673  29.0914083  34.8618553   9.9581673  29.5774083
  32.7548553   7.7911673  26.5094083  32.1808553   8.2071673  27.0184083
  33.4878553   8.2561673  26.6044083  32.7788553   7.9211673  26.5984083
  44.7888553   2.5641673  16.0744083  44.8568553   1.7141673  16.2554083
  43.9658553   2.6501673  15.7964083  44.6768553   2.4511673  16.0604083
  34.5408553  11.0581673  15.2844083  34.3958553  11.2141673  14.4384083
  35.4068553  11.1371673  15.3624083  34.6478553  11.0931673  15.1714083
  38.7078553   3.4551673  15.0124083  38.8078553   3.5941673  14.1574083
  39.5258553   3.3951673  15.3084083  38.8428553   3.4661673  14.9294083
  47.8678553  11.5191673  12.4924083  48.5048553  11.3851673  13.0734083
  47.5268553  10.7251673  12.3754083  47.9118553  11.3821673  12.5604083
  48.0628553   3.9371673  29.2254083  48.6968553   3.7671673  29.7994083
  48.4798553   4.3401673  28.5734083  48.2178553   3.9721673  29.2144083
  43.9428553   7.7841673  14.8144083  43.6918553   7.6561673  15.6404083
  43.6258553   7.0891673  14.3934083  43.8588553   7.6631673  14.8744083
  45.4738553   4.0481673  30.5804083  46.3448553   4.0121673  30.5444083
  45.2548553   4.4681673  29.8484083  45.5708553   4.1041673  30.4674083
  35.2278553   9.8731673  21.7614083  35.1488553   9.0631673  21.4454083
  34.7838553  10.3601673  21.1894083  35.1508553   9.8251673  21.6304083
  40.8288553   5.9921673  14.2444083  41.5458553   5.6451673  13.8884083
  40.7948553   6.7921673  13.8964083  40.9298553   6.0591673  14.1404083
  32.7998553  12.1171673  25.3424083  33.2928553  12.0611673  26.0604083
  32.9878553  11.3841673  24.9074083  32.9008553  12.0001673  25.3844083
  31.8558553   8.4241673   4.8651673  31.9848553   8.1441673   5.6811673
  31.2458553   7.8831673   4.5561673  31.7848553   8.3031673   4.9401673
  38.4298553   5.9491673   9.9321673  38.1938553   5.9461673  10.7721673
  37.6818553   5.8011673   9.5081673  38.2838553   5.9261673   9.9931673
  38.4118553   9.1411673   7.1951673  38.5498553   9.9011673   6.7881673
  39.2028553   8.7761673   7.2221673  38.5488553   9.2001673   7.1391673
  44.2578553  10.9501673   5.2771673  45.0018553  11.4061673   5.2671673
  44.1368553  10.7361673   4.4401673  44.3498553  10.9861673   5.1521673
  36.2598553  11.6441673   6.4471673  36.5518553  11.5771673   7.2671673
  35.6338553  11.0391673   6.4021673  36.2108553  11.5451673   6.5621673
  43.5118553   8.1351673   8.9811673  43.4778553   8.5171673   9.7651673
  44.3658553   8.0931673   8.8101673  43.6328553   8.1851673   9.0721673
  34.2528553   9.8061673   5.5691673  33.5548553   9.2981673   5.6951673
  34.5128553   9.6011673   4.7611673  34.1878553   9.7011673   5.4681673
  41.9638553  11.2991673   6.4791673  42.7318553  11.2191673   6.0731673
  41.3808553  11.1781673   5.8411673  41.9908553  11.2691673   6.3251673
  35.6138553   8.6571673   8.1361673  36.4548553   8.7201673   7.9141673
  35.5768553   9.0541673   8.9121673  35.7328553   8.7251673   8.2181673
  37.5768553   4.1681673   2.8851673  37.7488553   3.9581673   3.7141673
  36.9218553   3.6341673   2.6691673  37.5058553   4.0581673   2.9761673
  38.3268553   4.1061673   5.4751673  38.3798553   4.9531673   5.6771673
  38.0418553   3.7361673   6.2121673  38.2928553   4.1761673   5.6131673
  44.5038553   4.8011673   4.6051673  43.9898553   4.3891673   5.1761673
  44.3778553   5.6451673   4.7861673  44.4098553   4.8651673   4.7161673
  31.1478553   8.4771673  11.6861673  31.9038553   8.8261673  11.9441673
  31.3248553   7.6241673  11.6291673  31.2858553   8.4021673  11.7161673
  49.9908553   9.7491673   8.9861673  49.3088553  10.0591673   8.5391673
  49.6218553   9.2911673   9.6311673  49.8348553   9.7271673   9.0151673
  35.8588553   6.4701673   3.3851673  36.3258553   6.7591673   4.0631673
  36.4308553   5.9921673   2.9311673  36.0128553   6.4421673   3.4181673
  47.8248553  10.1311673   7.0761673  47.1538553  10.6451673   7.2941673
  47.8878553  10.2311673   6.2121673  47.7348553  10.2221673   6.9811673
  39.8208553  10.8801673   4.6721673  39.5438553  10.2391673   4.1491673
  39.6128553  11.6061673   4.2341673  39.7498553  10.8931673   4.5301673
  33.5198553   3.4581673  10.8391673  33.4828553   3.9591673  10.1251673
  33.8508553   2.7061673  10.5441673  33.5628553   3.4201673  10.6901673
  45.1228553   5.6631673   9.0971673  45.6068553   6.3811673   9.1951673
  45.5168553   5.2361673   8.4461673  45.2528553   5.7061673   9.0151673
  39.4188553   8.5081673  10.2741673  39.7728553   8.3301673  11.0511673
  38.9828553   7.7791673  10.0751673  39.4068553   8.3741673  10.3601673
  43.5968553   9.3601673   3.0111673  42.9938553   9.0641673   2.4541673
  44.1418553   9.8121673   2.5021673  43.5878553   9.3831673   2.8531673
  43.6098553   6.2111673   2.4111673  42.8128553   6.4351673   2.6851673
  43.8678553   5.6171673   2.9961673  43.5298553   6.1561673   2.5381673
  46.8698553   4.2091673   7.2571673  46.9248553   4.3341673   6.3951673
  47.6228553   4.5291673   7.5591673  46.9888553   4.2741673   7.1741673
  43.0608553   9.5581673  11.5341673  43.2248553   9.8411673  12.3431673
  43.3238553  10.2191673  11.0291673  43.1238553   9.6981673  11.5791673
  42.6008553   4.0151673   6.8571673  42.4458553   4.6251673   7.4611673
  43.1348553   3.4571673   7.2631673  42.6568553   4.0231673   7.0061673
  46.2108553   6.7441673   3.3841673  45.7318553   7.0421673   2.7181673
  45.8548553   5.9681673   3.5621673  46.0878553   6.6731673   3.3121673
  40.2078553   4.4621673   1.9461673  39.3608553   4.2681673   2.0271673
  40.5318553   4.2971673   2.7391673  40.1298553   4.4091673   2.0751673
  34.0558553   4.1551673   4.2621673  34.7778553   4.6431673   4.2251673
  33.7858553   4.1251673   3.4331673  34.1228553   4.2231673   4.1341673
  47.1418553   3.6861673   4.5031673  47.1348553   2.9101673   4.9011673
  46.3008553   3.9201673   4.4961673  47.0168553   3.6061673   4.5611673
  33.4508553   5.2071673   8.5401673  33.0298553   4.6891673   7.9791673
  33.0988553   5.9931673   8.3971673  33.3368553   5.2471673   8.4361673
  48.3978553   3.7571673   1.9401673  48.1118553   4.1581673   2.6601673
  49.2578553   3.6951673   2.0671673  48.4828553   3.8071673   2.0651673
  49.5288553   9.3901673   2.4691673  49.8188553   9.6471673   1.6881673
  50.2238553   9.4861673   2.9881673  49.6748553   9.4421673   2.4301673
  49.5178553   2.1111673  11.6561673  49.4658553   1.7701673  10.8551673
  50.2548553   2.5781673  11.6341673  49.6188553   2.1301673  11.5341673
  49.0558553   5.7871673   7.8621673  49.6838553   5.2381673   7.6061673
  48.9948553   6.3521673   7.2001673  49.1398553   5.7901673   7.7261673
  38.1898553   7.0181673   5.1581673  37.8918553   7.6101673   5.7251673
  38.2448553   7.4601673   4.4091673  38.1538553   7.1711673   5.1311673
  36.1688553   5.9681673   8.5561673  35.3628553   5.6781673   8.7231673
  36.0798553   6.8361673   8.5621673  36.0368553   6.0531673   8.5811673
  40.7058553   3.4411673   4.6491673  41.1818553   3.8151673   5.2771673
  39.8828553   3.5751673   4.9081673  40.6548553   3.5161673   4.7801673
  38.1528553   9.0621673   3.2661673  37.5288553   9.6441673   3.0841673
  38.4008553   8.7761673   2.4801673  38.0968553   9.1061673   3.1231673
  42.4618553   5.6961673  10.2551673  43.2188553   5.9821673   9.9291673
  41.9148553   5.7481673   9.5771673  42.4928553   5.7461673  10.1061673
  46.3708553   8.2461673   8.7591673  46.7168553   8.5161673   9.5131673
  46.6648553   8.8281673   8.1791673  46.4658553   8.3721673   8.7851673
  40.8058553  10.7111673   9.1461673  41.2838553  10.1111673   8.7301673
  40.4548553  10.2681673   9.8111673  40.8248553  10.5571673   9.1831673
  40.8648553   5.9301673   8.1661673  40.0698553   5.8661673   8.5171673
  40.9358553   6.7771673   7.9711673  40.7578553   6.0451673   8.1891673
  36.6948553  12.1371673   3.4831673  36.7058553  12.1961673   4.3531673
  36.2698553  11.3901673   3.3331673  36.6338553  12.0351673   3.5891673
  41.3538553   8.5771673   7.2741673  42.0408553   8.4631673   7.7991673
  41.4878553   9.3681673   6.9301673  41.4748553   8.6771673   7.3011673
  33.4588553  11.6351673   8.9251673  32.8048553  11.0661673   9.0231673
  33.0838553  12.4081673   9.0761673  33.3068553  11.6651673   8.9621673
  41.9768553   3.0411673  10.8481673  42.2998553   3.7271673  10.4161673
  41.2728553   3.3641673  11.2501673  41.9198553   3.1901673  10.8431673
  45.0608553  11.4151673   1.7771673  44.6098553  12.0581673   2.1561673
  45.7688553  11.3361673   2.2821673  45.0988553  11.4981673   1.9081673
  41.7618553   6.5051673   4.7071673  41.0678553   6.9071673   5.0501673
  42.4388553   6.9381673   5.0461673  41.7588553   6.6281673   4.8081673
  47.1388553   9.0981673  11.2871673  47.9148553   8.7081673  11.3701673
  46.6698553   8.7621673  11.9421673  47.1838553   8.9911673  11.3961673
  32.0018553   3.7171673   6.5531673  32.3218553   3.9361673   5.7721673
  31.9018553   2.8521673   6.4981673  32.0338553   3.6221673   6.4301673
  36.7648553   3.0091673   7.9381673  36.3688553   3.7831673   8.0131673
  36.3588553   2.6361673   7.2621673  36.6468553   3.0681673   7.8491673
  44.0288553   7.5821673   5.5501673  44.2348553   7.8831673   6.3421673
  43.9678553   8.3041673   5.0651673  44.0498553   7.7331673   5.5951673
  43.5628553  11.7961673   9.7961673  42.8098553  11.7781673   9.3551673
  43.7308553  12.6481673   9.8801673  43.4768553  11.9191673   9.7431673
  48.8408553   6.2211673   5.0081673  48.8088553   5.3591673   4.8731673
  48.1478553   6.5231673   4.5741673  48.7338553   6.1381673   4.9241673
  37.2348553  11.4191673   9.2141673  37.2758553  11.5451673  10.0771673
  37.8858553  10.8591673   9.0581673  37.3368553  11.3551673   9.3191673
  46.9458553   9.4811673   3.8051673  47.4728553   9.3981673   3.1141673
  46.5548553   8.7031673   3.8591673  46.9658553   9.3541673   3.7111673
  34.8278553   9.8021673  10.5741673  35.4228553  10.2331673  11.0461673
  34.4638553  10.4261673  10.0851673  34.8618553   9.9581673  10.5711673
  32.7548553   7.7911673   7.5031673  32.1808553   8.2071673   8.0121673
  33.4878553   8.2561673   7.5981673  32.7788553   7.9211673   7.5921673
  48.0628553   3.9371673  10.2191673  48.6968553   3.7671673  10.7931673
  48.4798553   4.3401673   9.5671673  48.2178553   3.9721673  10.2081673
  45.4738553   4.0481673  11.5741673  46.3448553   4.0121673  11.5381673
  45.2548553   4.4681673  10.8421673  45.5708553   4.1041673  11.4611673
  35.2278553   9.8731673   2.7551673  35.1488553   9.0631673   2.4391673
  34.7838553  10.3601673   2.1831673  35.1508553   9.8251673   2.6241673
  32.7998553  12.1171673   6.3361673  33.2928553  12.0611673   7.0541673
  32.9878553  11.3841673   5.9011673  32.9008553  12.0001673   6.3781673
  23.3730113  68.5455993  74.5081313  23.1280113  69.0335993  73.8281313
  24.2360113  68.4725993  74.4081313  23.4640113  68.6065993  74.3931313
  12.7940113  73.3935993  71.1421313  12.0160113  73.5555993  70.7821313
  12.8330113  72.5225993  71.1641313  12.6850113  73.2885993  71.0921313
  15.9330113  78.6565993  69.8141313  15.5410113  78.2855993  69.1281313
  15.8530113  78.0585993  70.4431313  15.8630113  78.5135993  69.8051313
  25.8530113  76.5285993  75.8551313  25.9330113  76.5325993  74.9861313
  25.2690113  75.8965993  76.0041313  25.7780113  76.4355993  75.7491313
  19.8420113  69.6325993  73.6631313  19.7720113  70.3095993  73.1171313
  20.5830113  69.2445993  73.4141313  19.9410113  69.6755993  73.5451313
  14.4370113  76.8575993  75.0921313  13.9750113  76.4655993  74.4651313
  15.1370113  76.3445993  75.1841313  14.4720113  76.7245993  75.0131313
  16.4380113  74.9575993  75.1151313  17.2550113  74.7705993  75.3581313
  15.9610113  74.3435993  75.5111313  16.4880113  74.8395993  75.2101313
  17.0350113  70.0515993  74.3811313  16.7390113  70.5525993  73.7311313
  17.9020113  70.1295993  74.3241313  17.1190113  70.1375993  74.2771313
  20.0140113  69.1935993  76.6041313  20.0870113  70.0535993  76.7331313
  19.9760113  69.1185993  75.7361313  20.0190113  69.3095993  76.4951313
  24.6870113  72.1195993  68.9031313  24.2370113  72.8005993  69.2101313
  24.8010113  71.6155993  69.6061313  24.6380113  72.1455993  69.0521313
  12.8930113  74.6185993  78.1051313  12.6370113  75.4495993  78.0301313
  12.2290113  74.2355993  78.5221313  12.7570113  74.6845993  78.1561313
  30.0810113  72.0925993  75.1981313  29.7350113  72.7705993  75.6241313
  29.4450113  71.4945993  75.2141313  29.9360113  72.1045993  75.2631313
  22.2040113  73.7345993  74.8191313  22.4910113  73.5025993  74.0291313
  22.9360113  73.8135993  75.2881313  22.3540113  73.7115993  74.7721313
  22.9260113  74.0735993  69.9401313  23.2070113  74.8615993  70.1891313
  22.1500113  74.2385993  69.5771313  22.8530113  74.2145993  69.9231313
  25.2920113  70.1405993  70.8101313  25.8320113  69.4585993  70.8861313
  25.3540113  70.5385993  71.5841313  25.3810113  70.0985993  70.9361313
  13.2460113  71.3085993  73.3791313  13.1320113  70.4445993  73.4101313
  12.7710113  71.6025993  74.0491313  13.1590113  71.2245993  73.4821313
  22.5500113  72.5165993  72.1241313  22.0420113  71.8545993  71.8701313
  22.6020113  73.0205993  71.4141313  22.4830113  72.4935993  71.9821313
  22.5500113  69.4575993  72.0151313  22.0950113  69.0555993  71.3891313
  23.3230113  69.6125993  71.6401313  22.5970113  69.4215993  71.8671313
  21.1480113  71.8245993  76.5371313  21.2220113  72.3925993  75.8791313
  21.2690113  72.3165993  77.2471313  21.1760113  71.9815993  76.5451313
  15.7560113  67.6475993  74.8851313  16.2920113  68.3355993  74.8751313
  15.7590113  67.3735993  74.0571313  15.8350113  67.7085993  74.7611313
  26.1960113  67.9385993  75.2611313  26.2450113  67.6205993  76.0721313
  26.5190113  67.2945993  74.7681313  26.2510113  67.7965993  75.3081313
  16.2040113  71.4575993  76.5391313  16.4760113  71.0275993  75.8311313
  16.0280113  70.8215993  77.1101313  16.2180113  71.3005993  76.5191313
  26.7870113  75.6895993  70.3421313  26.5670113  76.4205993  69.9201313
  26.3390113  75.7405993  71.0891313  26.6880113  75.8045993  70.3901313
  30.9740113  70.5505993  69.7951313  30.3120113  69.9825993  69.8181313
  30.7810113  71.0625993  69.1151313  30.8480113  70.5425993  69.6981313
  12.6180113  77.2185993  72.7461313  12.4330113  76.3795993  72.8981313
  13.2770113  77.1825993  72.1761313  12.6880113  77.0895993  72.6841313
  28.9760113  70.1085993  72.0741313  29.7220113  69.7015993  72.2731313
  29.2390113  70.8235993  71.6491313  29.1250113  70.1545993  72.0411313
  25.4300113  72.3965993  77.1471313  25.7740113  72.5485993  77.9341313
  24.9770113  71.6585993  77.2601313  25.4140113  72.3095993  77.2801313
  19.9060113  71.6165993  71.6041313  19.9040113  71.4995993  70.7391313
  19.7250113  72.4645993  71.6961313  19.8790113  71.7245993  71.4901313
  16.2590113  74.4485993  71.2381313  16.1310113  74.0005993  71.9761313
  15.6770113  74.1065993  70.6861313  16.1540113  74.3315993  71.2661313
  16.4260113  76.2785993  77.8371313  15.6450113  76.2195993  77.4541313
  16.4980113  75.5265993  78.2741313  16.3210113  76.1595993  77.8451313
  24.9440113  71.6975993  73.2121313  25.4340113  72.4145993  73.1351313
  24.1540113  71.9585993  72.9491313  24.9000113  71.8415993  73.1621313
  23.7150113  76.3365993  71.2111313  23.7070113  77.0585993  70.7211313
  23.0760113  76.4715993  71.7881313  23.6200113  76.4635993  71.2241313
  18.3080113  68.6785993  70.8721313  18.4050113  68.5715993  71.7331313
  17.6000113  69.1845993  70.8071313  18.2180113  68.7375993  70.9901313
  15.4300113  76.9855993  72.1151313  15.7540113  76.2065993  71.8931313
  16.0760113  77.3535993  72.5701313  15.5730113  76.9245993  72.1491313
  12.4270113  68.6465993  73.0831313  12.5560113  67.9385993  72.5911313
  12.0600113  68.3285993  73.8081313  12.3920113  68.4945993  73.1181313
  22.1200113  76.3275993  73.5401313  22.1790113  76.9775993  74.1191313
  21.9310113  75.6315993  74.0311313  22.1010113  76.3205993  73.6981313
  16.6160113  70.8445993  70.0521313  16.1050113  70.8975993  69.3461313
  17.4000113  71.0845993  69.7561313  16.6560113  70.8875993  69.9041313
  21.3430113  78.3745993  77.9711313  20.4960113  78.1805993  78.0521313
  21.6670113  78.2095993  78.7641313  21.2650113  78.3215993  78.1001313
  18.4210113  73.2385993  77.0221313  19.2670113  73.0485993  77.1201313
  18.0510113  72.4615993  76.8841313  18.4910113  73.0955993  77.0161313
  13.2420113  74.5765993  73.6771313  13.7310113  74.2845993  74.3381313
  13.3710113  73.9835993  73.0501313  13.3330113  74.4455993  73.6821313
  17.7670113  76.0105993  69.1631313  17.1570113  75.6055993  69.6371313
  17.3810113  76.1285993  68.3901313  17.6200113  75.9675993  69.1191313
  29.5330113  77.6695993  77.9651313  29.2470113  78.0705993  78.6851313
  30.3930113  77.6075993  78.0921313  29.6180113  77.7195993  78.0901313
  19.2220113  74.4715993  71.8731313  19.4940113  75.2975993  71.9401313
  18.3590113  74.5465993  71.7771313  19.1350113  74.6045993  71.8681313
  12.7020113  70.4415993  78.4091313  12.7460113  70.7855993  77.6081313
  13.4570113  70.6785993  78.7761313  12.8200113  70.5275993  78.3451313
  27.7510113  73.7395993  76.1351313  27.0060113  73.4165993  76.4531313
  27.7530113  74.5655993  76.4151313  27.6410113  73.8135993  76.2231313
  29.3690113  74.3045993  70.1231313  29.7470113  74.9815993  69.7231313
  28.5270113  74.5285993  70.1541313  29.3000113  74.4375993  70.0681313
  20.8820113  77.7505993  69.2061313  20.0770113  77.5735993  68.9211313
  20.8490113  78.6015993  69.3981313  20.7580113  77.8495993  69.1931313
  27.0640113  73.9035993  73.4981313  27.2710113  73.7025993  74.3221313
  27.8200113  74.1715993  73.1561313  27.2060113  73.9135993  73.5691313
  28.0860113  69.9865993  74.9721313  27.3720113  69.5155993  75.1431313
  27.9240113  70.3275993  74.1861313  27.9570113  69.9675993  74.8811313
  28.5290113  77.9305993  73.3521313  29.0050113  77.2015993  73.3041313
  27.7080113  77.6445993  73.2761313  28.4780113  77.7805993  73.3331313
  15.9880113  71.9445993  72.6631313  16.1140113  71.6155993  71.8651313
  15.1760113  71.6955993  72.8621313  15.8870113  71.8595993  72.5751313
  29.2990113  75.0435993  72.7941313  29.4020113  74.9855993  71.9301313
  30.0400113  74.7115993  73.1121313  29.4240113  74.9865993  72.7131313
  14.5930113  73.5655993  69.1961313  13.9210113  73.5795993  69.7521313
  14.6880113  72.7175993  69.0121313  14.5080113  73.4425993  69.2511313
  23.2740113  70.1795993  76.7861313  22.5740113  70.6975993  76.7301313
  23.3120113  69.7995993  76.0021313  23.1760113  70.2005993  76.6621313
  27.1760113  75.9755993  78.0771313  27.8420113  76.5165993  78.2371313
  26.8310113  76.2865993  77.3381313  27.2230113  76.1015993  77.9921313
  20.7310113  68.2275993  69.6181313  20.8090113  68.4745993  68.7851313
  19.9880113  68.6045993  69.8761313  20.6330113  68.3195993  69.5331313
  23.9540113  74.6455993  76.5311313  24.5050113  74.0385993  76.8311313
  23.5290113  74.9085993  77.2461313  23.9730113  74.5945993  76.6801313
  14.2020113  73.2955993  76.0171313  13.8340113  73.5975993  76.7481313
  14.7360113  72.6665993  76.3011313  14.2260113  73.2475993  76.1671313
  25.9240113  76.4765993  73.0931313  25.9920113  75.6265993  73.2741313
  25.1010113  76.5625993  72.8151313  25.8120113  76.3635993  73.0791313
  19.8430113  77.3675993  72.0311313  19.9430113  77.5065993  71.1761313
  20.6610113  77.3075993  72.3271313  19.9780113  77.3785993  71.9481313
  23.3730113  68.5455993  55.5018903  23.1280113  69.0335993  54.8218903
  24.2360113  68.4725993  55.4018903  23.4640113  68.6065993  55.3868903
  23.1820113  75.4615993  60.1728903  22.6580113  76.0575993  60.5358903
  23.5790113  75.0935993  60.8568903  23.1630113  75.4955993  60.3278903
  12.7940113  73.3935993  52.1358903  12.0160113  73.5555993  51.7758903
  12.8330113  72.5225993  52.1578903  12.6850113  73.2885993  52.0858903
  15.9330113  78.6565993  50.8078903  15.5410113  78.2855993  50.1218903
  15.8530113  78.0585993  51.4368903  15.8630113  78.5135993  50.7988903
  25.8530113  76.5285993  56.8488903  25.9330113  76.5325993  55.9798903
  25.2690113  75.8965993  56.9978903  25.7780113  76.4355993  56.7428903
  19.8420113  69.6325993  54.6568903  19.7720113  70.3095993  54.1108903
  20.5830113  69.2445993  54.4078903  19.9410113  69.6755993  54.5388903
  14.4370113  76.8575993  56.0858903  13.9750113  76.4655993  55.4588903
  15.1370113  76.3445993  56.1778903  14.4720113  76.7245993  56.0068903
  18.9450113  72.4675993  61.4328903  19.6230113  72.4855993  60.8838903
  18.9000113  71.6315993  61.6778903  19.0380113  72.3465993  61.3878903
  16.4380113  74.9575993  56.1088903  17.2550113  74.7705993  56.3518903
  15.9610113  74.3435993  56.5048903  16.4880113  74.8395993  56.2038903
  22.6670113  74.5185993  66.2688903  21.8190113  74.4195993  66.0908903
  22.6960113  75.2635993  66.7228903  22.5460113  74.6145993  66.3098903
  17.0350113  70.0515993  55.3748903  16.7390113  70.5525993  54.7248903
  17.9020113  70.1295993  55.3178903  17.1190113  70.1375993  55.2708903
  27.2250113  67.4785993  65.3828903  27.0670113  68.2475993  65.0008903
  26.4530113  67.2585993  65.7268903  27.0870113  67.5595993  65.3778903
  20.0140113  69.1935993  57.5978903  20.0870113  70.0535993  57.7268903
  19.9760113  69.1185993  56.7298903  20.0190113  69.3095993  57.4888903
  24.6870113  72.1195993  49.8968903  24.2370113  72.8005993  50.2038903
  24.8010113  71.6155993  50.5998903  24.6380113  72.1455993  50.0458903
  12.8930113  74.6185993  59.0988903  12.6370113  75.4495993  59.0238903
  12.2290113  74.2355993  59.5158903  12.7570113  74.6845993  59.1498903
  15.9220113  69.4355993  59.5898903  15.4010113  68.8075993  59.2818903
  16.5130113  68.9985993  60.0608903  15.9330113  69.2775993  59.6138903
  19.2280113  71.5685993  68.8878903  19.3450113  71.1145993  68.1518903
  19.5160113  72.3665993  68.6848903  19.2880113  71.6195993  68.7488903
  30.0810113  72.0925993  56.1918903  29.7350113  72.7705993  56.6178903
  29.4450113  71.4945993  56.2078903  29.9360113  72.1045993  56.2568903
  14.9610113  71.1655993  67.8718903  14.1830113  70.7755993  67.7998903
  15.4520113  70.7535993  67.2808903  14.9180113  71.0465993  67.7738903
  21.6100113  68.8085993  67.0398903  21.7880113  67.9995993  66.7648903
  21.4670113  69.2495993  66.3008903  21.6150113  68.7545993  66.8898903
  22.2040113  73.7345993  55.8128903  22.4910113  73.5025993  55.0228903
  22.9360113  73.8135993  56.2818903  22.3540113  73.7115993  55.7658903
  22.9260113  74.0735993  50.9338903  23.2070113  74.8615993  51.1828903
  22.1500113  74.2385993  50.5708903  22.8530113  74.2145993  50.9168903
  29.7560113  70.4155993  61.5608903  30.5130113  70.4875993  61.1328903
  29.8190113  69.6425993  61.9598903  29.8770113  70.3125993  61.5558903
  12.3090113  71.7135993  65.4578903  12.3050113  72.3005993  66.1038903
  12.9030113  72.0255993  64.9008903  12.3960113  71.8465993  65.4708903
  25.2920113  70.1405993  51.8038903  25.8320113  69.4585993  51.8798903
  25.3540113  70.5385993  52.5778903  25.3810113  70.0985993  51.9298903
  13.2460113  71.3085993  54.3728903  13.1320113  70.4445993  54.4038903
  12.7710113  71.6025993  55.0428903  13.1590113  71.2245993  54.4758903
  22.5500113  72.5165993  53.1178903  22.0420113  71.8545993  52.8638903
  22.6020113  73.0205993  52.4078903  22.4830113  72.4935993  52.9758903
  22.5500113  69.4575993  53.0088903  22.0950113  69.0555993  52.3828903
  23.3230113  69.6125993  52.6338903  22.5970113  69.4215993  52.8608903
  21.1480113  71.8245993  57.5308903  21.2220113  72.3925993  56.8728903
  21.2690113  72.3165993  58.2408903  21.1760113  71.9815993  57.5388903
  15.7560113  67.6475993  55.8788903  16.2920113  68.3355993  55.8688903
  15.7590113  67.3735993  55.0508903  15.8350113  67.7085993  55.7548903
  18.7120113  78.0805993  59.9038903  18.8840113  77.8705993  60.7328903
  18.0570113  77.5465993  59.6878903  18.6410113  77.9705993  59.9948903
  24.9400113  71.9945993  63.4188903  24.8450113  72.3135993  64.2248903
  24.3470113  71.3555993  63.3808903  24.8380113  71.9465993  63.5328903
  26.1960113  67.9385993  56.2548903  26.2450113  67.6205993  57.0658903
  26.5190113  67.2945993  55.7618903  26.2510113  67.7965993  56.3018903
  28.6600113  72.1745993  64.5628903  29.4320113  71.9495993  64.8998903
  28.1850113  72.3915993  65.2628903  28.7040113  72.1735993  64.7158903
  16.2040113  71.4575993  57.5328903  16.4760113  71.0275993  56.8248903
  16.0280113  70.8215993  58.1038903  16.2180113  71.3005993  57.5128903
  14.3450113  72.5595993  60.6148903  15.1880113  72.7795993  60.5718903
  13.9560113  73.1325993  60.0838903  14.4120113  72.6765993  60.5298903
  26.7870113  75.6895993  51.3358903  26.5670113  76.4205993  50.9138903
  26.3390113  75.7405993  52.0828903  26.6880113  75.8045993  51.3838903
  30.9740113  70.5505993  50.7888903  30.3120113  69.9825993  50.8118903
  30.7810113  71.0625993  50.1088903  30.8480113  70.5425993  50.6918903
  20.1990113  74.2445993  68.7328903  19.7150113  74.8215993  69.1748903
  20.1710113  74.5395993  67.9118903  20.1230113  74.3735993  68.6768903
  31.2970113  74.9285993  63.3448903  31.5120113  74.1285993  63.0688903
  30.4470113  74.9885993  63.1558903  31.2030113  74.8195993  63.2758903
  12.6180113  77.2185993  53.7398903  12.4330113  76.3795993  53.8918903
  13.2770113  77.1825993  53.1698903  12.6880113  77.0895993  53.6778903
  28.9760113  70.1085993  53.0678903  29.7220113  69.7015993  53.2668903
  29.2390113  70.8235993  52.6428903  29.1250113  70.1545993  53.0348903
  25.4300113  72.3965993  58.1408903  25.7740113  72.5485993  58.9278903
  24.9770113  71.6585993  58.2538903  25.4140113  72.3095993  58.2738903
  19.9060113  71.6165993  52.5978903  19.9040113  71.4995993  51.7328903
  19.7250113  72.4645993  52.6898903  19.8790113  71.7245993  52.4838903
  15.7740113  75.0515993  67.0918903  15.2380113  74.5455993  67.5598903
  15.7940113  74.6615993  66.3118903  15.6970113  74.9185993  67.0458903
  16.2590113  74.4485993  52.2318903  16.1310113  74.0005993  52.9698903
  15.6770113  74.1065993  51.6798903  16.1540113  74.3315993  52.2598903
  16.4260113  76.2785993  58.8308903  15.6450113  76.2195993  58.4478903
  16.4980113  75.5265993  59.2678903  16.3210113  76.1595993  58.8388903
  16.8560113  76.0155993  62.2988903  16.8810113  75.3405993  61.7478903
  16.2100113  76.5115993  61.9868903  16.7650113  75.9885993  62.1718903
  26.7510113  73.7285993  60.6948903  26.0890113  74.0565993  61.1578903
  26.9380113  74.3625993  60.1258903  26.6810113  73.8705993  60.6788903
  23.3960113  69.6345993  64.1238903  23.5450113  68.8095993  63.8808903
  23.7750113  69.6895993  64.9078903  23.4740113  69.5205993  64.2038903
  24.9440113  71.6975993  54.2058903  25.4340113  72.4145993  54.1288903
  24.1540113  71.9585993  53.9428903  24.9000113  71.8415993  54.1558903
  14.6550113  77.3705993  67.8578903  14.6180113  77.8715993  67.1438903
  14.9860113  76.6185993  67.5628903  14.6980113  77.3325993  67.7088903
  21.5260113  73.1675993  59.9308903  22.0060113  73.8665993  60.1388903
  21.8990113  72.5205993  60.3818903  21.6520113  73.1755993  60.0278903
  23.7150113  76.3365993  52.2048903  23.7070113  77.0585993  51.7148903
  23.0760113  76.4715993  52.7818903  23.6200113  76.4635993  52.2178903
  18.3080113  68.6785993  51.8658903  18.4050113  68.5715993  52.7268903
  17.6000113  69.1845993  51.8008903  18.2180113  68.7375993  51.9838903
  28.0050113  78.1215993  64.2758903  28.0600113  78.2465993  63.4138903
  28.7580113  78.4415993  64.5778903  28.1240113  78.1865993  64.1928903
  29.0370113  68.4195993  67.2628903  28.4000113  68.0195993  66.8208903
  29.0630113  67.9885993  68.0208903  28.9470113  68.2975993  67.3088903
  15.4300113  76.9855993  53.1088903  15.7540113  76.2065993  52.8868903
  16.0760113  77.3535993  53.5638903  15.5730113  76.9245993  53.1428903
  23.7360113  77.9275993  63.8758903  23.5810113  78.5375993  64.4798903
  24.2700113  77.3695993  64.2818903  23.7920113  77.9355993  64.0248903
  12.4270113  68.6465993  54.0768903  12.5560113  67.9385993  53.5848903
  12.0600113  68.3285993  54.8018903  12.3920113  68.4945993  54.1118903
  22.1200113  76.3275993  54.5338903  22.1790113  76.9775993  55.1128903
  21.9310113  75.6315993  55.0248903  22.1010113  76.3205993  54.6918903
  16.6160113  70.8445993  51.0458903  16.1050113  70.8975993  50.3398903
  17.4000113  71.0845993  50.7498903  16.6560113  70.8875993  50.8978903
  21.3430113  78.3745993  58.9648903  20.4960113  78.1805993  59.0458903
  21.6670113  78.2095993  59.7578903  21.2650113  78.3215993  59.0938903
  15.1910113  78.0675993  61.2808903  15.9130113  78.5555993  61.2438903
  14.9210113  78.0375993  60.4518903  15.2580113  78.1355993  61.1528903
  18.4210113  73.2385993  58.0158903  19.2670113  73.0485993  58.1138903
  18.0510113  72.4615993  57.8778903  18.4910113  73.0955993  58.0098903
  13.2420113  74.5765993  54.6708903  13.7310113  74.2845993  55.3318903
  13.3710113  73.9835993  54.0438903  13.3330113  74.4455993  54.6758903
  28.2770113  77.5985993  61.5218903  28.2700113  76.8225993  61.9198903
  27.4360113  77.8325993  61.5148903  28.1520113  77.5185993  61.5798903
  17.7670113  76.0105993  50.1568903  17.1570113  75.6055993  50.6308903
  17.3810113  76.1285993  49.3838903  17.6200113  75.9675993  50.1128903
  29.5330113  77.6695993  58.9588903  29.2470113  78.0705993  59.6788903
  30.3930113  77.6075993  59.0858903  29.6180113  77.7195993  59.0838903
  19.2220113  74.4715993  52.8668903  19.4940113  75.2975993  52.9338903
  18.3590113  74.5465993  52.7708903  19.1350113  74.6045993  52.8618903
  27.1950113  71.5935993  67.4988903  26.6700113  72.0525993  68.0228903
  26.8340113  70.7985993  67.4928903  27.0640113  71.5435993  67.5748903
  12.7020113  70.4415993  59.4028903  12.7460113  70.7855993  58.6018903
  13.4570113  70.6785993  59.7698903  12.8200113  70.5275993  59.3388903
  25.6870113  75.1625993  67.5748903  25.7600113  75.2665993  68.4378903
  25.0530113  75.7205993  67.3538903  25.6040113  75.2605993  67.6698903
  27.9550113  75.4815993  65.9398903  28.2740113  76.2675993  66.1428903
  27.5850113  75.2115993  66.6828903  27.9480113  75.5575993  66.0798903
  27.7510113  73.7395993  57.1288903  27.0060113  73.4165993  57.4468903
  27.7530113  74.5655993  57.4088903  27.6410113  73.8135993  57.2168903
  30.6530113  76.0235993  68.6748903  30.6010113  75.6825993  67.8738903
  31.3900113  76.4905993  68.6528903  30.7540113  76.0425993  68.5528903
  26.6630113  70.0695993  64.5898903  27.4070113  70.5215993  64.5268903
  26.0970113  70.5395993  64.1208903  26.6900113  70.2065993  64.5118903
  21.8410113  77.3535993  61.6678903  22.3170113  77.7275993  62.2958903
  21.0180113  77.4875993  61.9268903  21.7900113  77.4285993  61.7988903
  18.5510113  72.9565993  64.4088903  18.7120113  72.2125993  64.8358903
  18.5060113  72.7075993  63.5738903  18.5680113  72.8095993  64.3488903
  27.9480113  68.0495993  62.2598903  27.6680113  68.8745993  62.2158903
  28.6640113  68.1025993  62.7558903  28.0130113  68.1795993  62.3268903
  20.3030113  68.7645993  64.2888903  21.0080113  69.0845993  63.8868903
  20.5440113  67.9575993  64.5158903  20.4420113  68.6925993  64.2628903
  29.3690113  74.3045993  51.1168903  29.7470113  74.9815993  50.7168903
  28.5270113  74.5285993  51.1478903  29.3000113  74.4375993  51.0618903
  20.8820113  77.7505993  50.1998903  20.0770113  77.5735993  49.9148903
  20.8490113  78.6015993  50.3918903  20.7580113  77.8495993  50.1868903
  16.8120113  73.8175993  60.3498903  17.2520113  73.7145993  59.6038903
  17.3570113  73.5045993  60.9548903  16.9570113  73.7565993  60.3288903
  24.8280113  72.9195993  65.9418903  24.1800113  73.3895993  66.2898903
  25.3930113  72.8305993  66.6008903  24.8160113  72.9755993  66.0908903
  24.5160113  74.4565993  62.2398903  24.8180113  74.8765993  62.9428903
  24.5520113  73.6165993  62.4718903  24.5660113  74.3945993  62.3778903
  27.0640113  73.9035993  54.4918903  27.2710113  73.7025993  55.3158903
  27.8200113  74.1715993  54.1498903  27.2060113  73.9135993  54.5628903
  20.3590113  68.8025993  60.3968903  19.5330113  68.6535993  60.6338903
  20.3190113  68.8375993  59.5258903  20.2310113  68.7855993  60.3028903
  28.0860113  69.9865993  55.9658903  27.3720113  69.5155993  56.1368903
  27.9240113  70.3275993  55.1798903  27.9570113  69.9675993  55.8748903
  28.5290113  77.9305993  54.3458903  29.0050113  77.2015993  54.2978903
  27.7080113  77.6445993  54.2698903  28.4780113  77.7805993  54.3268903
  12.9240113  69.2005993  66.4318903  12.7840113  69.9955993  66.1008903
  12.1380113  68.9575993  66.7208903  12.7870113  69.2825993  66.4258903
  15.9880113  71.9445993  53.6568903  16.1140113  71.6155993  52.8588903
  15.1760113  71.6955993  53.8558903  15.8870113  71.8595993  53.5688903
  30.6650113  75.0985993  66.1038903  29.8100113  74.9765993  66.2298903
  30.8180113  74.7035993  65.3408903  30.5610113  75.0215993  66.0098903
  25.1780113  75.7635993  64.6798903  24.9230113  75.0445993  65.1018903
  25.9990113  75.8795993  64.9498903  25.2620113  75.6745993  64.7818903
  23.1120113  76.9535993  67.8668903  23.4350113  77.6395993  67.4348903
  22.4080113  77.2765993  68.2688903  23.0550113  77.1025993  67.8618903
  15.9650113  73.9555993  64.0728903  16.3400113  74.5745993  63.5858903
  16.6390113  73.4815993  64.3578903  16.1200113  73.9775993  64.0428903
  13.7400113  72.4035993  63.3478903  13.8170113  72.2345993  62.4948903
  14.4860113  72.8095993  63.5448903  13.8610113  72.4385993  63.2508903
  29.2990113  75.0435993  53.7878903  29.4020113  74.9855993  52.9238903
  30.0400113  74.7115993  54.1058903  29.4240113  74.9865993  53.7068903
  16.2940113  69.8135993  65.7588903  16.2130113  68.9695993  65.9648903
  15.9800113  69.8575993  64.9458903  16.2360113  69.6955993  65.6688903
  28.4010113  75.1895993  63.1438903  28.3990113  74.3265993  63.2678903
  28.4680113  75.5135993  63.9508903  28.4110113  75.1095993  63.2808903
  13.1370113  77.6295993  63.5718903  13.4570113  77.8485993  62.7908903
  13.0370113  76.7645993  63.5168903  13.1690113  77.5345993  63.4488903
  14.5930113  73.5655993  50.1898903  13.9210113  73.5795993  50.7458903
  14.6880113  72.7175993  50.0058903  14.5080113  73.4425993  50.2448903
  24.2800113  69.9895993  66.9258903  24.3720113  70.7015993  67.4198903
  23.6430113  69.5445993  67.3228903  24.1990113  70.0285993  67.0578903
  23.2740113  70.1795993  57.7798903  22.5740113  70.6975993  57.7238903
  23.3120113  69.7995993  56.9958903  23.1760113  70.2005993  57.6558903
  26.8720113  70.6955993  60.5798903  27.7270113  70.7945993  60.7248903
  26.5030113  71.2485993  61.1448903  26.9440113  70.7925993  60.6848903
  17.9000113  76.9215993  64.9568903  17.5040113  77.6955993  65.0318903
  17.4940113  76.5485993  64.2808903  17.7820113  76.9805993  64.8678903
  27.1760113  75.9755993  59.0708903  27.8420113  76.5165993  59.2308903
  26.8310113  76.2865993  58.3318903  27.2230113  76.1015993  58.9858903
  18.3290113  69.8985993  62.4068903  17.4650113  69.9825993  62.4868903
  18.5490113  69.3845993  63.0758903  18.2340113  69.8355993  62.5178903
  30.3470113  68.5335993  63.7358903  30.2950113  68.4895993  64.6058903
  31.0340113  68.0305993  63.5458903  30.4410113  68.4535993  63.8358903
  22.4320113  70.6465993  60.7808903  21.6950113  70.1925993  60.8938903
  23.0030113  70.2445993  61.3038903  22.4070113  70.5195993  60.8748903
  19.9350113  74.9755993  65.9848903  19.6130113  74.3995993  65.4148903
  19.5760113  75.7305993  65.7388903  19.8350113  75.0015993  65.8648903
  20.7310113  68.2275993  50.6118903  20.8090113  68.4745993  49.7788903
  19.9880113  68.6045993  50.8698903  20.6330113  68.3195993  50.5268903
  15.5490113  69.9815993  63.0548903  15.2060113  69.2145993  62.8208903
  14.8540113  70.5055993  63.1188903  15.3960113  69.9455993  63.0298903
  24.5950113  68.8375993  60.0318903  25.2650113  69.3815993  60.1588903
  24.0920113  69.2615993  59.4588903  24.6200113  68.9805993  59.9658903
  23.9540113  74.6455993  57.5248903  24.5050113  74.0385993  57.8248903
  23.5290113  74.9085993  58.2398903  23.9730113  74.5945993  57.6738903
  14.2020113  73.2955993  57.0108903  13.8340113  73.5975993  57.7418903
  14.7360113  72.6665993  57.2948903  14.2260113  73.2475993  57.1608903
  25.9240113  76.4765993  54.0868903  25.9920113  75.6265993  54.2678903
  25.1010113  76.5625993  53.8088903  25.8120113  76.3635993  54.0728903
  19.8430113  77.3675993  53.0248903  19.9430113  77.5065993  52.1698903
  20.6610113  77.3075993  53.3208903  19.9780113  77.3785993  52.9418903
  29.1980113  77.8495993  67.2378903  29.8320113  77.6795993  67.8118903
  29.6150113  78.2525993  66.5858903  29.3530113  77.8845993  67.2268903
  29.8230113  72.4135993  67.9758903  29.6270113  73.0575993  68.5308903
  29.1010113  71.9235993  67.9678903  29.6880113  72.4365993  68.0568903
  29.7220113  73.3545993  60.9468903  28.8890113  73.6045993  60.8748903
  29.6660113  72.5145993  61.1758903  29.5910113  73.2675993  60.9698903
  18.9820113  70.3425993  66.1408903  19.2160113  69.7665993  65.5278903
  18.1400113  70.1615993  66.2818903  18.8920113  70.2305993  66.0708903
  26.6090113  77.9605993  68.5928903  27.4800113  77.9245993  68.5568903
  26.3900113  78.3805993  67.8608903  26.7060113  78.0165993  68.4798903
  23.3730113  68.5455993  36.4956493  23.1280113  69.0335993  35.8156493
  24.2360113  68.4725993  36.3956493  23.4640113  68.6065993  36.3806493
  23.1820113  75.4615993  41.1666493  22.6580113  76.0575993  41.5296493
  23.5790113  75.0935993  41.8506493  23.1630113  75.4955993  41.3216493
  12.7940113  73.3935993  33.1296493  12.0160113  73.5555993  32.7696493
  12.8330113  72.5225993  33.1516493  12.6850113  73.2885993  33.0796493
  15.9330113  78.6565993  31.8016493  15.5410113  78.2855993  31.1156493
  15.8530113  78.0585993  32.4306493  15.8630113  78.5135993  31.7926493
  25.8530113  76.5285993  37.8426493  25.9330113  76.5325993  36.9736493
  25.2690113  75.8965993  37.9916493  25.7780113  76.4355993  37.7366493
  19.8420113  69.6325993  35.6506493  19.7720113  70.3095993  35.1046493
  20.5830113  69.2445993  35.4016493  19.9410113  69.6755993  35.5326493
  14.4370113  76.8575993  37.0796493  13.9750113  76.4655993  36.4526493
  15.1370113  76.3445993  37.1716493  14.4720113  76.7245993  37.0006493
  18.9450113  72.4675993  42.4266493  19.6230113  72.4855993  41.8776493
  18.9000113  71.6315993  42.6716493  19.0380113  72.3465993  42.3816493
  16.4380113  74.9575993  37.1026493  17.2550113  74.7705993  37.3456493
  15.9610113  74.3435993  37.4986493  16.4880113  74.8395993  37.1976493
  22.6670113  74.5185993  47.2626493  21.8190113  74.4195993  47.0846493
  22.6960113  75.2635993  47.7166493  22.5460113  74.6145993  47.3036493
  17.0350113  70.0515993  36.3686493  16.7390113  70.5525993  35.7186493
  17.9020113  70.1295993  36.3116493  17.1190113  70.1375993  36.2646493
  27.2250113  67.4785993  46.3766493  27.0670113  68.2475993  45.9946493
  26.4530113  67.2585993  46.7206493  27.0870113  67.5595993  46.3716493
  20.0140113  69.1935993  38.5916493  20.0870113  70.0535993  38.7206493
  19.9760113  69.1185993  37.7236493  20.0190113  69.3095993  38.4826493
  24.6870113  72.1195993  30.8906493  24.2370113  72.8005993  31.1976493
  24.8010113  71.6155993  31.5936493  24.6380113  72.1455993  31.0396493
  12.8930113  74.6185993  40.0926493  12.6370113  75.4495993  40.0176493
  12.2290113  74.2355993  40.5096493  12.7570113  74.6845993  40.1436493
  15.9220113  69.4355993  40.5836493  15.4010113  68.8075993  40.2756493
  16.5130113  68.9985993  41.0546493  15.9330113  69.2775993  40.6076493
  19.2280113  71.5685993  49.8816493  19.3450113  71.1145993  49.1456493
  19.5160113  72.3665993  49.6786493  19.2880113  71.6195993  49.7426493
  30.0810113  72.0925993  37.1856493  29.7350113  72.7705993  37.6116493
  29.4450113  71.4945993  37.2016493  29.9360113  72.1045993  37.2506493
  14.9610113  71.1655993  48.8656493  14.1830113  70.7755993  48.7936493
  15.4520113  70.7535993  48.2746493  14.9180113  71.0465993  48.7676493
  21.6100113  68.8085993  48.0336493  21.7880113  67.9995993  47.7586493
  21.4670113  69.2495993  47.2946493  21.6150113  68.7545993  47.8836493
  22.2040113  73.7345993  36.8066493  22.4910113  73.5025993  36.0166493
  22.9360113  73.8135993  37.2756493  22.3540113  73.7115993  36.7596493
  22.9260113  74.0735993  31.9276493  23.2070113  74.8615993  32.1766493
  22.1500113  74.2385993  31.5646493  22.8530113  74.2145993  31.9106493
  29.7560113  70.4155993  42.5546493  30.5130113  70.4875993  42.1266493
  29.8190113  69.6425993  42.9536493  29.8770113  70.3125993  42.5496493
  12.3090113  71.7135993  46.4516493  12.3050113  72.3005993  47.0976493
  12.9030113  72.0255993  45.8946493  12.3960113  71.8465993  46.4646493
  25.2920113  70.1405993  32.7976493  25.8320113  69.4585993  32.8736493
  25.3540113  70.5385993  33.5716493  25.3810113  70.0985993  32.9236493
  13.2460113  71.3085993  35.3666493  13.1320113  70.4445993  35.3976493
  12.7710113  71.6025993  36.0366493  13.1590113  71.2245993  35.4696493
  22.5500113  72.5165993  34.1116493  22.0420113  71.8545993  33.8576493
  22.6020113  73.0205993  33.4016493  22.4830113  72.4935993  33.9696493
  22.5500113  69.4575993  34.0026493  22.0950113  69.0555993  33.3766493
  23.3230113  69.6125993  33.6276493  22.5970113  69.4215993  33.8546493
  21.1480113  71.8245993  38.5246493  21.2220113  72.3925993  37.8666493
  21.2690113  72.3165993  39.2346493  21.1760113  71.9815993  38.5326493
  15.7560113  67.6475993  36.8726493  16.2920113  68.3355993  36.8626493
  15.7590113  67.3735993  36.0446493  15.8350113  67.7085993  36.7486493
  18.7120113  78.0805993  40.8976493  18.8840113  77.8705993  41.7266493
  18.0570113  77.5465993  40.6816493  18.6410113  77.9705993  40.9886493
  24.9400113  71.9945993  44.4126493  24.8450113  72.3135993  45.2186493
  24.3470113  71.3555993  44.3746493  24.8380113  71.9465993  44.5266493
  26.1960113  67.9385993  37.2486493  26.2450113  67.6205993  38.0596493
  26.5190113  67.2945993  36.7556493  26.2510113  67.7965993  37.2956493
  28.6600113  72.1745993  45.5566493  29.4320113  71.9495993  45.8936493
  28.1850113  72.3915993  46.2566493  28.7040113  72.1735993  45.7096493
  16.2040113  71.4575993  38.5266493  16.4760113  71.0275993  37.8186493
  16.0280113  70.8215993  39.0976493  16.2180113  71.3005993  38.5066493
  14.3450113  72.5595993  41.6086493  15.1880113  72.7795993  41.5656493
  13.9560113  73.1325993  41.0776493  14.4120113  72.6765993  41.5236493
  26.7870113  75.6895993  32.3296493  26.5670113  76.4205993  31.9076493
  26.3390113  75.7405993  33.0766493  26.6880113  75.8045993  32.3776493
  30.9740113  70.5505993  31.7826493  30.3120113  69.9825993  31.8056493
  30.7810113  71.0625993  31.1026493  30.8480113  70.5425993  31.6856493
  20.1990113  74.2445993  49.7266493  19.7150113  74.8215993  50.1686493
  20.1710113  74.5395993  48.9056493  20.1230113  74.3735993  49.6706493
  31.2970113  74.9285993  44.3386493  31.5120113  74.1285993  44.0626493
  30.4470113  74.9885993  44.1496493  31.2030113  74.8195993  44.2696493
  12.6180113  77.2185993  34.7336493  12.4330113  76.3795993  34.8856493
  13.2770113  77.1825993  34.1636493  12.6880113  77.0895993  34.6716493
  28.9760113  70.1085993  34.0616493  29.7220113  69.7015993  34.2606493
  29.2390113  70.8235993  33.6366493  29.1250113  70.1545993  34.0286493
  25.4300113  72.3965993  39.1346493  25.7740113  72.5485993  39.9216493
  24.9770113  71.6585993  39.2476493  25.4140113  72.3095993  39.2676493
  19.9060113  71.6165993  33.5916493  19.9040113  71.4995993  32.7266493
  19.7250113  72.4645993  33.6836493  19.8790113  71.7245993  33.4776493
  15.7740113  75.0515993  48.0856493  15.2380113  74.5455993  48.5536493
  15.7940113  74.6615993  47.3056493  15.6970113  74.9185993  48.0396493
  16.2590113  74.4485993  33.2256493  16.1310113  74.0005993  33.9636493
  15.6770113  74.1065993  32.6736493  16.1540113  74.3315993  33.2536493
  16.4260113  76.2785993  39.8246493  15.6450113  76.2195993  39.4416493
  16.4980113  75.5265993  40.2616493  16.3210113  76.1595993  39.8326493
  16.8560113  76.0155993  43.2926493  16.8810113  75.3405993  42.7416493
  16.2100113  76.5115993  42.9806493  16.7650113  75.9885993  43.1656493
  26.7510113  73.7285993  41.6886493  26.0890113  74.0565993  42.1516493
  26.9380113  74.3625993  41.1196493  26.6810113  73.8705993  41.6726493
  23.3960113  69.6345993  45.1176493  23.5450113  68.8095993  44.8746493
  23.7750113  69.6895993  45.9016493  23.4740113  69.5205993  45.1976493
  24.9440113  71.6975993  35.1996493  25.4340113  72.4145993  35.1226493
  24.1540113  71.9585993  34.9366493  24.9000113  71.8415993  35.1496493
  14.6550113  77.3705993  48.8516493  14.6180113  77.8715993  48.1376493
  14.9860113  76.6185993  48.5566493  14.6980113  77.3325993  48.7026493
  21.5260113  73.1675993  40.9246493  22.0060113  73.8665993  41.1326493
  21.8990113  72.5205993  41.3756493  21.6520113  73.1755993  41.0216493
  23.7150113  76.3365993  33.1986493  23.7070113  77.0585993  32.7086493
  23.0760113  76.4715993  33.7756493  23.6200113  76.4635993  33.2116493
  18.3080113  68.6785993  32.8596493  18.4050113  68.5715993  33.7206493
  17.6000113  69.1845993  32.7946493  18.2180113  68.7375993  32.9776493
  28.0050113  78.1215993  45.2696493  28.0600113  78.2465993  44.4076493
  28.7580113  78.4415993  45.5716493  28.1240113  78.1865993  45.1866493
  29.0370113  68.4195993  48.2566493  28.4000113  68.0195993  47.8146493
  29.0630113  67.9885993  49.0146493  28.9470113  68.2975993  48.3026493
  15.4300113  76.9855993  34.1026493  15.7540113  76.2065993  33.8806493
  16.0760113  77.3535993  34.5576493  15.5730113  76.9245993  34.1366493
  23.7360113  77.9275993  44.8696493  23.5810113  78.5375993  45.4736493
  24.2700113  77.3695993  45.2756493  23.7920113  77.9355993  45.0186493
  12.4270113  68.6465993  35.0706493  12.5560113  67.9385993  34.5786493
  12.0600113  68.3285993  35.7956493  12.3920113  68.4945993  35.1056493
  22.1200113  76.3275993  35.5276493  22.1790113  76.9775993  36.1066493
  21.9310113  75.6315993  36.0186493  22.1010113  76.3205993  35.6856493
  16.6160113  70.8445993  32.0396493  16.1050113  70.8975993  31.3336493
  17.4000113  71.0845993  31.7436493  16.6560113  70.8875993  31.8916493
  21.3430113  78.3745993  39.9586493  20.4960113  78.1805993  40.0396493
  21.6670113  78.2095993  40.7516493  21.2650113  78.3215993  40.0876493
  15.1910113  78.0675993  42.2746493  15.9130113  78.5555993  42.2376493
  14.9210113  78.0375993  41.4456493  15.2580113  78.1355993  42.1466493
  18.4210113  73.2385993  39.0096493  19.2670113  73.0485993  39.1076493
  18.0510113  72.4615993  38.8716493  18.4910113  73.0955993  39.0036493
  13.2420113  74.5765993  35.6646493  13.7310113  74.2845993  36.3256493
  13.3710113  73.9835993  35.0376493  13.3330113  74.4455993  35.6696493
  28.2770113  77.5985993  42.5156493  28.2700113  76.8225993  42.9136493
  27.4360113  77.8325993  42.5086493  28.1520113  77.5185993  42.5736493
  17.7670113  76.0105993  31.1506493  17.1570113  75.6055993  31.6246493
  17.3810113  76.1285993  30.3776493  17.6200113  75.9675993  31.1066493
  29.5330113  77.6695993  39.9526493  29.2470113  78.0705993  40.6726493
  30.3930113  77.6075993  40.0796493  29.6180113  77.7195993  40.0776493
  19.2220113  74.4715993  33.8606493  19.4940113  75.2975993  33.9276493
  18.3590113  74.5465993  33.7646493  19.1350113  74.6045993  33.8556493
  27.1950113  71.5935993  48.4926493  26.6700113  72.0525993  49.0166493
  26.8340113  70.7985993  48.4866493  27.0640113  71.5435993  48.5686493
  12.7020113  70.4415993  40.3966493  12.7460113  70.7855993  39.5956493
  13.4570113  70.6785993  40.7636493  12.8200113  70.5275993  40.3326493
  25.6870113  75.1625993  48.5686493  25.7600113  75.2665993  49.4316493
  25.0530113  75.7205993  48.3476493  25.6040113  75.2605993  48.6636493
  27.9550113  75.4815993  46.9336493  28.2740113  76.2675993  47.1366493
  27.5850113  75.2115993  47.6766493  27.9480113  75.5575993  47.0736493
  27.7510113  73.7395993  38.1226493  27.0060113  73.4165993  38.4406493
  27.7530113  74.5655993  38.4026493  27.6410113  73.8135993  38.2106493
  30.6530113  76.0235993  49.6686493  30.6010113  75.6825993  48.8676493
  31.3900113  76.4905993  49.6466493  30.7540113  76.0425993  49.5466493
  26.6630113  70.0695993  45.5836493  27.4070113  70.5215993  45.5206493
  26.0970113  70.5395993  45.1146493  26.6900113  70.2065993  45.5056493
  21.8410113  77.3535993  42.6616493  22.3170113  77.7275993  43.2896493
  21.0180113  77.4875993  42.9206493  21.7900113  77.4285993  42.7926493
  18.5510113  72.9565993  45.4026493  18.7120113  72.2125993  45.8296493
  18.5060113  72.7075993  44.5676493  18.5680113  72.8095993  45.3426493
  27.9480113  68.0495993  43.2536493  27.6680113  68.8745993  43.2096493
  28.6640113  68.1025993  43.7496493  28.0130113  68.1795993  43.3206493
  20.3030113  68.7645993  45.2826493  21.0080113  69.0845993  44.8806493
  20.5440113  67.9575993  45.5096493  20.4420113  68.6925993  45.2566493
  29.3690113  74.3045993  32.1106493  29.7470113  74.9815993  31.7106493
  28.5270113  74.5285993  32.1416493  29.3000113  74.4375993  32.0556493
  20.8820113  77.7505993  31.1936493  20.0770113  77.5735993  30.9086493
  20.8490113  78.6015993  31.3856493  20.7580113  77.8495993  31.1806493
  16.8120113  73.8175993  41.3436493  17.2520113  73.7145993  40.5976493
  17.3570113  73.5045993  41.9486493  16.9570113  73.7565993  41.3226493
  24.8280113  72.9195993  46.9356493  24.1800113  73.3895993  47.2836493
  25.3930113  72.8305993  47.5946493  24.8160113  72.9755993  47.0846493
  24.5160113  74.4565993  43.2336493  24.8180113  74.8765993  43.9366493
  24.5520113  73.6165993  43.4656493  24.5660113  74.3945993  43.3716493
  27.0640113  73.9035993  35.4856493  27.2710113  73.7025993  36.3096493
  27.8200113  74.1715993  35.1436493  27.2060113  73.9135993  35.5566493
  20.3590113  68.8025993  41.3906493  19.5330113  68.6535993  41.6276493
  20.3190113  68.8375993  40.5196493  20.2310113  68.7855993  41.2966493
  28.0860113  69.9865993  36.9596493  27.3720113  69.5155993  37.1306493
  27.9240113  70.3275993  36.1736493  27.9570113  69.9675993  36.8686493
  28.5290113  77.9305993  35.3396493  29.0050113  77.2015993  35.2916493
  27.7080113  77.6445993  35.2636493  28.4780113  77.7805993  35.3206493
  12.9240113  69.2005993  47.4256493  12.7840113  69.9955993  47.0946493
  12.1380113  68.9575993  47.7146493  12.7870113  69.2825993  47.4196493
  15.9880113  71.9445993  34.6506493  16.1140113  71.6155993  33.8526493
  15.1760113  71.6955993  34.8496493  15.8870113  71.8595993  34.5626493
  30.6650113  75.0985993  47.0976493  29.8100113  74.9765993  47.2236493
  30.8180113  74.7035993  46.3346493  30.5610113  75.0215993  47.0036493
  25.1780113  75.7635993  45.6736493  24.9230113  75.0445993  46.0956493
  25.9990113  75.8795993  45.9436493  25.2620113  75.6745993  45.7756493
  23.1120113  76.9535993  48.8606493  23.4350113  77.6395993  48.4286493
  22.4080113  77.2765993  49.2626493  23.0550113  77.1025993  48.8556493
  15.9650113  73.9555993  45.0666493  16.3400113  74.5745993  44.5796493
  16.6390113  73.4815993  45.3516493  16.1200113  73.9775993  45.0366493
  13.7400113  72.4035993  44.3416493  13.8170113  72.2345993  43.4886493
  14.4860113  72.8095993  44.5386493  13.8610113  72.4385993  44.2446493
  29.2990113  75.0435993  34.7816493  29.4020113  74.9855993  33.9176493
  30.0400113  74.7115993  35.0996493  29.4240113  74.9865993  34.7006493
  16.2940113  69.8135993  46.7526493  16.2130113  68.9695993  46.9586493
  15.9800113  69.8575993  45.9396493  16.2360113  69.6955993  46.6626493
  28.4010113  75.1895993  44.1376493  28.3990113  74.3265993  44.2616493
  28.4680113  75.5135993  44.9446493  28.4110113  75.1095993  44.2746493
  13.1370113  77.6295993  44.5656493  13.4570113  77.8485993  43.7846493
  13.0370113  76.7645993  44.5106493  13.1690113  77.5345993  44.4426493
  14.5930113  73.5655993  31.1836493  13.9210113  73.5795993  31.7396493
  14.6880113  72.7175993  30.9996493  14.5080113  73.4425993  31.2386493
  24.2800113  69.9895993  47.9196493  24.3720113  70.7015993  48.4136493
  23.6430113  69.5445993  48.3166493  24.1990113  70.0285993  48.0516493
  23.2740113  70.1795993  38.7736493  22.5740113  70.6975993  38.7176493
  23.3120113  69.7995993  37.9896493  23.1760113  70.2005993  38.6496493
  26.8720113  70.6955993  41.5736493  27.7270113  70.7945993  41.7186493
  26.5030113  71.2485993  42.1386493  26.9440113  70.7925993  41.6786493
  17.9000113  76.9215993  45.9506493  17.5040113  77.6955993  46.0256493
  17.4940113  76.5485993  45.2746493  17.7820113  76.9805993  45.8616493
  27.1760113  75.9755993  40.0646493  27.8420113  76.5165993  40.2246493
  26.8310113  76.2865993  39.3256493  27.2230113  76.1015993  39.9796493
  18.3290113  69.8985993  43.4006493  17.4650113  69.9825993  43.4806493
  18.5490113  69.3845993  44.0696493  18.2340113  69.8355993  43.5116493
  30.3470113  68.5335993  44.7296493  30.2950113  68.4895993  45.5996493
  31.0340113  68.0305993  44.5396493  30.4410113  68.4535993  44.8296493
  22.4320113  70.6465993  41.7746493  21.6950113  70.1925993  41.8876493
  23.0030113  70.2445993  42.2976493  22.4070113  70.5195993  41.8686493
  19.9350113  74.9755993  46.9786493  19.6130113  74.3995993  46.4086493
  19.5760113  75.7305993  46.7326493  19.8350113  75.0015993  46.8586493
  20.7310113  68.2275993  31.6056493  20.8090113  68.4745993  30.7726493
  19.9880113  68.6045993  31.8636493  20.6330113  68.3195993  31.5206493
  15.5490113  69.9815993  44.0486493  15.2060113  69.2145993  43.8146493
  14.8540113  70.5055993  44.1126493  15.3960113  69.9455993  44.0236493
  24.5950113  68.8375993  41.0256493  25.2650113  69.3815993  41.1526493
  24.0920113  69.2615993  40.4526493  24.6200113  68.9805993  40.9596493
  23.9540113  74.6455993  38.5186493  24.5050113  74.0385993  38.8186493
  23.5290113  74.9085993  39.2336493  23.9730113  74.5945993  38.6676493
  14.2020113  73.2955993  38.0046493  13.8340113  73.5975993  38.7356493
  14.7360113  72.6665993  38.2886493  14.2260113  73.2475993  38.1546493
  25.9240113  76.4765993  35.0806493  25.9920113  75.6265993  35.2616493
  25.1010113  76.5625993  34.8026493  25.8120113  76.3635993  35.0666493
  19.8430113  77.3675993  34.0186493  19.9430113  77.5065993  33.1636493
  20.6610113  77.3075993  34.3146493  19.9780113  77.3785993  33.9356493
  29.1980113  77.8495993  48.2316493  29.8320113  77.6795993  48.8056493
  29.6150113  78.2525993  47.5796493  29.3530113  77.8845993  48.2206493
  29.8230113  72.4135993  48.9696493  29.6270113  73.0575993  49.5246493
  29.1010113  71.9235993  48.9616493  29.6880113  72.4365993  49.0506493
  29.7220113  73.3545993  41.9406493  28.8890113  73.6045993  41.8686493
  29.6660113  72.5145993  42.1696493  29.5910113  73.2675993  41.9636493
  18.9820113  70.3425993  47.1346493  19.2160113  69.7665993  46.5216493
  18.1400113  70.1615993  47.2756493  18.8920113  70.2305993  47.0646493
  26.6090113  77.9605993  49.5866493  27.4800113  77.9245993  49.5506493
  26.3900113  78.3805993  48.8546493  26.7060113  78.0165993  49.4736493
  23.3730113  68.5455993  17.4894083  23.1280113  69.0335993  16.8094083
  24.2360113  68.4725993  17.3894083  23.4640113  68.6065993  17.3744083
  23.1820113  75.4615993  22.1604083  22.6580113  76.0575993  22.5234083
  23.5790113  75.0935993  22.8444083  23.1630113  75.4955993  22.3154083
  12.7940113  73.3935993  14.1234083  12.0160113  73.5555993  13.7634083
  12.8330113  72.5225993  14.1454083  12.6850113  73.2885993  14.0734083
  15.9330113  78.6565993  12.7954083  15.5410113  78.2855993  12.1094083
  15.8530113  78.0585993  13.4244083  15.8630113  78.5135993  12.7864083
  25.8530113  76.5285993  18.8364083  25.9330113  76.5325993  17.9674083
  25.2690113  75.8965993  18.9854083  25.7780113  76.4355993  18.7304083
  19.8420113  69.6325993  16.6444083  19.7720113  70.3095993  16.0984083
  20.5830113  69.2445993  16.3954083  19.9410113  69.6755993  16.5264083
  14.4370113  76.8575993  18.0734083  13.9750113  76.4655993  17.4464083
  15.1370113  76.3445993  18.1654083  14.4720113  76.7245993  17.9944083
  18.9450113  72.4675993  23.4204083  19.6230113  72.4855993  22.8714083
  18.9000113  71.6315993  23.6654083  19.0380113  72.3465993  23.3754083
  16.4380113  74.9575993  18.0964083  17.2550113  74.7705993  18.3394083
  15.9610113  74.3435993  18.4924083  16.4880113  74.8395993  18.1914083
  22.6670113  74.5185993  28.2564083  21.8190113  74.4195993  28.0784083
  22.6960113  75.2635993  28.7104083  22.5460113  74.6145993  28.2974083
  17.0350113  70.0515993  17.3624083  16.7390113  70.5525993  16.7124083
  17.9020113  70.1295993  17.3054083  17.1190113  70.1375993  17.2584083
  27.2250113  67.4785993  27.3704083  27.0670113  68.2475993  26.9884083
  26.4530113  67.2585993  27.7144083  27.0870113  67.5595993  27.3654083
  20.0140113  69.1935993  19.5854083  20.0870113  70.0535993  19.7144083
  19.9760113  69.1185993  18.7174083  20.0190113  69.3095993  19.4764083
  24.6870113  72.1195993  11.8844083  24.2370113  72.8005993  12.1914083
  24.8010113  71.6155993  12.5874083  24.6380113  72.1455993  12.0334083
  12.8930113  74.6185993  21.0864083  12.6370113  75.4495993  21.0114083
  12.2290113  74.2355993  21.5034083  12.7570113  74.6845993  21.1374083
  15.9220113  69.4355993  21.5774083  15.4010113  68.8075993  21.2694083
  16.5130113  68.9985993  22.0484083  15.9330113  69.2775993  21.6014083
  19.2280113  71.5685993  30.8754083  19.3450113  71.1145993  30.1394083
  19.5160113  72.3665993  30.6724083  19.2880113  71.6195993  30.7364083
  30.0810113  72.0925993  18.1794083  29.7350113  72.7705993  18.6054083
  29.4450113  71.4945993  18.1954083  29.9360113  72.1045993  18.2444083
  14.9610113  71.1655993  29.8594083  14.1830113  70.7755993  29.7874083
  15.4520113  70.7535993  29.2684083  14.9180113  71.0465993  29.7614083
  21.6100113  68.8085993  29.0274083  21.7880113  67.9995993  28.7524083
  21.4670113  69.2495993  28.2884083  21.6150113  68.7545993  28.8774083
  22.2040113  73.7345993  17.8004083  22.4910113  73.5025993  17.0104083
  22.9360113  73.8135993  18.2694083  22.3540113  73.7115993  17.7534083
  22.9260113  74.0735993  12.9214083  23.2070113  74.8615993  13.1704083
  22.1500113  74.2385993  12.5584083  22.8530113  74.2145993  12.9044083
  29.7560113  70.4155993  23.5484083  30.5130113  70.4875993  23.1204083
  29.8190113  69.6425993  23.9474083  29.8770113  70.3125993  23.5434083
  12.3090113  71.7135993  27.4454083  12.3050113  72.3005993  28.0914083
  12.9030113  72.0255993  26.8884083  12.3960113  71.8465993  27.4584083
  25.2920113  70.1405993  13.7914083  25.8320113  69.4585993  13.8674083
  25.3540113  70.5385993  14.5654083  25.3810113  70.0985993  13.9174083
  13.2460113  71.3085993  16.3604083  13.1320113  70.4445993  16.3914083
  12.7710113  71.6025993  17.0304083  13.1590113  71.2245993  16.4634083
  22.5500113  72.5165993  15.1054083  22.0420113  71.8545993  14.8514083
  22.6020113  73.0205993  14.3954083  22.4830113  72.4935993  14.9634083
  22.5500113  69.4575993  14.9964083  22.0950113  69.0555993  14.3704083
  23.3230113  69.6125993  14.6214083  22.5970113  69.4215993  14.8484083
  21.1480113  71.8245993  19.5184083  21.2220113  72.3925993  18.8604083
  21.2690113  72.3165993  20.2284083  21.1760113  71.9815993  19.5264083
  15.7560113  67.6475993  17.8664083  16.2920113  68.3355993  17.8564083
  15.7590113  67.3735993  17.0384083  15.8350113  67.7085993  17.7424083
  18.7120113  78.0805993  21.8914083  18.8840113  77.8705993  22.7204083
  18.0570113  77.5465993  21.6754083  18.6410113  77.9705993  21.9824083
  24.9400113  71.9945993  25.4064083  24.8450113  72.3135993  26.2124083
  24.3470113  71.3555993  25.3684083  24.8380113  71.9465993  25.5204083
  26.1960113  67.9385993  18.2424083  26.2450113  67.6205993  19.0534083
  26.5190113  67.2945993  17.7494083  26.2510113  67.7965993  18.2894083
  28.6600113  72.1745993  26.5504083  29.4320113  71.9495993  26.8874083
  28.1850113  72.3915993  27.2504083  28.7040113  72.1735993  26.7034083
  16.2040113  71.4575993  19.5204083  16.4760113  71.0275993  18.8124083
  16.0280113  70.8215993  20.0914083  16.2180113  71.3005993  19.5004083
  14.3450113  72.5595993  22.6024083  15.1880113  72.7795993  22.5594083
  13.9560113  73.1325993  22.0714083  14.4120113  72.6765993  22.5174083
  26.7870113  75.6895993  13.3234083  26.5670113  76.4205993  12.9014083
  26.3390113  75.7405993  14.0704083  26.6880113  75.8045993  13.3714083
  30.9740113  70.5505993  12.7764083  30.3120113  69.9825993  12.7994083
  30.7810113  71.0625993  12.0964083  30.8480113  70.5425993  12.6794083
  20.1990113  74.2445993  30.7204083  19.7150113  74.8215993  31.1624083
  20.1710113  74.5395993  29.8994083  20.1230113  74.3735993  30.6644083
  31.2970113  74.9285993  25.3324083  31.5120113  74.1285993  25.0564083
  30.4470113  74.9885993  25.1434083  31.2030113  74.8195993  25.2634083
  12.6180113  77.2185993  15.7274083  12.4330113  76.3795993  15.8794083
  13.2770113  77.1825993  15.1574083  12.6880113  77.0895993  15.6654083
  28.9760113  70.1085993  15.0554083  29.7220113  69.7015993  15.2544083
  29.2390113  70.8235993  14.6304083  29.1250113  70.1545993  15.0224083
  25.4300113  72.3965993  20.1284083  25.7740113  72.5485993  20.9154083
  24.9770113  71.6585993  20.2414083  25.4140113  72.3095993  20.2614083
  19.9060113  71.6165993  14.5854083  19.9040113  71.4995993  13.7204083
  19.7250113  72.4645993  14.6774083  19.8790113  71.7245993  14.4714083
  15.7740113  75.0515993  29.0794083  15.2380113  74.5455993  29.5474083
  15.7940113  74.6615993  28.2994083  15.6970113  74.9185993  29.0334083
  16.2590113  74.4485993  14.2194083  16.1310113  74.0005993  14.9574083
  15.6770113  74.1065993  13.6674083  16.1540113  74.3315993  14.2474083
  16.4260113  76.2785993  20.8184083  15.6450113  76.2195993  20.4354083
  16.4980113  75.5265993  21.2554083  16.3210113  76.1595993  20.8264083
  16.8560113  76.0155993  24.2864083  16.8810113  75.3405993  23.7354083
  16.2100113  76.5115993  23.9744083  16.7650113  75.9885993  24.1594083
  26.7510113  73.7285993  22.6824083  26.0890113  74.0565993  23.1454083
  26.9380113  74.3625993  22.1134083  26.6810113  73.8705993  22.6664083
  23.3960113  69.6345993  26.1114083  23.5450113  68.8095993  25.8684083
  23.7750113  69.6895993  26.8954083  23.4740113  69.5205993  26.1914083
  24.9440113  71.6975993  16.1934083  25.4340113  72.4145993  16.1164083
  24.1540113  71.9585993  15.9304083  24.9000113  71.8415993  16.1434083
  14.6550113  77.3705993  29.8454083  14.6180113  77.8715993  29.1314083
  14.9860113  76.6185993  29.5504083  14.6980113  77.3325993  29.6964083
  21.5260113  73.1675993  21.9184083  22.0060113  73.8665993  22.1264083
  21.8990113  72.5205993  22.3694083  21.6520113  73.1755993  22.0154083
  23.7150113  76.3365993  14.1924083  23.7070113  77.0585993  13.7024083
  23.0760113  76.4715993  14.7694083  23.6200113  76.4635993  14.2054083
  18.3080113  68.6785993  13.8534083  18.4050113  68.5715993  14.7144083
  17.6000113  69.1845993  13.7884083  18.2180113  68.7375993  13.9714083
  28.0050113  78.1215993  26.2634083  28.0600113  78.2465993  25.4014083
  28.7580113  78.4415993  26.5654083  28.1240113  78.1865993  26.1804083
  29.0370113  68.4195993  29.2504083  28.4000113  68.0195993  28.8084083
  29.0630113  67.9885993  30.0084083  28.9470113  68.2975993  29.2964083
  15.4300113  76.9855993  15.0964083  15.7540113  76.2065993  14.8744083
  16.0760113  77.3535993  15.5514083  15.5730113  76.9245993  15.1304083
  23.7360113  77.9275993  25.8634083  23.5810113  78.5375993  26.4674083
  24.2700113  77.3695993  26.2694083  23.7920113  77.9355993  26.0124083
  12.4270113  68.6465993  16.0644083  12.5560113  67.9385993  15.5724083
  12.0600113  68.3285993  16.7894083  12.3920113  68.4945993  16.0994083
  22.1200113  76.3275993  16.5214083  22.1790113  76.9775993  17.1004083
  21.9310113  75.6315993  17.0124083  22.1010113  76.3205993  16.6794083
  16.6160113  70.8445993  13.0334083  16.1050113  70.8975993  12.3274083
  17.4000113  71.0845993  12.7374083  16.6560113  70.8875993  12.8854083
  21.3430113  78.3745993  20.9524083  20.4960113  78.1805993  21.0334083
  21.6670113  78.2095993  21.7454083  21.2650113  78.3215993  21.0814083
  15.1910113  78.0675993  23.2684083  15.9130113  78.5555993  23.2314083
  14.9210113  78.0375993  22.4394083  15.2580113  78.1355993  23.1404083
  18.4210113  73.2385993  20.0034083  19.2670113  73.0485993  20.1014083
  18.0510113  72.4615993  19.8654083  18.4910113  73.0955993  19.9974083
  13.2420113  74.5765993  16.6584083  13.7310113  74.2845993  17.3194083
  13.3710113  73.9835993  16.0314083  13.3330113  74.4455993  16.6634083
  28.2770113  77.5985993  23.5094083  28.2700113  76.8225993  23.9074083
  27.4360113  77.8325993  23.5024083  28.1520113  77.5185993  23.5674083
  17.7670113  76.0105993  12.1444083  17.1570113  75.6055993  12.6184083
  17.3810113  76.1285993  11.3714083  17.6200113  75.9675993  12.1004083
  29.5330113  77.6695993  20.9464083  29.2470113  78.0705993  21.6664083
  30.3930113  77.6075993  21.0734083  29.6180113  77.7195993  21.0714083
  19.2220113  74.4715993  14.8544083  19.4940113  75.2975993  14.9214083
  18.3590113  74.5465993  14.7584083  19.1350113  74.6045993  14.8494083
  27.1950113  71.5935993  29.4864083  26.6700113  72.0525993  30.0104083
  26.8340113  70.7985993  29.4804083  27.0640113  71.5435993  29.5624083
  12.7020113  70.4415993  21.3904083  12.7460113  70.7855993  20.5894083
  13.4570113  70.6785993  21.7574083  12.8200113  70.5275993  21.3264083
  25.6870113  75.1625993  29.5624083  25.7600113  75.2665993  30.4254083
  25.0530113  75.7205993  29.3414083  25.6040113  75.2605993  29.6574083
  27.9550113  75.4815993  27.9274083  28.2740113  76.2675993  28.1304083
  27.5850113  75.2115993  28.6704083  27.9480113  75.5575993  28.0674083
  27.7510113  73.7395993  19.1164083  27.0060113  73.4165993  19.4344083
  27.7530113  74.5655993  19.3964083  27.6410113  73.8135993  19.2044083
  30.6530113  76.0235993  30.6624083  30.6010113  75.6825993  29.8614083
  31.3900113  76.4905993  30.6404083  30.7540113  76.0425993  30.5404083
  26.6630113  70.0695993  26.5774083  27.4070113  70.5215993  26.5144083
  26.0970113  70.5395993  26.1084083  26.6900113  70.2065993  26.4994083
  21.8410113  77.3535993  23.6554083  22.3170113  77.7275993  24.2834083
  21.0180113  77.4875993  23.9144083  21.7900113  77.4285993  23.7864083
  18.5510113  72.9565993  26.3964083  18.7120113  72.2125993  26.8234083
  18.5060113  72.7075993  25.5614083  18.5680113  72.8095993  26.3364083
  27.9480113  68.0495993  24.2474083  27.6680113  68.8745993  24.2034083
  28.6640113  68.1025993  24.7434083  28.0130113  68.1795993  24.3144083
  20.3030113  68.7645993  26.2764083  21.0080113  69.0845993  25.8744083
  20.5440113  67.9575993  26.5034083  20.4420113  68.6925993  26.2504083
  29.3690113  74.3045993  13.1044083  29.7470113  74.9815993  12.7044083
  28.5270113  74.5285993  13.1354083  29.3000113  74.4375993  13.0494083
  20.8820113  77.7505993  12.1874083  20.0770113  77.5735993  11.9024083
  20.8490113  78.6015993  12.3794083  20.7580113  77.8495993  12.1744083
  16.8120113  73.8175993  22.3374083  17.2520113  73.7145993  21.5914083
  17.3570113  73.5045993  22.9424083  16.9570113  73.7565993  22.3164083
  24.8280113  72.9195993  27.9294083  24.1800113  73.3895993  28.2774083
  25.3930113  72.8305993  28.5884083  24.8160113  72.9755993  28.0784083
  24.5160113  74.4565993  24.2274083  24.8180113  74.8765993  24.9304083
  24.5520113  73.6165993  24.4594083  24.5660113  74.3945993  24.3654083
  27.0640113  73.9035993  16.4794083  27.2710113  73.7025993  17.3034083
  27.8200113  74.1715993  16.1374083  27.2060113  73.9135993  16.5504083
  20.3590113  68.8025993  22.3844083  19.5330113  68.6535993  22.6214083
  20.3190113  68.8375993  21.5134083  20.2310113  68.7855993  22.2904083
  28.0860113  69.9865993  17.9534083  27.3720113  69.5155993  18.1244083
  27.9240113  70.3275993  17.1674083  27.9570113  69.9675993  17.8624083
  28.5290113  77.9305993  16.3334083  29.0050113  77.2015993  16.2854083
  27.7080113  77.6445993  16.2574083  28.4780113  77.7805993  16.3144083
  12.9240113  69.2005993  28.4194083  12.7840113  69.9955993  28.0884083
  12.1380113  68.9575993  28.7084083  12.7870113  69.2825993  28.4134083
  15.9880113  71.9445993  15.6444083  16.1140113  71.6155993  14.8464083
  15.1760113  71.6955993  15.8434083  15.8870113  71.8595993  15.5564083
  30.6650113  75.0985993  28.0914083  29.8100113  74.9765993  28.2174083
  30.8180113  74.7035993  27.3284083  30.5610113  75.0215993  27.9974083
  25.1780113  75.7635993  26.6674083  24.9230113  75.0445993  27.0894083
  25.9990113  75.8795993  26.9374083  25.2620113  75.6745993  26.7694083
  23.1120113  76.9535993  29.8544083  23.4350113  77.6395993  29.4224083
  22.4080113  77.2765993  30.2564083  23.0550113  77.1025993  29.8494083
  15.9650113  73.9555993  26.0604083  16.3400113  74.5745993  25.5734083
  16.6390113  73.4815993  26.3454083  16.1200113  73.9775993  26.0304083
  13.7400113  72.4035993  25.3354083  13.8170113  72.2345993  24.4824083
  14.4860113  72.8095993  25.5324083  13.8610113  72.4385993  25.2384083
  29.2990113  75.0435993  15.7754083  29.4020113  74.9855993  14.9114083
  30.0400113  74.7115993  16.0934083  29.4240113  74.9865993  15.6944083
  16.2940113  69.8135993  27.7464083  16.2130113  68.9695993  27.9524083
  15.9800113  69.8575993  26.9334083  16.2360113  69.6955993  27.6564083
  28.4010113  75.1895993  25.1314083  28.3990113  74.3265993  25.2554083
  28.4680113  75.5135993  25.9384083  28.4110113  75.1095993  25.2684083
  13.1370113  77.6295993  25.5594083  13.4570113  77.8485993  24.7784083
  13.0370113  76.7645993  25.5044083  13.1690113  77.5345993  25.4364083
  14.5930113  73.5655993  12.1774083  13.9210113  73.5795993  12.7334083
  14.6880113  72.7175993  11.9934083  14.5080113  73.4425993  12.2324083
  24.2800113  69.9895993  28.9134083  24.3720113  70.7015993  29.4074083
  23.6430113  69.5445993  29.3104083  24.1990113  70.0285993  29.0454083
  23.2740113  70.1795993  19.7674083  22.5740113  70.6975993  19.7114083
  23.3120113  69.7995993  18.9834083  23.1760113  70.2005993  19.6434083
  26.8720113  70.6955993  22.5674083  27.7270113  70.7945993  22.7124083
  26.5030113  71.2485993  23.1324083  26.9440113  70.7925993  22.6724083
  17.9000113  76.9215993  26.9444083  17.5040113  77.6955993  27.0194083
  17.4940113  76.5485993  26.2684083  17.7820113  76.9805993  26.8554083
  27.1760113  75.9755993  21.0584083  27.8420113  76.5165993  21.2184083
  26.8310113  76.2865993  20.3194083  27.2230113  76.1015993  20.9734083
  18.3290113  69.8985993  24.3944083  17.4650113  69.9825993  24.4744083
  18.5490113  69.3845993  25.0634083  18.2340113  69.8355993  24.5054083
  30.3470113  68.5335993  25.7234083  30.2950113  68.4895993  26.5934083
  31.0340113  68.0305993  25.5334083  30.4410113  68.4535993  25.8234083
  22.4320113  70.6465993  22.7684083  21.6950113  70.1925993  22.8814083
  23.0030113  70.2445993  23.2914083  22.4070113  70.5195993  22.8624083
  19.9350113  74.9755993  27.9724083  19.6130113  74.3995993  27.4024083
  19.5760113  75.7305993  27.7264083  19.8350113  75.0015993  27.8524083
  20.7310113  68.2275993  12.5994083  20.8090113  68.4745993  11.7664083
  19.9880113  68.6045993  12.8574083  20.6330113  68.3195993  12.5144083
  15.5490113  69.9815993  25.0424083  15.2060113  69.2145993  24.8084083
  14.8540113  70.5055993  25.1064083  15.3960113  69.9455993  25.0174083
  24.5950113  68.8375993  22.0194083  25.2650113  69.3815993  22.1464083
  24.0920113  69.2615993  21.4464083  24.6200113  68.9805993  21.9534083
  23.9540113  74.6455993  19.5124083  24.5050113  74.0385993  19.8124083
  23.5290113  74.9085993  20.2274083  23.9730113  74.5945993  19.6614083
  14.2020113  73.2955993  18.9984083  13.8340113  73.5975993  19.7294083
  14.7360113  72.6665993  19.2824083  14.2260113  73.2475993  19.1484083
  25.9240113  76.4765993  16.0744083  25.9920113  75.6265993  16.2554083
  25.1010113  76.5625993  15.7964083  25.8120113  76.3635993  16.0604083
  19.8430113  77.3675993  15.0124083  19.9430113  77.5065993  14.1574083
  20.6610113  77.3075993  15.3084083  19.9780113  77.3785993  14.9294083
  29.1980113  77.8495993  29.2254083  29.8320113  77.6795993  29.7994083
  29.6150113  78.2525993  28.5734083  29.3530113  77.8845993  29.2144083
  29.8230113  72.4135993  29.9634083  29.6270113  73.0575993  30.5184083
  29.1010113  71.9235993  29.9554083  29.6880113  72.4365993  30.0444083
  29.7220113  73.3545993  22.9344083  28.8890113  73.6045993  22.8624083
  29.6660113  72.5145993  23.1634083  29.5910113  73.2675993  22.9574083
  18.9820113  70.3425993  28.1284083  19.2160113  69.7665993  27.5154083
  18.1400113  70.1615993  28.2694083  18.8920113  70.2305993  28.0584083
  26.6090113  77.9605993  30.5804083  27.4800113  77.9245993  30.5444083
  26.3900113  78.3805993  29.8484083  26.7060113  78.0165993  30.4674083
  23.1820113  75.4615993   3.1541673  22.6580113  76.0575993   3.5171673
  23.5790113  75.0935993   3.8381673  23.1630113  75.4955993   3.3091673
  18.9450113  72.4675993   4.4141673  19.6230113  72.4855993   3.8651673
  18.9000113  71.6315993   4.6591673  19.0380113  72.3465993   4.3691673
  22.6670113  74.5185993   9.2501673  21.8190113  74.4195993   9.0721673
  22.6960113  75.2635993   9.7041673  22.5460113  74.6145993   9.2911673
  27.2250113  67.4785993   8.3641673  27.0670113  68.2475993   7.9821673
  26.4530113  67.2585993   8.7081673  27.0870113  67.5595993   8.3591673
  12.8930113  74.6185993   2.0801673  12.6370113  75.4495993   2.0051673
  12.2290113  74.2355993   2.4971673  12.7570113  74.6845993   2.1311673
  15.9220113  69.4355993   2.5711673  15.4010113  68.8075993   2.2631673
  16.5130113  68.9985993   3.0421673  15.9330113  69.2775993   2.5951673
  19.2280113  71.5685993  11.8691673  19.3450113  71.1145993  11.1331673
  19.5160113  72.3665993  11.6661673  19.2880113  71.6195993  11.7301673
  14.9610113  71.1655993  10.8531673  14.1830113  70.7755993  10.7811673
  15.4520113  70.7535993  10.2621673  14.9180113  71.0465993  10.7551673
  21.6100113  68.8085993  10.0211673  21.7880113  67.9995993   9.7461673
  21.4670113  69.2495993   9.2821673  21.6150113  68.7545993   9.8711673
  29.7560113  70.4155993   4.5421673  30.5130113  70.4875993   4.1141673
  29.8190113  69.6425993   4.9411673  29.8770113  70.3125993   4.5371673
  12.3090113  71.7135993   8.4391673  12.3050113  72.3005993   9.0851673
  12.9030113  72.0255993   7.8821673  12.3960113  71.8465993   8.4521673
  18.7120113  78.0805993   2.8851673  18.8840113  77.8705993   3.7141673
  18.0570113  77.5465993   2.6691673  18.6410113  77.9705993   2.9761673
  24.9400113  71.9945993   6.4001673  24.8450113  72.3135993   7.2061673
  24.3470113  71.3555993   6.3621673  24.8380113  71.9465993   6.5141673
  28.6600113  72.1745993   7.5441673  29.4320113  71.9495993   7.8811673
  28.1850113  72.3915993   8.2441673  28.7040113  72.1735993   7.6971673
  14.3450113  72.5595993   3.5961673  15.1880113  72.7795993   3.5531673
  13.9560113  73.1325993   3.0651673  14.4120113  72.6765993   3.5111673
  20.1990113  74.2445993  11.7141673  19.7150113  74.8215993  12.1561673
  20.1710113  74.5395993  10.8931673  20.1230113  74.3735993  11.6581673
  31.2970113  74.9285993   6.3261673  31.5120113  74.1285993   6.0501673
  30.4470113  74.9885993   6.1371673  31.2030113  74.8195993   6.2571673
  15.7740113  75.0515993  10.0731673  15.2380113  74.5455993  10.5411673
  15.7940113  74.6615993   9.2931673  15.6970113  74.9185993  10.0271673
  16.8560113  76.0155993   5.2801673  16.8810113  75.3405993   4.7291673
  16.2100113  76.5115993   4.9681673  16.7650113  75.9885993   5.1531673
  26.7510113  73.7285993   3.6761673  26.0890113  74.0565993   4.1391673
  26.9380113  74.3625993   3.1071673  26.6810113  73.8705993   3.6601673
  23.3960113  69.6345993   7.1051673  23.5450113  68.8095993   6.8621673
  23.7750113  69.6895993   7.8891673  23.4740113  69.5205993   7.1851673
  14.6550113  77.3705993  10.8391673  14.6180113  77.8715993  10.1251673
  14.9860113  76.6185993  10.5441673  14.6980113  77.3325993  10.6901673
  21.5260113  73.1675993   2.9121673  22.0060113  73.8665993   3.1201673
  21.8990113  72.5205993   3.3631673  21.6520113  73.1755993   3.0091673
  28.0050113  78.1215993   7.2571673  28.0600113  78.2465993   6.3951673
  28.7580113  78.4415993   7.5591673  28.1240113  78.1865993   7.1741673
  29.0370113  68.4195993  10.2441673  28.4000113  68.0195993   9.8021673
  29.0630113  67.9885993  11.0021673  28.9470113  68.2975993  10.2901673
  23.7360113  77.9275993   6.8571673  23.5810113  78.5375993   7.4611673
  24.2700113  77.3695993   7.2631673  23.7920113  77.9355993   7.0061673
  21.3430113  78.3745993   1.9461673  20.4960113  78.1805993   2.0271673
  21.6670113  78.2095993   2.7391673  21.2650113  78.3215993   2.0751673
  15.1910113  78.0675993   4.2621673  15.9130113  78.5555993   4.2251673
  14.9210113  78.0375993   3.4331673  15.2580113  78.1355993   4.1341673
  28.2770113  77.5985993   4.5031673  28.2700113  76.8225993   4.9011673
  27.4360113  77.8325993   4.4961673  28.1520113  77.5185993   4.5611673
  29.5330113  77.6695993   1.9401673  29.2470113  78.0705993   2.6601673
  30.3930113  77.6075993   2.0671673  29.6180113  77.7195993   2.0651673
  27.1950113  71.5935993  10.4801673  26.6700113  72.0525993  11.0041673
  26.8340113  70.7985993  10.4741673  27.0640113  71.5435993  10.5561673
  25.6870113  75.1625993  10.5561673  25.7600113  75.2665993  11.4191673
  25.0530113  75.7205993  10.3351673  25.6040113  75.2605993  10.6511673
  27.9550113  75.4815993   8.9211673  28.2740113  76.2675993   9.1241673
  27.5850113  75.2115993   9.6641673  27.9480113  75.5575993   9.0611673
  30.6530113  76.0235993  11.6561673  30.6010113  75.6825993  10.8551673
  31.3900113  76.4905993  11.6341673  30.7540113  76.0425993  11.5341673
  26.6630113  70.0695993   7.5711673  27.4070113  70.5215993   7.5081673
  26.0970113  70.5395993   7.1021673  26.6900113  70.2065993   7.4931673
  21.8410113  77.3535993   4.6491673  22.3170113  77.7275993   5.2771673
  21.0180113  77.4875993   4.9081673  21.7900113  77.4285993   4.7801673
  18.5510113  72.9565993   7.3901673  18.7120113  72.2125993   7.8171673
  18.5060113  72.7075993   6.5551673  18.5680113  72.8095993   7.3301673
  27.9480113  68.0495993   5.2411673  27.6680113  68.8745993   5.1971673
  28.6640113  68.1025993   5.7371673  28.0130113  68.1795993   5.3081673
  20.3030113  68.7645993   7.2701673  21.0080113  69.0845993   6.8681673
  20.5440113  67.9575993   7.4971673  20.4420113  68.6925993   7.2441673
  16.8120113  73.8175993   3.3311673  17.2520113  73.7145993   2.5851673
  17.3570113  73.5045993   3.9361673  16.9570113  73.7565993   3.3101673
  24.8280113  72.9195993   8.9231673  24.1800113  73.3895993   9.2711673
  25.3930113  72.8305993   9.5821673  24.8160113  72.9755993   9.0721673
  24.5160113  74.4565993   5.2211673  24.8180113  74.8765993   5.9241673
  24.5520113  73.6165993   5.4531673  24.5660113  74.3945993   5.3591673
  20.3590113  68.8025993   3.3781673  19.5330113  68.6535993   3.6151673
  20.3190113  68.8375993   2.5071673  20.2310113  68.7855993   3.2841673
  12.9240113  69.2005993   9.4131673  12.7840113  69.9955993   9.0821673
  12.1380113  68.9575993   9.7021673  12.7870113  69.2825993   9.4071673
  30.6650113  75.0985993   9.0851673  29.8100113  74.9765993   9.2111673
  30.8180113  74.7035993   8.3221673  30.5610113  75.0215993   8.9911673
  25.1780113  75.7635993   7.6611673  24.9230113  75.0445993   8.0831673
  25.9990113  75.8795993   7.9311673  25.2620113  75.6745993   7.7631673
  23.1120113  76.9535993  10.8481673  23.4350113  77.6395993  10.4161673
  22.4080113  77.2765993  11.2501673  23.0550113  77.1025993  10.8431673
  15.9650113  73.9555993   7.0541673  16.3400113  74.5745993   6.5671673
  16.6390113  73.4815993   7.3391673  16.1200113  73.9775993   7.0241673
  13.7400113  72.4035993   6.3291673  13.8170113  72.2345993   5.4761673
  14.4860113  72.8095993   6.5261673  13.8610113  72.4385993   6.2321673
  16.2940113  69.8135993   8.7401673  16.2130113  68.9695993   8.9461673
  15.9800113  69.8575993   7.9271673  16.2360113  69.6955993   8.6501673
  28.4010113  75.1895993   6.1251673  28.3990113  74.3265993   6.2491673
  28.4680113  75.5135993   6.9321673  28.4110113  75.1095993   6.2621673
  13.1370113  77.6295993   6.5531673  13.4570113  77.8485993   5.7721673
  13.0370113  76.7645993   6.4981673  13.1690113  77.5345993   6.4301673
  24.2800113  69.9895993   9.9071673  24.3720113  70.7015993  10.4011673
  23.6430113  69.5445993  10.3041673  24.1990113  70.0285993  10.0391673
  26.8720113  70.6955993   3.5611673  27.7270113  70.7945993   3.7061673
  26.5030113  71.2485993   4.1261673  26.9440113  70.7925993   3.6661673
  17.9000113  76.9215993   7.9381673  17.5040113  77.6955993   8.0131673
  17.4940113  76.5485993   7.2621673  17.7820113  76.9805993   7.8491673
  18.3290113  69.8985993   5.3881673  17.4650113  69.9825993   5.4681673
  18.5490113  69.3845993   6.0571673  18.2340113  69.8355993   5.4991673
  30.3470113  68.5335993   6.7171673  30.2950113  68.4895993   7.5871673
  31.0340113  68.0305993   6.5271673  30.4410113  68.4535993   6.8171673
  22.4320113  70.6465993   3.7621673  21.6950113  70.1925993   3.8751673
  23.0030113  70.2445993   4.2851673  22.4070113  70.5195993   3.8561673
  19.9350113  74.9755993   8.9661673  19.6130113  74.3995993   8.3961673
  19.5760113  75.7305993   8.7201673  19.8350113  75.0015993   8.8461673
  15.5490113  69.9815993   6.0361673  15.2060113  69.2145993   5.8021673
  14.8540113  70.5055993   6.1001673  15.3960113  69.9455993   6.0111673
  24.5950113  68.8375993   3.0131673  25.2650113  69.3815993   3.1401673
  24.0920113  69.2615993   2.4401673  24.6200113  68.9805993   2.9471673
  29.1980113  77.8495993  10.2191673  29.8320113  77.6795993  10.7931673
  29.6150113  78.2525993   9.5671673  29.3530113  77.8845993  10.2081673
  29.8230113  72.4135993  10.9571673  29.6270113  73.0575993  11.5121673
  29.1010113  71.9235993  10.9491673  29.6880113  72.4365993  11.0381673
  29.7220113  73.3545993   3.9281673  28.8890113  73.6045993   3.8561673
  29.6660113  72.5145993   4.1571673  29.5910113  73.2675993   3.9511673
  18.9820113  70.3425993   9.1221673  19.2160113  69.7665993   8.5091673
  18.1400113  70.1615993   9.2631673  18.8920113  70.2305993   9.0521673
  26.6090113  77.9605993  11.5741673  27.4800113  77.9245993  11.5381673
  26.3900113  78.3805993  10.8421673  26.7060113  78.0165993  11.4611673
  23.3730113  50.0674913  74.5081313  23.1280113  50.5554913  73.8281313
  24.2360113  49.9944913  74.4081313  23.4640113  50.1284913  74.3931313
  13.0510113  61.1234913  74.6351313  12.6100113  61.2414913  75.3781313
  12.7680113  60.3484913  74.3501313  12.9440113  61.0264913  74.7031313
  29.3260113  64.4244913  72.1501313  30.0270113  63.9054913  72.1461313
  28.7390113  63.9794913  71.6811313  29.3430113  64.2814913  72.0801313
  12.7940113  54.9154913  71.1421313  12.0160113  55.0774913  70.7821313
  12.8330113  54.0444913  71.1641313  12.6850113  54.8104913  71.0921313
  15.9330113  60.1784913  69.8141313  15.5410113  59.8074913  69.1281313
  15.8530113  59.5804913  70.4431313  15.8630113  60.0354913  69.8051313
  25.8530113  58.0504913  75.8551313  25.9330113  58.0544913  74.9861313
  25.2690113  57.4184913  76.0041313  25.7780113  57.9574913  75.7491313
  15.5600113  61.8194913  73.7141313  16.1680113  61.6494913  74.3171313
  14.8090113  61.6794913  74.1351313  15.5390113  61.7734913  73.8651313
  19.8420113  51.1544913  73.6631313  19.7720113  51.8314913  73.1171313
  20.5830113  50.7664913  73.4141313  19.9410113  51.1974913  73.5451313
  14.4510113  64.9104913  69.7911313  14.9180113  64.9944913  69.0591313
  14.9060113  64.3324913  70.2601313  14.5870113  64.8374913  69.7521313
  14.4370113  58.3794913  75.0921313  13.9750113  57.9874913  74.4651313
  15.1370113  57.8664913  75.1841313  14.4720113  58.2464913  75.0131313
  16.4380113  56.4794913  75.1151313  17.2550113  56.2924913  75.3581313
  15.9610113  55.8654913  75.5111313  16.4880113  56.3614913  75.2101313
  20.6420113  62.4604913  77.7251313  20.9900113  61.6614913  77.7551313
  21.3070113  62.9644913  77.4701313  20.7920113  62.4164913  77.6921313
  20.6990113  61.9094913  73.9361313  21.0300113  61.2654913  74.4221313
  20.9390113  61.6984913  73.1251313  20.7830113  61.7834913  73.8881313
  17.0350113  51.5734913  74.3811313  16.7390113  52.0744913  73.7311313
  17.9020113  51.6514913  74.3241313  17.1190113  51.6594913  74.2771313
  20.0140113  50.7154913  76.6041313  20.0870113  51.5754913  76.7331313
  19.9760113  50.6404913  75.7361313  20.0190113  50.8314913  76.4951313
  24.6870113  53.6414913  68.9031313  24.2370113  54.3224913  69.2101313
  24.8010113  53.1374913  69.6061313  24.6380113  53.6674913  69.0521313
  12.8930113  56.1404913  78.1051313  12.6370113  56.9714913  78.0301313
  12.2290113  55.7574913  78.5221313  12.7570113  56.2064913  78.1561313
  12.8030113  65.8504913  76.0051313  12.2110113  66.4084913  75.6921313
  13.2290113  65.5814913  75.2931313  12.7790113  65.8924913  75.8541313
  18.6430113  63.6944913  73.4851313  18.0640113  63.4194913  74.0771313
  19.2670113  63.0854913  73.5101313  18.6500113  63.5644913  73.5761313
  24.7860113  65.9824913  71.0071313  25.5130113  66.4544913  71.1091313
  25.0150113  65.1884913  71.2871313  24.9280113  65.9354913  71.0641313
  22.9540113  66.3744913  72.9971313  23.1680113  66.9014913  73.6591313
  23.7210113  66.2004913  72.6181313  23.0990113  66.4264913  73.0391313
  14.3480113  64.5204913  73.9361313  15.0040113  63.9454913  73.9511313
  14.7370113  65.2694913  73.7151313  14.5030113  64.5454913  73.9061313
  30.0810113  53.6144913  75.1981313  29.7350113  54.2924913  75.6241313
  29.4450113  53.0164913  75.2141313  29.9360113  53.6264913  75.2631313
  15.1660113  63.0074913  77.4361313  15.5890113  62.6514913  76.7621313
  15.4900113  62.5854913  78.1281313  15.2760113  62.8924913  77.4391313
  18.3970113  65.8594913  76.7321313  19.2410113  65.9634913  76.5371313
  18.1000113  66.6774913  76.8001313  18.4780113  65.9954913  76.7131313
  22.2040113  55.2564913  74.8191313  22.4910113  55.0244913  74.0291313
  22.9360113  55.3354913  75.2881313  22.3540113  55.2334913  74.7721313
  22.9260113  55.5954913  69.9401313  23.2070113  56.3834913  70.1891313
  22.1500113  55.7604913  69.5771313  22.8530113  55.7364913  69.9231313
  26.9670113  67.5694913  71.4071313  27.6320113  67.4214913  70.8621313
  27.3270113  67.4864913  72.1971313  27.1190113  67.5354913  71.4431313
  21.7850113  63.7664913  69.7561313  21.6040113  64.3114913  70.4131313
  22.5510113  64.0564913  69.4551313  21.8710113  63.8904913  69.8091313
  25.2920113  51.6624913  70.8101313  25.8320113  50.9804913  70.8861313
  25.3540113  52.0604913  71.5841313  25.3810113  51.6204913  70.9361313
  13.2460113  52.8304913  73.3791313  13.1320113  51.9664913  73.4101313
  12.7710113  53.1244913  74.0491313  13.1590113  52.7464913  73.4821313
  22.5500113  54.0384913  72.1241313  22.0420113  53.3764913  71.8701313
  22.6020113  54.5424913  71.4141313  22.4830113  54.0154913  71.9821313
  22.5500113  50.9794913  72.0151313  22.0950113  50.5774913  71.3891313
  23.3230113  51.1344913  71.6401313  22.5970113  50.9434913  71.8671313
  29.3760113  67.3364913  75.4051313  28.9210113  68.0534913  75.6061313
  28.7620113  66.7654913  75.1631313  29.2180113  67.3584913  75.3991313
  21.1480113  53.3464913  76.5371313  21.2220113  53.9144913  75.8791313
  21.2690113  53.8384913  77.2471313  21.1760113  53.5034913  76.5451313
  26.3730113  63.1814913  74.9491313  27.0740113  62.6994913  75.1381313
  25.7130113  62.6124913  74.9941313  26.3790113  63.0264913  74.9831313
  15.7560113  49.1694913  74.8851313  16.2920113  49.8574913  74.8751313
  15.7590113  48.8954913  74.0571313  15.8350113  49.2304913  74.7611313
  26.1960113  49.4604913  75.2611313  26.2450113  49.1424913  76.0721313
  26.5190113  48.8164913  74.7681313  26.2510113  49.3184913  75.3081313
  16.2040113  52.9794913  76.5391313  16.4760113  52.5494913  75.8311313
  16.0280113  52.3434913  77.1101313  16.2180113  52.8224913  76.5191313
  28.8920113  60.6744913  70.7571313  29.0110113  60.3874913  71.5721313
  29.6990113  60.6954913  70.4271313  29.0280113  60.6354913  70.8291313
  16.0280113  60.4064913  76.0881313  16.8790113  60.3264913  75.9151313
  15.6710113  59.7244913  75.6761313  16.1010113  60.2934913  76.0011313
  14.7950113  67.1314913  77.3251313  14.1220113  66.6334913  77.0801313
  15.1980113  67.3164913  76.5741313  14.7550113  67.0854913  77.1781313
  26.7870113  57.2114913  70.3421313  26.5670113  57.9424913  69.9201313
  26.3390113  57.2624913  71.0891313  26.6880113  57.3264913  70.3901313
  18.3960113  60.4134913  74.3231313  19.1090113  60.9084913  74.4131313
  18.6180113  59.8464913  73.6971313  18.5340113  60.4024913  74.2441313
  30.9740113  52.0724913  69.7951313  30.3120113  51.5044913  69.8181313
  30.7810113  52.5844913  69.1151313  30.8480113  52.0644913  69.6981313
  12.5520113  62.0564913  77.6431313  11.8850113  62.5444913  77.9191313
  13.2320113  62.6014913  77.6721313  12.5540113  62.2084913  77.6881313
  12.6180113  58.7404913  72.7461313  12.4330113  57.9014913  72.8981313
  13.2770113  58.7044913  72.1761313  12.6880113  58.6114913  72.6841313
  28.9760113  51.6304913  72.0741313  29.7220113  51.2234913  72.2731313
  29.2390113  52.3454913  71.6491313  29.1250113  51.6764913  72.0411313
  22.9190113  64.1164913  76.6501313  22.3960113  64.7504913  76.3571313
  23.2290113  63.7524913  75.9211313  22.8870113  64.1564913  76.4991313
  12.7900113  62.9044913  72.3211313  13.3420113  63.4734913  72.6851313
  12.5580113  62.3894913  72.9861313  12.8370113  62.9124913  72.4731313
  25.4300113  53.9184913  77.1471313  25.7740113  54.0704913  77.9341313
  24.9770113  53.1804913  77.2601313  25.4140113  53.8314913  77.2801313
  12.6200113  61.3534913  69.9491313  13.3760113  60.9214913  70.0071313
  12.6350113  61.8854913  70.6401313  12.7340113  61.3684913  70.0601313
  13.5600113  59.5744913  77.9541313  13.9910113  59.4454913  77.2071313
  13.3550113  60.4224913  77.9281313  13.5930113  59.6804913  77.8401313
  19.9060113  53.1384913  71.6041313  19.9040113  53.0214913  70.7391313
  19.7250113  53.9864913  71.6961313  19.8790113  53.2464913  71.4901313
  17.6440113  63.0904913  76.2361313  17.7700113  63.9334913  76.4231313
  18.3120113  62.6914913  76.6321313  17.7620113  63.1564913  76.3221313
  16.2590113  55.9704913  71.2381313  16.1310113  55.5224913  71.9761313
  15.6770113  55.6284913  70.6861313  16.1540113  55.8534913  71.2661313
  16.4260113  57.8004913  77.8371313  15.6450113  57.7414913  77.4541313
  16.4980113  57.0484913  78.2741313  16.3210113  57.6814913  77.8451313
  24.9440113  53.2194913  73.2121313  25.4340113  53.9364913  73.1351313
  24.1540113  53.4804913  72.9491313  24.9000113  53.3634913  73.1621313
  23.7150113  57.8584913  71.2111313  23.7070113  58.5804913  70.7211313
  23.0760113  57.9934913  71.7881313  23.6200113  57.9854913  71.2241313
  28.6870113  61.7284913  75.1921313  29.0430113  61.3784913  75.9071313
  28.6790113  61.0674913  74.6221313  28.7390113  61.5784913  75.2131313
  24.7450113  61.6454913  78.4361313  23.9480113  61.8694913  78.7101313
  25.0030113  61.0514913  79.0211313  24.6650113  61.5904913  78.5631313
  18.6370113  66.4574913  72.8841313  18.4900113  65.6814913  73.2551313
  19.3260113  66.3104913  72.3691313  18.7170113  66.3204913  72.8631313
  18.3080113  50.2004913  70.8721313  18.4050113  50.0934913  71.7331313
  17.6000113  50.7064913  70.8071313  18.2180113  50.2594913  70.9901313
  20.9290113  65.9734913  71.2861313  21.5510113  66.1364913  71.8761313
  20.9650113  66.6644913  70.7541313  21.0260113  66.0994913  71.2951313
  15.4300113  58.5074913  72.1151313  15.7540113  57.7284913  71.8931313
  16.0760113  58.8754913  72.5701313  15.5730113  58.4464913  72.1491313
  12.4270113  50.1684913  73.0831313  12.5560113  49.4604913  72.5911313
  12.0600113  49.8504913  73.8081313  12.3920113  50.0164913  73.1181313
  22.1200113  57.8494913  73.5401313  22.1790113  58.4994913  74.1191313
  21.9310113  57.1534913  74.0311313  22.1010113  57.8424913  73.6981313
  16.6160113  52.3664913  70.0521313  16.1050113  52.4194913  69.3461313
  17.4000113  52.6064913  69.7561313  16.6560113  52.4094913  69.9041313
  21.3430113  59.8964913  77.9711313  20.4960113  59.7024913  78.0521313
  21.6670113  59.7314913  78.7641313  21.2650113  59.8434913  78.1001313
  18.0950113  66.6264913  68.8571313  18.5340113  65.9294913  69.1451313
  18.3020113  67.2504913  69.4301313  18.1910113  66.6154913  68.9841313
  18.4210113  54.7604913  77.0221313  19.2670113  54.5704913  77.1201313
  18.0510113  53.9834913  76.8841313  18.4910113  54.6174913  77.0161313
  31.0380113  66.3444913  71.3491313  31.7320113  65.8774913  71.1011313
  30.4990113  65.7464913  71.6861313  31.0610113  66.1864913  71.3621313
  13.2420113  56.0984913  73.6771313  13.7310113  55.8064913  74.3381313
  13.3710113  55.5054913  73.0501313  13.3330113  55.9674913  73.6821313
  17.7670113  57.5324913  69.1631313  17.1570113  57.1274913  69.6371313
  17.3810113  57.6504913  68.3901313  17.6200113  57.4894913  69.1191313
  29.5330113  59.1914913  77.9651313  29.2470113  59.5924913  78.6851313
  30.3930113  59.1294913  78.0921313  29.6180113  59.2414913  78.0901313
  19.2220113  55.9934913  71.8731313  19.4940113  56.8194913  71.9401313
  18.3590113  56.0684913  71.7771313  19.1350113  56.1264913  71.8681313
  12.7020113  51.9634913  78.4091313  12.7460113  52.3074913  77.6081313
  13.4570113  52.2004913  78.7761313  12.8200113  52.0494913  78.3451313
  30.6640113  64.8244913  78.4941313  30.9540113  65.0814913  77.7131313
  31.3590113  64.9204913  79.0131313  30.8100113  64.8764913  78.4551313
  27.2690113  63.4274913  70.4761313  27.6030113  62.6214913  70.5111313
  26.5140113  63.3554913  70.9061313  27.2070113  63.2974913  70.5451313
  27.7510113  55.2614913  76.1351313  27.0060113  54.9384913  76.4531313
  27.7530113  56.0874913  76.4151313  27.6410113  55.3354913  76.2231313
  24.6430113  61.3024913  69.8791313  25.3270113  60.7884913  69.7101313
  24.2260113  61.3484913  69.1141313  24.6820113  61.2334913  69.7411313
  21.1050113  66.2684913  75.9021313  21.6510113  66.9474913  75.9561313
  20.7550113  66.3504913  75.1071313  21.1340113  66.3814913  75.7921313
  29.3690113  55.8264913  70.1231313  29.7470113  56.5034913  69.7231313
  28.5270113  56.0504913  70.1541313  29.3000113  55.9594913  70.0681313
  20.8820113  59.2724913  69.2061313  20.0770113  59.0954913  68.9211313
  20.8490113  60.1234913  69.3981313  20.7580113  59.3714913  69.1931313
  27.0640113  55.4254913  73.4981313  27.2710113  55.2244913  74.3221313
  27.8200113  55.6934913  73.1561313  27.2060113  55.4354913  73.5691313
  28.0860113  51.5084913  74.9721313  27.3720113  51.0374913  75.1431313
  27.9240113  51.8494913  74.1861313  27.9570113  51.4894913  74.8811313
  28.5290113  59.4524913  73.3521313  29.0050113  58.7234913  73.3041313
  27.7080113  59.1664913  73.2761313  28.4780113  59.3024913  73.3331313
  15.9880113  53.4664913  72.6631313  16.1140113  53.1374913  71.8651313
  15.1760113  53.2174913  72.8621313  15.8870113  53.3814913  72.5751313
  24.7450113  60.6194913  75.7071313  24.8210113  60.9604913  76.5061313
  24.9140113  59.7724913  75.8281313  24.7810113  60.5444913  75.8431313
  22.2670113  59.8934913  75.2721313  21.9690113  59.5784913  76.0291313
  22.9620113  60.3664913  75.5071313  22.3260113  59.9164913  75.4191313
  26.1960113  66.8494913  77.8021313  25.7450113  67.4924913  78.1811313
  26.9040113  66.7704913  78.3071313  26.2340113  66.9324913  77.9331313
  29.2990113  56.5654913  72.7941313  29.4020113  56.5074913  71.9301313
  30.0400113  56.2334913  73.1121313  29.4240113  56.5084913  72.7131313
  23.2190113  63.5304913  73.9011313  23.0140113  64.3634913  73.7421313
  22.4440113  63.1484913  74.0231313  23.0740113  63.5974913  73.8961313
  14.5930113  55.0874913  69.1961313  13.9210113  55.1014913  69.7521313
  14.6880113  54.2394913  69.0121313  14.5080113  54.9644913  69.2511313
  23.2740113  51.7014913  76.7861313  22.5740113  52.2194913  76.7301313
  23.3120113  51.3214913  76.0021313  23.1760113  51.7224913  76.6621313
  18.5810113  63.7924913  70.3101313  19.0220113  63.8724913  71.0581313
  17.7760113  63.5764913  70.5681313  18.5270113  63.7724913  70.4591313
  27.1760113  57.4974913  78.0771313  27.8420113  58.0384913  78.2371313
  26.8310113  57.8084913  77.3381313  27.2230113  57.6234913  77.9921313
  27.4890113  65.5634913  73.8841313  27.3150113  64.9094913  74.4341313
  28.2020113  65.2924913  73.4611313  27.5690113  65.4264913  73.9031313
  15.9100113  62.8624913  70.9111313  15.6660113  62.5554913  71.6911313
  15.8770113  62.1594913  70.3951313  15.8690113  62.7134913  70.9501313
  18.7290113  61.1074913  69.6541313  17.9110113  60.8394913  69.7941313
  18.7010113  61.9594913  69.8391313  18.6040113  61.1944913  69.7021313
  20.7310113  49.7494913  69.6181313  20.8090113  49.9964913  68.7851313
  19.9880113  50.1264913  69.8761313  20.6330113  49.8414913  69.5331313
  23.9540113  56.1674913  76.5311313  24.5050113  55.5604913  76.8311313
  23.5290113  56.4304913  77.2461313  23.9730113  56.1164913  76.6801313
  14.2020113  54.8174913  76.0171313  13.8340113  55.1194913  76.7481313
  14.7360113  54.1884913  76.3011313  14.2260113  54.7694913  76.1671313
  25.9240113  57.9984913  73.0931313  25.9920113  57.1484913  73.2741313
  25.1010113  58.0844913  72.8151313  25.8120113  57.8854913  73.0791313
  15.6760113  66.4924913  72.3031313  15.5310113  66.6484913  71.4571313
  16.5420113  66.5714913  72.3811313  15.7830113  66.5274913  72.1901313
  19.8430113  58.8894913  72.0311313  19.9430113  59.0284913  71.1761313
  20.6610113  58.8294913  72.3271313  19.9780113  58.9004913  71.9481313
  29.0030113  66.9534913  69.5111313  29.6400113  66.8194913  70.0921313
  28.6620113  66.1594913  69.3941313  29.0470113  66.8164913  69.5791313
  25.0780113  63.2184913  71.8331313  24.8270113  63.0904913  72.6591313
  24.7610113  62.5234913  71.4121313  24.9940113  63.0974913  71.8931313
  16.3630113  65.3074913  78.7801313  16.2840113  64.4974913  78.4641313
  15.9190113  65.7944913  78.2081313  16.2860113  65.2594913  78.6491313
  21.9640113  61.4264913  71.2631313  22.6810113  61.0794913  70.9071313
  21.9300113  62.2264913  70.9151313  22.0650113  61.4934913  71.1591313
  23.3730113  50.0674913  55.5018903  23.1280113  50.5554913  54.8218903
  24.2360113  49.9944913  55.4018903  23.4640113  50.1284913  55.3868903
  23.1820113  56.9834913  60.1728903  22.6580113  57.5794913  60.5358903
  23.5790113  56.6154913  60.8568903  23.1630113  57.0174913  60.3278903
  13.0510113  61.1234913  55.6288903  12.6100113  61.2414913  56.3718903
  12.7680113  60.3484913  55.3438903  12.9440113  61.0264913  55.6968903
  29.3260113  64.4244913  53.1438903  30.0270113  63.9054913  53.1398903
  28.7390113  63.9794913  52.6748903  29.3430113  64.2814913  53.0738903
  12.7940113  54.9154913  52.1358903  12.0160113  55.0774913  51.7758903
  12.8330113  54.0444913  52.1578903  12.6850113  54.8104913  52.0858903
  15.9330113  60.1784913  50.8078903  15.5410113  59.8074913  50.1218903
  15.8530113  59.5804913  51.4368903  15.8630113  60.0354913  50.7988903
  25.8530113  58.0504913  56.8488903  25.9330113  58.0544913  55.9798903
  25.2690113  57.4184913  56.9978903  25.7780113  57.9574913  56.7428903
  15.5600113  61.8194913  54.7078903  16.1680113  61.6494913  55.3108903
  14.8090113  61.6794913  55.1288903  15.5390113  61.7734913  54.8588903
  19.8420113  51.1544913  54.6568903  19.7720113  51.8314913  54.1108903
  20.5830113  50.7664913  54.4078903  19.9410113  51.1974913  54.5388903
  14.4510113  64.9104913  50.7848903  14.9180113  64.9944913  50.0528903
  14.9060113  64.3324913  51.2538903  14.5870113  64.8374913  50.7458903
  12.9910113  63.8584913  61.8838903  13.1200113  63.5784913  62.6998903
  12.3810113  63.3174913  61.5748903  12.9200113  63.7374913  61.9588903
  19.5650113  61.3834913  66.9508903  19.3290113  61.3804913  67.7908903
  18.8170113  61.2354913  66.5268903  19.4190113  61.3604913  67.0118903
  14.4370113  58.3794913  56.0858903  13.9750113  57.9874913  55.4588903
  15.1370113  57.8664913  56.1778903  14.4720113  58.2464913  56.0068903
  18.9450113  53.9894913  61.4328903  19.6230113  54.0074913  60.8838903
  18.9000113  53.1534913  61.6778903  19.0380113  53.8684913  61.3878903
  19.5470113  64.5754913  64.2138903  19.6850113  65.3354913  63.8068903
  20.3380113  64.2104913  64.2408903  19.6840113  64.6344913  64.1578903
  16.4380113  56.4794913  56.1088903  17.2550113  56.2924913  56.3518903
  15.9610113  55.8654913  56.5048903  16.4880113  56.3614913  56.2038903
  20.6420113  62.4604913  58.7188903  20.9900113  61.6614913  58.7488903
  21.3070113  62.9644913  58.4638903  20.7920113  62.4164913  58.6858903
  20.6990113  61.9094913  54.9298903  21.0300113  61.2654913  55.4158903
  20.9390113  61.6984913  54.1188903  20.7830113  61.7834913  54.8818903
  22.6670113  56.0404913  66.2688903  21.8190113  55.9414913  66.0908903
  22.6960113  56.7854913  66.7228903  22.5460113  56.1364913  66.3098903
  17.0350113  51.5734913  55.3748903  16.7390113  52.0744913  54.7248903
  17.9020113  51.6514913  55.3178903  17.1190113  51.6594913  55.2708903
  27.2250113  49.0004913  65.3828903  27.0670113  49.7694913  65.0008903
  26.4530113  48.7804913  65.7268903  27.0870113  49.0814913  65.3778903
  20.0140113  50.7154913  57.5978903  20.0870113  51.5754913  57.7268903
  19.9760113  50.6404913  56.7298903  20.0190113  50.8314913  57.4888903
  24.6870113  53.6414913  49.8968903  24.2370113  54.3224913  50.2038903
  24.8010113  53.1374913  50.5998903  24.6380113  53.6674913  50.0458903
  12.8930113  56.1404913  59.0988903  12.6370113  56.9714913  59.0238903
  12.2290113  55.7574913  59.5158903  12.7570113  56.2064913  59.1498903
  12.8030113  65.8504913  56.9988903  12.2110113  66.4084913  56.6858903
  13.2290113  65.5814913  56.2868903  12.7790113  65.8924913  56.8478903
  18.6430113  63.6944913  54.4788903  18.0640113  63.4194913  55.0708903
  19.2670113  63.0854913  54.5038903  18.6500113  63.5644913  54.5698903
  24.7860113  65.9824913  52.0008903  25.5130113  66.4544913  52.1028903
  25.0150113  65.1884913  52.2808903  24.9280113  65.9354913  52.0578903
  22.9540113  66.3744913  53.9908903  23.1680113  66.9014913  54.6528903
  23.7210113  66.2004913  53.6118903  23.0990113  66.4264913  54.0328903
  15.9220113  50.9574913  59.5898903  15.4010113  50.3294913  59.2818903
  16.5130113  50.5204913  60.0608903  15.9330113  50.7994913  59.6138903
  19.2280113  53.0904913  68.8878903  19.3450113  52.6364913  68.1518903
  19.5160113  53.8884913  68.6848903  19.2880113  53.1414913  68.7488903
  14.3480113  64.5204913  54.9298903  15.0040113  63.9454913  54.9448903
  14.7370113  65.2694913  54.7088903  14.5030113  64.5454913  54.8998903
  30.0810113  53.6144913  56.1918903  29.7350113  54.2924913  56.6178903
  29.4450113  53.0164913  56.2078903  29.9360113  53.6264913  56.2568903
  25.3930113  66.3844913  62.2958903  26.1370113  66.8404913  62.2858903
  25.2720113  66.1704913  61.4588903  25.4850113  66.4204913  62.1708903
  14.9610113  52.6874913  67.8718903  14.1830113  52.2974913  67.7998903
  15.4520113  52.2754913  67.2808903  14.9180113  52.5684913  67.7738903
  15.1660113  63.0074913  58.4298903  15.5890113  62.6514913  57.7558903
  15.4900113  62.5854913  59.1218903  15.2760113  62.8924913  58.4328903
  18.3970113  65.8594913  57.7258903  19.2410113  65.9634913  57.5308903
  18.1000113  66.6774913  57.7938903  18.4780113  65.9954913  57.7068903
  21.6100113  50.3304913  67.0398903  21.7880113  49.5214913  66.7648903
  21.4670113  50.7714913  66.3008903  21.6150113  50.2764913  66.8898903
  22.2040113  55.2564913  55.8128903  22.4910113  55.0244913  55.0228903
  22.9360113  55.3354913  56.2818903  22.3540113  55.2334913  55.7658903
  22.9260113  55.5954913  50.9338903  23.2070113  56.3834913  51.1828903
  22.1500113  55.7604913  50.5708903  22.8530113  55.7364913  50.9168903
  26.9670113  67.5694913  52.4008903  27.6320113  67.4214913  51.8558903
  27.3270113  67.4864913  53.1908903  27.1190113  67.5354913  52.4368903
  17.3950113  67.0784913  63.4658903  17.6870113  67.0114913  64.2858903
  16.7690113  66.4734913  63.4208903  17.3460113  66.9794913  63.5808903
  29.7560113  51.9374913  61.5608903  30.5130113  52.0094913  61.1328903
  29.8190113  51.1644913  61.9598903  29.8770113  51.8344913  61.5558903
  12.3090113  53.2354913  65.4578903  12.3050113  53.8224913  66.1038903
  12.9030113  53.5474913  64.9008903  12.3960113  53.3684913  65.4708903
  24.6470113  63.5694913  65.9998903  24.6130113  63.9514913  66.7838903
  25.5010113  63.5274913  65.8288903  24.7680113  63.6194913  66.0908903
  21.7850113  63.7664913  50.7498903  21.6040113  64.3114913  51.4068903
  22.5510113  64.0564913  50.4488903  21.8710113  63.8904913  50.8028903
  25.2920113  51.6624913  51.8038903  25.8320113  50.9804913  51.8798903
  25.3540113  52.0604913  52.5778903  25.3810113  51.6204913  51.9298903
  13.2460113  52.8304913  54.3728903  13.1320113  51.9664913  54.4038903
  12.7710113  53.1244913  55.0428903  13.1590113  52.7464913  54.4758903
  15.3880113  65.2404913  62.5878903  14.6900113  64.7324913  62.7138903
  15.6480113  65.0354913  61.7798903  15.3230113  65.1354913  62.4868903
  22.5500113  54.0384913  53.1178903  22.0420113  53.3764913  52.8638903
  22.6020113  54.5424913  52.4078903  22.4830113  54.0154913  52.9758903
  23.0990113  66.7334913  63.4978903  23.8670113  66.6534913  63.0918903
  22.5160113  66.6124913  62.8598903  23.1260113  66.7034913  63.3438903
  22.5500113  50.9794913  53.0088903  22.0950113  50.5774913  52.3828903
  23.3230113  51.1344913  52.6338903  22.5970113  50.9434913  52.8608903
  29.3760113  67.3364913  56.3988903  28.9210113  68.0534913  56.5998903
  28.7620113  66.7654913  56.1568903  29.2180113  67.3584913  56.3928903
  21.1480113  53.3464913  57.5308903  21.2220113  53.9144913  56.8728903
  21.2690113  53.8384913  58.2408903  21.1760113  53.5034913  57.5388903
  26.3730113  63.1814913  55.9428903  27.0740113  62.6994913  56.1318903
  25.7130113  62.6124913  55.9878903  26.3790113  63.0264913  55.9768903
  16.7490113  64.0914913  65.1548903  17.5900113  64.1544913  64.9328903
  16.7120113  64.4884913  65.9308903  16.8680113  64.1594913  65.2368903
  15.7560113  49.1694913  55.8788903  16.2920113  49.8574913  55.8688903
  15.7590113  48.8954913  55.0508903  15.8350113  49.2304913  55.7548903
  18.7120113  59.6024913  59.9038903  18.8840113  59.3924913  60.7328903
  18.0570113  59.0684913  59.6878903  18.6410113  59.4924913  59.9948903
  24.9400113  53.5164913  63.4188903  24.8450113  53.8354913  64.2248903
  24.3470113  52.8774913  63.3808903  24.8380113  53.4684913  63.5328903
  19.4620113  59.5404913  62.4938903  19.5150113  60.3874913  62.6958903
  19.1770113  59.1704913  63.2308903  19.4280113  59.6104913  62.6318903
  25.6390113  60.2354913  61.6238903  25.1250113  59.8234913  62.1948903
  25.5130113  61.0794913  61.8048903  25.5450113  60.2994913  61.7348903
  26.1960113  49.4604913  56.2548903  26.2450113  49.1424913  57.0658903
  26.5190113  48.8164913  55.7618903  26.2510113  49.3184913  56.3018903
  12.2830113  63.9114913  68.7048903  13.0390113  64.2604913  68.9628903
  12.4600113  63.0584913  68.6478903  12.4210113  63.8364913  68.7348903
  28.6600113  53.6964913  64.5628903  29.4320113  53.4714913  64.8998903
  28.1850113  53.9134913  65.2628903  28.7040113  53.6954913  64.7158903
  16.2040113  52.9794913  57.5328903  16.4760113  52.5494913  56.8248903
  16.0280113  52.3434913  58.1038903  16.2180113  52.8224913  57.5128903
  28.8920113  60.6744913  51.7508903  29.0110113  60.3874913  52.5658903
  29.6990113  60.6954913  51.4208903  29.0280113  60.6354913  51.8228903
  16.0280113  60.4064913  57.0818903  16.8790113  60.3264913  56.9088903
  15.6710113  59.7244913  56.6698903  16.1010113  60.2934913  56.9948903
  14.7950113  67.1314913  58.3188903  14.1220113  66.6334913  58.0738903
  15.1980113  67.3164913  57.5678903  14.7550113  67.0854913  58.1718903
  14.3450113  54.0814913  60.6148903  15.1880113  54.3014913  60.5718903
  13.9560113  54.6544913  60.0838903  14.4120113  54.1984913  60.5298903
  31.1260113  65.1834913  66.0048903  30.4440113  65.4934913  65.5578903
  30.7570113  64.7254913  66.6498903  30.9700113  65.1614913  66.0338903
  26.7870113  57.2114913  51.3358903  26.5670113  57.9424913  50.9138903
  26.3390113  57.2624913  52.0828903  26.6880113  57.3264913  51.3838903
  18.3960113  60.4134913  55.3168903  19.1090113  60.9084913  55.4068903
  18.6180113  59.8464913  54.6908903  18.5340113  60.4024913  55.2378903
  12.5520113  62.0564913  58.6368903  11.8850113  62.5444913  58.9128903
  13.2320113  62.6014913  58.6658903  12.5540113  62.2084913  58.6818903
  20.1990113  55.7664913  68.7328903  19.7150113  56.3434913  69.1748903
  20.1710113  56.0614913  67.9118903  20.1230113  55.8954913  68.6768903
  31.2970113  56.4504913  63.3448903  31.5120113  55.6504913  63.0688903
  30.4470113  56.5104913  63.1558903  31.2030113  56.3414913  63.2758903
  12.6180113  58.7404913  53.7398903  12.4330113  57.9014913  53.8918903
  13.2770113  58.7044913  53.1698903  12.6880113  58.6114913  53.6778903
  28.9760113  51.6304913  53.0678903  29.7220113  51.2234913  53.2668903
  29.2390113  52.3454913  52.6428903  29.1250113  51.6764913  53.0348903
  22.9190113  64.1164913  57.6438903  22.3960113  64.7504913  57.3508903
  23.2290113  63.7524913  56.9148903  22.8870113  64.1564913  57.4928903
  12.7900113  62.9044913  53.3148903  13.3420113  63.4734913  53.6788903
  12.5580113  62.3894913  53.9798903  12.8370113  62.9124913  53.4668903
  16.9940113  61.9044913  60.4038903  17.4610113  62.1934913  61.0818903
  17.5660113  61.4264913  59.9498903  17.1480113  61.8764913  60.4368903
  25.4300113  53.9184913  58.1408903  25.7740113  54.0704913  58.9278903
  24.9770113  53.1804913  58.2538903  25.4140113  53.8314913  58.2738903
  12.6200113  61.3534913  50.9428903  13.3760113  60.9214913  51.0008903
  12.6350113  61.8854913  51.6338903  12.7340113  61.3684913  51.0538903
  13.5600113  59.5744913  58.9478903  13.9910113  59.4454913  58.2008903
  13.3550113  60.4224913  58.9218903  13.5930113  59.6804913  58.8338903
  19.9060113  53.1384913  52.5978903  19.9040113  53.0214913  51.7328903
  19.7250113  53.9864913  52.6898903  19.8790113  53.2464913  52.4838903
  28.9600113  65.5654913  64.0948903  28.2890113  66.0794913  64.3128903
  29.0230113  65.6654913  63.2308903  28.8700113  65.6564913  63.9998903
  17.6440113  63.0904913  57.2298903  17.7700113  63.9334913  57.4168903
  18.3120113  62.6914913  57.6258903  17.7620113  63.1564913  57.3158903
  15.7740113  56.5734913  67.0918903  15.2380113  56.0674913  67.5598903
  15.7940113  56.1834913  66.3118903  15.6970113  56.4404913  67.0458903
  16.2590113  55.9704913  52.2318903  16.1310113  55.5224913  52.9698903
  15.6770113  55.6284913  51.6798903  16.1540113  55.8534913  52.2598903
  16.4260113  57.8004913  58.8308903  15.6450113  57.7414913  58.4478903
  16.4980113  57.0484913  59.2678903  16.3210113  57.6814913  58.8388903
  16.8560113  57.5374913  62.2988903  16.8810113  56.8624913  61.7478903
  16.2100113  58.0334913  61.9868903  16.7650113  57.5104913  62.1718903
  26.7510113  55.2504913  60.6948903  26.0890113  55.5784913  61.1578903
  26.9380113  55.8844913  60.1258903  26.6810113  55.3924913  60.6788903
  20.9560113  66.3144913  61.6908903  20.6790113  65.6734913  61.1678903
  20.7480113  67.0404913  61.2528903  20.8850113  66.3274913  61.5488903
  23.3960113  51.1564913  64.1238903  23.5450113  50.3314913  63.8808903
  23.7750113  51.2114913  64.9078903  23.4740113  51.0424913  64.2038903
  14.6550113  58.8924913  67.8578903  14.6180113  59.3934913  67.1438903
  14.9860113  58.1404913  67.5628903  14.6980113  58.8544913  67.7088903
  26.2580113  61.0974913  66.1158903  26.7420113  61.8154913  66.2138903
  26.6520113  60.6704913  65.4648903  26.3880113  61.1404913  66.0338903
  20.5540113  63.9424913  67.2928903  20.9080113  63.7644913  68.0698903
  20.1180113  63.2134913  67.0938903  20.5420113  63.8084913  67.3788903
  21.5260113  54.6894913  59.9308903  22.0060113  55.3884913  60.1388903
  21.8990113  54.0424913  60.3818903  21.6520113  54.6974913  60.0278903
  23.7150113  57.8584913  52.2048903  23.7070113  58.5804913  51.7148903
  23.0760113  57.9934913  52.7818903  23.6200113  57.9854913  52.2178903
  28.6870113  61.7284913  56.1858903  29.0430113  61.3784913  56.9008903
  28.6790113  61.0674913  55.6158903  28.7390113  61.5784913  56.2068903
  24.7320113  64.7944913  60.0298903  24.1290113  64.4984913  59.4728903
  25.2770113  65.2464913  59.5208903  24.7230113  64.8174913  59.8718903
  24.7450113  61.6454913  59.4298903  23.9480113  61.8694913  59.7038903
  25.0030113  61.0514913  60.0148903  24.6650113  61.5904913  59.5568903
  18.6370113  66.4574913  53.8778903  18.4900113  65.6814913  54.2488903
  19.3260113  66.3104913  53.3628903  18.7170113  66.3204913  53.8568903
  18.3080113  50.2004913  51.8658903  18.4050113  50.0934913  52.7268903
  17.6000113  50.7064913  51.8008903  18.2180113  50.2594913  51.9838903
  20.9290113  65.9734913  52.2798903  21.5510113  66.1364913  52.8698903
  20.9650113  66.6644913  51.7478903  21.0260113  66.0994913  52.2888903
  28.0050113  59.6434913  64.2758903  28.0600113  59.7684913  63.4138903
  28.7580113  59.9634913  64.5778903  28.1240113  59.7084913  64.1928903
  24.1960113  64.9924913  68.5528903  24.3600113  65.2754913  69.3618903
  24.4590113  65.6534913  68.0478903  24.2590113  65.1324913  68.5978903
  29.0370113  49.9414913  67.2628903  28.4000113  49.5414913  66.8208903
  29.0630113  49.5104913  68.0208903  28.9470113  49.8194913  67.3088903
  15.4300113  58.5074913  53.1088903  15.7540113  57.7284913  52.8868903
  16.0760113  58.8754913  53.5638903  15.5730113  58.4464913  53.1428903
  23.7360113  59.4494913  63.8758903  23.5810113  60.0594913  64.4798903
  24.2700113  58.8914913  64.2818903  23.7920113  59.4574913  64.0248903
  12.4270113  50.1684913  54.0768903  12.5560113  49.4604913  53.5848903
  12.0600113  49.8504913  54.8018903  12.3920113  50.0164913  54.1118903
  22.1200113  57.8494913  54.5338903  22.1790113  58.4994913  55.1128903
  21.9310113  57.1534913  55.0248903  22.1010113  57.8424913  54.6918903
  27.3460113  62.1784913  60.4028903  26.8670113  62.4764913  59.7368903
  26.9900113  61.4024913  60.5808903  27.2230113  62.1074913  60.3308903
  16.6160113  52.3664913  51.0458903  16.1050113  52.4194913  50.3398903
  17.4000113  52.6064913  50.7498903  16.6560113  52.4094913  50.8978903
  21.3430113  59.8964913  58.9648903  20.4960113  59.7024913  59.0458903
  21.6670113  59.7314913  59.7578903  21.2650113  59.8434913  59.0938903
  18.0950113  66.6264913  49.8508903  18.5340113  65.9294913  50.1388903
  18.3020113  67.2504913  50.4238903  18.1910113  66.6154913  49.9778903
  15.1910113  59.5894913  61.2808903  15.9130113  60.0774913  61.2438903
  14.9210113  59.5594913  60.4518903  15.2580113  59.6574913  61.1528903
  18.4210113  54.7604913  58.0158903  19.2670113  54.5704913  58.1138903
  18.0510113  53.9834913  57.8778903  18.4910113  54.6174913  58.0098903
  31.0380113  66.3444913  52.3428903  31.7320113  65.8774913  52.0948903
  30.4990113  65.7464913  52.6798903  31.0610113  66.1864913  52.3558903
  13.2420113  56.0984913  54.6708903  13.7310113  55.8064913  55.3318903
  13.3710113  55.5054913  54.0438903  13.3330113  55.9674913  54.6758903
  28.2770113  59.1204913  61.5218903  28.2700113  58.3444913  61.9198903
  27.4360113  59.3544913  61.5148903  28.1520113  59.0404913  61.5798903
  17.7670113  57.5324913  50.1568903  17.1570113  57.1274913  50.6308903
  17.3810113  57.6504913  49.3838903  17.6200113  57.4894913  50.1128903
  14.5860113  60.6414913  65.5588903  14.1650113  60.1234913  64.9978903
  14.2340113  61.4274913  65.4158903  14.4720113  60.6814913  65.4548903
  29.5330113  59.1914913  58.9588903  29.2470113  59.5924913  59.6788903
  30.3930113  59.1294913  59.0858903  29.6180113  59.2414913  59.0838903
  19.2220113  55.9934913  52.8668903  19.4940113  56.8194913  52.9338903
  18.3590113  56.0684913  52.7708903  19.1350113  56.1264913  52.8618903
  27.1950113  53.1154913  67.4988903  26.6700113  53.5744913  68.0228903
  26.8340113  52.3204913  67.4928903  27.0640113  53.0654913  67.5748903
  12.7020113  51.9634913  59.4028903  12.7460113  52.3074913  58.6018903
  13.4570113  52.2004913  59.7698903  12.8200113  52.0494913  59.3388903
  30.6640113  64.8244913  59.4878903  30.9540113  65.0814913  58.7068903
  31.3590113  64.9204913  60.0068903  30.8100113  64.8764913  59.4488903
  25.6870113  56.6844913  67.5748903  25.7600113  56.7884913  68.4378903
  25.0530113  57.2424913  67.3538903  25.6040113  56.7824913  67.6698903
  27.9550113  57.0034913  65.9398903  28.2740113  57.7894913  66.1428903
  27.5850113  56.7334913  66.6828903  27.9480113  57.0794913  66.0798903
  27.2690113  63.4274913  51.4698903  27.6030113  62.6214913  51.5048903
  26.5140113  63.3554913  51.8998903  27.2070113  63.2974913  51.5388903
  27.7510113  55.2614913  57.1288903  27.0060113  54.9384913  57.4468903
  27.7530113  56.0874913  57.4088903  27.6410113  55.3354913  57.2168903
  30.6530113  57.5454913  68.6748903  30.6010113  57.2044913  67.8738903
  31.3900113  58.0124913  68.6528903  30.7540113  57.5644913  68.5528903
  30.1910113  61.2214913  64.8808903  30.8190113  60.6724913  64.6248903
  30.1300113  61.7864913  64.2188903  30.2750113  61.2244913  64.7448903
  24.6430113  61.3024913  50.8728903  25.3270113  60.7884913  50.7038903
  24.2260113  61.3484913  50.1078903  24.6820113  61.2334913  50.7348903
  19.3250113  62.4524913  62.1768903  19.0270113  63.0444913  62.7438903
  19.3800113  62.8944913  61.4278903  19.2890113  62.6054913  62.1498903
  17.3040113  61.4024913  65.5748903  16.4980113  61.1124913  65.7418903
  17.2150113  62.2704913  65.5808903  17.1720113  61.4874913  65.5998903
  26.6630113  51.5914913  64.5898903  27.4070113  52.0434913  64.5268903
  26.0970113  52.0614913  64.1208903  26.6900113  51.7284913  64.5118903
  21.8410113  58.8754913  61.6678903  22.3170113  59.2494913  62.2958903
  21.0180113  59.0094913  61.9268903  21.7900113  58.9504913  61.7988903
  18.5510113  54.4784913  64.4088903  18.7120113  53.7344913  64.8358903
  18.5060113  54.2294913  63.5738903  18.5680113  54.3314913  64.3488903
  21.1050113  66.2684913  56.8958903  21.6510113  66.9474913  56.9498903
  20.7550113  66.3504913  56.1008903  21.1340113  66.3814913  56.7858903
  27.9480113  49.5714913  62.2598903  27.6680113  50.3964913  62.2158903
  28.6640113  49.6244913  62.7558903  28.0130113  49.7014913  62.3268903
  20.3030113  50.2864913  64.2888903  21.0080113  50.6064913  63.8868903
  20.5440113  49.4794913  64.5158903  20.4420113  50.2144913  64.2628903
  19.2880113  64.4964913  60.2848903  18.6640113  65.0784913  60.1028903
  19.5360113  64.2104913  59.4988903  19.2320113  64.5404913  60.1418903
  23.5970113  61.1304913  67.2738903  24.3540113  61.4164913  66.9478903
  23.0500113  61.1824913  66.5958903  23.6280113  61.1804913  67.1248903
  27.5060113  63.6804913  65.7778903  27.8520113  63.9504913  66.5318903
  27.8000113  64.2624913  65.1978903  27.6010113  63.8064913  65.8038903
  29.3690113  55.8264913  51.1168903  29.7470113  56.5034913  50.7168903
  28.5270113  56.0504913  51.1478903  29.3000113  55.9594913  51.0618903
  20.8820113  59.2724913  50.1998903  20.0770113  59.0954913  49.9148903
  20.8490113  60.1234913  50.3918903  20.7580113  59.3714913  50.1868903
  16.8120113  55.3394913  60.3498903  17.2520113  55.2364913  59.6038903
  17.3570113  55.0264913  60.9548903  16.9570113  55.2784913  60.3288903
  24.8280113  54.4414913  65.9418903  24.1800113  54.9114913  66.2898903
  25.3930113  54.3524913  66.6008903  24.8160113  54.4974913  66.0908903
  24.5160113  55.9784913  62.2398903  24.8180113  56.3984913  62.9428903
  24.5520113  55.1384913  62.4718903  24.5660113  55.9164913  62.3778903
  21.9410113  66.1454913  66.1648903  22.4190113  65.5454913  65.7488903
  21.5900113  65.7024913  66.8298903  21.9600113  65.9914913  66.2018903
  27.0640113  55.4254913  54.4918903  27.2710113  55.2244913  55.3158903
  27.8200113  55.6934913  54.1498903  27.2060113  55.4354913  54.5628903
  20.3590113  50.3244913  60.3968903  19.5330113  50.1754913  60.6338903
  20.3190113  50.3594913  59.5258903  20.2310113  50.3074913  60.3028903
  28.0860113  51.5084913  55.9658903  27.3720113  51.0374913  56.1368903
  27.9240113  51.8494913  55.1798903  27.9570113  51.4894913  55.8748903
  28.5290113  59.4524913  54.3458903  29.0050113  58.7234913  54.2978903
  27.7080113  59.1664913  54.2698903  28.4780113  59.3024913  54.3268903
  22.0000113  61.3644913  65.1848903  21.2050113  61.3004913  65.5358903
  22.0710113  62.2114913  64.9898903  21.8930113  61.4794913  65.2078903
  12.9240113  50.7224913  66.4318903  12.7840113  51.5174913  66.1008903
  12.1380113  50.4794913  66.7208903  12.7870113  50.8044913  66.4258903
  17.8300113  67.5714913  60.5018903  17.8410113  67.6304913  61.3718903
  17.4050113  66.8244913  60.3518903  17.7690113  67.4694913  60.6078903
  15.9880113  53.4664913  53.6568903  16.1140113  53.1374913  52.8588903
  15.1760113  53.2174913  53.8558903  15.8870113  53.3814913  53.5688903
  24.7450113  60.6194913  56.7008903  24.8210113  60.9604913  57.4998903
  24.9140113  59.7724913  56.8218903  24.7810113  60.5444913  56.8368903
  22.2670113  59.8934913  56.2658903  21.9690113  59.5784913  57.0228903
  22.9620113  60.3664913  56.5008903  22.3260113  59.9164913  56.4128903
  22.4890113  64.0114913  64.2928903  23.1760113  63.8974913  64.8178903
  22.6230113  64.8024913  63.9488903  22.6100113  64.1114913  64.3198903
  30.6650113  56.6204913  66.1038903  29.8100113  56.4984913  66.2298903
  30.8180113  56.2254913  65.3408903  30.5610113  56.5434913  66.0098903
  25.1780113  57.2854913  64.6798903  24.9230113  56.5664913  65.1018903
  25.9990113  57.4014913  64.9498903  25.2620113  57.1964913  64.7818903
  14.5940113  67.0694913  65.9438903  13.9400113  66.5004913  66.0418903
  14.2190113  67.8424913  66.0948903  14.4420113  67.0994913  65.9808903
  23.1120113  58.4754913  67.8668903  23.4350113  59.1614913  67.4348903
  22.4080113  58.7984913  68.2688903  23.0550113  58.6244913  67.8618903
  26.1960113  66.8494913  58.7958903  25.7450113  67.4924913  59.1748903
  26.9040113  66.7704913  59.3008903  26.2340113  66.9324913  58.9268903
  22.8970113  61.9394913  61.7258903  22.2030113  62.3414913  62.0688903
  23.5740113  62.3724913  62.0648903  22.8940113  62.0624913  61.8268903
  28.2740113  64.5324913  68.3058903  29.0500113  64.1424913  68.3888903
  27.8050113  64.1964913  68.9608903  28.3190113  64.4254913  68.4148903
  15.9650113  55.4774913  64.0728903  16.3400113  56.0964913  63.5858903
  16.6390113  55.0034913  64.3578903  16.1200113  55.4994913  64.0428903
  13.7400113  53.9254913  63.3478903  13.8170113  53.7564913  62.4948903
  14.4860113  54.3314913  63.5448903  13.8610113  53.9604913  63.2508903
  29.2990113  56.5654913  53.7878903  29.4020113  56.5074913  52.9238903
  30.0400113  56.2334913  54.1058903  29.4240113  56.5084913  53.7068903
  16.2940113  51.3354913  65.7588903  16.2130113  50.4914913  65.9648903
  15.9800113  51.3794913  64.9458903  16.2360113  51.2174913  65.6688903
  23.2190113  63.5304913  54.8948903  23.0140113  64.3634913  54.7358903
  22.4440113  63.1484913  55.0168903  23.0740113  63.5974913  54.8898903
  28.4010113  56.7114913  63.1438903  28.3990113  55.8484913  63.2678903
  28.4680113  57.0354913  63.9508903  28.4110113  56.6314913  63.2808903
  13.1370113  59.1514913  63.5718903  13.4570113  59.3704913  62.7908903
  13.0370113  58.2864913  63.5168903  13.1690113  59.0564913  63.4488903
  14.5930113  55.0874913  50.1898903  13.9210113  55.1014913  50.7458903
  14.6880113  54.2394913  50.0058903  14.5080113  54.9644913  50.2448903
  24.2800113  51.5114913  66.9258903  24.3720113  52.2234913  67.4198903
  23.6430113  51.0664913  67.3228903  24.1990113  51.5504913  67.0578903
  23.2740113  51.7014913  57.7798903  22.5740113  52.2194913  57.7238903
  23.3120113  51.3214913  56.9958903  23.1760113  51.7224913  57.6558903
  18.5810113  63.7924913  51.3038903  19.0220113  63.8724913  52.0518903
  17.7760113  63.5764913  51.5618903  18.5270113  63.7724913  51.4528903
  26.8720113  52.2174913  60.5798903  27.7270113  52.3164913  60.7248903
  26.5030113  52.7704913  61.1448903  26.9440113  52.3144913  60.6848903
  17.9000113  58.4434913  64.9568903  17.5040113  59.2174913  65.0318903
  17.4940113  58.0704913  64.2808903  17.7820113  58.5024913  64.8678903
  27.1760113  57.4974913  59.0708903  27.8420113  58.0384913  59.2308903
  26.8310113  57.8084913  58.3318903  27.2230113  57.6234913  58.9858903
  27.4890113  65.5634913  54.8778903  27.3150113  64.9094913  55.4278903
  28.2020113  65.2924913  54.4548903  27.5690113  65.4264913  54.8968903
  15.9100113  62.8624913  51.9048903  15.6660113  62.5554913  52.6848903
  15.8770113  62.1594913  51.3888903  15.8690113  62.7134913  51.9438903
  18.7290113  61.1074913  50.6478903  17.9110113  60.8394913  50.7878903
  18.7010113  61.9594913  50.8328903  18.6040113  61.1944913  50.6958903
  18.3290113  51.4204913  62.4068903  17.4650113  51.5044913  62.4868903
  18.5490113  50.9064913  63.0758903  18.2340113  51.3574913  62.5178903
  30.3470113  50.0554913  63.7358903  30.2950113  50.0114913  64.6058903
  31.0340113  49.5524913  63.5458903  30.4410113  49.9754913  63.8358903
  22.4320113  52.1684913  60.7808903  21.6950113  51.7144913  60.8938903
  23.0030113  51.7664913  61.3038903  22.4070113  52.0414913  60.8748903
  25.1640113  63.0164913  62.5688903  25.3700113  63.3174913  63.3608903
  25.1030113  63.7384913  62.0838903  25.1850113  63.1674913  62.6138903
  24.6980113  67.2304913  66.8148903  23.9450113  67.2124913  66.3738903
  24.8660113  68.0824913  66.8988903  24.6120113  67.3534913  66.7618903
  19.9350113  56.4974913  65.9848903  19.6130113  55.9214913  65.4148903
  19.5760113  57.2524913  65.7388903  19.8350113  56.5234913  65.8648903
  20.7310113  49.7494913  50.6118903  20.8090113  49.9964913  49.7788903
  19.9880113  50.1264913  50.8698903  20.6330113  49.8414913  50.5268903
  29.9760113  61.6554913  62.0268903  29.9440113  60.7934913  61.8918903
  29.2830113  61.9574913  61.5928903  29.8690113  61.5724913  61.9428903
  18.3700113  66.8534913  66.2328903  18.4110113  66.9794913  67.0958903
  19.0210113  66.2934913  66.0768903  18.4720113  66.7894913  66.3378903
  28.0810113  64.9154913  60.8238903  28.6080113  64.8324913  60.1328903
  27.6900113  64.1374913  60.8778903  28.1010113  64.7884913  60.7298903
  15.5490113  51.5034913  63.0548903  15.2060113  50.7364913  62.8208903
  14.8540113  52.0274913  63.1188903  15.3960113  51.4674913  63.0298903
  24.5950113  50.3594913  60.0318903  25.2650113  50.9034913  60.1588903
  24.0920113  50.7834913  59.4588903  24.6200113  50.5024913  59.9658903
  15.9630113  65.2364913  67.5928903  16.5580113  65.6674913  68.0648903
  15.5990113  65.8604913  67.1038903  15.9970113  65.3924913  67.5898903
  23.9540113  56.1674913  57.5248903  24.5050113  55.5604913  57.8248903
  23.5290113  56.4304913  58.2398903  23.9730113  56.1164913  57.6738903
  14.2020113  54.8174913  57.0108903  13.8340113  55.1194913  57.7418903
  14.7360113  54.1884913  57.2948903  14.2260113  54.7694913  57.1608903
  13.8900113  63.2254913  64.5218903  13.3160113  63.6414913  65.0308903
  14.6230113  63.6904913  64.6168903  13.9140113  63.3554913  64.6108903
  25.9240113  57.9984913  54.0868903  25.9920113  57.1484913  54.2678903
  25.1010113  58.0844913  53.8088903  25.8120113  57.8854913  54.0728903
  15.6760113  66.4924913  53.2968903  15.5310113  66.6484913  52.4508903
  16.5420113  66.5714913  53.3748903  15.7830113  66.5274913  53.1838903
  19.8430113  58.8894913  53.0248903  19.9430113  59.0284913  52.1698903
  20.6610113  58.8294913  53.3208903  19.9780113  58.9004913  52.9418903
  29.0030113  66.9534913  50.5048903  29.6400113  66.8194913  51.0858903
  28.6620113  66.1594913  50.3878903  29.0470113  66.8164913  50.5728903
  29.1980113  59.3714913  67.2378903  29.8320113  59.2014913  67.8118903
  29.6150113  59.7744913  66.5858903  29.3530113  59.4064913  67.2268903
  25.0780113  63.2184913  52.8268903  24.8270113  63.0904913  53.6528903
  24.7610113  62.5234913  52.4058903  24.9940113  63.0974913  52.8868903
  29.8230113  53.9354913  67.9758903  29.6270113  54.5794913  68.5308903
  29.1010113  53.4454913  67.9678903  29.6880113  53.9584913  68.0568903
  29.7220113  54.8764913  60.9468903  28.8890113  55.1264913  60.8748903
  29.6660113  54.0364913  61.1758903  29.5910113  54.7894913  60.9698903
  18.9820113  51.8644913  66.1408903  19.2160113  51.2884913  65.5278903
  18.1400113  51.6834913  66.2818903  18.8920113  51.7524913  66.0708903
  26.6090113  59.4824913  68.5928903  27.4800113  59.4464913  68.5568903
  26.3900113  59.9024913  67.8608903  26.7060113  59.5384913  68.4798903
  16.3630113  65.3074913  59.7738903  16.2840113  64.4974913  59.4578903
  15.9190113  65.7944913  59.2018903  16.2860113  65.2594913  59.6428903
  21.9640113  61.4264913  52.2568903  22.6810113  61.0794913  51.9008903
  21.9300113  62.2264913  51.9088903  22.0650113  61.4934913  52.1528903
  13.9350113  67.5514913  63.3548903  14.4280113  67.4954913  64.0728903
  14.1230113  66.8184913  62.9198903  14.0360113  67.4344913  63.3968903
  23.3730113  50.0674913  36.4956493  23.1280113  50.5554913  35.8156493
  24.2360113  49.9944913  36.3956493  23.4640113  50.1284913  36.3806493
  23.1820113  56.9834913  41.1666493  22.6580113  57.5794913  41.5296493
  23.5790113  56.6154913  41.8506493  23.1630113  57.0174913  41.3216493
  13.0510113  61.1234913  36.6226493  12.6100113  61.2414913  37.3656493
  12.7680113  60.3484913  36.3376493  12.9440113  61.0264913  36.6906493
  29.3260113  64.4244913  34.1376493  30.0270113  63.9054913  34.1336493
  28.7390113  63.9794913  33.6686493  29.3430113  64.2814913  34.0676493
  12.7940113  54.9154913  33.1296493  12.0160113  55.0774913  32.7696493
  12.8330113  54.0444913  33.1516493  12.6850113  54.8104913  33.0796493
  15.9330113  60.1784913  31.8016493  15.5410113  59.8074913  31.1156493
  15.8530113  59.5804913  32.4306493  15.8630113  60.0354913  31.7926493
  25.8530113  58.0504913  37.8426493  25.9330113  58.0544913  36.9736493
  25.2690113  57.4184913  37.9916493  25.7780113  57.9574913  37.7366493
  15.5600113  61.8194913  35.7016493  16.1680113  61.6494913  36.3046493
  14.8090113  61.6794913  36.1226493  15.5390113  61.7734913  35.8526493
  19.8420113  51.1544913  35.6506493  19.7720113  51.8314913  35.1046493
  20.5830113  50.7664913  35.4016493  19.9410113  51.1974913  35.5326493
  14.4510113  64.9104913  31.7786493  14.9180113  64.9944913  31.0466493
  14.9060113  64.3324913  32.2476493  14.5870113  64.8374913  31.7396493
  12.9910113  63.8584913  42.8776493  13.1200113  63.5784913  43.6936493
  12.3810113  63.3174913  42.5686493  12.9200113  63.7374913  42.9526493
  19.5650113  61.3834913  47.9446493  19.3290113  61.3804913  48.7846493
  18.8170113  61.2354913  47.5206493  19.4190113  61.3604913  48.0056493
  14.4370113  58.3794913  37.0796493  13.9750113  57.9874913  36.4526493
  15.1370113  57.8664913  37.1716493  14.4720113  58.2464913  37.0006493
  18.9450113  53.9894913  42.4266493  19.6230113  54.0074913  41.8776493
  18.9000113  53.1534913  42.6716493  19.0380113  53.8684913  42.3816493
  19.5470113  64.5754913  45.2076493  19.6850113  65.3354913  44.8006493
  20.3380113  64.2104913  45.2346493  19.6840113  64.6344913  45.1516493
  16.4380113  56.4794913  37.1026493  17.2550113  56.2924913  37.3456493
  15.9610113  55.8654913  37.4986493  16.4880113  56.3614913  37.1976493
  20.6420113  62.4604913  39.7126493  20.9900113  61.6614913  39.7426493
  21.3070113  62.9644913  39.4576493  20.7920113  62.4164913  39.6796493
  20.6990113  61.9094913  35.9236493  21.0300113  61.2654913  36.4096493
  20.9390113  61.6984913  35.1126493  20.7830113  61.7834913  35.8756493
  22.6670113  56.0404913  47.2626493  21.8190113  55.9414913  47.0846493
  22.6960113  56.7854913  47.7166493  22.5460113  56.1364913  47.3036493
  17.0350113  51.5734913  36.3686493  16.7390113  52.0744913  35.7186493
  17.9020113  51.6514913  36.3116493  17.1190113  51.6594913  36.2646493
  27.2250113  49.0004913  46.3766493  27.0670113  49.7694913  45.9946493
  26.4530113  48.7804913  46.7206493  27.0870113  49.0814913  46.3716493
  20.0140113  50.7154913  38.5916493  20.0870113  51.5754913  38.7206493
  19.9760113  50.6404913  37.7236493  20.0190113  50.8314913  38.4826493
  24.6870113  53.6414913  30.8906493  24.2370113  54.3224913  31.1976493
  24.8010113  53.1374913  31.5936493  24.6380113  53.6674913  31.0396493
  12.8930113  56.1404913  40.0926493  12.6370113  56.9714913  40.0176493
  12.2290113  55.7574913  40.5096493  12.7570113  56.2064913  40.1436493
  12.8030113  65.8504913  37.9926493  12.2110113  66.4084913  37.6796493
  13.2290113  65.5814913  37.2806493  12.7790113  65.8924913  37.8416493
  18.6430113  63.6944913  35.4726493  18.0640113  63.4194913  36.0646493
  19.2670113  63.0854913  35.4976493  18.6500113  63.5644913  35.5636493
  24.7860113  65.9824913  32.9946493  25.5130113  66.4544913  33.0966493
  25.0150113  65.1884913  33.2746493  24.9280113  65.9354913  33.0516493
  22.9540113  66.3744913  34.9846493  23.1680113  66.9014913  35.6466493
  23.7210113  66.2004913  34.6056493  23.0990113  66.4264913  35.0266493
  15.9220113  50.9574913  40.5836493  15.4010113  50.3294913  40.2756493
  16.5130113  50.5204913  41.0546493  15.9330113  50.7994913  40.6076493
  19.2280113  53.0904913  49.8816493  19.3450113  52.6364913  49.1456493
  19.5160113  53.8884913  49.6786493  19.2880113  53.1414913  49.7426493
  14.3480113  64.5204913  35.9236493  15.0040113  63.9454913  35.9386493
  14.7370113  65.2694913  35.7026493  14.5030113  64.5454913  35.8936493
  30.0810113  53.6144913  37.1856493  29.7350113  54.2924913  37.6116493
  29.4450113  53.0164913  37.2016493  29.9360113  53.6264913  37.2506493
  25.3930113  66.3844913  43.2896493  26.1370113  66.8404913  43.2796493
  25.2720113  66.1704913  42.4526493  25.4850113  66.4204913  43.1646493
  14.9610113  52.6874913  48.8656493  14.1830113  52.2974913  48.7936493
  15.4520113  52.2754913  48.2746493  14.9180113  52.5684913  48.7676493
  15.1660113  63.0074913  39.4236493  15.5890113  62.6514913  38.7496493
  15.4900113  62.5854913  40.1156493  15.2760113  62.8924913  39.4266493
  18.3970113  65.8594913  38.7196493  19.2410113  65.9634913  38.5246493
  18.1000113  66.6774913  38.7876493  18.4780113  65.9954913  38.7006493
  21.6100113  50.3304913  48.0336493  21.7880113  49.5214913  47.7586493
  21.4670113  50.7714913  47.2946493  21.6150113  50.2764913  47.8836493
  22.2040113  55.2564913  36.8066493  22.4910113  55.0244913  36.0166493
  22.9360113  55.3354913  37.2756493  22.3540113  55.2334913  36.7596493
  22.9260113  55.5954913  31.9276493  23.2070113  56.3834913  32.1766493
  22.1500113  55.7604913  31.5646493  22.8530113  55.7364913  31.9106493
  26.9670113  67.5694913  33.3946493  27.6320113  67.4214913  32.8496493
  27.3270113  67.4864913  34.1846493  27.1190113  67.5354913  33.4306493
  17.3950113  67.0784913  44.4596493  17.6870113  67.0114913  45.2796493
  16.7690113  66.4734913  44.4146493  17.3460113  66.9794913  44.5746493
  12.3090113  53.2354913  46.4516493  12.3050113  53.8224913  47.0976493
  12.9030113  53.5474913  45.8946493  12.3960113  53.3684913  46.4646493
  24.6470113  63.5694913  46.9936493  24.6130113  63.9514913  47.7776493
  25.5010113  63.5274913  46.8226493  24.7680113  63.6194913  47.0846493
  21.7850113  63.7664913  31.7436493  21.6040113  64.3114913  32.4006493
  22.5510113  64.0564913  31.4426493  21.8710113  63.8904913  31.7966493
  25.2920113  51.6624913  32.7976493  25.8320113  50.9804913  32.8736493
  25.3540113  52.0604913  33.5716493  25.3810113  51.6204913  32.9236493
  13.2460113  52.8304913  35.3666493  13.1320113  51.9664913  35.3976493
  12.7710113  53.1244913  36.0366493  13.1590113  52.7464913  35.4696493
  15.3880113  65.2404913  43.5816493  14.6900113  64.7324913  43.7076493
  15.6480113  65.0354913  42.7736493  15.3230113  65.1354913  43.4806493
  22.5500113  54.0384913  34.1116493  22.0420113  53.3764913  33.8576493
  22.6020113  54.5424913  33.4016493  22.4830113  54.0154913  33.9696493
  23.0990113  66.7334913  44.4916493  23.8670113  66.6534913  44.0856493
  22.5160113  66.6124913  43.8536493  23.1260113  66.7034913  44.3376493
  22.5500113  50.9794913  34.0026493  22.0950113  50.5774913  33.3766493
  23.3230113  51.1344913  33.6276493  22.5970113  50.9434913  33.8546493
  29.3760113  67.3364913  37.3926493  28.9210113  68.0534913  37.5936493
  28.7620113  66.7654913  37.1506493  29.2180113  67.3584913  37.3866493
  21.1480113  53.3464913  38.5246493  21.2220113  53.9144913  37.8666493
  21.2690113  53.8384913  39.2346493  21.1760113  53.5034913  38.5326493
  26.3730113  63.1814913  36.9366493  27.0740113  62.6994913  37.1256493
  25.7130113  62.6124913  36.9816493  26.3790113  63.0264913  36.9706493
  16.7490113  64.0914913  46.1486493  17.5900113  64.1544913  45.9266493
  16.7120113  64.4884913  46.9246493  16.8680113  64.1594913  46.2306493
  15.7560113  49.1694913  36.8726493  16.2920113  49.8574913  36.8626493
  15.7590113  48.8954913  36.0446493  15.8350113  49.2304913  36.7486493
  18.7120113  59.6024913  40.8976493  18.8840113  59.3924913  41.7266493
  18.0570113  59.0684913  40.6816493  18.6410113  59.4924913  40.9886493
  24.9400113  53.5164913  44.4126493  24.8450113  53.8354913  45.2186493
  24.3470113  52.8774913  44.3746493  24.8380113  53.4684913  44.5266493
  19.4620113  59.5404913  43.4876493  19.5150113  60.3874913  43.6896493
  19.1770113  59.1704913  44.2246493  19.4280113  59.6104913  43.6256493
  25.6390113  60.2354913  42.6176493  25.1250113  59.8234913  43.1886493
  25.5130113  61.0794913  42.7986493  25.5450113  60.2994913  42.7286493
  26.1960113  49.4604913  37.2486493  26.2450113  49.1424913  38.0596493
  26.5190113  48.8164913  36.7556493  26.2510113  49.3184913  37.2956493
  12.2830113  63.9114913  49.6986493  13.0390113  64.2604913  49.9566493
  12.4600113  63.0584913  49.6416493  12.4210113  63.8364913  49.7286493
  28.6600113  53.6964913  45.5566493  29.4320113  53.4714913  45.8936493
  28.1850113  53.9134913  46.2566493  28.7040113  53.6954913  45.7096493
  16.2040113  52.9794913  38.5266493  16.4760113  52.5494913  37.8186493
  16.0280113  52.3434913  39.0976493  16.2180113  52.8224913  38.5066493
  28.8920113  60.6744913  32.7446493  29.0110113  60.3874913  33.5596493
  29.6990113  60.6954913  32.4146493  29.0280113  60.6354913  32.8166493
  16.0280113  60.4064913  38.0756493  16.8790113  60.3264913  37.9026493
  15.6710113  59.7244913  37.6636493  16.1010113  60.2934913  37.9886493
  14.7950113  67.1314913  39.3126493  14.1220113  66.6334913  39.0676493
  15.1980113  67.3164913  38.5616493  14.7550113  67.0854913  39.1656493
  14.3450113  54.0814913  41.6086493  15.1880113  54.3014913  41.5656493
  13.9560113  54.6544913  41.0776493  14.4120113  54.1984913  41.5236493
  31.1260113  65.1834913  46.9986493  30.4440113  65.4934913  46.5516493
  30.7570113  64.7254913  47.6436493  30.9700113  65.1614913  47.0276493
  26.7870113  57.2114913  32.3296493  26.5670113  57.9424913  31.9076493
  26.3390113  57.2624913  33.0766493  26.6880113  57.3264913  32.3776493
  18.3960113  60.4134913  36.3106493  19.1090113  60.9084913  36.4006493
  18.6180113  59.8464913  35.6846493  18.5340113  60.4024913  36.2316493
  30.9740113  52.0724913  31.7826493  30.3120113  51.5044913  31.8056493
  30.7810113  52.5844913  31.1026493  30.8480113  52.0644913  31.6856493
  12.5520113  62.0564913  39.6306493  11.8850113  62.5444913  39.9066493
  13.2320113  62.6014913  39.6596493  12.5540113  62.2084913  39.6756493
  20.1990113  55.7664913  49.7266493  19.7150113  56.3434913  50.1686493
  20.1710113  56.0614913  48.9056493  20.1230113  55.8954913  49.6706493
  31.2970113  56.4504913  44.3386493  31.5120113  55.6504913  44.0626493
  30.4470113  56.5104913  44.1496493  31.2030113  56.3414913  44.2696493
  12.6180113  58.7404913  34.7336493  12.4330113  57.9014913  34.8856493
  13.2770113  58.7044913  34.1636493  12.6880113  58.6114913  34.6716493
  28.9760113  51.6304913  34.0616493  29.7220113  51.2234913  34.2606493
  29.2390113  52.3454913  33.6366493  29.1250113  51.6764913  34.0286493
  22.9190113  64.1164913  38.6376493  22.3960113  64.7504913  38.3446493
  23.2290113  63.7524913  37.9086493  22.8870113  64.1564913  38.4866493
  12.7900113  62.9044913  34.3086493  13.3420113  63.4734913  34.6726493
  12.5580113  62.3894913  34.9736493  12.8370113  62.9124913  34.4606493
  16.9940113  61.9044913  41.3976493  17.4610113  62.1934913  42.0756493
  17.5660113  61.4264913  40.9436493  17.1480113  61.8764913  41.4306493
  25.4300113  53.9184913  39.1346493  25.7740113  54.0704913  39.9216493
  24.9770113  53.1804913  39.2476493  25.4140113  53.8314913  39.2676493
  12.6200113  61.3534913  31.9366493  13.3760113  60.9214913  31.9946493
  12.6350113  61.8854913  32.6276493  12.7340113  61.3684913  32.0476493
  13.5600113  59.5744913  39.9416493  13.9910113  59.4454913  39.1946493
  13.3550113  60.4224913  39.9156493  13.5930113  59.6804913  39.8276493
  19.9060113  53.1384913  33.5916493  19.9040113  53.0214913  32.7266493
  19.7250113  53.9864913  33.6836493  19.8790113  53.2464913  33.4776493
  28.9600113  65.5654913  45.0886493  28.2890113  66.0794913  45.3066493
  29.0230113  65.6654913  44.2246493  28.8700113  65.6564913  44.9936493
  17.6440113  63.0904913  38.2236493  17.7700113  63.9334913  38.4106493
  18.3120113  62.6914913  38.6196493  17.7620113  63.1564913  38.3096493
  15.7740113  56.5734913  48.0856493  15.2380113  56.0674913  48.5536493
  15.7940113  56.1834913  47.3056493  15.6970113  56.4404913  48.0396493
  16.2590113  55.9704913  33.2256493  16.1310113  55.5224913  33.9636493
  15.6770113  55.6284913  32.6736493  16.1540113  55.8534913  33.2536493
  16.4260113  57.8004913  39.8246493  15.6450113  57.7414913  39.4416493
  16.4980113  57.0484913  40.2616493  16.3210113  57.6814913  39.8326493
  16.8560113  57.5374913  43.2926493  16.8810113  56.8624913  42.7416493
  16.2100113  58.0334913  42.9806493  16.7650113  57.5104913  43.1656493
  26.7510113  55.2504913  41.6886493  26.0890113  55.5784913  42.1516493
  26.9380113  55.8844913  41.1196493  26.6810113  55.3924913  41.6726493
  20.9560113  66.3144913  42.6846493  20.6790113  65.6734913  42.1616493
  20.7480113  67.0404913  42.2466493  20.8850113  66.3274913  42.5426493
  23.3960113  51.1564913  45.1176493  23.5450113  50.3314913  44.8746493
  23.7750113  51.2114913  45.9016493  23.4740113  51.0424913  45.1976493
  24.9440113  53.2194913  35.1996493  25.4340113  53.9364913  35.1226493
  24.1540113  53.4804913  34.9366493  24.9000113  53.3634913  35.1496493
  14.6550113  58.8924913  48.8516493  14.6180113  59.3934913  48.1376493
  14.9860113  58.1404913  48.5566493  14.6980113  58.8544913  48.7026493
  26.2580113  61.0974913  47.1096493  26.7420113  61.8154913  47.2076493
  26.6520113  60.6704913  46.4586493  26.3880113  61.1404913  47.0276493
  20.5540113  63.9424913  48.2866493  20.9080113  63.7644913  49.0636493
  20.1180113  63.2134913  48.0876493  20.5420113  63.8084913  48.3726493
  21.5260113  54.6894913  40.9246493  22.0060113  55.3884913  41.1326493
  21.8990113  54.0424913  41.3756493  21.6520113  54.6974913  41.0216493
  23.7150113  57.8584913  33.1986493  23.7070113  58.5804913  32.7086493
  23.0760113  57.9934913  33.7756493  23.6200113  57.9854913  33.2116493
  28.6870113  61.7284913  37.1796493  29.0430113  61.3784913  37.8946493
  28.6790113  61.0674913  36.6096493  28.7390113  61.5784913  37.2006493
  24.7320113  64.7944913  41.0236493  24.1290113  64.4984913  40.4666493
  25.2770113  65.2464913  40.5146493  24.7230113  64.8174913  40.8656493
  24.7450113  61.6454913  40.4236493  23.9480113  61.8694913  40.6976493
  25.0030113  61.0514913  41.0086493  24.6650113  61.5904913  40.5506493
  18.6370113  66.4574913  34.8716493  18.4900113  65.6814913  35.2426493
  19.3260113  66.3104913  34.3566493  18.7170113  66.3204913  34.8506493
  18.3080113  50.2004913  32.8596493  18.4050113  50.0934913  33.7206493
  17.6000113  50.7064913  32.7946493  18.2180113  50.2594913  32.9776493
  20.9290113  65.9734913  33.2736493  21.5510113  66.1364913  33.8636493
  20.9650113  66.6644913  32.7416493  21.0260113  66.0994913  33.2826493
  28.0050113  59.6434913  45.2696493  28.0600113  59.7684913  44.4076493
  28.7580113  59.9634913  45.5716493  28.1240113  59.7084913  45.1866493
  24.1960113  64.9924913  49.5466493  24.3600113  65.2754913  50.3556493
  24.4590113  65.6534913  49.0416493  24.2590113  65.1324913  49.5916493
  15.4300113  58.5074913  34.1026493  15.7540113  57.7284913  33.8806493
  16.0760113  58.8754913  34.5576493  15.5730113  58.4464913  34.1366493
  23.7360113  59.4494913  44.8696493  23.5810113  60.0594913  45.4736493
  24.2700113  58.8914913  45.2756493  23.7920113  59.4574913  45.0186493
  12.4270113  50.1684913  35.0706493  12.5560113  49.4604913  34.5786493
  12.0600113  49.8504913  35.7956493  12.3920113  50.0164913  35.1056493
  22.1200113  57.8494913  35.5276493  22.1790113  58.4994913  36.1066493
  21.9310113  57.1534913  36.0186493  22.1010113  57.8424913  35.6856493
  27.3460113  62.1784913  41.3966493  26.8670113  62.4764913  40.7306493
  26.9900113  61.4024913  41.5746493  27.2230113  62.1074913  41.3246493
  16.6160113  52.3664913  32.0396493  16.1050113  52.4194913  31.3336493
  17.4000113  52.6064913  31.7436493  16.6560113  52.4094913  31.8916493
  21.3430113  59.8964913  39.9586493  20.4960113  59.7024913  40.0396493
  21.6670113  59.7314913  40.7516493  21.2650113  59.8434913  40.0876493
  18.0950113  66.6264913  30.8446493  18.5340113  65.9294913  31.1326493
  18.3020113  67.2504913  31.4176493  18.1910113  66.6154913  30.9716493
  15.1910113  59.5894913  42.2746493  15.9130113  60.0774913  42.2376493
  14.9210113  59.5594913  41.4456493  15.2580113  59.6574913  42.1466493
  18.4210113  54.7604913  39.0096493  19.2670113  54.5704913  39.1076493
  18.0510113  53.9834913  38.8716493  18.4910113  54.6174913  39.0036493
  31.0380113  66.3444913  33.3366493  31.7320113  65.8774913  33.0886493
  30.4990113  65.7464913  33.6736493  31.0610113  66.1864913  33.3496493
  13.2420113  56.0984913  35.6646493  13.7310113  55.8064913  36.3256493
  13.3710113  55.5054913  35.0376493  13.3330113  55.9674913  35.6696493
  28.2770113  59.1204913  42.5156493  28.2700113  58.3444913  42.9136493
  27.4360113  59.3544913  42.5086493  28.1520113  59.0404913  42.5736493
  17.7670113  57.5324913  31.1506493  17.1570113  57.1274913  31.6246493
  17.3810113  57.6504913  30.3776493  17.6200113  57.4894913  31.1066493
  14.5860113  60.6414913  46.5526493  14.1650113  60.1234913  45.9916493
  14.2340113  61.4274913  46.4096493  14.4720113  60.6814913  46.4486493
  29.5330113  59.1914913  39.9526493  29.2470113  59.5924913  40.6726493
  30.3930113  59.1294913  40.0796493  29.6180113  59.2414913  40.0776493
  19.2220113  55.9934913  33.8606493  19.4940113  56.8194913  33.9276493
  18.3590113  56.0684913  33.7646493  19.1350113  56.1264913  33.8556493
  27.1950113  53.1154913  48.4926493  26.6700113  53.5744913  49.0166493
  26.8340113  52.3204913  48.4866493  27.0640113  53.0654913  48.5686493
  12.7020113  51.9634913  40.3966493  12.7460113  52.3074913  39.5956493
  13.4570113  52.2004913  40.7636493  12.8200113  52.0494913  40.3326493
  30.6640113  64.8244913  40.4816493  30.9540113  65.0814913  39.7006493
  31.3590113  64.9204913  41.0006493  30.8100113  64.8764913  40.4426493
  25.6870113  56.6844913  48.5686493  25.7600113  56.7884913  49.4316493
  25.0530113  57.2424913  48.3476493  25.6040113  56.7824913  48.6636493
  27.2690113  63.4274913  32.4636493  27.6030113  62.6214913  32.4986493
  26.5140113  63.3554913  32.8936493  27.2070113  63.2974913  32.5326493
  27.7510113  55.2614913  38.1226493  27.0060113  54.9384913  38.4406493
  27.7530113  56.0874913  38.4026493  27.6410113  55.3354913  38.2106493
  30.6530113  57.5454913  49.6686493  30.6010113  57.2044913  48.8676493
  31.3900113  58.0124913  49.6466493  30.7540113  57.5644913  49.5466493
  30.1910113  61.2214913  45.8746493  30.8190113  60.6724913  45.6186493
  30.1300113  61.7864913  45.2126493  30.2750113  61.2244913  45.7386493
  19.3250113  62.4524913  43.1706493  19.0270113  63.0444913  43.7376493
  19.3800113  62.8944913  42.4216493  19.2890113  62.6054913  43.1436493
  17.3040113  61.4024913  46.5686493  16.4980113  61.1124913  46.7356493
  17.2150113  62.2704913  46.5746493  17.1720113  61.4874913  46.5936493
  26.6630113  51.5914913  45.5836493  27.4070113  52.0434913  45.5206493
  26.0970113  52.0614913  45.1146493  26.6900113  51.7284913  45.5056493
  21.8410113  58.8754913  42.6616493  22.3170113  59.2494913  43.2896493
  21.0180113  59.0094913  42.9206493  21.7900113  58.9504913  42.7926493
  18.5510113  54.4784913  45.4026493  18.7120113  53.7344913  45.8296493
  18.5060113  54.2294913  44.5676493  18.5680113  54.3314913  45.3426493
  21.1050113  66.2684913  37.8896493  21.6510113  66.9474913  37.9436493
  20.7550113  66.3504913  37.0946493  21.1340113  66.3814913  37.7796493
  27.9480113  49.5714913  43.2536493  27.6680113  50.3964913  43.2096493
  28.6640113  49.6244913  43.7496493  28.0130113  49.7014913  43.3206493
  20.3030113  50.2864913  45.2826493  21.0080113  50.6064913  44.8806493
  20.5440113  49.4794913  45.5096493  20.4420113  50.2144913  45.2566493
  19.2880113  64.4964913  41.2786493  18.6640113  65.0784913  41.0966493
  19.5360113  64.2104913  40.4926493  19.2320113  64.5404913  41.1356493
  23.5970113  61.1304913  48.2676493  24.3540113  61.4164913  47.9416493
  23.0500113  61.1824913  47.5896493  23.6280113  61.1804913  48.1186493
  27.5060113  63.6804913  46.7716493  27.8520113  63.9504913  47.5256493
  27.8000113  64.2624913  46.1916493  27.6010113  63.8064913  46.7976493
  29.3690113  55.8264913  32.1106493  29.7470113  56.5034913  31.7106493
  28.5270113  56.0504913  32.1416493  29.3000113  55.9594913  32.0556493
  20.8820113  59.2724913  31.1936493  20.0770113  59.0954913  30.9086493
  20.8490113  60.1234913  31.3856493  20.7580113  59.3714913  31.1806493
  16.8120113  55.3394913  41.3436493  17.2520113  55.2364913  40.5976493
  17.3570113  55.0264913  41.9486493  16.9570113  55.2784913  41.3226493
  24.8280113  54.4414913  46.9356493  24.1800113  54.9114913  47.2836493
  25.3930113  54.3524913  47.5946493  24.8160113  54.4974913  47.0846493
  24.5160113  55.9784913  43.2336493  24.8180113  56.3984913  43.9366493
  24.5520113  55.1384913  43.4656493  24.5660113  55.9164913  43.3716493
  21.9410113  66.1454913  47.1586493  22.4190113  65.5454913  46.7426493
  21.5900113  65.7024913  47.8236493  21.9600113  65.9914913  47.1956493
  27.0640113  55.4254913  35.4856493  27.2710113  55.2244913  36.3096493
  27.8200113  55.6934913  35.1436493  27.2060113  55.4354913  35.5566493
  20.3590113  50.3244913  41.3906493  19.5330113  50.1754913  41.6276493
  20.3190113  50.3594913  40.5196493  20.2310113  50.3074913  41.2966493
  28.0860113  51.5084913  36.9596493  27.3720113  51.0374913  37.1306493
  27.9240113  51.8494913  36.1736493  27.9570113  51.4894913  36.8686493
  28.5290113  59.4524913  35.3396493  29.0050113  58.7234913  35.2916493
  27.7080113  59.1664913  35.2636493  28.4780113  59.3024913  35.3206493
  22.0000113  61.3644913  46.1786493  21.2050113  61.3004913  46.5296493
  22.0710113  62.2114913  45.9836493  21.8930113  61.4794913  46.2016493
  12.9240113  50.7224913  47.4256493  12.7840113  51.5174913  47.0946493
  12.1380113  50.4794913  47.7146493  12.7870113  50.8044913  47.4196493
  17.8300113  67.5714913  41.4956493  17.8410113  67.6304913  42.3656493
  17.4050113  66.8244913  41.3456493  17.7690113  67.4694913  41.6016493
  15.9880113  53.4664913  34.6506493  16.1140113  53.1374913  33.8526493
  15.1760113  53.2174913  34.8496493  15.8870113  53.3814913  34.5626493
  24.7450113  60.6194913  37.6946493  24.8210113  60.9604913  38.4936493
  24.9140113  59.7724913  37.8156493  24.7810113  60.5444913  37.8306493
  22.2670113  59.8934913  37.2596493  21.9690113  59.5784913  38.0166493
  22.9620113  60.3664913  37.4946493  22.3260113  59.9164913  37.4066493
  22.4890113  64.0114913  45.2866493  23.1760113  63.8974913  45.8116493
  22.6230113  64.8024913  44.9426493  22.6100113  64.1114913  45.3136493
  30.6650113  56.6204913  47.0976493  29.8100113  56.4984913  47.2236493
  30.8180113  56.2254913  46.3346493  30.5610113  56.5434913  47.0036493
  25.1780113  57.2854913  45.6736493  24.9230113  56.5664913  46.0956493
  25.9990113  57.4014913  45.9436493  25.2620113  57.1964913  45.7756493
  14.5940113  67.0694913  46.9376493  13.9400113  66.5004913  47.0356493
  14.2190113  67.8424913  47.0886493  14.4420113  67.0994913  46.9746493
  23.1120113  58.4754913  48.8606493  23.4350113  59.1614913  48.4286493
  22.4080113  58.7984913  49.2626493  23.0550113  58.6244913  48.8556493
  26.1960113  66.8494913  39.7896493  25.7450113  67.4924913  40.1686493
  26.9040113  66.7704913  40.2946493  26.2340113  66.9324913  39.9206493
  22.8970113  61.9394913  42.7196493  22.2030113  62.3414913  43.0626493
  23.5740113  62.3724913  43.0586493  22.8940113  62.0624913  42.8206493
  28.2740113  64.5324913  49.2996493  29.0500113  64.1424913  49.3826493
  27.8050113  64.1964913  49.9546493  28.3190113  64.4254913  49.4086493
  15.9650113  55.4774913  45.0666493  16.3400113  56.0964913  44.5796493
  16.6390113  55.0034913  45.3516493  16.1200113  55.4994913  45.0366493
  13.7400113  53.9254913  44.3416493  13.8170113  53.7564913  43.4886493
  14.4860113  54.3314913  44.5386493  13.8610113  53.9604913  44.2446493
  29.2990113  56.5654913  34.7816493  29.4020113  56.5074913  33.9176493
  30.0400113  56.2334913  35.0996493  29.4240113  56.5084913  34.7006493
  16.2940113  51.3354913  46.7526493  16.2130113  50.4914913  46.9586493
  15.9800113  51.3794913  45.9396493  16.2360113  51.2174913  46.6626493
  23.2190113  63.5304913  35.8886493  23.0140113  64.3634913  35.7296493
  22.4440113  63.1484913  36.0106493  23.0740113  63.5974913  35.8836493
  28.4010113  56.7114913  44.1376493  28.3990113  55.8484913  44.2616493
  28.4680113  57.0354913  44.9446493  28.4110113  56.6314913  44.2746493
  13.1370113  59.1514913  44.5656493  13.4570113  59.3704913  43.7846493
  13.0370113  58.2864913  44.5106493  13.1690113  59.0564913  44.4426493
  14.5930113  55.0874913  31.1836493  13.9210113  55.1014913  31.7396493
  14.6880113  54.2394913  30.9996493  14.5080113  54.9644913  31.2386493
  24.2800113  51.5114913  47.9196493  24.3720113  52.2234913  48.4136493
  23.6430113  51.0664913  48.3166493  24.1990113  51.5504913  48.0516493
  23.2740113  51.7014913  38.7736493  22.5740113  52.2194913  38.7176493
  23.3120113  51.3214913  37.9896493  23.1760113  51.7224913  38.6496493
  18.5810113  63.7924913  32.2976493  19.0220113  63.8724913  33.0456493
  17.7760113  63.5764913  32.5556493  18.5270113  63.7724913  32.4466493
  26.8720113  52.2174913  41.5736493  27.7270113  52.3164913  41.7186493
  26.5030113  52.7704913  42.1386493  26.9440113  52.3144913  41.6786493
  17.9000113  58.4434913  45.9506493  17.5040113  59.2174913  46.0256493
  17.4940113  58.0704913  45.2746493  17.7820113  58.5024913  45.8616493
  27.1760113  57.4974913  40.0646493  27.8420113  58.0384913  40.2246493
  26.8310113  57.8084913  39.3256493  27.2230113  57.6234913  39.9796493
  27.4890113  65.5634913  35.8716493  27.3150113  64.9094913  36.4216493
  28.2020113  65.2924913  35.4486493  27.5690113  65.4264913  35.8906493
  15.9100113  62.8624913  32.8986493  15.6660113  62.5554913  33.6786493
  15.8770113  62.1594913  32.3826493  15.8690113  62.7134913  32.9376493
  18.7290113  61.1074913  31.6416493  17.9110113  60.8394913  31.7816493
  18.7010113  61.9594913  31.8266493  18.6040113  61.1944913  31.6896493
  18.3290113  51.4204913  43.4006493  17.4650113  51.5044913  43.4806493
  18.5490113  50.9064913  44.0696493  18.2340113  51.3574913  43.5116493
  22.4320113  52.1684913  41.7746493  21.6950113  51.7144913  41.8876493
  23.0030113  51.7664913  42.2976493  22.4070113  52.0414913  41.8686493
  25.1640113  63.0164913  43.5626493  25.3700113  63.3174913  44.3546493
  25.1030113  63.7384913  43.0776493  25.1850113  63.1674913  43.6076493
  24.6980113  67.2304913  47.8086493  23.9450113  67.2124913  47.3676493
  24.8660113  68.0824913  47.8926493  24.6120113  67.3534913  47.7556493
  19.9350113  56.4974913  46.9786493  19.6130113  55.9214913  46.4086493
  19.5760113  57.2524913  46.7326493  19.8350113  56.5234913  46.8586493
  20.7310113  49.7494913  31.6056493  20.8090113  49.9964913  30.7726493
  19.9880113  50.1264913  31.8636493  20.6330113  49.8414913  31.5206493
  29.9760113  61.6554913  43.0206493  29.9440113  60.7934913  42.8856493
  29.2830113  61.9574913  42.5866493  29.8690113  61.5724913  42.9366493
  18.3700113  66.8534913  47.2266493  18.4110113  66.9794913  48.0896493
  19.0210113  66.2934913  47.0706493  18.4720113  66.7894913  47.3316493
  28.0810113  64.9154913  41.8176493  28.6080113  64.8324913  41.1266493
  27.6900113  64.1374913  41.8716493  28.1010113  64.7884913  41.7236493
  15.5490113  51.5034913  44.0486493  15.2060113  50.7364913  43.8146493
  14.8540113  52.0274913  44.1126493  15.3960113  51.4674913  44.0236493
  24.5950113  50.3594913  41.0256493  25.2650113  50.9034913  41.1526493
  24.0920113  50.7834913  40.4526493  24.6200113  50.5024913  40.9596493
  15.9630113  65.2364913  48.5866493  16.5580113  65.6674913  49.0586493
  15.5990113  65.8604913  48.0976493  15.9970113  65.3924913  48.5836493
  23.9540113  56.1674913  38.5186493  24.5050113  55.5604913  38.8186493
  23.5290113  56.4304913  39.2336493  23.9730113  56.1164913  38.6676493
  14.2020113  54.8174913  38.0046493  13.8340113  55.1194913  38.7356493
  14.7360113  54.1884913  38.2886493  14.2260113  54.7694913  38.1546493
  13.8900113  63.2254913  45.5156493  13.3160113  63.6414913  46.0246493
  14.6230113  63.6904913  45.6106493  13.9140113  63.3554913  45.6046493
  25.9240113  57.9984913  35.0806493  25.9920113  57.1484913  35.2616493
  25.1010113  58.0844913  34.8026493  25.8120113  57.8854913  35.0666493
  15.6760113  66.4924913  34.2906493  15.5310113  66.6484913  33.4446493
  16.5420113  66.5714913  34.3686493  15.7830113  66.5274913  34.1776493
  19.8430113  58.8894913  34.0186493  19.9430113  59.0284913  33.1636493
  20.6610113  58.8294913  34.3146493  19.9780113  58.9004913  33.9356493
  29.0030113  66.9534913  31.4986493  29.6400113  66.8194913  32.0796493
  28.6620113  66.1594913  31.3816493  29.0470113  66.8164913  31.5666493
  29.1980113  59.3714913  48.2316493  29.8320113  59.2014913  48.8056493
  29.6150113  59.7744913  47.5796493  29.3530113  59.4064913  48.2206493
  25.0780113  63.2184913  33.8206493  24.8270113  63.0904913  34.6466493
  24.7610113  62.5234913  33.3996493  24.9940113  63.0974913  33.8806493
  29.7220113  54.8764913  41.9406493  28.8890113  55.1264913  41.8686493
  29.6660113  54.0364913  42.1696493  29.5910113  54.7894913  41.9636493
  26.6090113  59.4824913  49.5866493  27.4800113  59.4464913  49.5506493
  26.3900113  59.9024913  48.8546493  26.7060113  59.5384913  49.4736493
  16.3630113  65.3074913  40.7676493  16.2840113  64.4974913  40.4516493
  15.9190113  65.7944913  40.1956493  16.2860113  65.2594913  40.6366493
  21.9640113  61.4264913  33.2506493  22.6810113  61.0794913  32.8946493
  21.9300113  62.2264913  32.9026493  22.0650113  61.4934913  33.1466493
  13.9350113  67.5514913  44.3486493  14.4280113  67.4954913  45.0666493
  14.1230113  66.8184913  43.9136493  14.0360113  67.4344913  44.3906493
  23.3730113  50.0674913  17.4894083  23.1280113  50.5554913  16.8094083
  24.2360113  49.9944913  17.3894083  23.4640113  50.1284913  17.3744083
  23.1820113  56.9834913  22.1604083  22.6580113  57.5794913  22.5234083
  23.5790113  56.6154913  22.8444083  23.1630113  57.0174913  22.3154083
  13.0510113  61.1234913  17.6164083  12.6100113  61.2414913  18.3594083
  12.7680113  60.3484913  17.3314083  12.9440113  61.0264913  17.6844083
  29.3260113  64.4244913  15.1314083  30.0270113  63.9054913  15.1274083
  28.7390113  63.9794913  14.6624083  29.3430113  64.2814913  15.0614083
  12.7940113  54.9154913  14.1234083  12.0160113  55.0774913  13.7634083
  12.8330113  54.0444913  14.1454083  12.6850113  54.8104913  14.0734083
  15.9330113  60.1784913  12.7954083  15.5410113  59.8074913  12.1094083
  15.8530113  59.5804913  13.4244083  15.8630113  60.0354913  12.7864083
  25.8530113  58.0504913  18.8364083  25.9330113  58.0544913  17.9674083
  25.2690113  57.4184913  18.9854083  25.7780113  57.9574913  18.7304083
  15.5600113  61.8194913  16.6954083  16.1680113  61.6494913  17.2984083
  14.8090113  61.6794913  17.1164083  15.5390113  61.7734913  16.8464083
  19.8420113  51.1544913  16.6444083  19.7720113  51.8314913  16.0984083
  20.5830113  50.7664913  16.3954083  19.9410113  51.1974913  16.5264083
  14.4510113  64.9104913  12.7724083  14.9180113  64.9944913  12.0404083
  14.9060113  64.3324913  13.2414083  14.5870113  64.8374913  12.7334083
  12.9910113  63.8584913  23.8714083  13.1200113  63.5784913  24.6874083
  12.3810113  63.3174913  23.5624083  12.9200113  63.7374913  23.9464083
  19.5650113  61.3834913  28.9384083  19.3290113  61.3804913  29.7784083
  18.8170113  61.2354913  28.5144083  19.4190113  61.3604913  28.9994083
  14.4370113  58.3794913  18.0734083  13.9750113  57.9874913  17.4464083
  15.1370113  57.8664913  18.1654083  14.4720113  58.2464913  17.9944083
  18.9450113  53.9894913  23.4204083  19.6230113  54.0074913  22.8714083
  18.9000113  53.1534913  23.6654083  19.0380113  53.8684913  23.3754083
  19.5470113  64.5754913  26.2014083  19.6850113  65.3354913  25.7944083
  20.3380113  64.2104913  26.2284083  19.6840113  64.6344913  26.1454083
  16.4380113  56.4794913  18.0964083  17.2550113  56.2924913  18.3394083
  15.9610113  55.8654913  18.4924083  16.4880113  56.3614913  18.1914083
  20.6420113  62.4604913  20.7064083  20.9900113  61.6614913  20.7364083
  21.3070113  62.9644913  20.4514083  20.7920113  62.4164913  20.6734083
  20.6990113  61.9094913  16.9174083  21.0300113  61.2654913  17.4034083
  20.9390113  61.6984913  16.1064083  20.7830113  61.7834913  16.8694083
  22.6670113  56.0404913  28.2564083  21.8190113  55.9414913  28.0784083
  22.6960113  56.7854913  28.7104083  22.5460113  56.1364913  28.2974083
  17.0350113  51.5734913  17.3624083  16.7390113  52.0744913  16.7124083
  17.9020113  51.6514913  17.3054083  17.1190113  51.6594913  17.2584083
  27.2250113  49.0004913  27.3704083  27.0670113  49.7694913  26.9884083
  26.4530113  48.7804913  27.7144083  27.0870113  49.0814913  27.3654083
  20.0140113  50.7154913  19.5854083  20.0870113  51.5754913  19.7144083
  19.9760113  50.6404913  18.7174083  20.0190113  50.8314913  19.4764083
  24.6870113  53.6414913  11.8844083  24.2370113  54.3224913  12.1914083
  24.8010113  53.1374913  12.5874083  24.6380113  53.6674913  12.0334083
  12.8930113  56.1404913  21.0864083  12.6370113  56.9714913  21.0114083
  12.2290113  55.7574913  21.5034083  12.7570113  56.2064913  21.1374083
  12.8030113  65.8504913  18.9864083  12.2110113  66.4084913  18.6734083
  13.2290113  65.5814913  18.2744083  12.7790113  65.8924913  18.8354083
  18.6430113  63.6944913  16.4664083  18.0640113  63.4194913  17.0584083
  19.2670113  63.0854913  16.4914083  18.6500113  63.5644913  16.5574083
  24.7860113  65.9824913  13.9884083  25.5130113  66.4544913  14.0904083
  25.0150113  65.1884913  14.2684083  24.9280113  65.9354913  14.0454083
  22.9540113  66.3744913  15.9784083  23.1680113  66.9014913  16.6404083
  23.7210113  66.2004913  15.5994083  23.0990113  66.4264913  16.0204083
  15.9220113  50.9574913  21.5774083  15.4010113  50.3294913  21.2694083
  16.5130113  50.5204913  22.0484083  15.9330113  50.7994913  21.6014083
  19.2280113  53.0904913  30.8754083  19.3450113  52.6364913  30.1394083
  19.5160113  53.8884913  30.6724083  19.2880113  53.1414913  30.7364083
  14.3480113  64.5204913  16.9174083  15.0040113  63.9454913  16.9324083
  14.7370113  65.2694913  16.6964083  14.5030113  64.5454913  16.8874083
  30.0810113  53.6144913  18.1794083  29.7350113  54.2924913  18.6054083
  29.4450113  53.0164913  18.1954083  29.9360113  53.6264913  18.2444083
  25.3930113  66.3844913  24.2834083  26.1370113  66.8404913  24.2734083
  25.2720113  66.1704913  23.4464083  25.4850113  66.4204913  24.1584083
  14.9610113  52.6874913  29.8594083  14.1830113  52.2974913  29.7874083
  15.4520113  52.2754913  29.2684083  14.9180113  52.5684913  29.7614083
  15.1660113  63.0074913  20.4174083  15.5890113  62.6514913  19.7434083
  15.4900113  62.5854913  21.1094083  15.2760113  62.8924913  20.4204083
  18.3970113  65.8594913  19.7134083  19.2410113  65.9634913  19.5184083
  18.1000113  66.6774913  19.7814083  18.4780113  65.9954913  19.6944083
  21.6100113  50.3304913  29.0274083  21.7880113  49.5214913  28.7524083
  21.4670113  50.7714913  28.2884083  21.6150113  50.2764913  28.8774083
  22.2040113  55.2564913  17.8004083  22.4910113  55.0244913  17.0104083
  22.9360113  55.3354913  18.2694083  22.3540113  55.2334913  17.7534083
  22.9260113  55.5954913  12.9214083  23.2070113  56.3834913  13.1704083
  22.1500113  55.7604913  12.5584083  22.8530113  55.7364913  12.9044083
  26.9670113  67.5694913  14.3884083  27.6320113  67.4214913  13.8434083
  27.3270113  67.4864913  15.1784083  27.1190113  67.5354913  14.4244083
  17.3950113  67.0784913  25.4534083  17.6870113  67.0114913  26.2734083
  16.7690113  66.4734913  25.4084083  17.3460113  66.9794913  25.5684083
  29.7560113  51.9374913  23.5484083  30.5130113  52.0094913  23.1204083
  29.8190113  51.1644913  23.9474083  29.8770113  51.8344913  23.5434083
  12.3090113  53.2354913  27.4454083  12.3050113  53.8224913  28.0914083
  12.9030113  53.5474913  26.8884083  12.3960113  53.3684913  27.4584083
  24.6470113  63.5694913  27.9874083  24.6130113  63.9514913  28.7714083
  25.5010113  63.5274913  27.8164083  24.7680113  63.6194913  28.0784083
  21.7850113  63.7664913  12.7374083  21.6040113  64.3114913  13.3944083
  22.5510113  64.0564913  12.4364083  21.8710113  63.8904913  12.7904083
  25.2920113  51.6624913  13.7914083  25.8320113  50.9804913  13.8674083
  25.3540113  52.0604913  14.5654083  25.3810113  51.6204913  13.9174083
  13.2460113  52.8304913  16.3604083  13.1320113  51.9664913  16.3914083
  12.7710113  53.1244913  17.0304083  13.1590113  52.7464913  16.4634083
  15.3880113  65.2404913  24.5754083  14.6900113  64.7324913  24.7014083
  15.6480113  65.0354913  23.7674083  15.3230113  65.1354913  24.4744083
  22.5500113  54.0384913  15.1054083  22.0420113  53.3764913  14.8514083
  22.6020113  54.5424913  14.3954083  22.4830113  54.0154913  14.9634083
  23.0990113  66.7334913  25.4854083  23.8670113  66.6534913  25.0794083
  22.5160113  66.6124913  24.8474083  23.1260113  66.7034913  25.3314083
  22.5500113  50.9794913  14.9964083  22.0950113  50.5774913  14.3704083
  23.3230113  51.1344913  14.6214083  22.5970113  50.9434913  14.8484083
  29.3760113  67.3364913  18.3864083  28.9210113  68.0534913  18.5874083
  28.7620113  66.7654913  18.1444083  29.2180113  67.3584913  18.3804083
  21.1480113  53.3464913  19.5184083  21.2220113  53.9144913  18.8604083
  21.2690113  53.8384913  20.2284083  21.1760113  53.5034913  19.5264083
  26.3730113  63.1814913  17.9304083  27.0740113  62.6994913  18.1194083
  25.7130113  62.6124913  17.9754083  26.3790113  63.0264913  17.9644083
  16.7490113  64.0914913  27.1424083  17.5900113  64.1544913  26.9204083
  16.7120113  64.4884913  27.9184083  16.8680113  64.1594913  27.2244083
  15.7560113  49.1694913  17.8664083  16.2920113  49.8574913  17.8564083
  15.7590113  48.8954913  17.0384083  15.8350113  49.2304913  17.7424083
  18.7120113  59.6024913  21.8914083  18.8840113  59.3924913  22.7204083
  18.0570113  59.0684913  21.6754083  18.6410113  59.4924913  21.9824083
  24.9400113  53.5164913  25.4064083  24.8450113  53.8354913  26.2124083
  24.3470113  52.8774913  25.3684083  24.8380113  53.4684913  25.5204083
  19.4620113  59.5404913  24.4814083  19.5150113  60.3874913  24.6834083
  19.1770113  59.1704913  25.2184083  19.4280113  59.6104913  24.6194083
  25.6390113  60.2354913  23.6114083  25.1250113  59.8234913  24.1824083
  25.5130113  61.0794913  23.7924083  25.5450113  60.2994913  23.7224083
  26.1960113  49.4604913  18.2424083  26.2450113  49.1424913  19.0534083
  26.5190113  48.8164913  17.7494083  26.2510113  49.3184913  18.2894083
  12.2830113  63.9114913  30.6924083  13.0390113  64.2604913  30.9504083
  12.4600113  63.0584913  30.6354083  12.4210113  63.8364913  30.7224083
  28.6600113  53.6964913  26.5504083  29.4320113  53.4714913  26.8874083
  28.1850113  53.9134913  27.2504083  28.7040113  53.6954913  26.7034083
  16.2040113  52.9794913  19.5204083  16.4760113  52.5494913  18.8124083
  16.0280113  52.3434913  20.0914083  16.2180113  52.8224913  19.5004083
  28.8920113  60.6744913  13.7384083  29.0110113  60.3874913  14.5534083
  29.6990113  60.6954913  13.4084083  29.0280113  60.6354913  13.8104083
  16.0280113  60.4064913  19.0694083  16.8790113  60.3264913  18.8964083
  15.6710113  59.7244913  18.6574083  16.1010113  60.2934913  18.9824083
  14.7950113  67.1314913  20.3064083  14.1220113  66.6334913  20.0614083
  15.1980113  67.3164913  19.5554083  14.7550113  67.0854913  20.1594083
  14.3450113  54.0814913  22.6024083  15.1880113  54.3014913  22.5594083
  13.9560113  54.6544913  22.0714083  14.4120113  54.1984913  22.5174083
  31.1260113  65.1834913  27.9924083  30.4440113  65.4934913  27.5454083
  30.7570113  64.7254913  28.6374083  30.9700113  65.1614913  28.0214083
  26.7870113  57.2114913  13.3234083  26.5670113  57.9424913  12.9014083
  26.3390113  57.2624913  14.0704083  26.6880113  57.3264913  13.3714083
  18.3960113  60.4134913  17.3044083  19.1090113  60.9084913  17.3944083
  18.6180113  59.8464913  16.6784083  18.5340113  60.4024913  17.2254083
  30.9740113  52.0724913  12.7764083  30.3120113  51.5044913  12.7994083
  30.7810113  52.5844913  12.0964083  30.8480113  52.0644913  12.6794083
  12.5520113  62.0564913  20.6244083  11.8850113  62.5444913  20.9004083
  13.2320113  62.6014913  20.6534083  12.5540113  62.2084913  20.6694083
  20.1990113  55.7664913  30.7204083  19.7150113  56.3434913  31.1624083
  20.1710113  56.0614913  29.8994083  20.1230113  55.8954913  30.6644083
  12.6180113  58.7404913  15.7274083  12.4330113  57.9014913  15.8794083
  13.2770113  58.7044913  15.1574083  12.6880113  58.6114913  15.6654083
  28.9760113  51.6304913  15.0554083  29.7220113  51.2234913  15.2544083
  29.2390113  52.3454913  14.6304083  29.1250113  51.6764913  15.0224083
  22.9190113  64.1164913  19.6314083  22.3960113  64.7504913  19.3384083
  23.2290113  63.7524913  18.9024083  22.8870113  64.1564913  19.4804083
  12.7900113  62.9044913  15.3024083  13.3420113  63.4734913  15.6664083
  12.5580113  62.3894913  15.9674083  12.8370113  62.9124913  15.4544083
  16.9940113  61.9044913  22.3914083  17.4610113  62.1934913  23.0694083
  17.5660113  61.4264913  21.9374083  17.1480113  61.8764913  22.4244083
  25.4300113  53.9184913  20.1284083  25.7740113  54.0704913  20.9154083
  24.9770113  53.1804913  20.2414083  25.4140113  53.8314913  20.2614083
  12.6200113  61.3534913  12.9304083  13.3760113  60.9214913  12.9884083
  12.6350113  61.8854913  13.6214083  12.7340113  61.3684913  13.0414083
  13.5600113  59.5744913  20.9354083  13.9910113  59.4454913  20.1884083
  13.3550113  60.4224913  20.9094083  13.5930113  59.6804913  20.8214083
  19.9060113  53.1384913  14.5854083  19.9040113  53.0214913  13.7204083
  19.7250113  53.9864913  14.6774083  19.8790113  53.2464913  14.4714083
  28.9600113  65.5654913  26.0824083  28.2890113  66.0794913  26.3004083
  29.0230113  65.6654913  25.2184083  28.8700113  65.6564913  25.9874083
  17.6440113  63.0904913  19.2174083  17.7700113  63.9334913  19.4044083
  18.3120113  62.6914913  19.6134083  17.7620113  63.1564913  19.3034083
  15.7740113  56.5734913  29.0794083  15.2380113  56.0674913  29.5474083
  15.7940113  56.1834913  28.2994083  15.6970113  56.4404913  29.0334083
  16.2590113  55.9704913  14.2194083  16.1310113  55.5224913  14.9574083
  15.6770113  55.6284913  13.6674083  16.1540113  55.8534913  14.2474083
  16.4260113  57.8004913  20.8184083  15.6450113  57.7414913  20.4354083
  16.4980113  57.0484913  21.2554083  16.3210113  57.6814913  20.8264083
  16.8560113  57.5374913  24.2864083  16.8810113  56.8624913  23.7354083
  16.2100113  58.0334913  23.9744083  16.7650113  57.5104913  24.1594083
  26.7510113  55.2504913  22.6824083  26.0890113  55.5784913  23.1454083
  26.9380113  55.8844913  22.1134083  26.6810113  55.3924913  22.6664083
  20.9560113  66.3144913  23.6784083  20.6790113  65.6734913  23.1554083
  20.7480113  67.0404913  23.2404083  20.8850113  66.3274913  23.5364083
  23.3960113  51.1564913  26.1114083  23.5450113  50.3314913  25.8684083
  23.7750113  51.2114913  26.8954083  23.4740113  51.0424913  26.1914083
  24.9440113  53.2194913  16.1934083  25.4340113  53.9364913  16.1164083
  24.1540113  53.4804913  15.9304083  24.9000113  53.3634913  16.1434083
  14.6550113  58.8924913  29.8454083  14.6180113  59.3934913  29.1314083
  14.9860113  58.1404913  29.5504083  14.6980113  58.8544913  29.6964083
  26.2580113  61.0974913  28.1034083  26.7420113  61.8154913  28.2014083
  26.6520113  60.6704913  27.4524083  26.3880113  61.1404913  28.0214083
  20.5540113  63.9424913  29.2804083  20.9080113  63.7644913  30.0574083
  20.1180113  63.2134913  29.0814083  20.5420113  63.8084913  29.3664083
  21.5260113  54.6894913  21.9184083  22.0060113  55.3884913  22.1264083
  21.8990113  54.0424913  22.3694083  21.6520113  54.6974913  22.0154083
  23.7150113  57.8584913  14.1924083  23.7070113  58.5804913  13.7024083
  23.0760113  57.9934913  14.7694083  23.6200113  57.9854913  14.2054083
  28.6870113  61.7284913  18.1734083  29.0430113  61.3784913  18.8884083
  28.6790113  61.0674913  17.6034083  28.7390113  61.5784913  18.1944083
  24.7320113  64.7944913  22.0174083  24.1290113  64.4984913  21.4604083
  25.2770113  65.2464913  21.5084083  24.7230113  64.8174913  21.8594083
  24.7450113  61.6454913  21.4174083  23.9480113  61.8694913  21.6914083
  25.0030113  61.0514913  22.0024083  24.6650113  61.5904913  21.5444083
  18.6370113  66.4574913  15.8654083  18.4900113  65.6814913  16.2364083
  19.3260113  66.3104913  15.3504083  18.7170113  66.3204913  15.8444083
  18.3080113  50.2004913  13.8534083  18.4050113  50.0934913  14.7144083
  17.6000113  50.7064913  13.7884083  18.2180113  50.2594913  13.9714083
  20.9290113  65.9734913  14.2674083  21.5510113  66.1364913  14.8574083
  20.9650113  66.6644913  13.7354083  21.0260113  66.0994913  14.2764083
  28.0050113  59.6434913  26.2634083  28.0600113  59.7684913  25.4014083
  28.7580113  59.9634913  26.5654083  28.1240113  59.7084913  26.1804083
  24.1960113  64.9924913  30.5404083  24.3600113  65.2754913  31.3494083
  24.4590113  65.6534913  30.0354083  24.2590113  65.1324913  30.5854083
  29.0370113  49.9414913  29.2504083  28.4000113  49.5414913  28.8084083
  29.0630113  49.5104913  30.0084083  28.9470113  49.8194913  29.2964083
  15.4300113  58.5074913  15.0964083  15.7540113  57.7284913  14.8744083
  16.0760113  58.8754913  15.5514083  15.5730113  58.4464913  15.1304083
  23.7360113  59.4494913  25.8634083  23.5810113  60.0594913  26.4674083
  24.2700113  58.8914913  26.2694083  23.7920113  59.4574913  26.0124083
  12.4270113  50.1684913  16.0644083  12.5560113  49.4604913  15.5724083
  12.0600113  49.8504913  16.7894083  12.3920113  50.0164913  16.0994083
  22.1200113  57.8494913  16.5214083  22.1790113  58.4994913  17.1004083
  21.9310113  57.1534913  17.0124083  22.1010113  57.8424913  16.6794083
  27.3460113  62.1784913  22.3904083  26.8670113  62.4764913  21.7244083
  26.9900113  61.4024913  22.5684083  27.2230113  62.1074913  22.3184083
  16.6160113  52.3664913  13.0334083  16.1050113  52.4194913  12.3274083
  17.4000113  52.6064913  12.7374083  16.6560113  52.4094913  12.8854083
  21.3430113  59.8964913  20.9524083  20.4960113  59.7024913  21.0334083
  21.6670113  59.7314913  21.7454083  21.2650113  59.8434913  21.0814083
  18.0950113  66.6264913  11.8384083  18.5340113  65.9294913  12.1264083
  18.3020113  67.2504913  12.4114083  18.1910113  66.6154913  11.9654083
  15.1910113  59.5894913  23.2684083  15.9130113  60.0774913  23.2314083
  14.9210113  59.5594913  22.4394083  15.2580113  59.6574913  23.1404083
  18.4210113  54.7604913  20.0034083  19.2670113  54.5704913  20.1014083
  18.0510113  53.9834913  19.8654083  18.4910113  54.6174913  19.9974083
  31.0380113  66.3444913  14.3304083  31.7320113  65.8774913  14.0824083
  30.4990113  65.7464913  14.6674083  31.0610113  66.1864913  14.3434083
  13.2420113  56.0984913  16.6584083  13.7310113  55.8064913  17.3194083
  13.3710113  55.5054913  16.0314083  13.3330113  55.9674913  16.6634083
  28.2770113  59.1204913  23.5094083  28.2700113  58.3444913  23.9074083
  27.4360113  59.3544913  23.5024083  28.1520113  59.0404913  23.5674083
  17.7670113  57.5324913  12.1444083  17.1570113  57.1274913  12.6184083
  17.3810113  57.6504913  11.3714083  17.6200113  57.4894913  12.1004083
  14.5860113  60.6414913  27.5464083  14.1650113  60.1234913  26.9854083
  14.2340113  61.4274913  27.4034083  14.4720113  60.6814913  27.4424083
  29.5330113  59.1914913  20.9464083  29.2470113  59.5924913  21.6664083
  30.3930113  59.1294913  21.0734083  29.6180113  59.2414913  21.0714083
  19.2220113  55.9934913  14.8544083  19.4940113  56.8194913  14.9214083
  18.3590113  56.0684913  14.7584083  19.1350113  56.1264913  14.8494083
  27.1950113  53.1154913  29.4864083  26.6700113  53.5744913  30.0104083
  26.8340113  52.3204913  29.4804083  27.0640113  53.0654913  29.5624083
  12.7020113  51.9634913  21.3904083  12.7460113  52.3074913  20.5894083
  13.4570113  52.2004913  21.7574083  12.8200113  52.0494913  21.3264083
  30.6640113  64.8244913  21.4754083  30.9540113  65.0814913  20.6944083
  31.3590113  64.9204913  21.9944083  30.8100113  64.8764913  21.4364083
  25.6870113  56.6844913  29.5624083  25.7600113  56.7884913  30.4254083
  25.0530113  57.2424913  29.3414083  25.6040113  56.7824913  29.6574083
  27.9550113  57.0034913  27.9274083  28.2740113  57.7894913  28.1304083
  27.5850113  56.7334913  28.6704083  27.9480113  57.0794913  28.0674083
  27.2690113  63.4274913  13.4574083  27.6030113  62.6214913  13.4924083
  26.5140113  63.3554913  13.8874083  27.2070113  63.2974913  13.5264083
  27.7510113  55.2614913  19.1164083  27.0060113  54.9384913  19.4344083
  27.7530113  56.0874913  19.3964083  27.6410113  55.3354913  19.2044083
  30.6530113  57.5454913  30.6624083  30.6010113  57.2044913  29.8614083
  31.3900113  58.0124913  30.6404083  30.7540113  57.5644913  30.5404083
  30.1910113  61.2214913  26.8684083  30.8190113  60.6724913  26.6124083
  30.1300113  61.7864913  26.2064083  30.2750113  61.2244913  26.7324083
  24.6430113  61.3024913  12.8604083  25.3270113  60.7884913  12.6914083
  24.2260113  61.3484913  12.0954083  24.6820113  61.2334913  12.7224083
  19.3250113  62.4524913  24.1644083  19.0270113  63.0444913  24.7314083
  19.3800113  62.8944913  23.4154083  19.2890113  62.6054913  24.1374083
  17.3040113  61.4024913  27.5624083  16.4980113  61.1124913  27.7294083
  17.2150113  62.2704913  27.5684083  17.1720113  61.4874913  27.5874083
  26.6630113  51.5914913  26.5774083  27.4070113  52.0434913  26.5144083
  26.0970113  52.0614913  26.1084083  26.6900113  51.7284913  26.4994083
  21.8410113  58.8754913  23.6554083  22.3170113  59.2494913  24.2834083
  21.0180113  59.0094913  23.9144083  21.7900113  58.9504913  23.7864083
  18.5510113  54.4784913  26.3964083  18.7120113  53.7344913  26.8234083
  18.5060113  54.2294913  25.5614083  18.5680113  54.3314913  26.3364083
  21.1050113  66.2684913  18.8834083  21.6510113  66.9474913  18.9374083
  20.7550113  66.3504913  18.0884083  21.1340113  66.3814913  18.7734083
  27.9480113  49.5714913  24.2474083  27.6680113  50.3964913  24.2034083
  28.6640113  49.6244913  24.7434083  28.0130113  49.7014913  24.3144083
  20.3030113  50.2864913  26.2764083  21.0080113  50.6064913  25.8744083
  20.5440113  49.4794913  26.5034083  20.4420113  50.2144913  26.2504083
  19.2880113  64.4964913  22.2724083  18.6640113  65.0784913  22.0904083
  19.5360113  64.2104913  21.4864083  19.2320113  64.5404913  22.1294083
  23.5970113  61.1304913  29.2614083  24.3540113  61.4164913  28.9354083
  23.0500113  61.1824913  28.5834083  23.6280113  61.1804913  29.1124083
  27.5060113  63.6804913  27.7654083  27.8520113  63.9504913  28.5194083
  27.8000113  64.2624913  27.1854083  27.6010113  63.8064913  27.7914083
  29.3690113  55.8264913  13.1044083  29.7470113  56.5034913  12.7044083
  28.5270113  56.0504913  13.1354083  29.3000113  55.9594913  13.0494083
  20.8820113  59.2724913  12.1874083  20.0770113  59.0954913  11.9024083
  20.8490113  60.1234913  12.3794083  20.7580113  59.3714913  12.1744083
  16.8120113  55.3394913  22.3374083  17.2520113  55.2364913  21.5914083
  17.3570113  55.0264913  22.9424083  16.9570113  55.2784913  22.3164083
  24.8280113  54.4414913  27.9294083  24.1800113  54.9114913  28.2774083
  25.3930113  54.3524913  28.5884083  24.8160113  54.4974913  28.0784083
  24.5160113  55.9784913  24.2274083  24.8180113  56.3984913  24.9304083
  24.5520113  55.1384913  24.4594083  24.5660113  55.9164913  24.3654083
  21.9410113  66.1454913  28.1524083  22.4190113  65.5454913  27.7364083
  21.5900113  65.7024913  28.8174083  21.9600113  65.9914913  28.1894083
  27.0640113  55.4254913  16.4794083  27.2710113  55.2244913  17.3034083
  27.8200113  55.6934913  16.1374083  27.2060113  55.4354913  16.5504083
  20.3590113  50.3244913  22.3844083  19.5330113  50.1754913  22.6214083
  20.3190113  50.3594913  21.5134083  20.2310113  50.3074913  22.2904083
  28.0860113  51.5084913  17.9534083  27.3720113  51.0374913  18.1244083
  27.9240113  51.8494913  17.1674083  27.9570113  51.4894913  17.8624083
  28.5290113  59.4524913  16.3334083  29.0050113  58.7234913  16.2854083
  27.7080113  59.1664913  16.2574083  28.4780113  59.3024913  16.3144083
  22.0000113  61.3644913  27.1724083  21.2050113  61.3004913  27.5234083
  22.0710113  62.2114913  26.9774083  21.8930113  61.4794913  27.1954083
  12.9240113  50.7224913  28.4194083  12.7840113  51.5174913  28.0884083
  12.1380113  50.4794913  28.7084083  12.7870113  50.8044913  28.4134083
  17.8300113  67.5714913  22.4894083  17.8410113  67.6304913  23.3594083
  17.4050113  66.8244913  22.3394083  17.7690113  67.4694913  22.5954083
  15.9880113  53.4664913  15.6444083  16.1140113  53.1374913  14.8464083
  15.1760113  53.2174913  15.8434083  15.8870113  53.3814913  15.5564083
  24.7450113  60.6194913  18.6884083  24.8210113  60.9604913  19.4874083
  24.9140113  59.7724913  18.8094083  24.7810113  60.5444913  18.8244083
  22.2670113  59.8934913  18.2534083  21.9690113  59.5784913  19.0104083
  22.9620113  60.3664913  18.4884083  22.3260113  59.9164913  18.4004083
  22.4890113  64.0114913  26.2804083  23.1760113  63.8974913  26.8054083
  22.6230113  64.8024913  25.9364083  22.6100113  64.1114913  26.3074083
  30.6650113  56.6204913  28.0914083  29.8100113  56.4984913  28.2174083
  30.8180113  56.2254913  27.3284083  30.5610113  56.5434913  27.9974083
  25.1780113  57.2854913  26.6674083  24.9230113  56.5664913  27.0894083
  25.9990113  57.4014913  26.9374083  25.2620113  57.1964913  26.7694083
  14.5940113  67.0694913  27.9314083  13.9400113  66.5004913  28.0294083
  14.2190113  67.8424913  28.0824083  14.4420113  67.0994913  27.9684083
  23.1120113  58.4754913  29.8544083  23.4350113  59.1614913  29.4224083
  22.4080113  58.7984913  30.2564083  23.0550113  58.6244913  29.8494083
  26.1960113  66.8494913  20.7834083  25.7450113  67.4924913  21.1624083
  26.9040113  66.7704913  21.2884083  26.2340113  66.9324913  20.9144083
  22.8970113  61.9394913  23.7134083  22.2030113  62.3414913  24.0564083
  23.5740113  62.3724913  24.0524083  22.8940113  62.0624913  23.8144083
  28.2740113  64.5324913  30.2934083  29.0500113  64.1424913  30.3764083
  27.8050113  64.1964913  30.9484083  28.3190113  64.4254913  30.4024083
  15.9650113  55.4774913  26.0604083  16.3400113  56.0964913  25.5734083
  16.6390113  55.0034913  26.3454083  16.1200113  55.4994913  26.0304083
  13.7400113  53.9254913  25.3354083  13.8170113  53.7564913  24.4824083
  14.4860113  54.3314913  25.5324083  13.8610113  53.9604913  25.2384083
  29.2990113  56.5654913  15.7754083  29.4020113  56.5074913  14.9114083
  30.0400113  56.2334913  16.0934083  29.4240113  56.5084913  15.6944083
  16.2940113  51.3354913  27.7464083  16.2130113  50.4914913  27.9524083
  15.9800113  51.3794913  26.9334083  16.2360113  51.2174913  27.6564083
  23.2190113  63.5304913  16.8824083  23.0140113  64.3634913  16.7234083
  22.4440113  63.1484913  17.0044083  23.0740113  63.5974913  16.8774083
  28.4010113  56.7114913  25.1314083  28.3990113  55.8484913  25.2554083
  28.4680113  57.0354913  25.9384083  28.4110113  56.6314913  25.2684083
  13.1370113  59.1514913  25.5594083  13.4570113  59.3704913  24.7784083
  13.0370113  58.2864913  25.5044083  13.1690113  59.0564913  25.4364083
  14.5930113  55.0874913  12.1774083  13.9210113  55.1014913  12.7334083
  14.6880113  54.2394913  11.9934083  14.5080113  54.9644913  12.2324083
  24.2800113  51.5114913  28.9134083  24.3720113  52.2234913  29.4074083
  23.6430113  51.0664913  29.3104083  24.1990113  51.5504913  29.0454083
  23.2740113  51.7014913  19.7674083  22.5740113  52.2194913  19.7114083
  23.3120113  51.3214913  18.9834083  23.1760113  51.7224913  19.6434083
  18.5810113  63.7924913  13.2914083  19.0220113  63.8724913  14.0394083
  17.7760113  63.5764913  13.5494083  18.5270113  63.7724913  13.4404083
  26.8720113  52.2174913  22.5674083  27.7270113  52.3164913  22.7124083
  26.5030113  52.7704913  23.1324083  26.9440113  52.3144913  22.6724083
  17.9000113  58.4434913  26.9444083  17.5040113  59.2174913  27.0194083
  17.4940113  58.0704913  26.2684083  17.7820113  58.5024913  26.8554083
  27.1760113  57.4974913  21.0584083  27.8420113  58.0384913  21.2184083
  26.8310113  57.8084913  20.3194083  27.2230113  57.6234913  20.9734083
  27.4890113  65.5634913  16.8654083  27.3150113  64.9094913  17.4154083
  28.2020113  65.2924913  16.4424083  27.5690113  65.4264913  16.8844083
  15.9100113  62.8624913  13.8924083  15.6660113  62.5554913  14.6724083
  15.8770113  62.1594913  13.3764083  15.8690113  62.7134913  13.9314083
  18.7290113  61.1074913  12.6354083  17.9110113  60.8394913  12.7754083
  18.7010113  61.9594913  12.8204083  18.6040113  61.1944913  12.6834083
  18.3290113  51.4204913  24.3944083  17.4650113  51.5044913  24.4744083
  18.5490113  50.9064913  25.0634083  18.2340113  51.3574913  24.5054083
  30.3470113  50.0554913  25.7234083  30.2950113  50.0114913  26.5934083
  31.0340113  49.5524913  25.5334083  30.4410113  49.9754913  25.8234083
  22.4320113  52.1684913  22.7684083  21.6950113  51.7144913  22.8814083
  23.0030113  51.7664913  23.2914083  22.4070113  52.0414913  22.8624083
  25.1640113  63.0164913  24.5564083  25.3700113  63.3174913  25.3484083
  25.1030113  63.7384913  24.0714083  25.1850113  63.1674913  24.6014083
  24.6980113  67.2304913  28.8024083  23.9450113  67.2124913  28.3614083
  24.8660113  68.0824913  28.8864083  24.6120113  67.3534913  28.7494083
  19.9350113  56.4974913  27.9724083  19.6130113  55.9214913  27.4024083
  19.5760113  57.2524913  27.7264083  19.8350113  56.5234913  27.8524083
  20.7310113  49.7494913  12.5994083  20.8090113  49.9964913  11.7664083
  19.9880113  50.1264913  12.8574083  20.6330113  49.8414913  12.5144083
  29.9760113  61.6554913  24.0144083  29.9440113  60.7934913  23.8794083
  29.2830113  61.9574913  23.5804083  29.8690113  61.5724913  23.9304083
  18.3700113  66.8534913  28.2204083  18.4110113  66.9794913  29.0834083
  19.0210113  66.2934913  28.0644083  18.4720113  66.7894913  28.3254083
  28.0810113  64.9154913  22.8114083  28.6080113  64.8324913  22.1204083
  27.6900113  64.1374913  22.8654083  28.1010113  64.7884913  22.7174083
  15.5490113  51.5034913  25.0424083  15.2060113  50.7364913  24.8084083
  14.8540113  52.0274913  25.1064083  15.3960113  51.4674913  25.0174083
  24.5950113  50.3594913  22.0194083  25.2650113  50.9034913  22.1464083
  24.0920113  50.7834913  21.4464083  24.6200113  50.5024913  21.9534083
  15.9630113  65.2364913  29.5804083  16.5580113  65.6674913  30.0524083
  15.5990113  65.8604913  29.0914083  15.9970113  65.3924913  29.5774083
  23.9540113  56.1674913  19.5124083  24.5050113  55.5604913  19.8124083
  23.5290113  56.4304913  20.2274083  23.9730113  56.1164913  19.6614083
  14.2020113  54.8174913  18.9984083  13.8340113  55.1194913  19.7294083
  14.7360113  54.1884913  19.2824083  14.2260113  54.7694913  19.1484083
  13.8900113  63.2254913  26.5094083  13.3160113  63.6414913  27.0184083
  14.6230113  63.6904913  26.6044083  13.9140113  63.3554913  26.5984083
  25.9240113  57.9984913  16.0744083  25.9920113  57.1484913  16.2554083
  25.1010113  58.0844913  15.7964083  25.8120113  57.8854913  16.0604083
  15.6760113  66.4924913  15.2844083  15.5310113  66.6484913  14.4384083
  16.5420113  66.5714913  15.3624083  15.7830113  66.5274913  15.1714083
  19.8430113  58.8894913  15.0124083  19.9430113  59.0284913  14.1574083
  20.6610113  58.8294913  15.3084083  19.9780113  58.9004913  14.9294083
  29.0030113  66.9534913  12.4924083  29.6400113  66.8194913  13.0734083
  28.6620113  66.1594913  12.3754083  29.0470113  66.8164913  12.5604083
  29.1980113  59.3714913  29.2254083  29.8320113  59.2014913  29.7994083
  29.6150113  59.7744913  28.5734083  29.3530113  59.4064913  29.2144083
  25.0780113  63.2184913  14.8144083  24.8270113  63.0904913  15.6404083
  24.7610113  62.5234913  14.3934083  24.9940113  63.0974913  14.8744083
  29.8230113  53.9354913  29.9634083  29.6270113  54.5794913  30.5184083
  29.1010113  53.4454913  29.9554083  29.6880113  53.9584913  30.0444083
  29.7220113  54.8764913  22.9344083  28.8890113  55.1264913  22.8624083
  29.6660113  54.0364913  23.1634083  29.5910113  54.7894913  22.9574083
  18.9820113  51.8644913  28.1284083  19.2160113  51.2884913  27.5154083
  18.1400113  51.6834913  28.2694083  18.8920113  51.7524913  28.0584083
  26.6090113  59.4824913  30.5804083  27.4800113  59.4464913  30.5444083
  26.3900113  59.9024913  29.8484083  26.7060113  59.5384913  30.4674083
  16.3630113  65.3074913  21.7614083  16.2840113  64.4974913  21.4454083
  15.9190113  65.7944913  21.1894083  16.2860113  65.2594913  21.6304083
  21.9640113  61.4264913  14.2444083  22.6810113  61.0794913  13.8884083
  21.9300113  62.2264913  13.8964083  22.0650113  61.4934913  14.1404083
  13.9350113  67.5514913  25.3424083  14.4280113  67.4954913  26.0604083
  14.1230113  66.8184913  24.9074083  14.0360113  67.4344913  25.3844083
  23.1820113  56.9834913   3.1541673  22.6580113  57.5794913   3.5171673
  23.5790113  56.6154913   3.8381673  23.1630113  57.0174913   3.3091673
  12.9910113  63.8584913   4.8651673  13.1200113  63.5784913   5.6811673
  12.3810113  63.3174913   4.5561673  12.9200113  63.7374913   4.9401673
  19.5650113  61.3834913   9.9321673  19.3290113  61.3804913  10.7721673
  18.8170113  61.2354913   9.5081673  19.4190113  61.3604913   9.9931673
  18.9450113  53.9894913   4.4141673  19.6230113  54.0074913   3.8651673
  18.9000113  53.1534913   4.6591673  19.0380113  53.8684913   4.3691673
  19.5470113  64.5754913   7.1951673  19.6850113  65.3354913   6.7881673
  20.3380113  64.2104913   7.2221673  19.6840113  64.6344913   7.1391673
  22.6670113  56.0404913   9.2501673  21.8190113  55.9414913   9.0721673
  22.6960113  56.7854913   9.7041673  22.5460113  56.1364913   9.2911673
  27.2250113  49.0004913   8.3641673  27.0670113  49.7694913   7.9821673
  26.4530113  48.7804913   8.7081673  27.0870113  49.0814913   8.3591673
  12.8930113  56.1404913   2.0801673  12.6370113  56.9714913   2.0051673
  12.2290113  55.7574913   2.4971673  12.7570113  56.2064913   2.1311673
  15.9220113  50.9574913   2.5711673  15.4010113  50.3294913   2.2631673
  16.5130113  50.5204913   3.0421673  15.9330113  50.7994913   2.5951673
  19.2280113  53.0904913  11.8691673  19.3450113  52.6364913  11.1331673
  19.5160113  53.8884913  11.6661673  19.2880113  53.1414913  11.7301673
  25.3930113  66.3844913   5.2771673  26.1370113  66.8404913   5.2671673
  25.2720113  66.1704913   4.4401673  25.4850113  66.4204913   5.1521673
  14.9610113  52.6874913  10.8531673  14.1830113  52.2974913  10.7811673
  15.4520113  52.2754913  10.2621673  14.9180113  52.5684913  10.7551673
  21.6100113  50.3304913  10.0211673  21.7880113  49.5214913   9.7461673
  21.4670113  50.7714913   9.2821673  21.6150113  50.2764913   9.8711673
  17.3950113  67.0784913   6.4471673  17.6870113  67.0114913   7.2671673
  16.7690113  66.4734913   6.4021673  17.3460113  66.9794913   6.5621673
  29.7560113  51.9374913   4.5421673  30.5130113  52.0094913   4.1141673
  29.8190113  51.1644913   4.9411673  29.8770113  51.8344913   4.5371673
  12.3090113  53.2354913   8.4391673  12.3050113  53.8224913   9.0851673
  12.9030113  53.5474913   7.8821673  12.3960113  53.3684913   8.4521673
  24.6470113  63.5694913   8.9811673  24.6130113  63.9514913   9.7651673
  25.5010113  63.5274913   8.8101673  24.7680113  63.6194913   9.0721673
  15.3880113  65.2404913   5.5691673  14.6900113  64.7324913   5.6951673
  15.6480113  65.0354913   4.7611673  15.3230113  65.1354913   5.4681673
  23.0990113  66.7334913   6.4791673  23.8670113  66.6534913   6.0731673
  22.5160113  66.6124913   5.8411673  23.1260113  66.7034913   6.3251673
  16.7490113  64.0914913   8.1361673  17.5900113  64.1544913   7.9141673
  16.7120113  64.4884913   8.9121673  16.8680113  64.1594913   8.2181673
  18.7120113  59.6024913   2.8851673  18.8840113  59.3924913   3.7141673
  18.0570113  59.0684913   2.6691673  18.6410113  59.4924913   2.9761673
  24.9400113  53.5164913   6.4001673  24.8450113  53.8354913   7.2061673
  24.3470113  52.8774913   6.3621673  24.8380113  53.4684913   6.5141673
  19.4620113  59.5404913   5.4751673  19.5150113  60.3874913   5.6771673
  19.1770113  59.1704913   6.2121673  19.4280113  59.6104913   5.6131673
  25.6390113  60.2354913   4.6051673  25.1250113  59.8234913   5.1761673
  25.5130113  61.0794913   4.7861673  25.5450113  60.2994913   4.7161673
  12.2830113  63.9114913  11.6861673  13.0390113  64.2604913  11.9441673
  12.4600113  63.0584913  11.6291673  12.4210113  63.8364913  11.7161673
  28.6600113  53.6964913   7.5441673  29.4320113  53.4714913   7.8811673
  28.1850113  53.9134913   8.2441673  28.7040113  53.6954913   7.6971673
  14.3450113  54.0814913   3.5961673  15.1880113  54.3014913   3.5531673
  13.9560113  54.6544913   3.0651673  14.4120113  54.1984913   3.5111673
  31.1260113  65.1834913   8.9861673  30.4440113  65.4934913   8.5391673
  30.7570113  64.7254913   9.6311673  30.9700113  65.1614913   9.0151673
  20.1990113  55.7664913  11.7141673  19.7150113  56.3434913  12.1561673
  20.1710113  56.0614913  10.8931673  20.1230113  55.8954913  11.6581673
  31.2970113  56.4504913   6.3261673  31.5120113  55.6504913   6.0501673
  30.4470113  56.5104913   6.1371673  31.2030113  56.3414913   6.2571673
  16.9940113  61.9044913   3.3851673  17.4610113  62.1934913   4.0631673
  17.5660113  61.4264913   2.9311673  17.1480113  61.8764913   3.4181673
  28.9600113  65.5654913   7.0761673  28.2890113  66.0794913   7.2941673
  29.0230113  65.6654913   6.2121673  28.8700113  65.6564913   6.9811673
  15.7740113  56.5734913  10.0731673  15.2380113  56.0674913  10.5411673
  15.7940113  56.1834913   9.2931673  15.6970113  56.4404913  10.0271673
  16.8560113  57.5374913   5.2801673  16.8810113  56.8624913   4.7291673
  16.2100113  58.0334913   4.9681673  16.7650113  57.5104913   5.1531673
  26.7510113  55.2504913   3.6761673  26.0890113  55.5784913   4.1391673
  26.9380113  55.8844913   3.1071673  26.6810113  55.3924913   3.6601673
  20.9560113  66.3144913   4.6721673  20.6790113  65.6734913   4.1491673
  20.7480113  67.0404913   4.2341673  20.8850113  66.3274913   4.5301673
  23.3960113  51.1564913   7.1051673  23.5450113  50.3314913   6.8621673
  23.7750113  51.2114913   7.8891673  23.4740113  51.0424913   7.1851673
  14.6550113  58.8924913  10.8391673  14.6180113  59.3934913  10.1251673
  14.9860113  58.1404913  10.5441673  14.6980113  58.8544913  10.6901673
  26.2580113  61.0974913   9.0971673  26.7420113  61.8154913   9.1951673
  26.6520113  60.6704913   8.4461673  26.3880113  61.1404913   9.0151673
  20.5540113  63.9424913  10.2741673  20.9080113  63.7644913  11.0511673
  20.1180113  63.2134913  10.0751673  20.5420113  63.8084913  10.3601673
  21.5260113  54.6894913   2.9121673  22.0060113  55.3884913   3.1201673
  21.8990113  54.0424913   3.3631673  21.6520113  54.6974913   3.0091673
  24.7320113  64.7944913   3.0111673  24.1290113  64.4984913   2.4541673
  25.2770113  65.2464913   2.5021673  24.7230113  64.8174913   2.8531673
  24.7450113  61.6454913   2.4111673  23.9480113  61.8694913   2.6851673
  25.0030113  61.0514913   2.9961673  24.6650113  61.5904913   2.5381673
  28.0050113  59.6434913   7.2571673  28.0600113  59.7684913   6.3951673
  28.7580113  59.9634913   7.5591673  28.1240113  59.7084913   7.1741673
  24.1960113  64.9924913  11.5341673  24.3600113  65.2754913  12.3431673
  24.4590113  65.6534913  11.0291673  24.2590113  65.1324913  11.5791673
  29.0370113  49.9414913  10.2441673  28.4000113  49.5414913   9.8021673
  29.0630113  49.5104913  11.0021673  28.9470113  49.8194913  10.2901673
  23.7360113  59.4494913   6.8571673  23.5810113  60.0594913   7.4611673
  24.2700113  58.8914913   7.2631673  23.7920113  59.4574913   7.0061673
  27.3460113  62.1784913   3.3841673  26.8670113  62.4764913   2.7181673
  26.9900113  61.4024913   3.5621673  27.2230113  62.1074913   3.3121673
  21.3430113  59.8964913   1.9461673  20.4960113  59.7024913   2.0271673
  21.6670113  59.7314913   2.7391673  21.2650113  59.8434913   2.0751673
  15.1910113  59.5894913   4.2621673  15.9130113  60.0774913   4.2251673
  14.9210113  59.5594913   3.4331673  15.2580113  59.6574913   4.1341673
  28.2770113  59.1204913   4.5031673  28.2700113  58.3444913   4.9011673
  27.4360113  59.3544913   4.4961673  28.1520113  59.0404913   4.5611673
  14.5860113  60.6414913   8.5401673  14.1650113  60.1234913   7.9791673
  14.2340113  61.4274913   8.3971673  14.4720113  60.6814913   8.4361673
  29.5330113  59.1914913   1.9401673  29.2470113  59.5924913   2.6601673
  30.3930113  59.1294913   2.0671673  29.6180113  59.2414913   2.0651673
  27.1950113  53.1154913  10.4801673  26.6700113  53.5744913  11.0041673
  26.8340113  52.3204913  10.4741673  27.0640113  53.0654913  10.5561673
  30.6640113  64.8244913   2.4691673  30.9540113  65.0814913   1.6881673
  31.3590113  64.9204913   2.9881673  30.8100113  64.8764913   2.4301673
  25.6870113  56.6844913  10.5561673  25.7600113  56.7884913  11.4191673
  25.0530113  57.2424913  10.3351673  25.6040113  56.7824913  10.6511673
  27.9550113  57.0034913   8.9211673  28.2740113  57.7894913   9.1241673
  27.5850113  56.7334913   9.6641673  27.9480113  57.0794913   9.0611673
  30.6530113  57.5454913  11.6561673  30.6010113  57.2044913  10.8551673
  31.3900113  58.0124913  11.6341673  30.7540113  57.5644913  11.5341673
  30.1910113  61.2214913   7.8621673  30.8190113  60.6724913   7.6061673
  30.1300113  61.7864913   7.2001673  30.2750113  61.2244913   7.7261673
  19.3250113  62.4524913   5.1581673  19.0270113  63.0444913   5.7251673
  19.3800113  62.8944913   4.4091673  19.2890113  62.6054913   5.1311673
  17.3040113  61.4024913   8.5561673  16.4980113  61.1124913   8.7231673
  17.2150113  62.2704913   8.5621673  17.1720113  61.4874913   8.5811673
  26.6630113  51.5914913   7.5711673  27.4070113  52.0434913   7.5081673
  26.0970113  52.0614913   7.1021673  26.6900113  51.7284913   7.4931673
  21.8410113  58.8754913   4.6491673  22.3170113  59.2494913   5.2771673
  21.0180113  59.0094913   4.9081673  21.7900113  58.9504913   4.7801673
  18.5510113  54.4784913   7.3901673  18.7120113  53.7344913   7.8171673
  18.5060113  54.2294913   6.5551673  18.5680113  54.3314913   7.3301673
  27.9480113  49.5714913   5.2411673  27.6680113  50.3964913   5.1971673
  28.6640113  49.6244913   5.7371673  28.0130113  49.7014913   5.3081673
  20.3030113  50.2864913   7.2701673  21.0080113  50.6064913   6.8681673
  20.5440113  49.4794913   7.4971673  20.4420113  50.2144913   7.2441673
  19.2880113  64.4964913   3.2661673  18.6640113  65.0784913   3.0841673
  19.5360113  64.2104913   2.4801673  19.2320113  64.5404913   3.1231673
  23.5970113  61.1304913  10.2551673  24.3540113  61.4164913   9.9291673
  23.0500113  61.1824913   9.5771673  23.6280113  61.1804913  10.1061673
  27.5060113  63.6804913   8.7591673  27.8520113  63.9504913   9.5131673
  27.8000113  64.2624913   8.1791673  27.6010113  63.8064913   8.7851673
  16.8120113  55.3394913   3.3311673  17.2520113  55.2364913   2.5851673
  17.3570113  55.0264913   3.9361673  16.9570113  55.2784913   3.3101673
  24.8280113  54.4414913   8.9231673  24.1800113  54.9114913   9.2711673
  25.3930113  54.3524913   9.5821673  24.8160113  54.4974913   9.0721673
  24.5160113  55.9784913   5.2211673  24.8180113  56.3984913   5.9241673
  24.5520113  55.1384913   5.4531673  24.5660113  55.9164913   5.3591673
  21.9410113  66.1454913   9.1461673  22.4190113  65.5454913   8.7301673
  21.5900113  65.7024913   9.8111673  21.9600113  65.9914913   9.1831673
  20.3590113  50.3244913   3.3781673  19.5330113  50.1754913   3.6151673
  20.3190113  50.3594913   2.5071673  20.2310113  50.3074913   3.2841673
  22.0000113  61.3644913   8.1661673  21.2050113  61.3004913   8.5171673
  22.0710113  62.2114913   7.9711673  21.8930113  61.4794913   8.1891673
  12.9240113  50.7224913   9.4131673  12.7840113  51.5174913   9.0821673
  12.1380113  50.4794913   9.7021673  12.7870113  50.8044913   9.4071673
  17.8300113  67.5714913   3.4831673  17.8410113  67.6304913   4.3531673
  17.4050113  66.8244913   3.3331673  17.7690113  67.4694913   3.5891673
  22.4890113  64.0114913   7.2741673  23.1760113  63.8974913   7.7991673
  22.6230113  64.8024913   6.9301673  22.6100113  64.1114913   7.3011673
  30.6650113  56.6204913   9.0851673  29.8100113  56.4984913   9.2111673
  30.8180113  56.2254913   8.3221673  30.5610113  56.5434913   8.9911673
  25.1780113  57.2854913   7.6611673  24.9230113  56.5664913   8.0831673
  25.9990113  57.4014913   7.9311673  25.2620113  57.1964913   7.7631673
  14.5940113  67.0694913   8.9251673  13.9400113  66.5004913   9.0231673
  14.2190113  67.8424913   9.0761673  14.4420113  67.0994913   8.9621673
  23.1120113  58.4754913  10.8481673  23.4350113  59.1614913  10.4161673
  22.4080113  58.7984913  11.2501673  23.0550113  58.6244913  10.8431673
  26.1960113  66.8494913   1.7771673  25.7450113  67.4924913   2.1561673
  26.9040113  66.7704913   2.2821673  26.2340113  66.9324913   1.9081673
  22.8970113  61.9394913   4.7071673  22.2030113  62.3414913   5.0501673
  23.5740113  62.3724913   5.0461673  22.8940113  62.0624913   4.8081673
  28.2740113  64.5324913  11.2871673  29.0500113  64.1424913  11.3701673
  27.8050113  64.1964913  11.9421673  28.3190113  64.4254913  11.3961673
  15.9650113  55.4774913   7.0541673  16.3400113  56.0964913   6.5671673
  16.6390113  55.0034913   7.3391673  16.1200113  55.4994913   7.0241673
  13.7400113  53.9254913   6.3291673  13.8170113  53.7564913   5.4761673
  14.4860113  54.3314913   6.5261673  13.8610113  53.9604913   6.2321673
  16.2940113  51.3354913   8.7401673  16.2130113  50.4914913   8.9461673
  15.9800113  51.3794913   7.9271673  16.2360113  51.2174913   8.6501673
  28.4010113  56.7114913   6.1251673  28.3990113  55.8484913   6.2491673
  28.4680113  57.0354913   6.9321673  28.4110113  56.6314913   6.2621673
  13.1370113  59.1514913   6.5531673  13.4570113  59.3704913   5.7721673
  13.0370113  58.2864913   6.4981673  13.1690113  59.0564913   6.4301673
  24.2800113  51.5114913   9.9071673  24.3720113  52.2234913  10.4011673
  23.6430113  51.0664913  10.3041673  24.1990113  51.5504913  10.0391673
  26.8720113  52.2174913   3.5611673  27.7270113  52.3164913   3.7061673
  26.5030113  52.7704913   4.1261673  26.9440113  52.3144913   3.6661673
  17.9000113  58.4434913   7.9381673  17.5040113  59.2174913   8.0131673
  17.4940113  58.0704913   7.2621673  17.7820113  58.5024913   7.8491673
  18.3290113  51.4204913   5.3881673  17.4650113  51.5044913   5.4681673
  18.5490113  50.9064913   6.0571673  18.2340113  51.3574913   5.4991673
  30.3470113  50.0554913   6.7171673  30.2950113  50.0114913   7.5871673
  31.0340113  49.5524913   6.5271673  30.4410113  49.9754913   6.8171673
  22.4320113  52.1684913   3.7621673  21.6950113  51.7144913   3.8751673
  23.0030113  51.7664913   4.2851673  22.4070113  52.0414913   3.8561673
  25.1640113  63.0164913   5.5501673  25.3700113  63.3174913   6.3421673
  25.1030113  63.7384913   5.0651673  25.1850113  63.1674913   5.5951673
  24.6980113  67.2304913   9.7961673  23.9450113  67.2124913   9.3551673
  24.8660113  68.0824913   9.8801673  24.6120113  67.3534913   9.7431673
  19.9350113  56.4974913   8.9661673  19.6130113  55.9214913   8.3961673
  19.5760113  57.2524913   8.7201673  19.8350113  56.5234913   8.8461673
  29.9760113  61.6554913   5.0081673  29.9440113  60.7934913   4.8731673
  29.2830113  61.9574913   4.5741673  29.8690113  61.5724913   4.9241673
  18.3700113  66.8534913   9.2141673  18.4110113  66.9794913  10.0771673
  19.0210113  66.2934913   9.0581673  18.4720113  66.7894913   9.3191673
  28.0810113  64.9154913   3.8051673  28.6080113  64.8324913   3.1141673
  27.6900113  64.1374913   3.8591673  28.1010113  64.7884913   3.7111673
  15.5490113  51.5034913   6.0361673  15.2060113  50.7364913   5.8021673
  14.8540113  52.0274913   6.1001673  15.3960113  51.4674913   6.0111673
  24.5950113  50.3594913   3.0131673  25.2650113  50.9034913   3.1401673
  24.0920113  50.7834913   2.4401673  24.6200113  50.5024913   2.9471673
  15.9630113  65.2364913  10.5741673  16.5580113  65.6674913  11.0461673
  15.5990113  65.8604913  10.0851673  15.9970113  65.3924913  10.5711673
  13.8900113  63.2254913   7.5031673  13.3160113  63.6414913   8.0121673
  14.6230113  63.6904913   7.5981673  13.9140113  63.3554913   7.5921673
  29.1980113  59.3714913  10.2191673  29.8320113  59.2014913  10.7931673
  29.6150113  59.7744913   9.5671673  29.3530113  59.4064913  10.2081673
  29.8230113  53.9354913  10.9571673  29.6270113  54.5794913  11.5121673
  29.1010113  53.4454913  10.9491673  29.6880113  53.9584913  11.0381673
  29.7220113  54.8764913   3.9281673  28.8890113  55.1264913   3.8561673
  29.6660113  54.0364913   4.1571673  29.5910113  54.7894913   3.9511673
  18.9820113  51.8644913   9.1221673  19.2160113  51.2884913   8.5091673
  18.1400113  51.6834913   9.2631673  18.8920113  51.7524913   9.0521673
  26.6090113  59.4824913  11.5741673  27.4800113  59.4464913  11.5381673
  26.3900113  59.9024913  10.8421673  26.7060113  59.5384913  11.4611673
  16.3630113  65.3074913   2.7551673  16.2840113  64.4974913   2.4391673
  15.9190113  65.7944913   2.1831673  16.2860113  65.2594913   2.6241673
  13.9350113  67.5514913   6.3361673  14.4280113  67.4954913   7.0541673
  14.1230113  66.8184913   5.9011673  14.0360113  67.4344913   6.3781673
  23.3730113  31.5893833  74.5081313  23.1280113  32.0773833  73.8281313
  24.2360113  31.5163833  74.4081313  23.4640113  31.6503833  74.3931313
  13.0510113  42.6453833  74.6351313  12.6100113  42.7633833  75.3781313
  12.7680113  41.8703833  74.3501313  12.9440113  42.5483833  74.7031313
  29.3260113  45.9463833  72.1501313  30.0270113  45.4273833  72.1461313
  28.7390113  45.5013833  71.6811313  29.3430113  45.8033833  72.0801313
  12.7940113  36.4373833  71.1421313  12.0160113  36.5993833  70.7821313
  12.8330113  35.5663833  71.1641313  12.6850113  36.3323833  71.0921313
  15.9330113  41.7003833  69.8141313  15.5410113  41.3293833  69.1281313
  15.8530113  41.1023833  70.4431313  15.8630113  41.5573833  69.8051313
  25.8530113  39.5723833  75.8551313  25.9330113  39.5763833  74.9861313
  25.2690113  38.9403833  76.0041313  25.7780113  39.4793833  75.7491313
  15.5600113  43.3413833  73.7141313  16.1680113  43.1713833  74.3171313
  14.8090113  43.2013833  74.1351313  15.5390113  43.2953833  73.8651313
  19.8420113  32.6763833  73.6631313  19.7720113  33.3533833  73.1171313
  20.5830113  32.2883833  73.4141313  19.9410113  32.7193833  73.5451313
  14.4510113  46.4323833  69.7911313  14.9180113  46.5163833  69.0591313
  14.9060113  45.8543833  70.2601313  14.5870113  46.3593833  69.7521313
  14.4370113  39.9013833  75.0921313  13.9750113  39.5093833  74.4651313
  15.1370113  39.3883833  75.1841313  14.4720113  39.7683833  75.0131313
  16.4380113  38.0013833  75.1151313  17.2550113  37.8143833  75.3581313
  15.9610113  37.3873833  75.5111313  16.4880113  37.8833833  75.2101313
  20.6420113  43.9823833  77.7251313  20.9900113  43.1833833  77.7551313
  21.3070113  44.4863833  77.4701313  20.7920113  43.9383833  77.6921313
  20.6990113  43.4313833  73.9361313  21.0300113  42.7873833  74.4221313
  20.9390113  43.2203833  73.1251313  20.7830113  43.3053833  73.8881313
  17.0350113  33.0953833  74.3811313  16.7390113  33.5963833  73.7311313
  17.9020113  33.1733833  74.3241313  17.1190113  33.1813833  74.2771313
  20.0140113  32.2373833  76.6041313  20.0870113  33.0973833  76.7331313
  19.9760113  32.1623833  75.7361313  20.0190113  32.3533833  76.4951313
  24.6870113  35.1633833  68.9031313  24.2370113  35.8443833  69.2101313
  24.8010113  34.6593833  69.6061313  24.6380113  35.1893833  69.0521313
  12.8930113  37.6623833  78.1051313  12.6370113  38.4933833  78.0301313
  12.2290113  37.2793833  78.5221313  12.7570113  37.7283833  78.1561313
  12.8030113  47.3723833  76.0051313  12.2110113  47.9303833  75.6921313
  13.2290113  47.1033833  75.2931313  12.7790113  47.4143833  75.8541313
  18.6430113  45.2163833  73.4851313  18.0640113  44.9413833  74.0771313
  19.2670113  44.6073833  73.5101313  18.6500113  45.0863833  73.5761313
  24.7860113  47.5043833  71.0071313  25.5130113  47.9763833  71.1091313
  25.0150113  46.7103833  71.2871313  24.9280113  47.4573833  71.0641313
  22.9540113  47.8963833  72.9971313  23.1680113  48.4233833  73.6591313
  23.7210113  47.7223833  72.6181313  23.0990113  47.9483833  73.0391313
  14.3480113  46.0423833  73.9361313  15.0040113  45.4673833  73.9511313
  14.7370113  46.7913833  73.7151313  14.5030113  46.0673833  73.9061313
  30.0810113  35.1363833  75.1981313  29.7350113  35.8143833  75.6241313
  29.4450113  34.5383833  75.2141313  29.9360113  35.1483833  75.2631313
  15.1660113  44.5293833  77.4361313  15.5890113  44.1733833  76.7621313
  15.4900113  44.1073833  78.1281313  15.2760113  44.4143833  77.4391313
  18.3970113  47.3813833  76.7321313  19.2410113  47.4853833  76.5371313
  18.1000113  48.1993833  76.8001313  18.4780113  47.5173833  76.7131313
  22.2040113  36.7783833  74.8191313  22.4910113  36.5463833  74.0291313
  22.9360113  36.8573833  75.2881313  22.3540113  36.7553833  74.7721313
  22.9260113  37.1173833  69.9401313  23.2070113  37.9053833  70.1891313
  22.1500113  37.2823833  69.5771313  22.8530113  37.2583833  69.9231313
  26.9670113  49.0913833  71.4071313  27.6320113  48.9433833  70.8621313
  27.3270113  49.0083833  72.1971313  27.1190113  49.0573833  71.4431313
  21.7850113  45.2883833  69.7561313  21.6040113  45.8333833  70.4131313
  22.5510113  45.5783833  69.4551313  21.8710113  45.4123833  69.8091313
  25.2920113  33.1843833  70.8101313  25.8320113  32.5023833  70.8861313
  25.3540113  33.5823833  71.5841313  25.3810113  33.1423833  70.9361313
  13.2460113  34.3523833  73.3791313  13.1320113  33.4883833  73.4101313
  12.7710113  34.6463833  74.0491313  13.1590113  34.2683833  73.4821313
  22.5500113  35.5603833  72.1241313  22.0420113  34.8983833  71.8701313
  22.6020113  36.0643833  71.4141313  22.4830113  35.5373833  71.9821313
  22.5500113  32.5013833  72.0151313  22.0950113  32.0993833  71.3891313
  23.3230113  32.6563833  71.6401313  22.5970113  32.4653833  71.8671313
  29.3760113  48.8583833  75.4051313  28.9210113  49.5753833  75.6061313
  28.7620113  48.2873833  75.1631313  29.2180113  48.8803833  75.3991313
  21.1480113  34.8683833  76.5371313  21.2220113  35.4363833  75.8791313
  21.2690113  35.3603833  77.2471313  21.1760113  35.0253833  76.5451313
  26.3730113  44.7033833  74.9491313  27.0740113  44.2213833  75.1381313
  25.7130113  44.1343833  74.9941313  26.3790113  44.5483833  74.9831313
  15.7560113  30.6913833  74.8851313  16.2920113  31.3793833  74.8751313
  15.7590113  30.4173833  74.0571313  15.8350113  30.7523833  74.7611313
  26.1960113  30.9823833  75.2611313  26.2450113  30.6643833  76.0721313
  26.5190113  30.3383833  74.7681313  26.2510113  30.8403833  75.3081313
  16.2040113  34.5013833  76.5391313  16.4760113  34.0713833  75.8311313
  16.0280113  33.8653833  77.1101313  16.2180113  34.3443833  76.5191313
  28.8920113  42.1963833  70.7571313  29.0110113  41.9093833  71.5721313
  29.6990113  42.2173833  70.4271313  29.0280113  42.1573833  70.8291313
  16.0280113  41.9283833  76.0881313  16.8790113  41.8483833  75.9151313
  15.6710113  41.2463833  75.6761313  16.1010113  41.8153833  76.0011313
  14.7950113  48.6533833  77.3251313  14.1220113  48.1553833  77.0801313
  15.1980113  48.8383833  76.5741313  14.7550113  48.6073833  77.1781313
  26.7870113  38.7333833  70.3421313  26.5670113  39.4643833  69.9201313
  26.3390113  38.7843833  71.0891313  26.6880113  38.8483833  70.3901313
  18.3960113  41.9353833  74.3231313  19.1090113  42.4303833  74.4131313
  18.6180113  41.3683833  73.6971313  18.5340113  41.9243833  74.2441313
  30.9740113  33.5943833  69.7951313  30.3120113  33.0263833  69.8181313
  30.7810113  34.1063833  69.1151313  30.8480113  33.5863833  69.6981313
  12.5520113  43.5783833  77.6431313  11.8850113  44.0663833  77.9191313
  13.2320113  44.1233833  77.6721313  12.5540113  43.7303833  77.6881313
  12.6180113  40.2623833  72.7461313  12.4330113  39.4233833  72.8981313
  13.2770113  40.2263833  72.1761313  12.6880113  40.1333833  72.6841313
  28.9760113  33.1523833  72.0741313  29.7220113  32.7453833  72.2731313
  29.2390113  33.8673833  71.6491313  29.1250113  33.1983833  72.0411313
  22.9190113  45.6383833  76.6501313  22.3960113  46.2723833  76.3571313
  23.2290113  45.2743833  75.9211313  22.8870113  45.6783833  76.4991313
  12.7900113  44.4263833  72.3211313  13.3420113  44.9953833  72.6851313
  12.5580113  43.9113833  72.9861313  12.8370113  44.4343833  72.4731313
  25.4300113  35.4403833  77.1471313  25.7740113  35.5923833  77.9341313
  24.9770113  34.7023833  77.2601313  25.4140113  35.3533833  77.2801313
  12.6200113  42.8753833  69.9491313  13.3760113  42.4433833  70.0071313
  12.6350113  43.4073833  70.6401313  12.7340113  42.8903833  70.0601313
  13.5600113  41.0963833  77.9541313  13.9910113  40.9673833  77.2071313
  13.3550113  41.9443833  77.9281313  13.5930113  41.2023833  77.8401313
  19.9060113  34.6603833  71.6041313  19.9040113  34.5433833  70.7391313
  19.7250113  35.5083833  71.6961313  19.8790113  34.7683833  71.4901313
  17.6440113  44.6123833  76.2361313  17.7700113  45.4553833  76.4231313
  18.3120113  44.2133833  76.6321313  17.7620113  44.6783833  76.3221313
  16.2590113  37.4923833  71.2381313  16.1310113  37.0443833  71.9761313
  15.6770113  37.1503833  70.6861313  16.1540113  37.3753833  71.2661313
  16.4260113  39.3223833  77.8371313  15.6450113  39.2633833  77.4541313
  16.4980113  38.5703833  78.2741313  16.3210113  39.2033833  77.8451313
  24.9440113  34.7413833  73.2121313  25.4340113  35.4583833  73.1351313
  24.1540113  35.0023833  72.9491313  24.9000113  34.8853833  73.1621313
  23.7150113  39.3803833  71.2111313  23.7070113  40.1023833  70.7211313
  23.0760113  39.5153833  71.7881313  23.6200113  39.5073833  71.2241313
  28.6870113  43.2503833  75.1921313  29.0430113  42.9003833  75.9071313
  28.6790113  42.5893833  74.6221313  28.7390113  43.1003833  75.2131313
  24.7450113  43.1673833  78.4361313  23.9480113  43.3913833  78.7101313
  25.0030113  42.5733833  79.0211313  24.6650113  43.1123833  78.5631313
  18.6370113  47.9793833  72.8841313  18.4900113  47.2033833  73.2551313
  19.3260113  47.8323833  72.3691313  18.7170113  47.8423833  72.8631313
  18.3080113  31.7223833  70.8721313  18.4050113  31.6153833  71.7331313
  17.6000113  32.2283833  70.8071313  18.2180113  31.7813833  70.9901313
  20.9290113  47.4953833  71.2861313  21.5510113  47.6583833  71.8761313
  20.9650113  48.1863833  70.7541313  21.0260113  47.6213833  71.2951313
  15.4300113  40.0293833  72.1151313  15.7540113  39.2503833  71.8931313
  16.0760113  40.3973833  72.5701313  15.5730113  39.9683833  72.1491313
  12.4270113  31.6903833  73.0831313  12.5560113  30.9823833  72.5911313
  12.0600113  31.3723833  73.8081313  12.3920113  31.5383833  73.1181313
  22.1200113  39.3713833  73.5401313  22.1790113  40.0213833  74.1191313
  21.9310113  38.6753833  74.0311313  22.1010113  39.3643833  73.6981313
  16.6160113  33.8883833  70.0521313  16.1050113  33.9413833  69.3461313
  17.4000113  34.1283833  69.7561313  16.6560113  33.9313833  69.9041313
  21.3430113  41.4183833  77.9711313  20.4960113  41.2243833  78.0521313
  21.6670113  41.2533833  78.7641313  21.2650113  41.3653833  78.1001313
  18.0950113  48.1483833  68.8571313  18.5340113  47.4513833  69.1451313
  18.3020113  48.7723833  69.4301313  18.1910113  48.1373833  68.9841313
  18.4210113  36.2823833  77.0221313  19.2670113  36.0923833  77.1201313
  18.0510113  35.5053833  76.8841313  18.4910113  36.1393833  77.0161313
  31.0380113  47.8663833  71.3491313  31.7320113  47.3993833  71.1011313
  30.4990113  47.2683833  71.6861313  31.0610113  47.7083833  71.3621313
  13.2420113  37.6203833  73.6771313  13.7310113  37.3283833  74.3381313
  13.3710113  37.0273833  73.0501313  13.3330113  37.4893833  73.6821313
  17.7670113  39.0543833  69.1631313  17.1570113  38.6493833  69.6371313
  17.3810113  39.1723833  68.3901313  17.6200113  39.0113833  69.1191313
  29.5330113  40.7133833  77.9651313  29.2470113  41.1143833  78.6851313
  30.3930113  40.6513833  78.0921313  29.6180113  40.7633833  78.0901313
  19.2220113  37.5153833  71.8731313  19.4940113  38.3413833  71.9401313
  18.3590113  37.5903833  71.7771313  19.1350113  37.6483833  71.8681313
  12.7020113  33.4853833  78.4091313  12.7460113  33.8293833  77.6081313
  13.4570113  33.7223833  78.7761313  12.8200113  33.5713833  78.3451313
  30.6640113  46.3463833  78.4941313  30.9540113  46.6033833  77.7131313
  31.3590113  46.4423833  79.0131313  30.8100113  46.3983833  78.4551313
  27.2690113  44.9493833  70.4761313  27.6030113  44.1433833  70.5111313
  26.5140113  44.8773833  70.9061313  27.2070113  44.8193833  70.5451313
  27.7510113  36.7833833  76.1351313  27.0060113  36.4603833  76.4531313
  27.7530113  37.6093833  76.4151313  27.6410113  36.8573833  76.2231313
  24.6430113  42.8243833  69.8791313  25.3270113  42.3103833  69.7101313
  24.2260113  42.8703833  69.1141313  24.6820113  42.7553833  69.7411313
  21.1050113  47.7903833  75.9021313  21.6510113  48.4693833  75.9561313
  20.7550113  47.8723833  75.1071313  21.1340113  47.9033833  75.7921313
  29.3690113  37.3483833  70.1231313  29.7470113  38.0253833  69.7231313
  28.5270113  37.5723833  70.1541313  29.3000113  37.4813833  70.0681313
  20.8820113  40.7943833  69.2061313  20.0770113  40.6173833  68.9211313
  20.8490113  41.6453833  69.3981313  20.7580113  40.8933833  69.1931313
  27.0640113  36.9473833  73.4981313  27.2710113  36.7463833  74.3221313
  27.8200113  37.2153833  73.1561313  27.2060113  36.9573833  73.5691313
  28.0860113  33.0303833  74.9721313  27.3720113  32.5593833  75.1431313
  27.9240113  33.3713833  74.1861313  27.9570113  33.0113833  74.8811313
  28.5290113  40.9743833  73.3521313  29.0050113  40.2453833  73.3041313
  27.7080113  40.6883833  73.2761313  28.4780113  40.8243833  73.3331313
  15.9880113  34.9883833  72.6631313  16.1140113  34.6593833  71.8651313
  15.1760113  34.7393833  72.8621313  15.8870113  34.9033833  72.5751313
  24.7450113  42.1413833  75.7071313  24.8210113  42.4823833  76.5061313
  24.9140113  41.2943833  75.8281313  24.7810113  42.0663833  75.8431313
  22.2670113  41.4153833  75.2721313  21.9690113  41.1003833  76.0291313
  22.9620113  41.8883833  75.5071313  22.3260113  41.4383833  75.4191313
  26.1960113  48.3713833  77.8021313  25.7450113  49.0143833  78.1811313
  26.9040113  48.2923833  78.3071313  26.2340113  48.4543833  77.9331313
  29.2990113  38.0873833  72.7941313  29.4020113  38.0293833  71.9301313
  30.0400113  37.7553833  73.1121313  29.4240113  38.0303833  72.7131313
  23.2190113  45.0523833  73.9011313  23.0140113  45.8853833  73.7421313
  22.4440113  44.6703833  74.0231313  23.0740113  45.1193833  73.8961313
  14.5930113  36.6093833  69.1961313  13.9210113  36.6233833  69.7521313
  14.6880113  35.7613833  69.0121313  14.5080113  36.4863833  69.2511313
  23.2740113  33.2233833  76.7861313  22.5740113  33.7413833  76.7301313
  23.3120113  32.8433833  76.0021313  23.1760113  33.2443833  76.6621313
  18.5810113  45.3143833  70.3101313  19.0220113  45.3943833  71.0581313
  17.7760113  45.0983833  70.5681313  18.5270113  45.2943833  70.4591313
  27.1760113  39.0193833  78.0771313  27.8420113  39.5603833  78.2371313
  26.8310113  39.3303833  77.3381313  27.2230113  39.1453833  77.9921313
  27.4890113  47.0853833  73.8841313  27.3150113  46.4313833  74.4341313
  28.2020113  46.8143833  73.4611313  27.5690113  46.9483833  73.9031313
  15.9100113  44.3843833  70.9111313  15.6660113  44.0773833  71.6911313
  15.8770113  43.6813833  70.3951313  15.8690113  44.2353833  70.9501313
  18.7290113  42.6293833  69.6541313  17.9110113  42.3613833  69.7941313
  18.7010113  43.4813833  69.8391313  18.6040113  42.7163833  69.7021313
  20.7310113  31.2713833  69.6181313  20.8090113  31.5183833  68.7851313
  19.9880113  31.6483833  69.8761313  20.6330113  31.3633833  69.5331313
  23.9540113  37.6893833  76.5311313  24.5050113  37.0823833  76.8311313
  23.5290113  37.9523833  77.2461313  23.9730113  37.6383833  76.6801313
  14.2020113  36.3393833  76.0171313  13.8340113  36.6413833  76.7481313
  14.7360113  35.7103833  76.3011313  14.2260113  36.2913833  76.1671313
  25.9240113  39.5203833  73.0931313  25.9920113  38.6703833  73.2741313
  25.1010113  39.6063833  72.8151313  25.8120113  39.4073833  73.0791313
  15.6760113  48.0143833  72.3031313  15.5310113  48.1703833  71.4571313
  16.5420113  48.0933833  72.3811313  15.7830113  48.0493833  72.1901313
  19.8430113  40.4113833  72.0311313  19.9430113  40.5503833  71.1761313
  20.6610113  40.3513833  72.3271313  19.9780113  40.4223833  71.9481313
  29.0030113  48.4753833  69.5111313  29.6400113  48.3413833  70.0921313
  28.6620113  47.6813833  69.3941313  29.0470113  48.3383833  69.5791313
  25.0780113  44.7403833  71.8331313  24.8270113  44.6123833  72.6591313
  24.7610113  44.0453833  71.4121313  24.9940113  44.6193833  71.8931313
  16.3630113  46.8293833  78.7801313  16.2840113  46.0193833  78.4641313
  15.9190113  47.3163833  78.2081313  16.2860113  46.7813833  78.6491313
  21.9640113  42.9483833  71.2631313  22.6810113  42.6013833  70.9071313
  21.9300113  43.7483833  70.9151313  22.0650113  43.0153833  71.1591313
  23.3730113  31.5893833  55.5018903  23.1280113  32.0773833  54.8218903
  24.2360113  31.5163833  55.4018903  23.4640113  31.6503833  55.3868903
  23.1820113  38.5053833  60.1728903  22.6580113  39.1013833  60.5358903
  23.5790113  38.1373833  60.8568903  23.1630113  38.5393833  60.3278903
  13.0510113  42.6453833  55.6288903  12.6100113  42.7633833  56.3718903
  12.7680113  41.8703833  55.3438903  12.9440113  42.5483833  55.6968903
  12.7940113  36.4373833  52.1358903  12.0160113  36.5993833  51.7758903
  12.8330113  35.5663833  52.1578903  12.6850113  36.3323833  52.0858903
  15.9330113  41.7003833  50.8078903  15.5410113  41.3293833  50.1218903
  15.8530113  41.1023833  51.4368903  15.8630113  41.5573833  50.7988903
  25.8530113  39.5723833  56.8488903  25.9330113  39.5763833  55.9798903
  25.2690113  38.9403833  56.9978903  25.7780113  39.4793833  56.7428903
  15.5600113  43.3413833  54.7078903  16.1680113  43.1713833  55.3108903
  14.8090113  43.2013833  55.1288903  15.5390113  43.2953833  54.8588903
  19.8420113  32.6763833  54.6568903  19.7720113  33.3533833  54.1108903
  20.5830113  32.2883833  54.4078903  19.9410113  32.7193833  54.5388903
  14.4510113  46.4323833  50.7848903  14.9180113  46.5163833  50.0528903
  14.9060113  45.8543833  51.2538903  14.5870113  46.3593833  50.7458903
  12.9910113  45.3803833  61.8838903  13.1200113  45.1003833  62.6998903
  12.3810113  44.8393833  61.5748903  12.9200113  45.2593833  61.9588903
  19.5650113  42.9053833  66.9508903  19.3290113  42.9023833  67.7908903
  18.8170113  42.7573833  66.5268903  19.4190113  42.8823833  67.0118903
  14.4370113  39.9013833  56.0858903  13.9750113  39.5093833  55.4588903
  15.1370113  39.3883833  56.1778903  14.4720113  39.7683833  56.0068903
  18.9450113  35.5113833  61.4328903  19.6230113  35.5293833  60.8838903
  18.9000113  34.6753833  61.6778903  19.0380113  35.3903833  61.3878903
  19.5470113  46.0973833  64.2138903  19.6850113  46.8573833  63.8068903
  20.3380113  45.7323833  64.2408903  19.6840113  46.1563833  64.1578903
  16.4380113  38.0013833  56.1088903  17.2550113  37.8143833  56.3518903
  15.9610113  37.3873833  56.5048903  16.4880113  37.8833833  56.2038903
  20.6420113  43.9823833  58.7188903  20.9900113  43.1833833  58.7488903
  21.3070113  44.4863833  58.4638903  20.7920113  43.9383833  58.6858903
  20.6990113  43.4313833  54.9298903  21.0300113  42.7873833  55.4158903
  20.9390113  43.2203833  54.1188903  20.7830113  43.3053833  54.8818903
  22.6670113  37.5623833  66.2688903  21.8190113  37.4633833  66.0908903
  22.6960113  38.3073833  66.7228903  22.5460113  37.6583833  66.3098903
  17.0350113  33.0953833  55.3748903  16.7390113  33.5963833  54.7248903
  17.9020113  33.1733833  55.3178903  17.1190113  33.1813833  55.2708903
  27.2250113  30.5223833  65.3828903  27.0670113  31.2913833  65.0008903
  26.4530113  30.3023833  65.7268903  27.0870113  30.6033833  65.3778903
  20.0140113  32.2373833  57.5978903  20.0870113  33.0973833  57.7268903
  19.9760113  32.1623833  56.7298903  20.0190113  32.3533833  57.4888903
  24.6870113  35.1633833  49.8968903  24.2370113  35.8443833  50.2038903
  24.8010113  34.6593833  50.5998903  24.6380113  35.1893833  50.0458903
  12.8930113  37.6623833  59.0988903  12.6370113  38.4933833  59.0238903
  12.2290113  37.2793833  59.5158903  12.7570113  37.7283833  59.1498903
  12.8030113  47.3723833  56.9988903  12.2110113  47.9303833  56.6858903
  13.2290113  47.1033833  56.2868903  12.7790113  47.4143833  56.8478903
  18.6430113  45.2163833  54.4788903  18.0640113  44.9413833  55.0708903
  19.2670113  44.6073833  54.5038903  18.6500113  45.0863833  54.5698903
  24.7860113  47.5043833  52.0008903  25.5130113  47.9763833  52.1028903
  25.0150113  46.7103833  52.2808903  24.9280113  47.4573833  52.0578903
  22.9540113  47.8963833  53.9908903  23.1680113  48.4233833  54.6528903
  23.7210113  47.7223833  53.6118903  23.0990113  47.9483833  54.0328903
  15.9220113  32.4793833  59.5898903  15.4010113  31.8513833  59.2818903
  16.5130113  32.0423833  60.0608903  15.9330113  32.3213833  59.6138903
  19.2280113  34.6123833  68.8878903  19.3450113  34.1583833  68.1518903
  19.5160113  35.4103833  68.6848903  19.2880113  34.6633833  68.7488903
  14.3480113  46.0423833  54.9298903  15.0040113  45.4673833  54.9448903
  14.7370113  46.7913833  54.7088903  14.5030113  46.0673833  54.8998903
  30.0810113  35.1363833  56.1918903  29.7350113  35.8143833  56.6178903
  29.4450113  34.5383833  56.2078903  29.9360113  35.1483833  56.2568903
  25.3930113  47.9063833  62.2958903  26.1370113  48.3623833  62.2858903
  25.2720113  47.6923833  61.4588903  25.4850113  47.9423833  62.1708903
  14.9610113  34.2093833  67.8718903  14.1830113  33.8193833  67.7998903
  15.4520113  33.7973833  67.2808903  14.9180113  34.0903833  67.7738903
  15.1660113  44.5293833  58.4298903  15.5890113  44.1733833  57.7558903
  15.4900113  44.1073833  59.1218903  15.2760113  44.4143833  58.4328903
  18.3970113  47.3813833  57.7258903  19.2410113  47.4853833  57.5308903
  18.1000113  48.1993833  57.7938903  18.4780113  47.5173833  57.7068903
  21.6100113  31.8523833  67.0398903  21.7880113  31.0433833  66.7648903
  21.4670113  32.2933833  66.3008903  21.6150113  31.7983833  66.8898903
  22.2040113  36.7783833  55.8128903  22.4910113  36.5463833  55.0228903
  22.9360113  36.8573833  56.2818903  22.3540113  36.7553833  55.7658903
  22.9260113  37.1173833  50.9338903  23.2070113  37.9053833  51.1828903
  22.1500113  37.2823833  50.5708903  22.8530113  37.2583833  50.9168903
  26.9670113  49.0913833  52.4008903  27.6320113  48.9433833  51.8558903
  27.3270113  49.0083833  53.1908903  27.1190113  49.0573833  52.4368903
  17.3950113  48.6003833  63.4658903  17.6870113  48.5333833  64.2858903
  16.7690113  47.9953833  63.4208903  17.3460113  48.5013833  63.5808903
  29.7560113  33.4593833  61.5608903  30.5130113  33.5313833  61.1328903
  29.8190113  32.6863833  61.9598903  29.8770113  33.3563833  61.5558903
  12.3090113  34.7573833  65.4578903  12.3050113  35.3443833  66.1038903
  12.9030113  35.0693833  64.9008903  12.3960113  34.8903833  65.4708903
  24.6470113  45.0913833  65.9998903  24.6130113  45.4733833  66.7838903
  25.5010113  45.0493833  65.8288903  24.7680113  45.1413833  66.0908903
  21.7850113  45.2883833  50.7498903  21.6040113  45.8333833  51.4068903
  22.5510113  45.5783833  50.4488903  21.8710113  45.4123833  50.8028903
  13.2460113  34.3523833  54.3728903  13.1320113  33.4883833  54.4038903
  12.7710113  34.6463833  55.0428903  13.1590113  34.2683833  54.4758903
  15.3880113  46.7623833  62.5878903  14.6900113  46.2543833  62.7138903
  15.6480113  46.5573833  61.7798903  15.3230113  46.6573833  62.4868903
  22.5500113  35.5603833  53.1178903  22.0420113  34.8983833  52.8638903
  22.6020113  36.0643833  52.4078903  22.4830113  35.5373833  52.9758903
  23.0990113  48.2553833  63.4978903  23.8670113  48.1753833  63.0918903
  22.5160113  48.1343833  62.8598903  23.1260113  48.2253833  63.3438903
  22.5500113  32.5013833  53.0088903  22.0950113  32.0993833  52.3828903
  23.3230113  32.6563833  52.6338903  22.5970113  32.4653833  52.8608903
  21.1480113  34.8683833  57.5308903  21.2220113  35.4363833  56.8728903
  21.2690113  35.3603833  58.2408903  21.1760113  35.0253833  57.5388903
  26.3730113  44.7033833  55.9428903  27.0740113  44.2213833  56.1318903
  25.7130113  44.1343833  55.9878903  26.3790113  44.5483833  55.9768903
  16.7490113  45.6133833  65.1548903  17.5900113  45.6763833  64.9328903
  16.7120113  46.0103833  65.9308903  16.8680113  45.6813833  65.2368903
  15.7560113  30.6913833  55.8788903  16.2920113  31.3793833  55.8688903
  15.7590113  30.4173833  55.0508903  15.8350113  30.7523833  55.7548903
  18.7120113  41.1243833  59.9038903  18.8840113  40.9143833  60.7328903
  18.0570113  40.5903833  59.6878903  18.6410113  41.0143833  59.9948903
  24.9400113  35.0383833  63.4188903  24.8450113  35.3573833  64.2248903
  24.3470113  34.3993833  63.3808903  24.8380113  34.9903833  63.5328903
  19.4620113  41.0623833  62.4938903  19.5150113  41.9093833  62.6958903
  19.1770113  40.6923833  63.2308903  19.4280113  41.1323833  62.6318903
  25.6390113  41.7573833  61.6238903  25.1250113  41.3453833  62.1948903
  25.5130113  42.6013833  61.8048903  25.5450113  41.8213833  61.7348903
  26.1960113  30.9823833  56.2548903  26.2450113  30.6643833  57.0658903
  26.5190113  30.3383833  55.7618903  26.2510113  30.8403833  56.3018903
  12.2830113  45.4333833  68.7048903  13.0390113  45.7823833  68.9628903
  12.4600113  44.5803833  68.6478903  12.4210113  45.3583833  68.7348903
  28.6600113  35.2183833  64.5628903  29.4320113  34.9933833  64.8998903
  28.1850113  35.4353833  65.2628903  28.7040113  35.2173833  64.7158903
  16.2040113  34.5013833  57.5328903  16.4760113  34.0713833  56.8248903
  16.0280113  33.8653833  58.1038903  16.2180113  34.3443833  57.5128903
  16.0280113  41.9283833  57.0818903  16.8790113  41.8483833  56.9088903
  15.6710113  41.2463833  56.6698903  16.1010113  41.8153833  56.9948903
  14.7950113  48.6533833  58.3188903  14.1220113  48.1553833  58.0738903
  15.1980113  48.8383833  57.5678903  14.7550113  48.6073833  58.1718903
  14.3450113  35.6033833  60.6148903  15.1880113  35.8233833  60.5718903
  13.9560113  36.1763833  60.0838903  14.4120113  35.7203833  60.5298903
  31.1260113  46.7053833  66.0048903  30.4440113  47.0153833  65.5578903
  30.7570113  46.2473833  66.6498903  30.9700113  46.6833833  66.0338903
  26.7870113  38.7333833  51.3358903  26.5670113  39.4643833  50.9138903
  26.3390113  38.7843833  52.0828903  26.6880113  38.8483833  51.3838903
  18.3960113  41.9353833  55.3168903  19.1090113  42.4303833  55.4068903
  18.6180113  41.3683833  54.6908903  18.5340113  41.9243833  55.2378903
  30.9740113  33.5943833  50.7888903  30.3120113  33.0263833  50.8118903
  30.7810113  34.1063833  50.1088903  30.8480113  33.5863833  50.6918903
  12.5520113  43.5783833  58.6368903  11.8850113  44.0663833  58.9128903
  13.2320113  44.1233833  58.6658903  12.5540113  43.7303833  58.6818903
  20.1990113  37.2883833  68.7328903  19.7150113  37.8653833  69.1748903
  20.1710113  37.5833833  67.9118903  20.1230113  37.4173833  68.6768903
  31.2970113  37.9723833  63.3448903  31.5120113  37.1723833  63.0688903
  30.4470113  38.0323833  63.1558903  31.2030113  37.8633833  63.2758903
  12.6180113  40.2623833  53.7398903  12.4330113  39.4233833  53.8918903
  13.2770113  40.2263833  53.1698903  12.6880113  40.1333833  53.6778903
  28.9760113  33.1523833  53.0678903  29.7220113  32.7453833  53.2668903
  29.2390113  33.8673833  52.6428903  29.1250113  33.1983833  53.0348903
  22.9190113  45.6383833  57.6438903  22.3960113  46.2723833  57.3508903
  23.2290113  45.2743833  56.9148903  22.8870113  45.6783833  57.4928903
  12.7900113  44.4263833  53.3148903  13.3420113  44.9953833  53.6788903
  12.5580113  43.9113833  53.9798903  12.8370113  44.4343833  53.4668903
  16.9940113  43.4263833  60.4038903  17.4610113  43.7153833  61.0818903
  17.5660113  42.9483833  59.9498903  17.1480113  43.3983833  60.4368903
  25.4300113  35.4403833  58.1408903  25.7740113  35.5923833  58.9278903
  24.9770113  34.7023833  58.2538903  25.4140113  35.3533833  58.2738903
  12.6200113  42.8753833  50.9428903  13.3760113  42.4433833  51.0008903
  12.6350113  43.4073833  51.6338903  12.7340113  42.8903833  51.0538903
  13.5600113  41.0963833  58.9478903  13.9910113  40.9673833  58.2008903
  13.3550113  41.9443833  58.9218903  13.5930113  41.2023833  58.8338903
  19.9060113  34.6603833  52.5978903  19.9040113  34.5433833  51.7328903
  19.7250113  35.5083833  52.6898903  19.8790113  34.7683833  52.4838903
  28.9600113  47.0873833  64.0948903  28.2890113  47.6013833  64.3128903
  29.0230113  47.1873833  63.2308903  28.8700113  47.1783833  63.9998903
  17.6440113  44.6123833  57.2298903  17.7700113  45.4553833  57.4168903
  18.3120113  44.2133833  57.6258903  17.7620113  44.6783833  57.3158903
  15.7740113  38.0953833  67.0918903  15.2380113  37.5893833  67.5598903
  15.7940113  37.7053833  66.3118903  15.6970113  37.9623833  67.0458903
  16.2590113  37.4923833  52.2318903  16.1310113  37.0443833  52.9698903
  15.6770113  37.1503833  51.6798903  16.1540113  37.3753833  52.2598903
  16.4260113  39.3223833  58.8308903  15.6450113  39.2633833  58.4478903
  16.4980113  38.5703833  59.2678903  16.3210113  39.2033833  58.8388903
  16.8560113  39.0593833  62.2988903  16.8810113  38.3843833  61.7478903
  16.2100113  39.5553833  61.9868903  16.7650113  39.0323833  62.1718903
  26.7510113  36.7723833  60.6948903  26.0890113  37.1003833  61.1578903
  26.9380113  37.4063833  60.1258903  26.6810113  36.9143833  60.6788903
  20.9560113  47.8363833  61.6908903  20.6790113  47.1953833  61.1678903
  20.7480113  48.5623833  61.2528903  20.8850113  47.8493833  61.5488903
  23.3960113  32.6783833  64.1238903  23.5450113  31.8533833  63.8808903
  23.7750113  32.7333833  64.9078903  23.4740113  32.5643833  64.2038903
  24.9440113  34.7413833  54.2058903  25.4340113  35.4583833  54.1288903
  24.1540113  35.0023833  53.9428903  24.9000113  34.8853833  54.1558903
  14.6550113  40.4143833  67.8578903  14.6180113  40.9153833  67.1438903
  14.9860113  39.6623833  67.5628903  14.6980113  40.3763833  67.7088903
  26.2580113  42.6193833  66.1158903  26.7420113  43.3373833  66.2138903
  26.6520113  42.1923833  65.4648903  26.3880113  42.6623833  66.0338903
  20.5540113  45.4643833  67.2928903  20.9080113  45.2863833  68.0698903
  20.1180113  44.7353833  67.0938903  20.5420113  45.3303833  67.3788903
  21.5260113  36.2113833  59.9308903  22.0060113  36.9103833  60.1388903
  21.8990113  35.5643833  60.3818903  21.6520113  36.2193833  60.0278903
  23.7150113  39.3803833  52.2048903  23.7070113  40.1023833  51.7148903
  23.0760113  39.5153833  52.7818903  23.6200113  39.5073833  52.2178903
  28.6870113  43.2503833  56.1858903  29.0430113  42.9003833  56.9008903
  28.6790113  42.5893833  55.6158903  28.7390113  43.1003833  56.2068903
  24.7320113  46.3163833  60.0298903  24.1290113  46.0203833  59.4728903
  25.2770113  46.7683833  59.5208903  24.7230113  46.3393833  59.8718903
  24.7450113  43.1673833  59.4298903  23.9480113  43.3913833  59.7038903
  25.0030113  42.5733833  60.0148903  24.6650113  43.1123833  59.5568903
  18.6370113  47.9793833  53.8778903  18.4900113  47.2033833  54.2488903
  19.3260113  47.8323833  53.3628903  18.7170113  47.8423833  53.8568903
  18.3080113  31.7223833  51.8658903  18.4050113  31.6153833  52.7268903
  17.6000113  32.2283833  51.8008903  18.2180113  31.7813833  51.9838903
  20.9290113  47.4953833  52.2798903  21.5510113  47.6583833  52.8698903
  20.9650113  48.1863833  51.7478903  21.0260113  47.6213833  52.2888903
  28.0050113  41.1653833  64.2758903  28.0600113  41.2903833  63.4138903
  28.7580113  41.4853833  64.5778903  28.1240113  41.2303833  64.1928903
  24.1960113  46.5143833  68.5528903  24.3600113  46.7973833  69.3618903
  24.4590113  47.1753833  68.0478903  24.2590113  46.6543833  68.5978903
  15.4300113  40.0293833  53.1088903  15.7540113  39.2503833  52.8868903
  16.0760113  40.3973833  53.5638903  15.5730113  39.9683833  53.1428903
  23.7360113  40.9713833  63.8758903  23.5810113  41.5813833  64.4798903
  24.2700113  40.4133833  64.2818903  23.7920113  40.9793833  64.0248903
  12.4270113  31.6903833  54.0768903  12.5560113  30.9823833  53.5848903
  12.0600113  31.3723833  54.8018903  12.3920113  31.5383833  54.1118903
  22.1200113  39.3713833  54.5338903  22.1790113  40.0213833  55.1128903
  21.9310113  38.6753833  55.0248903  22.1010113  39.3643833  54.6918903
  27.3460113  43.7003833  60.4028903  26.8670113  43.9983833  59.7368903
  26.9900113  42.9243833  60.5808903  27.2230113  43.6293833  60.3308903
  16.6160113  33.8883833  51.0458903  16.1050113  33.9413833  50.3398903
  17.4000113  34.1283833  50.7498903  16.6560113  33.9313833  50.8978903
  21.3430113  41.4183833  58.9648903  20.4960113  41.2243833  59.0458903
  21.6670113  41.2533833  59.7578903  21.2650113  41.3653833  59.0938903
  18.0950113  48.1483833  49.8508903  18.5340113  47.4513833  50.1388903
  18.3020113  48.7723833  50.4238903  18.1910113  48.1373833  49.9778903
  15.1910113  41.1113833  61.2808903  15.9130113  41.5993833  61.2438903
  14.9210113  41.0813833  60.4518903  15.2580113  41.1793833  61.1528903
  18.4210113  36.2823833  58.0158903  19.2670113  36.0923833  58.1138903
  18.0510113  35.5053833  57.8778903  18.4910113  36.1393833  58.0098903
  13.2420113  37.6203833  54.6708903  13.7310113  37.3283833  55.3318903
  13.3710113  37.0273833  54.0438903  13.3330113  37.4893833  54.6758903
  28.2770113  40.6423833  61.5218903  28.2700113  39.8663833  61.9198903
  27.4360113  40.8763833  61.5148903  28.1520113  40.5623833  61.5798903
  17.7670113  39.0543833  50.1568903  17.1570113  38.6493833  50.6308903
  17.3810113  39.1723833  49.3838903  17.6200113  39.0113833  50.1128903
  14.5860113  42.1633833  65.5588903  14.1650113  41.6453833  64.9978903
  14.2340113  42.9493833  65.4158903  14.4720113  42.2033833  65.4548903
  29.5330113  40.7133833  58.9588903  29.2470113  41.1143833  59.6788903
  30.3930113  40.6513833  59.0858903  29.6180113  40.7633833  59.0838903
  19.2220113  37.5153833  52.8668903  19.4940113  38.3413833  52.9338903
  18.3590113  37.5903833  52.7708903  19.1350113  37.6483833  52.8618903
  27.1950113  34.6373833  67.4988903  26.6700113  35.0963833  68.0228903
  26.8340113  33.8423833  67.4928903  27.0640113  34.5873833  67.5748903
  12.7020113  33.4853833  59.4028903  12.7460113  33.8293833  58.6018903
  13.4570113  33.7223833  59.7698903  12.8200113  33.5713833  59.3388903
  30.6640113  46.3463833  59.4878903  30.9540113  46.6033833  58.7068903
  31.3590113  46.4423833  60.0068903  30.8100113  46.3983833  59.4488903
  25.6870113  38.2063833  67.5748903  25.7600113  38.3103833  68.4378903
  25.0530113  38.7643833  67.3538903  25.6040113  38.3043833  67.6698903
  27.9550113  38.5253833  65.9398903  28.2740113  39.3113833  66.1428903
  27.5850113  38.2553833  66.6828903  27.9480113  38.6013833  66.0798903
  27.2690113  44.9493833  51.4698903  27.6030113  44.1433833  51.5048903
  26.5140113  44.8773833  51.8998903  27.2070113  44.8193833  51.5388903
  27.7510113  36.7833833  57.1288903  27.0060113  36.4603833  57.4468903
  27.7530113  37.6093833  57.4088903  27.6410113  36.8573833  57.2168903
  30.6530113  39.0673833  68.6748903  30.6010113  38.7263833  67.8738903
  31.3900113  39.5343833  68.6528903  30.7540113  39.0863833  68.5528903
  30.1910113  42.7433833  64.8808903  30.8190113  42.1943833  64.6248903
  30.1300113  43.3083833  64.2188903  30.2750113  42.7463833  64.7448903
  24.6430113  42.8243833  50.8728903  25.3270113  42.3103833  50.7038903
  24.2260113  42.8703833  50.1078903  24.6820113  42.7553833  50.7348903
  19.3250113  43.9743833  62.1768903  19.0270113  44.5663833  62.7438903
  19.3800113  44.4163833  61.4278903  19.2890113  44.1273833  62.1498903
  17.3040113  42.9243833  65.5748903  16.4980113  42.6343833  65.7418903
  17.2150113  43.7923833  65.5808903  17.1720113  43.0093833  65.5998903
  26.6630113  33.1133833  64.5898903  27.4070113  33.5653833  64.5268903
  26.0970113  33.5833833  64.1208903  26.6900113  33.2503833  64.5118903
  21.8410113  40.3973833  61.6678903  22.3170113  40.7713833  62.2958903
  21.0180113  40.5313833  61.9268903  21.7900113  40.4723833  61.7988903
  18.5510113  36.0003833  64.4088903  18.7120113  35.2563833  64.8358903
  18.5060113  35.7513833  63.5738903  18.5680113  35.8533833  64.3488903
  21.1050113  47.7903833  56.8958903  21.6510113  48.4693833  56.9498903
  20.7550113  47.8723833  56.1008903  21.1340113  47.9033833  56.7858903
  27.9480113  31.0933833  62.2598903  27.6680113  31.9183833  62.2158903
  28.6640113  31.1463833  62.7558903  28.0130113  31.2233833  62.3268903
  20.3030113  31.8083833  64.2888903  21.0080113  32.1283833  63.8868903
  20.5440113  31.0013833  64.5158903  20.4420113  31.7363833  64.2628903
  19.2880113  46.0183833  60.2848903  18.6640113  46.6003833  60.1028903
  19.5360113  45.7323833  59.4988903  19.2320113  46.0623833  60.1418903
  23.5970113  42.6523833  67.2738903  24.3540113  42.9383833  66.9478903
  23.0500113  42.7043833  66.5958903  23.6280113  42.7023833  67.1248903
  27.5060113  45.2023833  65.7778903  27.8520113  45.4723833  66.5318903
  27.8000113  45.7843833  65.1978903  27.6010113  45.3283833  65.8038903
  20.8820113  40.7943833  50.1998903  20.0770113  40.6173833  49.9148903
  20.8490113  41.6453833  50.3918903  20.7580113  40.8933833  50.1868903
  16.8120113  36.8613833  60.3498903  17.2520113  36.7583833  59.6038903
  17.3570113  36.5483833  60.9548903  16.9570113  36.8003833  60.3288903
  24.8280113  35.9633833  65.9418903  24.1800113  36.4333833  66.2898903
  25.3930113  35.8743833  66.6008903  24.8160113  36.0193833  66.0908903
  24.5160113  37.5003833  62.2398903  24.8180113  37.9203833  62.9428903
  24.5520113  36.6603833  62.4718903  24.5660113  37.4383833  62.3778903
  21.9410113  47.6673833  66.1648903  22.4190113  47.0673833  65.7488903
  21.5900113  47.2243833  66.8298903  21.9600113  47.5133833  66.2018903
  27.0640113  36.9473833  54.4918903  27.2710113  36.7463833  55.3158903
  27.8200113  37.2153833  54.1498903  27.2060113  36.9573833  54.5628903
  20.3590113  31.8463833  60.3968903  19.5330113  31.6973833  60.6338903
  20.3190113  31.8813833  59.5258903  20.2310113  31.8293833  60.3028903
  28.0860113  33.0303833  55.9658903  27.3720113  32.5593833  56.1368903
  27.9240113  33.3713833  55.1798903  27.9570113  33.0113833  55.8748903
  28.5290113  40.9743833  54.3458903  29.0050113  40.2453833  54.2978903
  27.7080113  40.6883833  54.2698903  28.4780113  40.8243833  54.3268903
  22.0000113  42.8863833  65.1848903  21.2050113  42.8223833  65.5358903
  22.0710113  43.7333833  64.9898903  21.8930113  43.0013833  65.2078903
  12.9240113  32.2443833  66.4318903  12.7840113  33.0393833  66.1008903
  12.1380113  32.0013833  66.7208903  12.7870113  32.3263833  66.4258903
  17.8300113  49.0933833  60.5018903  17.8410113  49.1523833  61.3718903
  17.4050113  48.3463833  60.3518903  17.7690113  48.9913833  60.6078903
  15.9880113  34.9883833  53.6568903  16.1140113  34.6593833  52.8588903
  15.1760113  34.7393833  53.8558903  15.8870113  34.9033833  53.5688903
  22.2670113  41.4153833  56.2658903  21.9690113  41.1003833  57.0228903
  22.9620113  41.8883833  56.5008903  22.3260113  41.4383833  56.4128903
  22.4890113  45.5333833  64.2928903  23.1760113  45.4193833  64.8178903
  22.6230113  46.3243833  63.9488903  22.6100113  45.6333833  64.3198903
  30.6650113  38.1423833  66.1038903  29.8100113  38.0203833  66.2298903
  30.8180113  37.7473833  65.3408903  30.5610113  38.0653833  66.0098903
  14.5940113  48.5913833  65.9438903  13.9400113  48.0223833  66.0418903
  14.2190113  49.3643833  66.0948903  14.4420113  48.6213833  65.9808903
  23.1120113  39.9973833  67.8668903  23.4350113  40.6833833  67.4348903
  22.4080113  40.3203833  68.2688903  23.0550113  40.1463833  67.8618903
  26.1960113  48.3713833  58.7958903  25.7450113  49.0143833  59.1748903
  26.9040113  48.2923833  59.3008903  26.2340113  48.4543833  58.9268903
  22.8970113  43.4613833  61.7258903  22.2030113  43.8633833  62.0688903
  23.5740113  43.8943833  62.0648903  22.8940113  43.5843833  61.8268903
  28.2740113  46.0543833  68.3058903  29.0500113  45.6643833  68.3888903
  27.8050113  45.7183833  68.9608903  28.3190113  45.9473833  68.4148903
  15.9650113  36.9993833  64.0728903  16.3400113  37.6183833  63.5858903
  16.6390113  36.5253833  64.3578903  16.1200113  37.0213833  64.0428903
  13.7400113  35.4473833  63.3478903  13.8170113  35.2783833  62.4948903
  14.4860113  35.8533833  63.5448903  13.8610113  35.4823833  63.2508903
  16.2940113  32.8573833  65.7588903  16.2130113  32.0133833  65.9648903
  15.9800113  32.9013833  64.9458903  16.2360113  32.7393833  65.6688903
  23.2190113  45.0523833  54.8948903  23.0140113  45.8853833  54.7358903
  22.4440113  44.6703833  55.0168903  23.0740113  45.1193833  54.8898903
  28.4010113  38.2333833  63.1438903  28.3990113  37.3703833  63.2678903
  28.4680113  38.5573833  63.9508903  28.4110113  38.1533833  63.2808903
  13.1370113  40.6733833  63.5718903  13.4570113  40.8923833  62.7908903
  13.0370113  39.8083833  63.5168903  13.1690113  40.5783833  63.4488903
  14.5930113  36.6093833  50.1898903  13.9210113  36.6233833  50.7458903
  14.6880113  35.7613833  50.0058903  14.5080113  36.4863833  50.2448903
  24.2800113  33.0333833  66.9258903  24.3720113  33.7453833  67.4198903
  23.6430113  32.5883833  67.3228903  24.1990113  33.0723833  67.0578903
  23.2740113  33.2233833  57.7798903  22.5740113  33.7413833  57.7238903
  23.3120113  32.8433833  56.9958903  23.1760113  33.2443833  57.6558903
  18.5810113  45.3143833  51.3038903  19.0220113  45.3943833  52.0518903
  17.7760113  45.0983833  51.5618903  18.5270113  45.2943833  51.4528903
  26.8720113  33.7393833  60.5798903  27.7270113  33.8383833  60.7248903
  26.5030113  34.2923833  61.1448903  26.9440113  33.8363833  60.6848903
  17.9000113  39.9653833  64.9568903  17.5040113  40.7393833  65.0318903
  17.4940113  39.5923833  64.2808903  17.7820113  40.0243833  64.8678903
  27.1760113  39.0193833  59.0708903  27.8420113  39.5603833  59.2308903
  26.8310113  39.3303833  58.3318903  27.2230113  39.1453833  58.9858903
  15.9100113  44.3843833  51.9048903  15.6660113  44.0773833  52.6848903
  15.8770113  43.6813833  51.3888903  15.8690113  44.2353833  51.9438903
  18.7290113  42.6293833  50.6478903  17.9110113  42.3613833  50.7878903
  18.7010113  43.4813833  50.8328903  18.6040113  42.7163833  50.6958903
  18.3290113  32.9423833  62.4068903  17.4650113  33.0263833  62.4868903
  18.5490113  32.4283833  63.0758903  18.2340113  32.8793833  62.5178903
  30.3470113  31.5773833  63.7358903  30.2950113  31.5333833  64.6058903
  31.0340113  31.0743833  63.5458903  30.4410113  31.4973833  63.8358903
  22.4320113  33.6903833  60.7808903  21.6950113  33.2363833  60.8938903
  23.0030113  33.2883833  61.3038903  22.4070113  33.5633833  60.8748903
  25.1640113  44.5383833  62.5688903  25.3700113  44.8393833  63.3608903
  25.1030113  45.2603833  62.0838903  25.1850113  44.6893833  62.6138903
  24.6980113  48.7523833  66.8148903  23.9450113  48.7343833  66.3738903
  24.8660113  49.6043833  66.8988903  24.6120113  48.8753833  66.7618903
  19.9350113  38.0193833  65.9848903  19.6130113  37.4433833  65.4148903
  19.5760113  38.7743833  65.7388903  19.8350113  38.0453833  65.8648903
  20.7310113  31.2713833  50.6118903  20.8090113  31.5183833  49.7788903
  19.9880113  31.6483833  50.8698903  20.6330113  31.3633833  50.5268903
  29.9760113  43.1773833  62.0268903  29.9440113  42.3153833  61.8918903
  29.2830113  43.4793833  61.5928903  29.8690113  43.0943833  61.9428903
  18.3700113  48.3753833  66.2328903  18.4110113  48.5013833  67.0958903
  19.0210113  47.8153833  66.0768903  18.4720113  48.3113833  66.3378903
  28.0810113  46.4373833  60.8238903  28.6080113  46.3543833  60.1328903
  27.6900113  45.6593833  60.8778903  28.1010113  46.3103833  60.7298903
  15.5490113  33.0253833  63.0548903  15.2060113  32.2583833  62.8208903
  14.8540113  33.5493833  63.1188903  15.3960113  32.9893833  63.0298903
  24.5950113  31.8813833  60.0318903  25.2650113  32.4253833  60.1588903
  24.0920113  32.3053833  59.4588903  24.6200113  32.0243833  59.9658903
  15.9630113  46.7583833  67.5928903  16.5580113  47.1893833  68.0648903
  15.5990113  47.3823833  67.1038903  15.9970113  46.9143833  67.5898903
  23.9540113  37.6893833  57.5248903  24.5050113  37.0823833  57.8248903
  23.5290113  37.9523833  58.2398903  23.9730113  37.6383833  57.6738903
  14.2020113  36.3393833  57.0108903  13.8340113  36.6413833  57.7418903
  14.7360113  35.7103833  57.2948903  14.2260113  36.2913833  57.1608903
  13.8900113  44.7473833  64.5218903  13.3160113  45.1633833  65.0308903
  14.6230113  45.2123833  64.6168903  13.9140113  44.8773833  64.6108903
  25.9240113  39.5203833  54.0868903  25.9920113  38.6703833  54.2678903
  25.1010113  39.6063833  53.8088903  25.8120113  39.4073833  54.0728903
  15.6760113  48.0143833  53.2968903  15.5310113  48.1703833  52.4508903
  16.5420113  48.0933833  53.3748903  15.7830113  48.0493833  53.1838903
  19.8430113  40.4113833  53.0248903  19.9430113  40.5503833  52.1698903
  20.6610113  40.3513833  53.3208903  19.9780113  40.4223833  52.9418903
  29.1980113  40.8933833  67.2378903  29.8320113  40.7233833  67.8118903
  29.6150113  41.2963833  66.5858903  29.3530113  40.9283833  67.2268903
  25.0780113  44.7403833  52.8268903  24.8270113  44.6123833  53.6528903
  24.7610113  44.0453833  52.4058903  24.9940113  44.6193833  52.8868903
  29.8230113  35.4573833  67.9758903  29.6270113  36.1013833  68.5308903
  29.1010113  34.9673833  67.9678903  29.6880113  35.4803833  68.0568903
  29.7220113  36.3983833  60.9468903  28.8890113  36.6483833  60.8748903
  29.6660113  35.5583833  61.1758903  29.5910113  36.3113833  60.9698903
  18.9820113  33.3863833  66.1408903  19.2160113  32.8103833  65.5278903
  18.1400113  33.2053833  66.2818903  18.8920113  33.2743833  66.0708903
  26.6090113  41.0043833  68.5928903  27.4800113  40.9683833  68.5568903
  26.3900113  41.4243833  67.8608903  26.7060113  41.0603833  68.4798903
  16.3630113  46.8293833  59.7738903  16.2840113  46.0193833  59.4578903
  15.9190113  47.3163833  59.2018903  16.2860113  46.7813833  59.6428903
  21.9640113  42.9483833  52.2568903  22.6810113  42.6013833  51.9008903
  21.9300113  43.7483833  51.9088903  22.0650113  43.0153833  52.1528903
  13.9350113  49.0733833  63.3548903  14.4280113  49.0173833  64.0728903
  14.1230113  48.3403833  62.9198903  14.0360113  48.9563833  63.3968903
  23.3730113  31.5893833  36.4956493  23.1280113  32.0773833  35.8156493
  24.2360113  31.5163833  36.3956493  23.4640113  31.6503833  36.3806493
  23.1820113  38.5053833  41.1666493  22.6580113  39.1013833  41.5296493
  23.5790113  38.1373833  41.8506493  23.1630113  38.5393833  41.3216493
  13.0510113  42.6453833  36.6226493  12.6100113  42.7633833  37.3656493
  12.7680113  41.8703833  36.3376493  12.9440113  42.5483833  36.6906493
  29.3260113  45.9463833  34.1376493  30.0270113  45.4273833  34.1336493
  28.7390113  45.5013833  33.6686493  29.3430113  45.8033833  34.0676493
  12.7940113  36.4373833  33.1296493  12.0160113  36.5993833  32.7696493
  12.8330113  35.5663833  33.1516493  12.6850113  36.3323833  33.0796493
  15.9330113  41.7003833  31.8016493  15.5410113  41.3293833  31.1156493
  15.8530113  41.1023833  32.4306493  15.8630113  41.5573833  31.7926493
  15.5600113  43.3413833  35.7016493  16.1680113  43.1713833  36.3046493
  14.8090113  43.2013833  36.1226493  15.5390113  43.2953833  35.8526493
  19.8420113  32.6763833  35.6506493  19.7720113  33.3533833  35.1046493
  20.5830113  32.2883833  35.4016493  19.9410113  32.7193833  35.5326493
  14.4510113  46.4323833  31.7786493  14.9180113  46.5163833  31.0466493
  14.9060113  45.8543833  32.2476493  14.5870113  46.3593833  31.7396493
  12.9910113  45.3803833  42.8776493  13.1200113  45.1003833  43.6936493
  12.3810113  44.8393833  42.5686493  12.9200113  45.2593833  42.9526493
  19.5650113  42.9053833  47.9446493  19.3290113  42.9023833  48.7846493
  18.8170113  42.7573833  47.5206493  19.4190113  42.8823833  48.0056493
  14.4370113  39.9013833  37.0796493  13.9750113  39.5093833  36.4526493
  15.1370113  39.3883833  37.1716493  14.4720113  39.7683833  37.0006493
  18.9450113  35.5113833  42.4266493  19.6230113  35.5293833  41.8776493
  18.9000113  34.6753833  42.6716493  19.0380113  35.3903833  42.3816493
  19.5470113  46.0973833  45.2076493  19.6850113  46.8573833  44.8006493
  20.3380113  45.7323833  45.2346493  19.6840113  46.1563833  45.1516493
  16.4380113  38.0013833  37.1026493  17.2550113  37.8143833  37.3456493
  15.9610113  37.3873833  37.4986493  16.4880113  37.8833833  37.1976493
  20.6420113  43.9823833  39.7126493  20.9900113  43.1833833  39.7426493
  21.3070113  44.4863833  39.4576493  20.7920113  43.9383833  39.6796493
  20.6990113  43.4313833  35.9236493  21.0300113  42.7873833  36.4096493
  20.9390113  43.2203833  35.1126493  20.7830113  43.3053833  35.8756493
  22.6670113  37.5623833  47.2626493  21.8190113  37.4633833  47.0846493
  22.6960113  38.3073833  47.7166493  22.5460113  37.6583833  47.3036493
  17.0350113  33.0953833  36.3686493  16.7390113  33.5963833  35.7186493
  17.9020113  33.1733833  36.3116493  17.1190113  33.1813833  36.2646493
  27.2250113  30.5223833  46.3766493  27.0670113  31.2913833  45.9946493
  26.4530113  30.3023833  46.7206493  27.0870113  30.6033833  46.3716493
  20.0140113  32.2373833  38.5916493  20.0870113  33.0973833  38.7206493
  19.9760113  32.1623833  37.7236493  20.0190113  32.3533833  38.4826493
  24.6870113  35.1633833  30.8906493  24.2370113  35.8443833  31.1976493
  24.8010113  34.6593833  31.5936493  24.6380113  35.1893833  31.0396493
  12.8930113  37.6623833  40.0926493  12.6370113  38.4933833  40.0176493
  12.2290113  37.2793833  40.5096493  12.7570113  37.7283833  40.1436493
  12.8030113  47.3723833  37.9926493  12.2110113  47.9303833  37.6796493
  13.2290113  47.1033833  37.2806493  12.7790113  47.4143833  37.8416493
  18.6430113  45.2163833  35.4726493  18.0640113  44.9413833  36.0646493
  19.2670113  44.6073833  35.4976493  18.6500113  45.0863833  35.5636493
  24.7860113  47.5043833  32.9946493  25.5130113  47.9763833  33.0966493
  25.0150113  46.7103833  33.2746493  24.9280113  47.4573833  33.0516493
  22.9540113  47.8963833  34.9846493  23.1680113  48.4233833  35.6466493
  23.7210113  47.7223833  34.6056493  23.0990113  47.9483833  35.0266493
  15.9220113  32.4793833  40.5836493  15.4010113  31.8513833  40.2756493
  16.5130113  32.0423833  41.0546493  15.9330113  32.3213833  40.6076493
  19.2280113  34.6123833  49.8816493  19.3450113  34.1583833  49.1456493
  19.5160113  35.4103833  49.6786493  19.2880113  34.6633833  49.7426493
  14.3480113  46.0423833  35.9236493  15.0040113  45.4673833  35.9386493
  14.7370113  46.7913833  35.7026493  14.5030113  46.0673833  35.8936493
  25.3930113  47.9063833  43.2896493  26.1370113  48.3623833  43.2796493
  25.2720113  47.6923833  42.4526493  25.4850113  47.9423833  43.1646493
  14.9610113  34.2093833  48.8656493  14.1830113  33.8193833  48.7936493
  15.4520113  33.7973833  48.2746493  14.9180113  34.0903833  48.7676493
  15.1660113  44.5293833  39.4236493  15.5890113  44.1733833  38.7496493
  15.4900113  44.1073833  40.1156493  15.2760113  44.4143833  39.4266493
  18.3970113  47.3813833  38.7196493  19.2410113  47.4853833  38.5246493
  18.1000113  48.1993833  38.7876493  18.4780113  47.5173833  38.7006493
  21.6100113  31.8523833  48.0336493  21.7880113  31.0433833  47.7586493
  21.4670113  32.2933833  47.2946493  21.6150113  31.7983833  47.8836493
  22.2040113  36.7783833  36.8066493  22.4910113  36.5463833  36.0166493
  22.9360113  36.8573833  37.2756493  22.3540113  36.7553833  36.7596493
  26.9670113  49.0913833  33.3946493  27.6320113  48.9433833  32.8496493
  27.3270113  49.0083833  34.1846493  27.1190113  49.0573833  33.4306493
  17.3950113  48.6003833  44.4596493  17.6870113  48.5333833  45.2796493
  16.7690113  47.9953833  44.4146493  17.3460113  48.5013833  44.5746493
  12.3090113  34.7573833  46.4516493  12.3050113  35.3443833  47.0976493
  12.9030113  35.0693833  45.8946493  12.3960113  34.8903833  46.4646493
  24.6470113  45.0913833  46.9936493  24.6130113  45.4733833  47.7776493
  25.5010113  45.0493833  46.8226493  24.7680113  45.1413833  47.0846493
  21.7850113  45.2883833  31.7436493  21.6040113  45.8333833  32.4006493
  22.5510113  45.5783833  31.4426493  21.8710113  45.4123833  31.7966493
  25.2920113  33.1843833  32.7976493  25.8320113  32.5023833  32.8736493
  25.3540113  33.5823833  33.5716493  25.3810113  33.1423833  32.9236493
  13.2460113  34.3523833  35.3666493  13.1320113  33.4883833  35.3976493
  12.7710113  34.6463833  36.0366493  13.1590113  34.2683833  35.4696493
  15.3880113  46.7623833  43.5816493  14.6900113  46.2543833  43.7076493
  15.6480113  46.5573833  42.7736493  15.3230113  46.6573833  43.4806493
  22.5500113  35.5603833  34.1116493  22.0420113  34.8983833  33.8576493
  22.6020113  36.0643833  33.4016493  22.4830113  35.5373833  33.9696493
  23.0990113  48.2553833  44.4916493  23.8670113  48.1753833  44.0856493
  22.5160113  48.1343833  43.8536493  23.1260113  48.2253833  44.3376493
  22.5500113  32.5013833  34.0026493  22.0950113  32.0993833  33.3766493
  23.3230113  32.6563833  33.6276493  22.5970113  32.4653833  33.8546493
  29.3760113  48.8583833  37.3926493  28.9210113  49.5753833  37.5936493
  28.7620113  48.2873833  37.1506493  29.2180113  48.8803833  37.3866493
  21.1480113  34.8683833  38.5246493  21.2220113  35.4363833  37.8666493
  21.2690113  35.3603833  39.2346493  21.1760113  35.0253833  38.5326493
  26.3730113  44.7033833  36.9366493  27.0740113  44.2213833  37.1256493
  25.7130113  44.1343833  36.9816493  26.3790113  44.5483833  36.9706493
  16.7490113  45.6133833  46.1486493  17.5900113  45.6763833  45.9266493
  16.7120113  46.0103833  46.9246493  16.8680113  45.6813833  46.2306493
  15.7560113  30.6913833  36.8726493  16.2920113  31.3793833  36.8626493
  15.7590113  30.4173833  36.0446493  15.8350113  30.7523833  36.7486493
  18.7120113  41.1243833  40.8976493  18.8840113  40.9143833  41.7266493
  18.0570113  40.5903833  40.6816493  18.6410113  41.0143833  40.9886493
  24.9400113  35.0383833  44.4126493  24.8450113  35.3573833  45.2186493
  24.3470113  34.3993833  44.3746493  24.8380113  34.9903833  44.5266493
  19.4620113  41.0623833  43.4876493  19.5150113  41.9093833  43.6896493
  19.1770113  40.6923833  44.2246493  19.4280113  41.1323833  43.6256493
  25.6390113  41.7573833  42.6176493  25.1250113  41.3453833  43.1886493
  25.5130113  42.6013833  42.7986493  25.5450113  41.8213833  42.7286493
  26.1960113  30.9823833  37.2486493  26.2450113  30.6643833  38.0596493
  26.5190113  30.3383833  36.7556493  26.2510113  30.8403833  37.2956493
  12.2830113  45.4333833  49.6986493  13.0390113  45.7823833  49.9566493
  12.4600113  44.5803833  49.6416493  12.4210113  45.3583833  49.7286493
  28.6600113  35.2183833  45.5566493  29.4320113  34.9933833  45.8936493
  28.1850113  35.4353833  46.2566493  28.7040113  35.2173833  45.7096493
  16.2040113  34.5013833  38.5266493  16.4760113  34.0713833  37.8186493
  16.0280113  33.8653833  39.0976493  16.2180113  34.3443833  38.5066493
  16.0280113  41.9283833  38.0756493  16.8790113  41.8483833  37.9026493
  15.6710113  41.2463833  37.6636493  16.1010113  41.8153833  37.9886493
  14.7950113  48.6533833  39.3126493  14.1220113  48.1553833  39.0676493
  15.1980113  48.8383833  38.5616493  14.7550113  48.6073833  39.1656493
  14.3450113  35.6033833  41.6086493  15.1880113  35.8233833  41.5656493
  13.9560113  36.1763833  41.0776493  14.4120113  35.7203833  41.5236493
  26.7870113  38.7333833  32.3296493  26.5670113  39.4643833  31.9076493
  26.3390113  38.7843833  33.0766493  26.6880113  38.8483833  32.3776493
  18.3960113  41.9353833  36.3106493  19.1090113  42.4303833  36.4006493
  18.6180113  41.3683833  35.6846493  18.5340113  41.9243833  36.2316493
  30.9740113  33.5943833  31.7826493  30.3120113  33.0263833  31.8056493
  30.7810113  34.1063833  31.1026493  30.8480113  33.5863833  31.6856493
  12.5520113  43.5783833  39.6306493  11.8850113  44.0663833  39.9066493
  13.2320113  44.1233833  39.6596493  12.5540113  43.7303833  39.6756493
  20.1990113  37.2883833  49.7266493  19.7150113  37.8653833  50.1686493
  20.1710113  37.5833833  48.9056493  20.1230113  37.4173833  49.6706493
  12.6180113  40.2623833  34.7336493  12.4330113  39.4233833  34.8856493
  13.2770113  40.2263833  34.1636493  12.6880113  40.1333833  34.6716493
  28.9760113  33.1523833  34.0616493  29.7220113  32.7453833  34.2606493
  29.2390113  33.8673833  33.6366493  29.1250113  33.1983833  34.0286493
  22.9190113  45.6383833  38.6376493  22.3960113  46.2723833  38.3446493
  23.2290113  45.2743833  37.9086493  22.8870113  45.6783833  38.4866493
  12.7900113  44.4263833  34.3086493  13.3420113  44.9953833  34.6726493
  12.5580113  43.9113833  34.9736493  12.8370113  44.4343833  34.4606493
  16.9940113  43.4263833  41.3976493  17.4610113  43.7153833  42.0756493
  17.5660113  42.9483833  40.9436493  17.1480113  43.3983833  41.4306493
  25.4300113  35.4403833  39.1346493  25.7740113  35.5923833  39.9216493
  24.9770113  34.7023833  39.2476493  25.4140113  35.3533833  39.2676493
  12.6200113  42.8753833  31.9366493  13.3760113  42.4433833  31.9946493
  12.6350113  43.4073833  32.6276493  12.7340113  42.8903833  32.0476493
  13.5600113  41.0963833  39.9416493  13.9910113  40.9673833  39.1946493
  13.3550113  41.9443833  39.9156493  13.5930113  41.2023833  39.8276493
  19.9060113  34.6603833  33.5916493  19.9040113  34.5433833  32.7266493
  19.7250113  35.5083833  33.6836493  19.8790113  34.7683833  33.4776493
  28.9600113  47.0873833  45.0886493  28.2890113  47.6013833  45.3066493
  29.0230113  47.1873833  44.2246493  28.8700113  47.1783833  44.9936493
  17.6440113  44.6123833  38.2236493  17.7700113  45.4553833  38.4106493
  18.3120113  44.2133833  38.6196493  17.7620113  44.6783833  38.3096493
  15.7740113  38.0953833  48.0856493  15.2380113  37.5893833  48.5536493
  15.7940113  37.7053833  47.3056493  15.6970113  37.9623833  48.0396493
  16.2590113  37.4923833  33.2256493  16.1310113  37.0443833  33.9636493
  15.6770113  37.1503833  32.6736493  16.1540113  37.3753833  33.2536493
  16.4260113  39.3223833  39.8246493  15.6450113  39.2633833  39.4416493
  16.4980113  38.5703833  40.2616493  16.3210113  39.2033833  39.8326493
  16.8560113  39.0593833  43.2926493  16.8810113  38.3843833  42.7416493
  16.2100113  39.5553833  42.9806493  16.7650113  39.0323833  43.1656493
  26.7510113  36.7723833  41.6886493  26.0890113  37.1003833  42.1516493
  26.9380113  37.4063833  41.1196493  26.6810113  36.9143833  41.6726493
  20.9560113  47.8363833  42.6846493  20.6790113  47.1953833  42.1616493
  20.7480113  48.5623833  42.2466493  20.8850113  47.8493833  42.5426493
  23.3960113  32.6783833  45.1176493  23.5450113  31.8533833  44.8746493
  23.7750113  32.7333833  45.9016493  23.4740113  32.5643833  45.1976493
  24.9440113  34.7413833  35.1996493  25.4340113  35.4583833  35.1226493
  24.1540113  35.0023833  34.9366493  24.9000113  34.8853833  35.1496493
  14.6550113  40.4143833  48.8516493  14.6180113  40.9153833  48.1376493
  14.9860113  39.6623833  48.5566493  14.6980113  40.3763833  48.7026493
  20.5540113  45.4643833  48.2866493  20.9080113  45.2863833  49.0636493
  20.1180113  44.7353833  48.0876493  20.5420113  45.3303833  48.3726493
  21.5260113  36.2113833  40.9246493  22.0060113  36.9103833  41.1326493
  21.8990113  35.5643833  41.3756493  21.6520113  36.2193833  41.0216493
  23.7150113  39.3803833  33.1986493  23.7070113  40.1023833  32.7086493
  23.0760113  39.5153833  33.7756493  23.6200113  39.5073833  33.2116493
  28.6870113  43.2503833  37.1796493  29.0430113  42.9003833  37.8946493
  28.6790113  42.5893833  36.6096493  28.7390113  43.1003833  37.2006493
  24.7450113  43.1673833  40.4236493  23.9480113  43.3913833  40.6976493
  25.0030113  42.5733833  41.0086493  24.6650113  43.1123833  40.5506493
  18.6370113  47.9793833  34.8716493  18.4900113  47.2033833  35.2426493
  19.3260113  47.8323833  34.3566493  18.7170113  47.8423833  34.8506493
  18.3080113  31.7223833  32.8596493  18.4050113  31.6153833  33.7206493
  17.6000113  32.2283833  32.7946493  18.2180113  31.7813833  32.9776493
  20.9290113  47.4953833  33.2736493  21.5510113  47.6583833  33.8636493
  20.9650113  48.1863833  32.7416493  21.0260113  47.6213833  33.2826493
  24.1960113  46.5143833  49.5466493  24.3600113  46.7973833  50.3556493
  24.4590113  47.1753833  49.0416493  24.2590113  46.6543833  49.5916493
  29.0370113  31.4633833  48.2566493  28.4000113  31.0633833  47.8146493
  29.0630113  31.0323833  49.0146493  28.9470113  31.3413833  48.3026493
  15.4300113  40.0293833  34.1026493  15.7540113  39.2503833  33.8806493
  16.0760113  40.3973833  34.5576493  15.5730113  39.9683833  34.1366493
  23.7360113  40.9713833  44.8696493  23.5810113  41.5813833  45.4736493
  24.2700113  40.4133833  45.2756493  23.7920113  40.9793833  45.0186493
  12.4270113  31.6903833  35.0706493  12.5560113  30.9823833  34.5786493
  12.0600113  31.3723833  35.7956493  12.3920113  31.5383833  35.1056493
  22.1200113  39.3713833  35.5276493  22.1790113  40.0213833  36.1066493
  21.9310113  38.6753833  36.0186493  22.1010113  39.3643833  35.6856493
  27.3460113  43.7003833  41.3966493  26.8670113  43.9983833  40.7306493
  26.9900113  42.9243833  41.5746493  27.2230113  43.6293833  41.3246493
  16.6160113  33.8883833  32.0396493  16.1050113  33.9413833  31.3336493
  17.4000113  34.1283833  31.7436493  16.6560113  33.9313833  31.8916493
  21.3430113  41.4183833  39.9586493  20.4960113  41.2243833  40.0396493
  21.6670113  41.2533833  40.7516493  21.2650113  41.3653833  40.0876493
  18.0950113  48.1483833  30.8446493  18.5340113  47.4513833  31.1326493
  18.3020113  48.7723833  31.4176493  18.1910113  48.1373833  30.9716493
  15.1910113  41.1113833  42.2746493  15.9130113  41.5993833  42.2376493
  14.9210113  41.0813833  41.4456493  15.2580113  41.1793833  42.1466493
  18.4210113  36.2823833  39.0096493  19.2670113  36.0923833  39.1076493
  18.0510113  35.5053833  38.8716493  18.4910113  36.1393833  39.0036493
  31.0380113  47.8663833  33.3366493  31.7320113  47.3993833  33.0886493
  30.4990113  47.2683833  33.6736493  31.0610113  47.7083833  33.3496493
  13.2420113  37.6203833  35.6646493  13.7310113  37.3283833  36.3256493
  13.3710113  37.0273833  35.0376493  13.3330113  37.4893833  35.6696493
  17.7670113  39.0543833  31.1506493  17.1570113  38.6493833  31.6246493
  17.3810113  39.1723833  30.3776493  17.6200113  39.0113833  31.1066493
  14.5860113  42.1633833  46.5526493  14.1650113  41.6453833  45.9916493
  14.2340113  42.9493833  46.4096493  14.4720113  42.2033833  46.4486493
  19.2220113  37.5153833  33.8606493  19.4940113  38.3413833  33.9276493
  18.3590113  37.5903833  33.7646493  19.1350113  37.6483833  33.8556493
  27.1950113  34.6373833  48.4926493  26.6700113  35.0963833  49.0166493
  26.8340113  33.8423833  48.4866493  27.0640113  34.5873833  48.5686493
  12.7020113  33.4853833  40.3966493  12.7460113  33.8293833  39.5956493
  13.4570113  33.7223833  40.7636493  12.8200113  33.5713833  40.3326493
  30.6640113  46.3463833  40.4816493  30.9540113  46.6033833  39.7006493
  31.3590113  46.4423833  41.0006493  30.8100113  46.3983833  40.4426493
  25.6870113  38.2063833  48.5686493  25.7600113  38.3103833  49.4316493
  25.0530113  38.7643833  48.3476493  25.6040113  38.3043833  48.6636493
  27.2690113  44.9493833  32.4636493  27.6030113  44.1433833  32.4986493
  26.5140113  44.8773833  32.8936493  27.2070113  44.8193833  32.5326493
  24.6430113  42.8243833  31.8666493  25.3270113  42.3103833  31.6976493
  24.2260113  42.8703833  31.1016493  24.6820113  42.7553833  31.7286493
  19.3250113  43.9743833  43.1706493  19.0270113  44.5663833  43.7376493
  19.3800113  44.4163833  42.4216493  19.2890113  44.1273833  43.1436493
  17.3040113  42.9243833  46.5686493  16.4980113  42.6343833  46.7356493
  17.2150113  43.7923833  46.5746493  17.1720113  43.0093833  46.5936493
  26.6630113  33.1133833  45.5836493  27.4070113  33.5653833  45.5206493
  26.0970113  33.5833833  45.1146493  26.6900113  33.2503833  45.5056493
  21.8410113  40.3973833  42.6616493  22.3170113  40.7713833  43.2896493
  21.0180113  40.5313833  42.9206493  21.7900113  40.4723833  42.7926493
  18.5510113  36.0003833  45.4026493  18.7120113  35.2563833  45.8296493
  18.5060113  35.7513833  44.5676493  18.5680113  35.8533833  45.3426493
  21.1050113  47.7903833  37.8896493  21.6510113  48.4693833  37.9436493
  20.7550113  47.8723833  37.0946493  21.1340113  47.9033833  37.7796493
  27.9480113  31.0933833  43.2536493  27.6680113  31.9183833  43.2096493
  28.6640113  31.1463833  43.7496493  28.0130113  31.2233833  43.3206493
  20.3030113  31.8083833  45.2826493  21.0080113  32.1283833  44.8806493
  20.5440113  31.0013833  45.5096493  20.4420113  31.7363833  45.2566493
  19.2880113  46.0183833  41.2786493  18.6640113  46.6003833  41.0966493
  19.5360113  45.7323833  40.4926493  19.2320113  46.0623833  41.1356493
  23.5970113  42.6523833  48.2676493  24.3540113  42.9383833  47.9416493
  23.0500113  42.7043833  47.5896493  23.6280113  42.7023833  48.1186493
  20.8820113  40.7943833  31.1936493  20.0770113  40.6173833  30.9086493
  20.8490113  41.6453833  31.3856493  20.7580113  40.8933833  31.1806493
  16.8120113  36.8613833  41.3436493  17.2520113  36.7583833  40.5976493
  17.3570113  36.5483833  41.9486493  16.9570113  36.8003833  41.3226493
  24.8280113  35.9633833  46.9356493  24.1800113  36.4333833  47.2836493
  25.3930113  35.8743833  47.5946493  24.8160113  36.0193833  47.0846493
  24.5160113  37.5003833  43.2336493  24.8180113  37.9203833  43.9366493
  24.5520113  36.6603833  43.4656493  24.5660113  37.4383833  43.3716493
  21.9410113  47.6673833  47.1586493  22.4190113  47.0673833  46.7426493
  21.5900113  47.2243833  47.8236493  21.9600113  47.5133833  47.1956493
  27.0640113  36.9473833  35.4856493  27.2710113  36.7463833  36.3096493
  27.8200113  37.2153833  35.1436493  27.2060113  36.9573833  35.5566493
  20.3590113  31.8463833  41.3906493  19.5330113  31.6973833  41.6276493
  20.3190113  31.8813833  40.5196493  20.2310113  31.8293833  41.2966493
  28.0860113  33.0303833  36.9596493  27.3720113  32.5593833  37.1306493
  27.9240113  33.3713833  36.1736493  27.9570113  33.0113833  36.8686493
  12.9240113  32.2443833  47.4256493  12.7840113  33.0393833  47.0946493
  12.1380113  32.0013833  47.7146493  12.7870113  32.3263833  47.4196493
  17.8300113  49.0933833  41.4956493  17.8410113  49.1523833  42.3656493
  17.4050113  48.3463833  41.3456493  17.7690113  48.9913833  41.6016493
  15.9880113  34.9883833  34.6506493  16.1140113  34.6593833  33.8526493
  15.1760113  34.7393833  34.8496493  15.8870113  34.9033833  34.5626493
  24.7450113  42.1413833  37.6946493  24.8210113  42.4823833  38.4936493
  24.9140113  41.2943833  37.8156493  24.7810113  42.0663833  37.8306493
  22.2670113  41.4153833  37.2596493  21.9690113  41.1003833  38.0166493
  22.9620113  41.8883833  37.4946493  22.3260113  41.4383833  37.4066493
  22.4890113  45.5333833  45.2866493  23.1760113  45.4193833  45.8116493
  22.6230113  46.3243833  44.9426493  22.6100113  45.6333833  45.3136493
  14.5940113  48.5913833  46.9376493  13.9400113  48.0223833  47.0356493
  14.2190113  49.3643833  47.0886493  14.4420113  48.6213833  46.9746493
  23.1120113  39.9973833  48.8606493  23.4350113  40.6833833  48.4286493
  22.4080113  40.3203833  49.2626493  23.0550113  40.1463833  48.8556493
  26.1960113  48.3713833  39.7896493  25.7450113  49.0143833  40.1686493
  26.9040113  48.2923833  40.2946493  26.2340113  48.4543833  39.9206493
  22.8970113  43.4613833  42.7196493  22.2030113  43.8633833  43.0626493
  23.5740113  43.8943833  43.0586493  22.8940113  43.5843833  42.8206493
  15.9650113  36.9993833  45.0666493  16.3400113  37.6183833  44.5796493
  16.6390113  36.5253833  45.3516493  16.1200113  37.0213833  45.0366493
  13.7400113  35.4473833  44.3416493  13.8170113  35.2783833  43.4886493
  14.4860113  35.8533833  44.5386493  13.8610113  35.4823833  44.2446493
  16.2940113  32.8573833  46.7526493  16.2130113  32.0133833  46.9586493
  15.9800113  32.9013833  45.9396493  16.2360113  32.7393833  46.6626493
  23.2190113  45.0523833  35.8886493  23.0140113  45.8853833  35.7296493
  22.4440113  44.6703833  36.0106493  23.0740113  45.1193833  35.8836493
  13.1370113  40.6733833  44.5656493  13.4570113  40.8923833  43.7846493
  13.0370113  39.8083833  44.5106493  13.1690113  40.5783833  44.4426493
  14.5930113  36.6093833  31.1836493  13.9210113  36.6233833  31.7396493
  14.6880113  35.7613833  30.9996493  14.5080113  36.4863833  31.2386493
  24.2800113  33.0333833  47.9196493  24.3720113  33.7453833  48.4136493
  23.6430113  32.5883833  48.3166493  24.1990113  33.0723833  48.0516493
  23.2740113  33.2233833  38.7736493  22.5740113  33.7413833  38.7176493
  23.3120113  32.8433833  37.9896493  23.1760113  33.2443833  38.6496493
  18.5810113  45.3143833  32.2976493  19.0220113  45.3943833  33.0456493
  17.7760113  45.0983833  32.5556493  18.5270113  45.2943833  32.4466493
  26.8720113  33.7393833  41.5736493  27.7270113  33.8383833  41.7186493
  26.5030113  34.2923833  42.1386493  26.9440113  33.8363833  41.6786493
  17.9000113  39.9653833  45.9506493  17.5040113  40.7393833  46.0256493
  17.4940113  39.5923833  45.2746493  17.7820113  40.0243833  45.8616493
  27.4890113  47.0853833  35.8716493  27.3150113  46.4313833  36.4216493
  28.2020113  46.8143833  35.4486493  27.5690113  46.9483833  35.8906493
  15.9100113  44.3843833  32.8986493  15.6660113  44.0773833  33.6786493
  15.8770113  43.6813833  32.3826493  15.8690113  44.2353833  32.9376493
  18.7290113  42.6293833  31.6416493  17.9110113  42.3613833  31.7816493
  18.7010113  43.4813833  31.8266493  18.6040113  42.7163833  31.6896493
  18.3290113  32.9423833  43.4006493  17.4650113  33.0263833  43.4806493
  18.5490113  32.4283833  44.0696493  18.2340113  32.8793833  43.5116493
  22.4320113  33.6903833  41.7746493  21.6950113  33.2363833  41.8876493
  23.0030113  33.2883833  42.2976493  22.4070113  33.5633833  41.8686493
  25.1640113  44.5383833  43.5626493  25.3700113  44.8393833  44.3546493
  25.1030113  45.2603833  43.0776493  25.1850113  44.6893833  43.6076493
  24.6980113  48.7523833  47.8086493  23.9450113  48.7343833  47.3676493
  24.8660113  49.6043833  47.8926493  24.6120113  48.8753833  47.7556493
  19.9350113  38.0193833  46.9786493  19.6130113  37.4433833  46.4086493
  19.5760113  38.7743833  46.7326493  19.8350113  38.0453833  46.8586493
  20.7310113  31.2713833  31.6056493  20.8090113  31.5183833  30.7726493
  19.9880113  31.6483833  31.8636493  20.6330113  31.3633833  31.5206493
  18.3700113  48.3753833  47.2266493  18.4110113  48.5013833  48.0896493
  19.0210113  47.8153833  47.0706493  18.4720113  48.3113833  47.3316493
  28.0810113  46.4373833  41.8176493  28.6080113  46.3543833  41.1266493
  27.6900113  45.6593833  41.8716493  28.1010113  46.3103833  41.7236493
  15.5490113  33.0253833  44.0486493  15.2060113  32.2583833  43.8146493
  14.8540113  33.5493833  44.1126493  15.3960113  32.9893833  44.0236493
  15.9630113  46.7583833  48.5866493  16.5580113  47.1893833  49.0586493
  15.5990113  47.3823833  48.0976493  15.9970113  46.9143833  48.5836493
  23.9540113  37.6893833  38.5186493  24.5050113  37.0823833  38.8186493
  23.5290113  37.9523833  39.2336493  23.9730113  37.6383833  38.6676493
  14.2020113  36.3393833  38.0046493  13.8340113  36.6413833  38.7356493
  14.7360113  35.7103833  38.2886493  14.2260113  36.2913833  38.1546493
  13.8900113  44.7473833  45.5156493  13.3160113  45.1633833  46.0246493
  14.6230113  45.2123833  45.6106493  13.9140113  44.8773833  45.6046493
  25.9240113  39.5203833  35.0806493  25.9920113  38.6703833  35.2616493
  25.1010113  39.6063833  34.8026493  25.8120113  39.4073833  35.0666493
  15.6760113  48.0143833  34.2906493  15.5310113  48.1703833  33.4446493
  16.5420113  48.0933833  34.3686493  15.7830113  48.0493833  34.1776493
  19.8430113  40.4113833  34.0186493  19.9430113  40.5503833  33.1636493
  20.6610113  40.3513833  34.3146493  19.9780113  40.4223833  33.9356493
  25.0780113  44.7403833  33.8206493  24.8270113  44.6123833  34.6466493
  24.7610113  44.0453833  33.3996493  24.9940113  44.6193833  33.8806493
  29.8230113  35.4573833  48.9696493  29.6270113  36.1013833  49.5246493
  29.1010113  34.9673833  48.9616493  29.6880113  35.4803833  49.0506493
  18.9820113  33.3863833  47.1346493  19.2160113  32.8103833  46.5216493
  18.1400113  33.2053833  47.2756493  18.8920113  33.2743833  47.0646493
  16.3630113  46.8293833  40.7676493  16.2840113  46.0193833  40.4516493
  15.9190113  47.3163833  40.1956493  16.2860113  46.7813833  40.6366493
  21.9640113  42.9483833  33.2506493  22.6810113  42.6013833  32.8946493
  21.9300113  43.7483833  32.9026493  22.0650113  43.0153833  33.1466493
  13.9350113  49.0733833  44.3486493  14.4280113  49.0173833  45.0666493
  14.1230113  48.3403833  43.9136493  14.0360113  48.9563833  44.3906493
  23.3730113  31.5893833  17.4894083  23.1280113  32.0773833  16.8094083
  24.2360113  31.5163833  17.3894083  23.4640113  31.6503833  17.3744083
  23.1820113  38.5053833  22.1604083  22.6580113  39.1013833  22.5234083
  23.5790113  38.1373833  22.8444083  23.1630113  38.5393833  22.3154083
  13.0510113  42.6453833  17.6164083  12.6100113  42.7633833  18.3594083
  12.7680113  41.8703833  17.3314083  12.9440113  42.5483833  17.6844083
  29.3260113  45.9463833  15.1314083  30.0270113  45.4273833  15.1274083
  28.7390113  45.5013833  14.6624083  29.3430113  45.8033833  15.0614083
  12.7940113  36.4373833  14.1234083  12.0160113  36.5993833  13.7634083
  12.8330113  35.5663833  14.1454083  12.6850113  36.3323833  14.0734083
  15.9330113  41.7003833  12.7954083  15.5410113  41.3293833  12.1094083
  15.8530113  41.1023833  13.4244083  15.8630113  41.5573833  12.7864083
  25.8530113  39.5723833  18.8364083  25.9330113  39.5763833  17.9674083
  25.2690113  38.9403833  18.9854083  25.7780113  39.4793833  18.7304083
  15.5600113  43.3413833  16.6954083  16.1680113  43.1713833  17.2984083
  14.8090113  43.2013833  17.1164083  15.5390113  43.2953833  16.8464083
  19.8420113  32.6763833  16.6444083  19.7720113  33.3533833  16.0984083
  20.5830113  32.2883833  16.3954083  19.9410113  32.7193833  16.5264083
  14.4510113  46.4323833  12.7724083  14.9180113  46.5163833  12.0404083
  14.9060113  45.8543833  13.2414083  14.5870113  46.3593833  12.7334083
  12.9910113  45.3803833  23.8714083  13.1200113  45.1003833  24.6874083
  12.3810113  44.8393833  23.5624083  12.9200113  45.2593833  23.9464083
  19.5650113  42.9053833  28.9384083  19.3290113  42.9023833  29.7784083
  18.8170113  42.7573833  28.5144083  19.4190113  42.8823833  28.9994083
  14.4370113  39.9013833  18.0734083  13.9750113  39.5093833  17.4464083
  15.1370113  39.3883833  18.1654083  14.4720113  39.7683833  17.9944083
  18.9450113  35.5113833  23.4204083  19.6230113  35.5293833  22.8714083
  18.9000113  34.6753833  23.6654083  19.0380113  35.3903833  23.3754083
  19.5470113  46.0973833  26.2014083  19.6850113  46.8573833  25.7944083
  20.3380113  45.7323833  26.2284083  19.6840113  46.1563833  26.1454083
  16.4380113  38.0013833  18.0964083  17.2550113  37.8143833  18.3394083
  15.9610113  37.3873833  18.4924083  16.4880113  37.8833833  18.1914083
  20.6420113  43.9823833  20.7064083  20.9900113  43.1833833  20.7364083
  21.3070113  44.4863833  20.4514083  20.7920113  43.9383833  20.6734083
  20.6990113  43.4313833  16.9174083  21.0300113  42.7873833  17.4034083
  20.9390113  43.2203833  16.1064083  20.7830113  43.3053833  16.8694083
  22.6670113  37.5623833  28.2564083  21.8190113  37.4633833  28.0784083
  22.6960113  38.3073833  28.7104083  22.5460113  37.6583833  28.2974083
  17.0350113  33.0953833  17.3624083  16.7390113  33.5963833  16.7124083
  17.9020113  33.1733833  17.3054083  17.1190113  33.1813833  17.2584083
  27.2250113  30.5223833  27.3704083  27.0670113  31.2913833  26.9884083
  26.4530113  30.3023833  27.7144083  27.0870113  30.6033833  27.3654083
  20.0140113  32.2373833  19.5854083  20.0870113  33.0973833  19.7144083
  19.9760113  32.1623833  18.7174083  20.0190113  32.3533833  19.4764083
  24.6870113  35.1633833  11.8844083  24.2370113  35.8443833  12.1914083
  24.8010113  34.6593833  12.5874083  24.6380113  35.1893833  12.0334083
  12.8930113  37.6623833  21.0864083  12.6370113  38.4933833  21.0114083
  12.2290113  37.2793833  21.5034083  12.7570113  37.7283833  21.1374083
  12.8030113  47.3723833  18.9864083  12.2110113  47.9303833  18.6734083
  13.2290113  47.1033833  18.2744083  12.7790113  47.4143833  18.8354083
  18.6430113  45.2163833  16.4664083  18.0640113  44.9413833  17.0584083
  19.2670113  44.6073833  16.4914083  18.6500113  45.0863833  16.5574083
  24.7860113  47.5043833  13.9884083  25.5130113  47.9763833  14.0904083
  25.0150113  46.7103833  14.2684083  24.9280113  47.4573833  14.0454083
  22.9540113  47.8963833  15.9784083  23.1680113  48.4233833  16.6404083
  23.7210113  47.7223833  15.5994083  23.0990113  47.9483833  16.0204083
  15.9220113  32.4793833  21.5774083  15.4010113  31.8513833  21.2694083
  16.5130113  32.0423833  22.0484083  15.9330113  32.3213833  21.6014083
  19.2280113  34.6123833  30.8754083  19.3450113  34.1583833  30.1394083
  19.5160113  35.4103833  30.6724083  19.2880113  34.6633833  30.7364083
  14.3480113  46.0423833  16.9174083  15.0040113  45.4673833  16.9324083
  14.7370113  46.7913833  16.6964083  14.5030113  46.0673833  16.8874083
  30.0810113  35.1363833  18.1794083  29.7350113  35.8143833  18.6054083
  29.4450113  34.5383833  18.1954083  29.9360113  35.1483833  18.2444083
  25.3930113  47.9063833  24.2834083  26.1370113  48.3623833  24.2734083
  25.2720113  47.6923833  23.4464083  25.4850113  47.9423833  24.1584083
  14.9610113  34.2093833  29.8594083  14.1830113  33.8193833  29.7874083
  15.4520113  33.7973833  29.2684083  14.9180113  34.0903833  29.7614083
  15.1660113  44.5293833  20.4174083  15.5890113  44.1733833  19.7434083
  15.4900113  44.1073833  21.1094083  15.2760113  44.4143833  20.4204083
  18.3970113  47.3813833  19.7134083  19.2410113  47.4853833  19.5184083
  18.1000113  48.1993833  19.7814083  18.4780113  47.5173833  19.6944083
  21.6100113  31.8523833  29.0274083  21.7880113  31.0433833  28.7524083
  21.4670113  32.2933833  28.2884083  21.6150113  31.7983833  28.8774083
  22.2040113  36.7783833  17.8004083  22.4910113  36.5463833  17.0104083
  22.9360113  36.8573833  18.2694083  22.3540113  36.7553833  17.7534083
  22.9260113  37.1173833  12.9214083  23.2070113  37.9053833  13.1704083
  22.1500113  37.2823833  12.5584083  22.8530113  37.2583833  12.9044083
  26.9670113  49.0913833  14.3884083  27.6320113  48.9433833  13.8434083
  27.3270113  49.0083833  15.1784083  27.1190113  49.0573833  14.4244083
  17.3950113  48.6003833  25.4534083  17.6870113  48.5333833  26.2734083
  16.7690113  47.9953833  25.4084083  17.3460113  48.5013833  25.5684083
  29.7560113  33.4593833  23.5484083  30.5130113  33.5313833  23.1204083
  29.8190113  32.6863833  23.9474083  29.8770113  33.3563833  23.5434083
  12.3090113  34.7573833  27.4454083  12.3050113  35.3443833  28.0914083
  12.9030113  35.0693833  26.8884083  12.3960113  34.8903833  27.4584083
  24.6470113  45.0913833  27.9874083  24.6130113  45.4733833  28.7714083
  25.5010113  45.0493833  27.8164083  24.7680113  45.1413833  28.0784083
  21.7850113  45.2883833  12.7374083  21.6040113  45.8333833  13.3944083
  22.5510113  45.5783833  12.4364083  21.8710113  45.4123833  12.7904083
  25.2920113  33.1843833  13.7914083  25.8320113  32.5023833  13.8674083
  25.3540113  33.5823833  14.5654083  25.3810113  33.1423833  13.9174083
  13.2460113  34.3523833  16.3604083  13.1320113  33.4883833  16.3914083
  12.7710113  34.6463833  17.0304083  13.1590113  34.2683833  16.4634083
  15.3880113  46.7623833  24.5754083  14.6900113  46.2543833  24.7014083
  15.6480113  46.5573833  23.7674083  15.3230113  46.6573833  24.4744083
  22.5500113  35.5603833  15.1054083  22.0420113  34.8983833  14.8514083
  22.6020113  36.0643833  14.3954083  22.4830113  35.5373833  14.9634083
  23.0990113  48.2553833  25.4854083  23.8670113  48.1753833  25.0794083
  22.5160113  48.1343833  24.8474083  23.1260113  48.2253833  25.3314083
  22.5500113  32.5013833  14.9964083  22.0950113  32.0993833  14.3704083
  23.3230113  32.6563833  14.6214083  22.5970113  32.4653833  14.8484083
  29.3760113  48.8583833  18.3864083  28.9210113  49.5753833  18.5874083
  28.7620113  48.2873833  18.1444083  29.2180113  48.8803833  18.3804083
  21.1480113  34.8683833  19.5184083  21.2220113  35.4363833  18.8604083
  21.2690113  35.3603833  20.2284083  21.1760113  35.0253833  19.5264083
  26.3730113  44.7033833  17.9304083  27.0740113  44.2213833  18.1194083
  25.7130113  44.1343833  17.9754083  26.3790113  44.5483833  17.9644083
  16.7490113  45.6133833  27.1424083  17.5900113  45.6763833  26.9204083
  16.7120113  46.0103833  27.9184083  16.8680113  45.6813833  27.2244083
  15.7560113  30.6913833  17.8664083  16.2920113  31.3793833  17.8564083
  15.7590113  30.4173833  17.0384083  15.8350113  30.7523833  17.7424083
  18.7120113  41.1243833  21.8914083  18.8840113  40.9143833  22.7204083
  18.0570113  40.5903833  21.6754083  18.6410113  41.0143833  21.9824083
  24.9400113  35.0383833  25.4064083  24.8450113  35.3573833  26.2124083
  24.3470113  34.3993833  25.3684083  24.8380113  34.9903833  25.5204083
  19.4620113  41.0623833  24.4814083  19.5150113  41.9093833  24.6834083
  19.1770113  40.6923833  25.2184083  19.4280113  41.1323833  24.6194083
  25.6390113  41.7573833  23.6114083  25.1250113  41.3453833  24.1824083
  25.5130113  42.6013833  23.7924083  25.5450113  41.8213833  23.7224083
  26.1960113  30.9823833  18.2424083  26.2450113  30.6643833  19.0534083
  26.5190113  30.3383833  17.7494083  26.2510113  30.8403833  18.2894083
  12.2830113  45.4333833  30.6924083  13.0390113  45.7823833  30.9504083
  12.4600113  44.5803833  30.6354083  12.4210113  45.3583833  30.7224083
  16.2040113  34.5013833  19.5204083  16.4760113  34.0713833  18.8124083
  16.0280113  33.8653833  20.0914083  16.2180113  34.3443833  19.5004083
  28.8920113  42.1963833  13.7384083  29.0110113  41.9093833  14.5534083
  29.6990113  42.2173833  13.4084083  29.0280113  42.1573833  13.8104083
  16.0280113  41.9283833  19.0694083  16.8790113  41.8483833  18.8964083
  15.6710113  41.2463833  18.6574083  16.1010113  41.8153833  18.9824083
  14.7950113  48.6533833  20.3064083  14.1220113  48.1553833  20.0614083
  15.1980113  48.8383833  19.5554083  14.7550113  48.6073833  20.1594083
  14.3450113  35.6033833  22.6024083  15.1880113  35.8233833  22.5594083
  13.9560113  36.1763833  22.0714083  14.4120113  35.7203833  22.5174083
  31.1260113  46.7053833  27.9924083  30.4440113  47.0153833  27.5454083
  30.7570113  46.2473833  28.6374083  30.9700113  46.6833833  28.0214083
  26.7870113  38.7333833  13.3234083  26.5670113  39.4643833  12.9014083
  26.3390113  38.7843833  14.0704083  26.6880113  38.8483833  13.3714083
  18.3960113  41.9353833  17.3044083  19.1090113  42.4303833  17.3944083
  18.6180113  41.3683833  16.6784083  18.5340113  41.9243833  17.2254083
  30.9740113  33.5943833  12.7764083  30.3120113  33.0263833  12.7994083
  30.7810113  34.1063833  12.0964083  30.8480113  33.5863833  12.6794083
  12.5520113  43.5783833  20.6244083  11.8850113  44.0663833  20.9004083
  13.2320113  44.1233833  20.6534083  12.5540113  43.7303833  20.6694083
  20.1990113  37.2883833  30.7204083  19.7150113  37.8653833  31.1624083
  20.1710113  37.5833833  29.8994083  20.1230113  37.4173833  30.6644083
  31.2970113  37.9723833  25.3324083  31.5120113  37.1723833  25.0564083
  30.4470113  38.0323833  25.1434083  31.2030113  37.8633833  25.2634083
  12.6180113  40.2623833  15.7274083  12.4330113  39.4233833  15.8794083
  13.2770113  40.2263833  15.1574083  12.6880113  40.1333833  15.6654083
  28.9760113  33.1523833  15.0554083  29.7220113  32.7453833  15.2544083
  29.2390113  33.8673833  14.6304083  29.1250113  33.1983833  15.0224083
  22.9190113  45.6383833  19.6314083  22.3960113  46.2723833  19.3384083
  23.2290113  45.2743833  18.9024083  22.8870113  45.6783833  19.4804083
  12.7900113  44.4263833  15.3024083  13.3420113  44.9953833  15.6664083
  12.5580113  43.9113833  15.9674083  12.8370113  44.4343833  15.4544083
  16.9940113  43.4263833  22.3914083  17.4610113  43.7153833  23.0694083
  17.5660113  42.9483833  21.9374083  17.1480113  43.3983833  22.4244083
  25.4300113  35.4403833  20.1284083  25.7740113  35.5923833  20.9154083
  24.9770113  34.7023833  20.2414083  25.4140113  35.3533833  20.2614083
  12.6200113  42.8753833  12.9304083  13.3760113  42.4433833  12.9884083
  12.6350113  43.4073833  13.6214083  12.7340113  42.8903833  13.0414083
  13.5600113  41.0963833  20.9354083  13.9910113  40.9673833  20.1884083
  13.3550113  41.9443833  20.9094083  13.5930113  41.2023833  20.8214083
  19.9060113  34.6603833  14.5854083  19.9040113  34.5433833  13.7204083
  19.7250113  35.5083833  14.6774083  19.8790113  34.7683833  14.4714083
  28.9600113  47.0873833  26.0824083  28.2890113  47.6013833  26.3004083
  29.0230113  47.1873833  25.2184083  28.8700113  47.1783833  25.9874083
  17.6440113  44.6123833  19.2174083  17.7700113  45.4553833  19.4044083
  18.3120113  44.2133833  19.6134083  17.7620113  44.6783833  19.3034083
  15.7740113  38.0953833  29.0794083  15.2380113  37.5893833  29.5474083
  15.7940113  37.7053833  28.2994083  15.6970113  37.9623833  29.0334083
  16.2590113  37.4923833  14.2194083  16.1310113  37.0443833  14.9574083
  15.6770113  37.1503833  13.6674083  16.1540113  37.3753833  14.2474083
  16.4260113  39.3223833  20.8184083  15.6450113  39.2633833  20.4354083
  16.4980113  38.5703833  21.2554083  16.3210113  39.2033833  20.8264083
  16.8560113  39.0593833  24.2864083  16.8810113  38.3843833  23.7354083
  16.2100113  39.5553833  23.9744083  16.7650113  39.0323833  24.1594083
  26.7510113  36.7723833  22.6824083  26.0890113  37.1003833  23.1454083
  26.9380113  37.4063833  22.1134083  26.6810113  36.9143833  22.6664083
  20.9560113  47.8363833  23.6784083  20.6790113  47.1953833  23.1554083
  20.7480113  48.5623833  23.2404083  20.8850113  47.8493833  23.5364083
  23.3960113  32.6783833  26.1114083  23.5450113  31.8533833  25.8684083
  23.7750113  32.7333833  26.8954083  23.4740113  32.5643833  26.1914083
  24.9440113  34.7413833  16.1934083  25.4340113  35.4583833  16.1164083
  24.1540113  35.0023833  15.9304083  24.9000113  34.8853833  16.1434083
  14.6550113  40.4143833  29.8454083  14.6180113  40.9153833  29.1314083
  14.9860113  39.6623833  29.5504083  14.6980113  40.3763833  29.6964083
  26.2580113  42.6193833  28.1034083  26.7420113  43.3373833  28.2014083
  26.6520113  42.1923833  27.4524083  26.3880113  42.6623833  28.0214083
  20.5540113  45.4643833  29.2804083  20.9080113  45.2863833  30.0574083
  20.1180113  44.7353833  29.0814083  20.5420113  45.3303833  29.3664083
  21.5260113  36.2113833  21.9184083  22.0060113  36.9103833  22.1264083
  21.8990113  35.5643833  22.3694083  21.6520113  36.2193833  22.0154083
  23.7150113  39.3803833  14.1924083  23.7070113  40.1023833  13.7024083
  23.0760113  39.5153833  14.7694083  23.6200113  39.5073833  14.2054083
  28.6870113  43.2503833  18.1734083  29.0430113  42.9003833  18.8884083
  28.6790113  42.5893833  17.6034083  28.7390113  43.1003833  18.1944083
  24.7320113  46.3163833  22.0174083  24.1290113  46.0203833  21.4604083
  25.2770113  46.7683833  21.5084083  24.7230113  46.3393833  21.8594083
  24.7450113  43.1673833  21.4174083  23.9480113  43.3913833  21.6914083
  25.0030113  42.5733833  22.0024083  24.6650113  43.1123833  21.5444083
  18.6370113  47.9793833  15.8654083  18.4900113  47.2033833  16.2364083
  19.3260113  47.8323833  15.3504083  18.7170113  47.8423833  15.8444083
  18.3080113  31.7223833  13.8534083  18.4050113  31.6153833  14.7144083
  17.6000113  32.2283833  13.7884083  18.2180113  31.7813833  13.9714083
  20.9290113  47.4953833  14.2674083  21.5510113  47.6583833  14.8574083
  20.9650113  48.1863833  13.7354083  21.0260113  47.6213833  14.2764083
  28.0050113  41.1653833  26.2634083  28.0600113  41.2903833  25.4014083
  28.7580113  41.4853833  26.5654083  28.1240113  41.2303833  26.1804083
  24.1960113  46.5143833  30.5404083  24.3600113  46.7973833  31.3494083
  24.4590113  47.1753833  30.0354083  24.2590113  46.6543833  30.5854083
  29.0370113  31.4633833  29.2504083  28.4000113  31.0633833  28.8084083
  29.0630113  31.0323833  30.0084083  28.9470113  31.3413833  29.2964083
  15.4300113  40.0293833  15.0964083  15.7540113  39.2503833  14.8744083
  16.0760113  40.3973833  15.5514083  15.5730113  39.9683833  15.1304083
  23.7360113  40.9713833  25.8634083  23.5810113  41.5813833  26.4674083
  24.2700113  40.4133833  26.2694083  23.7920113  40.9793833  26.0124083
  12.4270113  31.6903833  16.0644083  12.5560113  30.9823833  15.5724083
  12.0600113  31.3723833  16.7894083  12.3920113  31.5383833  16.0994083
  22.1200113  39.3713833  16.5214083  22.1790113  40.0213833  17.1004083
  21.9310113  38.6753833  17.0124083  22.1010113  39.3643833  16.6794083
  27.3460113  43.7003833  22.3904083  26.8670113  43.9983833  21.7244083
  26.9900113  42.9243833  22.5684083  27.2230113  43.6293833  22.3184083
  16.6160113  33.8883833  13.0334083  16.1050113  33.9413833  12.3274083
  17.4000113  34.1283833  12.7374083  16.6560113  33.9313833  12.8854083
  21.3430113  41.4183833  20.9524083  20.4960113  41.2243833  21.0334083
  21.6670113  41.2533833  21.7454083  21.2650113  41.3653833  21.0814083
  18.0950113  48.1483833  11.8384083  18.5340113  47.4513833  12.1264083
  18.3020113  48.7723833  12.4114083  18.1910113  48.1373833  11.9654083
  15.1910113  41.1113833  23.2684083  15.9130113  41.5993833  23.2314083
  14.9210113  41.0813833  22.4394083  15.2580113  41.1793833  23.1404083
  18.4210113  36.2823833  20.0034083  19.2670113  36.0923833  20.1014083
  18.0510113  35.5053833  19.8654083  18.4910113  36.1393833  19.9974083
  31.0380113  47.8663833  14.3304083  31.7320113  47.3993833  14.0824083
  30.4990113  47.2683833  14.6674083  31.0610113  47.7083833  14.3434083
  13.2420113  37.6203833  16.6584083  13.7310113  37.3283833  17.3194083
  13.3710113  37.0273833  16.0314083  13.3330113  37.4893833  16.6634083
  28.2770113  40.6423833  23.5094083  28.2700113  39.8663833  23.9074083
  27.4360113  40.8763833  23.5024083  28.1520113  40.5623833  23.5674083
  17.7670113  39.0543833  12.1444083  17.1570113  38.6493833  12.6184083
  17.3810113  39.1723833  11.3714083  17.6200113  39.0113833  12.1004083
  14.5860113  42.1633833  27.5464083  14.1650113  41.6453833  26.9854083
  14.2340113  42.9493833  27.4034083  14.4720113  42.2033833  27.4424083
  29.5330113  40.7133833  20.9464083  29.2470113  41.1143833  21.6664083
  30.3930113  40.6513833  21.0734083  29.6180113  40.7633833  21.0714083
  19.2220113  37.5153833  14.8544083  19.4940113  38.3413833  14.9214083
  18.3590113  37.5903833  14.7584083  19.1350113  37.6483833  14.8494083
  27.1950113  34.6373833  29.4864083  26.6700113  35.0963833  30.0104083
  26.8340113  33.8423833  29.4804083  27.0640113  34.5873833  29.5624083
  12.7020113  33.4853833  21.3904083  12.7460113  33.8293833  20.5894083
  13.4570113  33.7223833  21.7574083  12.8200113  33.5713833  21.3264083
  30.6640113  46.3463833  21.4754083  30.9540113  46.6033833  20.6944083
  31.3590113  46.4423833  21.9944083  30.8100113  46.3983833  21.4364083
  25.6870113  38.2063833  29.5624083  25.7600113  38.3103833  30.4254083
  25.0530113  38.7643833  29.3414083  25.6040113  38.3043833  29.6574083
  27.9550113  38.5253833  27.9274083  28.2740113  39.3113833  28.1304083
  27.5850113  38.2553833  28.6704083  27.9480113  38.6013833  28.0674083
  27.2690113  44.9493833  13.4574083  27.6030113  44.1433833  13.4924083
  26.5140113  44.8773833  13.8874083  27.2070113  44.8193833  13.5264083
  27.7510113  36.7833833  19.1164083  27.0060113  36.4603833  19.4344083
  27.7530113  37.6093833  19.3964083  27.6410113  36.8573833  19.2044083
  30.1910113  42.7433833  26.8684083  30.8190113  42.1943833  26.6124083
  30.1300113  43.3083833  26.2064083  30.2750113  42.7463833  26.7324083
  24.6430113  42.8243833  12.8604083  25.3270113  42.3103833  12.6914083
  24.2260113  42.8703833  12.0954083  24.6820113  42.7553833  12.7224083
  19.3250113  43.9743833  24.1644083  19.0270113  44.5663833  24.7314083
  19.3800113  44.4163833  23.4154083  19.2890113  44.1273833  24.1374083
  17.3040113  42.9243833  27.5624083  16.4980113  42.6343833  27.7294083
  17.2150113  43.7923833  27.5684083  17.1720113  43.0093833  27.5874083
  26.6630113  33.1133833  26.5774083  27.4070113  33.5653833  26.5144083
  26.0970113  33.5833833  26.1084083  26.6900113  33.2503833  26.4994083
  21.8410113  40.3973833  23.6554083  22.3170113  40.7713833  24.2834083
  21.0180113  40.5313833  23.9144083  21.7900113  40.4723833  23.7864083
  18.5510113  36.0003833  26.3964083  18.7120113  35.2563833  26.8234083
  18.5060113  35.7513833  25.5614083  18.5680113  35.8533833  26.3364083
  21.1050113  47.7903833  18.8834083  21.6510113  48.4693833  18.9374083
  20.7550113  47.8723833  18.0884083  21.1340113  47.9033833  18.7734083
  27.9480113  31.0933833  24.2474083  27.6680113  31.9183833  24.2034083
  28.6640113  31.1463833  24.7434083  28.0130113  31.2233833  24.3144083
  20.3030113  31.8083833  26.2764083  21.0080113  32.1283833  25.8744083
  20.5440113  31.0013833  26.5034083  20.4420113  31.7363833  26.2504083
  19.2880113  46.0183833  22.2724083  18.6640113  46.6003833  22.0904083
  19.5360113  45.7323833  21.4864083  19.2320113  46.0623833  22.1294083
  23.5970113  42.6523833  29.2614083  24.3540113  42.9383833  28.9354083
  23.0500113  42.7043833  28.5834083  23.6280113  42.7023833  29.1124083
  27.5060113  45.2023833  27.7654083  27.8520113  45.4723833  28.5194083
  27.8000113  45.7843833  27.1854083  27.6010113  45.3283833  27.7914083
  29.3690113  37.3483833  13.1044083  29.7470113  38.0253833  12.7044083
  28.5270113  37.5723833  13.1354083  29.3000113  37.4813833  13.0494083
  20.8820113  40.7943833  12.1874083  20.0770113  40.6173833  11.9024083
  20.8490113  41.6453833  12.3794083  20.7580113  40.8933833  12.1744083
  16.8120113  36.8613833  22.3374083  17.2520113  36.7583833  21.5914083
  17.3570113  36.5483833  22.9424083  16.9570113  36.8003833  22.3164083
  24.8280113  35.9633833  27.9294083  24.1800113  36.4333833  28.2774083
  25.3930113  35.8743833  28.5884083  24.8160113  36.0193833  28.0784083
  24.5160113  37.5003833  24.2274083  24.8180113  37.9203833  24.9304083
  24.5520113  36.6603833  24.4594083  24.5660113  37.4383833  24.3654083
  21.9410113  47.6673833  28.1524083  22.4190113  47.0673833  27.7364083
  21.5900113  47.2243833  28.8174083  21.9600113  47.5133833  28.1894083
  27.0640113  36.9473833  16.4794083  27.2710113  36.7463833  17.3034083
  27.8200113  37.2153833  16.1374083  27.2060113  36.9573833  16.5504083
  20.3590113  31.8463833  22.3844083  19.5330113  31.6973833  22.6214083
  20.3190113  31.8813833  21.5134083  20.2310113  31.8293833  22.2904083
  28.0860113  33.0303833  17.9534083  27.3720113  32.5593833  18.1244083
  27.9240113  33.3713833  17.1674083  27.9570113  33.0113833  17.8624083
  28.5290113  40.9743833  16.3334083  29.0050113  40.2453833  16.2854083
  27.7080113  40.6883833  16.2574083  28.4780113  40.8243833  16.3144083
  22.0000113  42.8863833  27.1724083  21.2050113  42.8223833  27.5234083
  22.0710113  43.7333833  26.9774083  21.8930113  43.0013833  27.1954083
  12.9240113  32.2443833  28.4194083  12.7840113  33.0393833  28.0884083
  12.1380113  32.0013833  28.7084083  12.7870113  32.3263833  28.4134083
  17.8300113  49.0933833  22.4894083  17.8410113  49.1523833  23.3594083
  17.4050113  48.3463833  22.3394083  17.7690113  48.9913833  22.5954083
  15.9880113  34.9883833  15.6444083  16.1140113  34.6593833  14.8464083
  15.1760113  34.7393833  15.8434083  15.8870113  34.9033833  15.5564083
  24.7450113  42.1413833  18.6884083  24.8210113  42.4823833  19.4874083
  24.9140113  41.2943833  18.8094083  24.7810113  42.0663833  18.8244083
  22.2670113  41.4153833  18.2534083  21.9690113  41.1003833  19.0104083
  22.9620113  41.8883833  18.4884083  22.3260113  41.4383833  18.4004083
  22.4890113  45.5333833  26.2804083  23.1760113  45.4193833  26.8054083
  22.6230113  46.3243833  25.9364083  22.6100113  45.6333833  26.3074083
  30.6650113  38.1423833  28.0914083  29.8100113  38.0203833  28.2174083
  30.8180113  37.7473833  27.3284083  30.5610113  38.0653833  27.9974083
  25.1780113  38.8073833  26.6674083  24.9230113  38.0883833  27.0894083
  25.9990113  38.9233833  26.9374083  25.2620113  38.7183833  26.7694083
  14.5940113  48.5913833  27.9314083  13.9400113  48.0223833  28.0294083
  14.2190113  49.3643833  28.0824083  14.4420113  48.6213833  27.9684083
  23.1120113  39.9973833  29.8544083  23.4350113  40.6833833  29.4224083
  22.4080113  40.3203833  30.2564083  23.0550113  40.1463833  29.8494083
  26.1960113  48.3713833  20.7834083  25.7450113  49.0143833  21.1624083
  26.9040113  48.2923833  21.2884083  26.2340113  48.4543833  20.9144083
  22.8970113  43.4613833  23.7134083  22.2030113  43.8633833  24.0564083
  23.5740113  43.8943833  24.0524083  22.8940113  43.5843833  23.8144083
  28.2740113  46.0543833  30.2934083  29.0500113  45.6643833  30.3764083
  27.8050113  45.7183833  30.9484083  28.3190113  45.9473833  30.4024083
  15.9650113  36.9993833  26.0604083  16.3400113  37.6183833  25.5734083
  16.6390113  36.5253833  26.3454083  16.1200113  37.0213833  26.0304083
  13.7400113  35.4473833  25.3354083  13.8170113  35.2783833  24.4824083
  14.4860113  35.8533833  25.5324083  13.8610113  35.4823833  25.2384083
  29.2990113  38.0873833  15.7754083  29.4020113  38.0293833  14.9114083
  30.0400113  37.7553833  16.0934083  29.4240113  38.0303833  15.6944083
  16.2940113  32.8573833  27.7464083  16.2130113  32.0133833  27.9524083
  15.9800113  32.9013833  26.9334083  16.2360113  32.7393833  27.6564083
  23.2190113  45.0523833  16.8824083  23.0140113  45.8853833  16.7234083
  22.4440113  44.6703833  17.0044083  23.0740113  45.1193833  16.8774083
  28.4010113  38.2333833  25.1314083  28.3990113  37.3703833  25.2554083
  28.4680113  38.5573833  25.9384083  28.4110113  38.1533833  25.2684083
  13.1370113  40.6733833  25.5594083  13.4570113  40.8923833  24.7784083
  13.0370113  39.8083833  25.5044083  13.1690113  40.5783833  25.4364083
  14.5930113  36.6093833  12.1774083  13.9210113  36.6233833  12.7334083
  14.6880113  35.7613833  11.9934083  14.5080113  36.4863833  12.2324083
  24.2800113  33.0333833  28.9134083  24.3720113  33.7453833  29.4074083
  23.6430113  32.5883833  29.3104083  24.1990113  33.0723833  29.0454083
  23.2740113  33.2233833  19.7674083  22.5740113  33.7413833  19.7114083
  23.3120113  32.8433833  18.9834083  23.1760113  33.2443833  19.6434083
  18.5810113  45.3143833  13.2914083  19.0220113  45.3943833  14.0394083
  17.7760113  45.0983833  13.5494083  18.5270113  45.2943833  13.4404083
  26.8720113  33.7393833  22.5674083  27.7270113  33.8383833  22.7124083
  26.5030113  34.2923833  23.1324083  26.9440113  33.8363833  22.6724083
  17.9000113  39.9653833  26.9444083  17.5040113  40.7393833  27.0194083
  17.4940113  39.5923833  26.2684083  17.7820113  40.0243833  26.8554083
  27.1760113  39.0193833  21.0584083  27.8420113  39.5603833  21.2184083
  26.8310113  39.3303833  20.3194083  27.2230113  39.1453833  20.9734083
  27.4890113  47.0853833  16.8654083  27.3150113  46.4313833  17.4154083
  28.2020113  46.8143833  16.4424083  27.5690113  46.9483833  16.8844083
  15.9100113  44.3843833  13.8924083  15.6660113  44.0773833  14.6724083
  15.8770113  43.6813833  13.3764083  15.8690113  44.2353833  13.9314083
  18.7290113  42.6293833  12.6354083  17.9110113  42.3613833  12.7754083
  18.7010113  43.4813833  12.8204083  18.6040113  42.7163833  12.6834083
  18.3290113  32.9423833  24.3944083  17.4650113  33.0263833  24.4744083
  18.5490113  32.4283833  25.0634083  18.2340113  32.8793833  24.5054083
  30.3470113  31.5773833  25.7234083  30.2950113  31.5333833  26.5934083
  31.0340113  31.0743833  25.5334083  30.4410113  31.4973833  25.8234083
  22.4320113  33.6903833  22.7684083  21.6950113  33.2363833  22.8814083
  23.0030113  33.2883833  23.2914083  22.4070113  33.5633833  22.8624083
  25.1640113  44.5383833  24.5564083  25.3700113  44.8393833  25.3484083
  25.1030113  45.2603833  24.0714083  25.1850113  44.6893833  24.6014083
  24.6980113  48.7523833  28.8024083  23.9450113  48.7343833  28.3614083
  24.8660113  49.6043833  28.8864083  24.6120113  48.8753833  28.7494083
  19.9350113  38.0193833  27.9724083  19.6130113  37.4433833  27.4024083
  19.5760113  38.7743833  27.7264083  19.8350113  38.0453833  27.8524083
  20.7310113  31.2713833  12.5994083  20.8090113  31.5183833  11.7664083
  19.9880113  31.6483833  12.8574083  20.6330113  31.3633833  12.5144083
  29.9760113  43.1773833  24.0144083  29.9440113  42.3153833  23.8794083
  29.2830113  43.4793833  23.5804083  29.8690113  43.0943833  23.9304083
  18.3700113  48.3753833  28.2204083  18.4110113  48.5013833  29.0834083
  19.0210113  47.8153833  28.0644083  18.4720113  48.3113833  28.3254083
  28.0810113  46.4373833  22.8114083  28.6080113  46.3543833  22.1204083
  27.6900113  45.6593833  22.8654083  28.1010113  46.3103833  22.7174083
  15.5490113  33.0253833  25.0424083  15.2060113  32.2583833  24.8084083
  14.8540113  33.5493833  25.1064083  15.3960113  32.9893833  25.0174083
  24.5950113  31.8813833  22.0194083  25.2650113  32.4253833  22.1464083
  24.0920113  32.3053833  21.4464083  24.6200113  32.0243833  21.9534083
  15.9630113  46.7583833  29.5804083  16.5580113  47.1893833  30.0524083
  15.5990113  47.3823833  29.0914083  15.9970113  46.9143833  29.5774083
  23.9540113  37.6893833  19.5124083  24.5050113  37.0823833  19.8124083
  23.5290113  37.9523833  20.2274083  23.9730113  37.6383833  19.6614083
  14.2020113  36.3393833  18.9984083  13.8340113  36.6413833  19.7294083
  14.7360113  35.7103833  19.2824083  14.2260113  36.2913833  19.1484083
  13.8900113  44.7473833  26.5094083  13.3160113  45.1633833  27.0184083
  14.6230113  45.2123833  26.6044083  13.9140113  44.8773833  26.5984083
  25.9240113  39.5203833  16.0744083  25.9920113  38.6703833  16.2554083
  25.1010113  39.6063833  15.7964083  25.8120113  39.4073833  16.0604083
  15.6760113  48.0143833  15.2844083  15.5310113  48.1703833  14.4384083
  16.5420113  48.0933833  15.3624083  15.7830113  48.0493833  15.1714083
  19.8430113  40.4113833  15.0124083  19.9430113  40.5503833  14.1574083
  20.6610113  40.3513833  15.3084083  19.9780113  40.4223833  14.9294083
  29.0030113  48.4753833  12.4924083  29.6400113  48.3413833  13.0734083
  28.6620113  47.6813833  12.3754083  29.0470113  48.3383833  12.5604083
  29.1980113  40.8933833  29.2254083  29.8320113  40.7233833  29.7994083
  29.6150113  41.2963833  28.5734083  29.3530113  40.9283833  29.2144083
  25.0780113  44.7403833  14.8144083  24.8270113  44.6123833  15.6404083
  24.7610113  44.0453833  14.3934083  24.9940113  44.6193833  14.8744083
  29.8230113  35.4573833  29.9634083  29.6270113  36.1013833  30.5184083
  29.1010113  34.9673833  29.9554083  29.6880113  35.4803833  30.0444083
  29.7220113  36.3983833  22.9344083  28.8890113  36.6483833  22.8624083
  29.6660113  35.5583833  23.1634083  29.5910113  36.3113833  22.9574083
  18.9820113  33.3863833  28.1284083  19.2160113  32.8103833  27.5154083
  18.1400113  33.2053833  28.2694083  18.8920113  33.2743833  28.0584083
  26.6090113  41.0043833  30.5804083  27.4800113  40.9683833  30.5444083
  26.3900113  41.4243833  29.8484083  26.7060113  41.0603833  30.4674083
  16.3630113  46.8293833  21.7614083  16.2840113  46.0193833  21.4454083
  15.9190113  47.3163833  21.1894083  16.2860113  46.7813833  21.6304083
  21.9640113  42.9483833  14.2444083  22.6810113  42.6013833  13.8884083
  21.9300113  43.7483833  13.8964083  22.0650113  43.0153833  14.1404083
  13.9350113  49.0733833  25.3424083  14.4280113  49.0173833  26.0604083
  14.1230113  48.3403833  24.9074083  14.0360113  48.9563833  25.3844083
  23.1820113  38.5053833   3.1541673  22.6580113  39.1013833   3.5171673
  23.5790113  38.1373833   3.8381673  23.1630113  38.5393833   3.3091673
  12.9910113  45.3803833   4.8651673  13.1200113  45.1003833   5.6811673
  12.3810113  44.8393833   4.5561673  12.9200113  45.2593833   4.9401673
  19.5650113  42.9053833   9.9321673  19.3290113  42.9023833  10.7721673
  18.8170113  42.7573833   9.5081673  19.4190113  42.8823833   9.9931673
  18.9450113  35.5113833   4.4141673  19.6230113  35.5293833   3.8651673
  18.9000113  34.6753833   4.6591673  19.0380113  35.3903833   4.3691673
  19.5470113  46.0973833   7.1951673  19.6850113  46.8573833   6.7881673
  20.3380113  45.7323833   7.2221673  19.6840113  46.1563833   7.1391673
  22.6670113  37.5623833   9.2501673  21.8190113  37.4633833   9.0721673
  22.6960113  38.3073833   9.7041673  22.5460113  37.6583833   9.2911673
  27.2250113  30.5223833   8.3641673  27.0670113  31.2913833   7.9821673
  26.4530113  30.3023833   8.7081673  27.0870113  30.6033833   8.3591673
  12.8930113  37.6623833   2.0801673  12.6370113  38.4933833   2.0051673
  12.2290113  37.2793833   2.4971673  12.7570113  37.7283833   2.1311673
  15.9220113  32.4793833   2.5711673  15.4010113  31.8513833   2.2631673
  16.5130113  32.0423833   3.0421673  15.9330113  32.3213833   2.5951673
  19.2280113  34.6123833  11.8691673  19.3450113  34.1583833  11.1331673
  19.5160113  35.4103833  11.6661673  19.2880113  34.6633833  11.7301673
  25.3930113  47.9063833   5.2771673  26.1370113  48.3623833   5.2671673
  25.2720113  47.6923833   4.4401673  25.4850113  47.9423833   5.1521673
  14.9610113  34.2093833  10.8531673  14.1830113  33.8193833  10.7811673
  15.4520113  33.7973833  10.2621673  14.9180113  34.0903833  10.7551673
  21.6100113  31.8523833  10.0211673  21.7880113  31.0433833   9.7461673
  21.4670113  32.2933833   9.2821673  21.6150113  31.7983833   9.8711673
  17.3950113  48.6003833   6.4471673  17.6870113  48.5333833   7.2671673
  16.7690113  47.9953833   6.4021673  17.3460113  48.5013833   6.5621673
  29.7560113  33.4593833   4.5421673  30.5130113  33.5313833   4.1141673
  29.8190113  32.6863833   4.9411673  29.8770113  33.3563833   4.5371673
  12.3090113  34.7573833   8.4391673  12.3050113  35.3443833   9.0851673
  12.9030113  35.0693833   7.8821673  12.3960113  34.8903833   8.4521673
  24.6470113  45.0913833   8.9811673  24.6130113  45.4733833   9.7651673
  25.5010113  45.0493833   8.8101673  24.7680113  45.1413833   9.0721673
  15.3880113  46.7623833   5.5691673  14.6900113  46.2543833   5.6951673
  15.6480113  46.5573833   4.7611673  15.3230113  46.6573833   5.4681673
  23.0990113  48.2553833   6.4791673  23.8670113  48.1753833   6.0731673
  22.5160113  48.1343833   5.8411673  23.1260113  48.2253833   6.3251673
  16.7490113  45.6133833   8.1361673  17.5900113  45.6763833   7.9141673
  16.7120113  46.0103833   8.9121673  16.8680113  45.6813833   8.2181673
  18.7120113  41.1243833   2.8851673  18.8840113  40.9143833   3.7141673
  18.0570113  40.5903833   2.6691673  18.6410113  41.0143833   2.9761673
  24.9400113  35.0383833   6.4001673  24.8450113  35.3573833   7.2061673
  24.3470113  34.3993833   6.3621673  24.8380113  34.9903833   6.5141673
  19.4620113  41.0623833   5.4751673  19.5150113  41.9093833   5.6771673
  19.1770113  40.6923833   6.2121673  19.4280113  41.1323833   5.6131673
  25.6390113  41.7573833   4.6051673  25.1250113  41.3453833   5.1761673
  25.5130113  42.6013833   4.7861673  25.5450113  41.8213833   4.7161673
  12.2830113  45.4333833  11.6861673  13.0390113  45.7823833  11.9441673
  12.4600113  44.5803833  11.6291673  12.4210113  45.3583833  11.7161673
  28.6600113  35.2183833   7.5441673  29.4320113  34.9933833   7.8811673
  28.1850113  35.4353833   8.2441673  28.7040113  35.2173833   7.6971673
  14.3450113  35.6033833   3.5961673  15.1880113  35.8233833   3.5531673
  13.9560113  36.1763833   3.0651673  14.4120113  35.7203833   3.5111673
  31.1260113  46.7053833   8.9861673  30.4440113  47.0153833   8.5391673
  30.7570113  46.2473833   9.6311673  30.9700113  46.6833833   9.0151673
  20.1990113  37.2883833  11.7141673  19.7150113  37.8653833  12.1561673
  20.1710113  37.5833833  10.8931673  20.1230113  37.4173833  11.6581673
  31.2970113  37.9723833   6.3261673  31.5120113  37.1723833   6.0501673
  30.4470113  38.0323833   6.1371673  31.2030113  37.8633833   6.2571673
  16.9940113  43.4263833   3.3851673  17.4610113  43.7153833   4.0631673
  17.5660113  42.9483833   2.9311673  17.1480113  43.3983833   3.4181673
  28.9600113  47.0873833   7.0761673  28.2890113  47.6013833   7.2941673
  29.0230113  47.1873833   6.2121673  28.8700113  47.1783833   6.9811673
  15.7740113  38.0953833  10.0731673  15.2380113  37.5893833  10.5411673
  15.7940113  37.7053833   9.2931673  15.6970113  37.9623833  10.0271673
  16.8560113  39.0593833   5.2801673  16.8810113  38.3843833   4.7291673
  16.2100113  39.5553833   4.9681673  16.7650113  39.0323833   5.1531673
  26.7510113  36.7723833   3.6761673  26.0890113  37.1003833   4.1391673
  26.9380113  37.4063833   3.1071673  26.6810113  36.9143833   3.6601673
  20.9560113  47.8363833   4.6721673  20.6790113  47.1953833   4.1491673
  20.7480113  48.5623833   4.2341673  20.8850113  47.8493833   4.5301673
  23.3960113  32.6783833   7.1051673  23.5450113  31.8533833   6.8621673
  23.7750113  32.7333833   7.8891673  23.4740113  32.5643833   7.1851673
  14.6550113  40.4143833  10.8391673  14.6180113  40.9153833  10.1251673
  14.9860113  39.6623833  10.5441673  14.6980113  40.3763833  10.6901673
  26.2580113  42.6193833   9.0971673  26.7420113  43.3373833   9.1951673
  26.6520113  42.1923833   8.4461673  26.3880113  42.6623833   9.0151673
  20.5540113  45.4643833  10.2741673  20.9080113  45.2863833  11.0511673
  20.1180113  44.7353833  10.0751673  20.5420113  45.3303833  10.3601673
  21.5260113  36.2113833   2.9121673  22.0060113  36.9103833   3.1201673
  21.8990113  35.5643833   3.3631673  21.6520113  36.2193833   3.0091673
  24.7320113  46.3163833   3.0111673  24.1290113  46.0203833   2.4541673
  25.2770113  46.7683833   2.5021673  24.7230113  46.3393833   2.8531673
  24.7450113  43.1673833   2.4111673  23.9480113  43.3913833   2.6851673
  25.0030113  42.5733833   2.9961673  24.6650113  43.1123833   2.5381673
  28.0050113  41.1653833   7.2571673  28.0600113  41.2903833   6.3951673
  28.7580113  41.4853833   7.5591673  28.1240113  41.2303833   7.1741673
  24.1960113  46.5143833  11.5341673  24.3600113  46.7973833  12.3431673
  24.4590113  47.1753833  11.0291673  24.2590113  46.6543833  11.5791673
  29.0370113  31.4633833  10.2441673  28.4000113  31.0633833   9.8021673
  29.0630113  31.0323833  11.0021673  28.9470113  31.3413833  10.2901673
  23.7360113  40.9713833   6.8571673  23.5810113  41.5813833   7.4611673
  24.2700113  40.4133833   7.2631673  23.7920113  40.9793833   7.0061673
  27.3460113  43.7003833   3.3841673  26.8670113  43.9983833   2.7181673
  26.9900113  42.9243833   3.5621673  27.2230113  43.6293833   3.3121673
  21.3430113  41.4183833   1.9461673  20.4960113  41.2243833   2.0271673
  21.6670113  41.2533833   2.7391673  21.2650113  41.3653833   2.0751673
  15.1910113  41.1113833   4.2621673  15.9130113  41.5993833   4.2251673
  14.9210113  41.0813833   3.4331673  15.2580113  41.1793833   4.1341673
  28.2770113  40.6423833   4.5031673  28.2700113  39.8663833   4.9011673
  27.4360113  40.8763833   4.4961673  28.1520113  40.5623833   4.5611673
  14.5860113  42.1633833   8.5401673  14.1650113  41.6453833   7.9791673
  14.2340113  42.9493833   8.3971673  14.4720113  42.2033833   8.4361673
  29.5330113  40.7133833   1.9401673  29.2470113  41.1143833   2.6601673
  30.3930113  40.6513833   2.0671673  29.6180113  40.7633833   2.0651673
  27.1950113  34.6373833  10.4801673  26.6700113  35.0963833  11.0041673
  26.8340113  33.8423833  10.4741673  27.0640113  34.5873833  10.5561673
  30.6640113  46.3463833   2.4691673  30.9540113  46.6033833   1.6881673
  31.3590113  46.4423833   2.9881673  30.8100113  46.3983833   2.4301673
  25.6870113  38.2063833  10.5561673  25.7600113  38.3103833  11.4191673
  25.0530113  38.7643833  10.3351673  25.6040113  38.3043833  10.6511673
  27.9550113  38.5253833   8.9211673  28.2740113  39.3113833   9.1241673
  27.5850113  38.2553833   9.6641673  27.9480113  38.6013833   9.0611673
  30.6530113  39.0673833  11.6561673  30.6010113  38.7263833  10.8551673
  31.3900113  39.5343833  11.6341673  30.7540113  39.0863833  11.5341673
  30.1910113  42.7433833   7.8621673  30.8190113  42.1943833   7.6061673
  30.1300113  43.3083833   7.2001673  30.2750113  42.7463833   7.7261673
  19.3250113  43.9743833   5.1581673  19.0270113  44.5663833   5.7251673
  19.3800113  44.4163833   4.4091673  19.2890113  44.1273833   5.1311673
  17.3040113  42.9243833   8.5561673  16.4980113  42.6343833   8.7231673
  17.2150113  43.7923833   8.5621673  17.1720113  43.0093833   8.5811673
  26.6630113  33.1133833   7.5711673  27.4070113  33.5653833   7.5081673
  26.0970113  33.5833833   7.1021673  26.6900113  33.2503833   7.4931673
  21.8410113  40.3973833   4.6491673  22.3170113  40.7713833   5.2771673
  21.0180113  40.5313833   4.9081673  21.7900113  40.4723833   4.7801673
  18.5510113  36.0003833   7.3901673  18.7120113  35.2563833   7.8171673
  18.5060113  35.7513833   6.5551673  18.5680113  35.8533833   7.3301673
  27.9480113  31.0933833   5.2411673  27.6680113  31.9183833   5.1971673
  28.6640113  31.1463833   5.7371673  28.0130113  31.2233833   5.3081673
  20.3030113  31.8083833   7.2701673  21.0080113  32.1283833   6.8681673
  20.5440113  31.0013833   7.4971673  20.4420113  31.7363833   7.2441673
  19.2880113  46.0183833   3.2661673  18.6640113  46.6003833   3.0841673
  19.5360113  45.7323833   2.4801673  19.2320113  46.0623833   3.1231673
  23.5970113  42.6523833  10.2551673  24.3540113  42.9383833   9.9291673
  23.0500113  42.7043833   9.5771673  23.6280113  42.7023833  10.1061673
  27.5060113  45.2023833   8.7591673  27.8520113  45.4723833   9.5131673
  27.8000113  45.7843833   8.1791673  27.6010113  45.3283833   8.7851673
  16.8120113  36.8613833   3.3311673  17.2520113  36.7583833   2.5851673
  17.3570113  36.5483833   3.9361673  16.9570113  36.8003833   3.3101673
  24.8280113  35.9633833   8.9231673  24.1800113  36.4333833   9.2711673
  25.3930113  35.8743833   9.5821673  24.8160113  36.0193833   9.0721673
  24.5160113  37.5003833   5.2211673  24.8180113  37.9203833   5.9241673
  24.5520113  36.6603833   5.4531673  24.5660113  37.4383833   5.3591673
  21.9410113  47.6673833   9.1461673  22.4190113  47.0673833   8.7301673
  21.5900113  47.2243833   9.8111673  21.9600113  47.5133833   9.1831673
  20.3590113  31.8463833   3.3781673  19.5330113  31.6973833   3.6151673
  20.3190113  31.8813833   2.5071673  20.2310113  31.8293833   3.2841673
  22.0000113  42.8863833   8.1661673  21.2050113  42.8223833   8.5171673
  22.0710113  43.7333833   7.9711673  21.8930113  43.0013833   8.1891673
  12.9240113  32.2443833   9.4131673  12.7840113  33.0393833   9.0821673
  12.1380113  32.0013833   9.7021673  12.7870113  32.3263833   9.4071673
  17.8300113  49.0933833   3.4831673  17.8410113  49.1523833   4.3531673
  17.4050113  48.3463833   3.3331673  17.7690113  48.9913833   3.5891673
  22.4890113  45.5333833   7.2741673  23.1760113  45.4193833   7.7991673
  22.6230113  46.3243833   6.9301673  22.6100113  45.6333833   7.3011673
  30.6650113  38.1423833   9.0851673  29.8100113  38.0203833   9.2111673
  30.8180113  37.7473833   8.3221673  30.5610113  38.0653833   8.9911673
  25.1780113  38.8073833   7.6611673  24.9230113  38.0883833   8.0831673
  25.9990113  38.9233833   7.9311673  25.2620113  38.7183833   7.7631673
  14.5940113  48.5913833   8.9251673  13.9400113  48.0223833   9.0231673
  14.2190113  49.3643833   9.0761673  14.4420113  48.6213833   8.9621673
  23.1120113  39.9973833  10.8481673  23.4350113  40.6833833  10.4161673
  22.4080113  40.3203833  11.2501673  23.0550113  40.1463833  10.8431673
  26.1960113  48.3713833   1.7771673  25.7450113  49.0143833   2.1561673
  26.9040113  48.2923833   2.2821673  26.2340113  48.4543833   1.9081673
  22.8970113  43.4613833   4.7071673  22.2030113  43.8633833   5.0501673
  23.5740113  43.8943833   5.0461673  22.8940113  43.5843833   4.8081673
  28.2740113  46.0543833  11.2871673  29.0500113  45.6643833  11.3701673
  27.8050113  45.7183833  11.9421673  28.3190113  45.9473833  11.3961673
  15.9650113  36.9993833   7.0541673  16.3400113  37.6183833   6.5671673
  16.6390113  36.5253833   7.3391673  16.1200113  37.0213833   7.0241673
  13.7400113  35.4473833   6.3291673  13.8170113  35.2783833   5.4761673
  14.4860113  35.8533833   6.5261673  13.8610113  35.4823833   6.2321673
  16.2940113  32.8573833   8.7401673  16.2130113  32.0133833   8.9461673
  15.9800113  32.9013833   7.9271673  16.2360113  32.7393833   8.6501673
  28.4010113  38.2333833   6.1251673  28.3990113  37.3703833   6.2491673
  28.4680113  38.5573833   6.9321673  28.4110113  38.1533833   6.2621673
  13.1370113  40.6733833   6.5531673  13.4570113  40.8923833   5.7721673
  13.0370113  39.8083833   6.4981673  13.1690113  40.5783833   6.4301673
  24.2800113  33.0333833   9.9071673  24.3720113  33.7453833  10.4011673
  23.6430113  32.5883833  10.3041673  24.1990113  33.0723833  10.0391673
  26.8720113  33.7393833   3.5611673  27.7270113  33.8383833   3.7061673
  26.5030113  34.2923833   4.1261673  26.9440113  33.8363833   3.6661673
  17.9000113  39.9653833   7.9381673  17.5040113  40.7393833   8.0131673
  17.4940113  39.5923833   7.2621673  17.7820113  40.0243833   7.8491673
  18.3290113  32.9423833   5.3881673  17.4650113  33.0263833   5.4681673
  18.5490113  32.4283833   6.0571673  18.2340113  32.8793833   5.4991673
  30.3470113  31.5773833   6.7171673  30.2950113  31.5333833   7.5871673
  31.0340113  31.0743833   6.5271673  30.4410113  31.4973833   6.8171673
  22.4320113  33.6903833   3.7621673  21.6950113  33.2363833   3.8751673
  23.0030113  33.2883833   4.2851673  22.4070113  33.5633833   3.8561673
  25.1640113  44.5383833   5.5501673  25.3700113  44.8393833   6.3421673
  25.1030113  45.2603833   5.0651673  25.1850113  44.6893833   5.5951673
  24.6980113  48.7523833   9.7961673  23.9450113  48.7343833   9.3551673
  24.8660113  49.6043833   9.8801673  24.6120113  48.8753833   9.7431673
  19.9350113  38.0193833   8.9661673  19.6130113  37.4433833   8.3961673
  19.5760113  38.7743833   8.7201673  19.8350113  38.0453833   8.8461673
  29.9760113  43.1773833   5.0081673  29.9440113  42.3153833   4.8731673
  29.2830113  43.4793833   4.5741673  29.8690113  43.0943833   4.9241673
  18.3700113  48.3753833   9.2141673  18.4110113  48.5013833  10.0771673
  19.0210113  47.8153833   9.0581673  18.4720113  48.3113833   9.3191673
  28.0810113  46.4373833   3.8051673  28.6080113  46.3543833   3.1141673
  27.6900113  45.6593833   3.8591673  28.1010113  46.3103833   3.7111673
  15.5490113  33.0253833   6.0361673  15.2060113  32.2583833   5.8021673
  14.8540113  33.5493833   6.1001673  15.3960113  32.9893833   6.0111673
  24.5950113  31.8813833   3.0131673  25.2650113  32.4253833   3.1401673
  24.0920113  32.3053833   2.4401673  24.6200113  32.0243833   2.9471673
  15.9630113  46.7583833  10.5741673  16.5580113  47.1893833  11.0461673
  15.5990113  47.3823833  10.0851673  15.9970113  46.9143833  10.5711673
  13.8900113  44.7473833   7.5031673  13.3160113  45.1633833   8.0121673
  14.6230113  45.2123833   7.5981673  13.9140113  44.8773833   7.5921673
  29.1980113  40.8933833  10.2191673  29.8320113  40.7233833  10.7931673
  29.6150113  41.2963833   9.5671673  29.3530113  40.9283833  10.2081673
  29.8230113  35.4573833  10.9571673  29.6270113  36.1013833  11.5121673
  29.1010113  34.9673833  10.9491673  29.6880113  35.4803833  11.0381673
  29.7220113  36.3983833   3.9281673  28.8890113  36.6483833   3.8561673
  29.6660113  35.5583833   4.1571673  29.5910113  36.3113833   3.9511673
  18.9820113  33.3863833   9.1221673  19.2160113  32.8103833   8.5091673
  18.1400113  33.2053833   9.2631673  18.8920113  33.2743833   9.0521673
  26.6090113  41.0043833  11.5741673  27.4800113  40.9683833  11.5381673
  26.3900113  41.4243833  10.8421673  26.7060113  41.0603833  11.4611673
  16.3630113  46.8293833   2.7551673  16.2840113  46.0193833   2.4391673
  15.9190113  47.3163833   2.1831673  16.2860113  46.7813833   2.6241673
  13.9350113  49.0733833   6.3361673  14.4280113  49.0173833   7.0541673
  14.1230113  48.3403833   5.9011673  14.0360113  48.9563833   6.3781673
  23.3730113  13.1112753  74.5081313  23.1280113  13.5992753  73.8281313
  24.2360113  13.0382753  74.4081313  23.4640113  13.1722753  74.3931313
  13.0510113  24.1672753  74.6351313  12.6100113  24.2852753  75.3781313
  12.7680113  23.3922753  74.3501313  12.9440113  24.0702753  74.7031313
  29.3260113  27.4682753  72.1501313  30.0270113  26.9492753  72.1461313
  28.7390113  27.0232753  71.6811313  29.3430113  27.3252753  72.0801313
  12.7940113  17.9592753  71.1421313  12.0160113  18.1212753  70.7821313
  12.8330113  17.0882753  71.1641313  12.6850113  17.8542753  71.0921313
  15.9330113  23.2222753  69.8141313  15.5410113  22.8512753  69.1281313
  15.8530113  22.6242753  70.4431313  15.8630113  23.0792753  69.8051313
  25.8530113  21.0942753  75.8551313  25.9330113  21.0982753  74.9861313
  25.2690113  20.4622753  76.0041313  25.7780113  21.0012753  75.7491313
  15.5600113  24.8632753  73.7141313  16.1680113  24.6932753  74.3171313
  14.8090113  24.7232753  74.1351313  15.5390113  24.8172753  73.8651313
  19.8420113  14.1982753  73.6631313  19.7720113  14.8752753  73.1171313
  20.5830113  13.8102753  73.4141313  19.9410113  14.2412753  73.5451313
  14.4510113  27.9542753  69.7911313  14.9180113  28.0382753  69.0591313
  14.9060113  27.3762753  70.2601313  14.5870113  27.8812753  69.7521313
  14.4370113  21.4232753  75.0921313  13.9750113  21.0312753  74.4651313
  15.1370113  20.9102753  75.1841313  14.4720113  21.2902753  75.0131313
  16.4380113  19.5232753  75.1151313  17.2550113  19.3362753  75.3581313
  15.9610113  18.9092753  75.5111313  16.4880113  19.4052753  75.2101313
  20.6420113  25.5042753  77.7251313  20.9900113  24.7052753  77.7551313
  21.3070113  26.0082753  77.4701313  20.7920113  25.4602753  77.6921313
  20.6990113  24.9532753  73.9361313  21.0300113  24.3092753  74.4221313
  20.9390113  24.7422753  73.1251313  20.7830113  24.8272753  73.8881313
  17.0350113  14.6172753  74.3811313  16.7390113  15.1182753  73.7311313
  17.9020113  14.6952753  74.3241313  17.1190113  14.7032753  74.2771313
  20.0140113  13.7592753  76.6041313  20.0870113  14.6192753  76.7331313
  19.9760113  13.6842753  75.7361313  20.0190113  13.8752753  76.4951313
  24.6870113  16.6852753  68.9031313  24.2370113  17.3662753  69.2101313
  24.8010113  16.1812753  69.6061313  24.6380113  16.7112753  69.0521313
  12.8930113  19.1842753  78.1051313  12.6370113  20.0152753  78.0301313
  12.2290113  18.8012753  78.5221313  12.7570113  19.2502753  78.1561313
  12.8030113  28.8942753  76.0051313  12.2110113  29.4522753  75.6921313
  13.2290113  28.6252753  75.2931313  12.7790113  28.9362753  75.8541313
  18.6430113  26.7382753  73.4851313  18.0640113  26.4632753  74.0771313
  19.2670113  26.1292753  73.5101313  18.6500113  26.6082753  73.5761313
  24.7860113  29.0262753  71.0071313  25.5130113  29.4982753  71.1091313
  25.0150113  28.2322753  71.2871313  24.9280113  28.9792753  71.0641313
  22.9540113  29.4182753  72.9971313  23.1680113  29.9452753  73.6591313
  23.7210113  29.2442753  72.6181313  23.0990113  29.4702753  73.0391313
  14.3480113  27.5642753  73.9361313  15.0040113  26.9892753  73.9511313
  14.7370113  28.3132753  73.7151313  14.5030113  27.5892753  73.9061313
  30.0810113  16.6582753  75.1981313  29.7350113  17.3362753  75.6241313
  29.4450113  16.0602753  75.2141313  29.9360113  16.6702753  75.2631313
  15.1660113  26.0512753  77.4361313  15.5890113  25.6952753  76.7621313
  15.4900113  25.6292753  78.1281313  15.2760113  25.9362753  77.4391313
  18.3970113  28.9032753  76.7321313  19.2410113  29.0072753  76.5371313
  18.1000113  29.7212753  76.8001313  18.4780113  29.0392753  76.7131313
  22.2040113  18.3002753  74.8191313  22.4910113  18.0682753  74.0291313
  22.9360113  18.3792753  75.2881313  22.3540113  18.2772753  74.7721313
  22.9260113  18.6392753  69.9401313  23.2070113  19.4272753  70.1891313
  22.1500113  18.8042753  69.5771313  22.8530113  18.7802753  69.9231313
  26.9670113  30.6132753  71.4071313  27.6320113  30.4652753  70.8621313
  27.3270113  30.5302753  72.1971313  27.1190113  30.5792753  71.4431313
  21.7850113  26.8102753  69.7561313  21.6040113  27.3552753  70.4131313
  22.5510113  27.1002753  69.4551313  21.8710113  26.9342753  69.8091313
  25.2920113  14.7062753  70.8101313  25.8320113  14.0242753  70.8861313
  25.3540113  15.1042753  71.5841313  25.3810113  14.6642753  70.9361313
  13.2460113  15.8742753  73.3791313  13.1320113  15.0102753  73.4101313
  12.7710113  16.1682753  74.0491313  13.1590113  15.7902753  73.4821313
  22.5500113  17.0822753  72.1241313  22.0420113  16.4202753  71.8701313
  22.6020113  17.5862753  71.4141313  22.4830113  17.0592753  71.9821313
  22.5500113  14.0232753  72.0151313  22.0950113  13.6212753  71.3891313
  23.3230113  14.1782753  71.6401313  22.5970113  13.9872753  71.8671313
  29.3760113  30.3802753  75.4051313  28.9210113  31.0972753  75.6061313
  28.7620113  29.8092753  75.1631313  29.2180113  30.4022753  75.3991313
  21.1480113  16.3902753  76.5371313  21.2220113  16.9582753  75.8791313
  21.2690113  16.8822753  77.2471313  21.1760113  16.5472753  76.5451313
  26.3730113  26.2252753  74.9491313  27.0740113  25.7432753  75.1381313
  25.7130113  25.6562753  74.9941313  26.3790113  26.0702753  74.9831313
  15.7560113  12.2132753  74.8851313  16.2920113  12.9012753  74.8751313
  15.7590113  11.9392753  74.0571313  15.8350113  12.2742753  74.7611313
  26.1960113  12.5042753  75.2611313  26.2450113  12.1862753  76.0721313
  26.5190113  11.8602753  74.7681313  26.2510113  12.3622753  75.3081313
  16.2040113  16.0232753  76.5391313  16.4760113  15.5932753  75.8311313
  16.0280113  15.3872753  77.1101313  16.2180113  15.8662753  76.5191313
  28.8920113  23.7182753  70.7571313  29.0110113  23.4312753  71.5721313
  29.6990113  23.7392753  70.4271313  29.0280113  23.6792753  70.8291313
  16.0280113  23.4502753  76.0881313  16.8790113  23.3702753  75.9151313
  15.6710113  22.7682753  75.6761313  16.1010113  23.3372753  76.0011313
  14.7950113  30.1752753  77.3251313  14.1220113  29.6772753  77.0801313
  15.1980113  30.3602753  76.5741313  14.7550113  30.1292753  77.1781313
  26.7870113  20.2552753  70.3421313  26.5670113  20.9862753  69.9201313
  26.3390113  20.3062753  71.0891313  26.6880113  20.3702753  70.3901313
  18.3960113  23.4572753  74.3231313  19.1090113  23.9522753  74.4131313
  18.6180113  22.8902753  73.6971313  18.5340113  23.4462753  74.2441313
  30.9740113  15.1162753  69.7951313  30.3120113  14.5482753  69.8181313
  30.7810113  15.6282753  69.1151313  30.8480113  15.1082753  69.6981313
  12.5520113  25.1002753  77.6431313  11.8850113  25.5882753  77.9191313
  13.2320113  25.6452753  77.6721313  12.5540113  25.2522753  77.6881313
  12.6180113  21.7842753  72.7461313  12.4330113  20.9452753  72.8981313
  13.2770113  21.7482753  72.1761313  12.6880113  21.6552753  72.6841313
  28.9760113  14.6742753  72.0741313  29.7220113  14.2672753  72.2731313
  29.2390113  15.3892753  71.6491313  29.1250113  14.7202753  72.0411313
  22.9190113  27.1602753  76.6501313  22.3960113  27.7942753  76.3571313
  23.2290113  26.7962753  75.9211313  22.8870113  27.2002753  76.4991313
  12.7900113  25.9482753  72.3211313  13.3420113  26.5172753  72.6851313
  12.5580113  25.4332753  72.9861313  12.8370113  25.9562753  72.4731313
  25.4300113  16.9622753  77.1471313  25.7740113  17.1142753  77.9341313
  24.9770113  16.2242753  77.2601313  25.4140113  16.8752753  77.2801313
  12.6200113  24.3972753  69.9491313  13.3760113  23.9652753  70.0071313
  12.6350113  24.9292753  70.6401313  12.7340113  24.4122753  70.0601313
  13.5600113  22.6182753  77.9541313  13.9910113  22.4892753  77.2071313
  13.3550113  23.4662753  77.9281313  13.5930113  22.7242753  77.8401313
  19.9060113  16.1822753  71.6041313  19.9040113  16.0652753  70.7391313
  19.7250113  17.0302753  71.6961313  19.8790113  16.2902753  71.4901313
  17.6440113  26.1342753  76.2361313  17.7700113  26.9772753  76.4231313
  18.3120113  25.7352753  76.6321313  17.7620113  26.2002753  76.3221313
  16.2590113  19.0142753  71.2381313  16.1310113  18.5662753  71.9761313
  15.6770113  18.6722753  70.6861313  16.1540113  18.8972753  71.2661313
  16.4260113  20.8442753  77.8371313  15.6450113  20.7852753  77.4541313
  16.4980113  20.0922753  78.2741313  16.3210113  20.7252753  77.8451313
  24.9440113  16.2632753  73.2121313  25.4340113  16.9802753  73.1351313
  24.1540113  16.5242753  72.9491313  24.9000113  16.4072753  73.1621313
  23.7150113  20.9022753  71.2111313  23.7070113  21.6242753  70.7211313
  23.0760113  21.0372753  71.7881313  23.6200113  21.0292753  71.2241313
  28.6870113  24.7722753  75.1921313  29.0430113  24.4222753  75.9071313
  28.6790113  24.1112753  74.6221313  28.7390113  24.6222753  75.2131313
  24.7450113  24.6892753  78.4361313  23.9480113  24.9132753  78.7101313
  25.0030113  24.0952753  79.0211313  24.6650113  24.6342753  78.5631313
  18.6370113  29.5012753  72.8841313  18.4900113  28.7252753  73.2551313
  19.3260113  29.3542753  72.3691313  18.7170113  29.3642753  72.8631313
  18.3080113  13.2442753  70.8721313  18.4050113  13.1372753  71.7331313
  17.6000113  13.7502753  70.8071313  18.2180113  13.3032753  70.9901313
  20.9290113  29.0172753  71.2861313  21.5510113  29.1802753  71.8761313
  20.9650113  29.7082753  70.7541313  21.0260113  29.1432753  71.2951313
  15.4300113  21.5512753  72.1151313  15.7540113  20.7722753  71.8931313
  16.0760113  21.9192753  72.5701313  15.5730113  21.4902753  72.1491313
  12.4270113  13.2122753  73.0831313  12.5560113  12.5042753  72.5911313
  12.0600113  12.8942753  73.8081313  12.3920113  13.0602753  73.1181313
  22.1200113  20.8932753  73.5401313  22.1790113  21.5432753  74.1191313
  21.9310113  20.1972753  74.0311313  22.1010113  20.8862753  73.6981313
  16.6160113  15.4102753  70.0521313  16.1050113  15.4632753  69.3461313
  17.4000113  15.6502753  69.7561313  16.6560113  15.4532753  69.9041313
  21.3430113  22.9402753  77.9711313  20.4960113  22.7462753  78.0521313
  21.6670113  22.7752753  78.7641313  21.2650113  22.8872753  78.1001313
  18.0950113  29.6702753  68.8571313  18.5340113  28.9732753  69.1451313
  18.3020113  30.2942753  69.4301313  18.1910113  29.6592753  68.9841313
  18.4210113  17.8042753  77.0221313  19.2670113  17.6142753  77.1201313
  18.0510113  17.0272753  76.8841313  18.4910113  17.6612753  77.0161313
  31.0380113  29.3882753  71.3491313  31.7320113  28.9212753  71.1011313
  30.4990113  28.7902753  71.6861313  31.0610113  29.2302753  71.3621313
  13.2420113  19.1422753  73.6771313  13.7310113  18.8502753  74.3381313
  13.3710113  18.5492753  73.0501313  13.3330113  19.0112753  73.6821313
  17.7670113  20.5762753  69.1631313  17.1570113  20.1712753  69.6371313
  17.3810113  20.6942753  68.3901313  17.6200113  20.5332753  69.1191313
  29.5330113  22.2352753  77.9651313  29.2470113  22.6362753  78.6851313
  30.3930113  22.1732753  78.0921313  29.6180113  22.2852753  78.0901313
  19.2220113  19.0372753  71.8731313  19.4940113  19.8632753  71.9401313
  18.3590113  19.1122753  71.7771313  19.1350113  19.1702753  71.8681313
  12.7020113  15.0072753  78.4091313  12.7460113  15.3512753  77.6081313
  13.4570113  15.2442753  78.7761313  12.8200113  15.0932753  78.3451313
  30.6640113  27.8682753  78.4941313  30.9540113  28.1252753  77.7131313
  31.3590113  27.9642753  79.0131313  30.8100113  27.9202753  78.4551313
  27.2690113  26.4712753  70.4761313  27.6030113  25.6652753  70.5111313
  26.5140113  26.3992753  70.9061313  27.2070113  26.3412753  70.5451313
  27.7510113  18.3052753  76.1351313  27.0060113  17.9822753  76.4531313
  27.7530113  19.1312753  76.4151313  27.6410113  18.3792753  76.2231313
  24.6430113  24.3462753  69.8791313  25.3270113  23.8322753  69.7101313
  24.2260113  24.3922753  69.1141313  24.6820113  24.2772753  69.7411313
  21.1050113  29.3122753  75.9021313  21.6510113  29.9912753  75.9561313
  20.7550113  29.3942753  75.1071313  21.1340113  29.4252753  75.7921313
  29.3690113  18.8702753  70.1231313  29.7470113  19.5472753  69.7231313
  28.5270113  19.0942753  70.1541313  29.3000113  19.0032753  70.0681313
  20.8820113  22.3162753  69.2061313  20.0770113  22.1392753  68.9211313
  20.8490113  23.1672753  69.3981313  20.7580113  22.4152753  69.1931313
  27.0640113  18.4692753  73.4981313  27.2710113  18.2682753  74.3221313
  27.8200113  18.7372753  73.1561313  27.2060113  18.4792753  73.5691313
  28.0860113  14.5522753  74.9721313  27.3720113  14.0812753  75.1431313
  27.9240113  14.8932753  74.1861313  27.9570113  14.5332753  74.8811313
  28.5290113  22.4962753  73.3521313  29.0050113  21.7672753  73.3041313
  27.7080113  22.2102753  73.2761313  28.4780113  22.3462753  73.3331313
  15.9880113  16.5102753  72.6631313  16.1140113  16.1812753  71.8651313
  15.1760113  16.2612753  72.8621313  15.8870113  16.4252753  72.5751313
  24.7450113  23.6632753  75.7071313  24.8210113  24.0042753  76.5061313
  24.9140113  22.8162753  75.8281313  24.7810113  23.5882753  75.8431313
  22.2670113  22.9372753  75.2721313  21.9690113  22.6222753  76.0291313
  22.9620113  23.4102753  75.5071313  22.3260113  22.9602753  75.4191313
  26.1960113  29.8932753  77.8021313  25.7450113  30.5362753  78.1811313
  26.9040113  29.8142753  78.3071313  26.2340113  29.9762753  77.9331313
  29.2990113  19.6092753  72.7941313  29.4020113  19.5512753  71.9301313
  30.0400113  19.2772753  73.1121313  29.4240113  19.5522753  72.7131313
  23.2190113  26.5742753  73.9011313  23.0140113  27.4072753  73.7421313
  22.4440113  26.1922753  74.0231313  23.0740113  26.6412753  73.8961313
  14.5930113  18.1312753  69.1961313  13.9210113  18.1452753  69.7521313
  14.6880113  17.2832753  69.0121313  14.5080113  18.0082753  69.2511313
  23.2740113  14.7452753  76.7861313  22.5740113  15.2632753  76.7301313
  23.3120113  14.3652753  76.0021313  23.1760113  14.7662753  76.6621313
  18.5810113  26.8362753  70.3101313  19.0220113  26.9162753  71.0581313
  17.7760113  26.6202753  70.5681313  18.5270113  26.8162753  70.4591313
  27.1760113  20.5412753  78.0771313  27.8420113  21.0822753  78.2371313
  26.8310113  20.8522753  77.3381313  27.2230113  20.6672753  77.9921313
  27.4890113  28.6072753  73.8841313  27.3150113  27.9532753  74.4341313
  28.2020113  28.3362753  73.4611313  27.5690113  28.4702753  73.9031313
  15.9100113  25.9062753  70.9111313  15.6660113  25.5992753  71.6911313
  15.8770113  25.2032753  70.3951313  15.8690113  25.7572753  70.9501313
  18.7290113  24.1512753  69.6541313  17.9110113  23.8832753  69.7941313
  18.7010113  25.0032753  69.8391313  18.6040113  24.2382753  69.7021313
  20.7310113  12.7932753  69.6181313  20.8090113  13.0402753  68.7851313
  19.9880113  13.1702753  69.8761313  20.6330113  12.8852753  69.5331313
  23.9540113  19.2112753  76.5311313  24.5050113  18.6042753  76.8311313
  23.5290113  19.4742753  77.2461313  23.9730113  19.1602753  76.6801313
  14.2020113  17.8612753  76.0171313  13.8340113  18.1632753  76.7481313
  14.7360113  17.2322753  76.3011313  14.2260113  17.8132753  76.1671313
  25.9240113  21.0422753  73.0931313  25.9920113  20.1922753  73.2741313
  25.1010113  21.1282753  72.8151313  25.8120113  20.9292753  73.0791313
  15.6760113  29.5362753  72.3031313  15.5310113  29.6922753  71.4571313
  16.5420113  29.6152753  72.3811313  15.7830113  29.5712753  72.1901313
  19.8430113  21.9332753  72.0311313  19.9430113  22.0722753  71.1761313
  20.6610113  21.8732753  72.3271313  19.9780113  21.9442753  71.9481313
  29.0030113  29.9972753  69.5111313  29.6400113  29.8632753  70.0921313
  28.6620113  29.2032753  69.3941313  29.0470113  29.8602753  69.5791313
  25.0780113  26.2622753  71.8331313  24.8270113  26.1342753  72.6591313
  24.7610113  25.5672753  71.4121313  24.9940113  26.1412753  71.8931313
  16.3630113  28.3512753  78.7801313  16.2840113  27.5412753  78.4641313
  15.9190113  28.8382753  78.2081313  16.2860113  28.3032753  78.6491313
  21.9640113  24.4702753  71.2631313  22.6810113  24.1232753  70.9071313
  21.9300113  25.2702753  70.9151313  22.0650113  24.5372753  71.1591313
  23.3730113  13.1112753  55.5018903  23.1280113  13.5992753  54.8218903
  24.2360113  13.0382753  55.4018903  23.4640113  13.1722753  55.3868903
  23.1820113  20.0272753  60.1728903  22.6580113  20.6232753  60.5358903
  23.5790113  19.6592753  60.8568903  23.1630113  20.0612753  60.3278903
  13.0510113  24.1672753  55.6288903  12.6100113  24.2852753  56.3718903
  12.7680113  23.3922753  55.3438903  12.9440113  24.0702753  55.6968903
  29.3260113  27.4682753  53.1438903  30.0270113  26.9492753  53.1398903
  28.7390113  27.0232753  52.6748903  29.3430113  27.3252753  53.0738903
  12.7940113  17.9592753  52.1358903  12.0160113  18.1212753  51.7758903
  12.8330113  17.0882753  52.1578903  12.6850113  17.8542753  52.0858903
  15.9330113  23.2222753  50.8078903  15.5410113  22.8512753  50.1218903
  15.8530113  22.6242753  51.4368903  15.8630113  23.0792753  50.7988903
  25.8530113  21.0942753  56.8488903  25.9330113  21.0982753  55.9798903
  25.2690113  20.4622753  56.9978903  25.7780113  21.0012753  56.7428903
  15.5600113  24.8632753  54.7078903  16.1680113  24.6932753  55.3108903
  14.8090113  24.7232753  55.1288903  15.5390113  24.8172753  54.8588903
  19.8420113  14.1982753  54.6568903  19.7720113  14.8752753  54.1108903
  20.5830113  13.8102753  54.4078903  19.9410113  14.2412753  54.5388903
  14.4510113  27.9542753  50.7848903  14.9180113  28.0382753  50.0528903
  14.9060113  27.3762753  51.2538903  14.5870113  27.8812753  50.7458903
  12.9910113  26.9022753  61.8838903  13.1200113  26.6222753  62.6998903
  12.3810113  26.3612753  61.5748903  12.9200113  26.7812753  61.9588903
  19.5650113  24.4272753  66.9508903  19.3290113  24.4242753  67.7908903
  18.8170113  24.2792753  66.5268903  19.4190113  24.4042753  67.0118903
  14.4370113  21.4232753  56.0858903  13.9750113  21.0312753  55.4588903
  15.1370113  20.9102753  56.1778903  14.4720113  21.2902753  56.0068903
  18.9450113  17.0332753  61.4328903  19.6230113  17.0512753  60.8838903
  18.9000113  16.1972753  61.6778903  19.0380113  16.9122753  61.3878903
  19.5470113  27.6192753  64.2138903  19.6850113  28.3792753  63.8068903
  20.3380113  27.2542753  64.2408903  19.6840113  27.6782753  64.1578903
  16.4380113  19.5232753  56.1088903  17.2550113  19.3362753  56.3518903
  15.9610113  18.9092753  56.5048903  16.4880113  19.4052753  56.2038903
  20.6420113  25.5042753  58.7188903  20.9900113  24.7052753  58.7488903
  21.3070113  26.0082753  58.4638903  20.7920113  25.4602753  58.6858903
  20.6990113  24.9532753  54.9298903  21.0300113  24.3092753  55.4158903
  20.9390113  24.7422753  54.1188903  20.7830113  24.8272753  54.8818903
  22.6670113  19.0842753  66.2688903  21.8190113  18.9852753  66.0908903
  22.6960113  19.8292753  66.7228903  22.5460113  19.1802753  66.3098903
  17.0350113  14.6172753  55.3748903  16.7390113  15.1182753  54.7248903
  17.9020113  14.6952753  55.3178903  17.1190113  14.7032753  55.2708903
  27.2250113  12.0442753  65.3828903  27.0670113  12.8132753  65.0008903
  26.4530113  11.8242753  65.7268903  27.0870113  12.1252753  65.3778903
  20.0140113  13.7592753  57.5978903  20.0870113  14.6192753  57.7268903
  19.9760113  13.6842753  56.7298903  20.0190113  13.8752753  57.4888903
  24.6870113  16.6852753  49.8968903  24.2370113  17.3662753  50.2038903
  24.8010113  16.1812753  50.5998903  24.6380113  16.7112753  50.0458903
  12.8930113  19.1842753  59.0988903  12.6370113  20.0152753  59.0238903
  12.2290113  18.8012753  59.5158903  12.7570113  19.2502753  59.1498903
  12.8030113  28.8942753  56.9988903  12.2110113  29.4522753  56.6858903
  13.2290113  28.6252753  56.2868903  12.7790113  28.9362753  56.8478903
  18.6430113  26.7382753  54.4788903  18.0640113  26.4632753  55.0708903
  19.2670113  26.1292753  54.5038903  18.6500113  26.6082753  54.5698903
  24.7860113  29.0262753  52.0008903  25.5130113  29.4982753  52.1028903
  25.0150113  28.2322753  52.2808903  24.9280113  28.9792753  52.0578903
  22.9540113  29.4182753  53.9908903  23.1680113  29.9452753  54.6528903
  23.7210113  29.2442753  53.6118903  23.0990113  29.4702753  54.0328903
  15.9220113  14.0012753  59.5898903  15.4010113  13.3732753  59.2818903
  16.5130113  13.5642753  60.0608903  15.9330113  13.8432753  59.6138903
  19.2280113  16.1342753  68.8878903  19.3450113  15.6802753  68.1518903
  19.5160113  16.9322753  68.6848903  19.2880113  16.1852753  68.7488903
  14.3480113  27.5642753  54.9298903  15.0040113  26.9892753  54.9448903
  14.7370113  28.3132753  54.7088903  14.5030113  27.5892753  54.8998903
  30.0810113  16.6582753  56.1918903  29.7350113  17.3362753  56.6178903
  29.4450113  16.0602753  56.2078903  29.9360113  16.6702753  56.2568903
  25.3930113  29.4282753  62.2958903  26.1370113  29.8842753  62.2858903
  25.2720113  29.2142753  61.4588903  25.4850113  29.4642753  62.1708903
  14.9610113  15.7312753  67.8718903  14.1830113  15.3412753  67.7998903
  15.4520113  15.3192753  67.2808903  14.9180113  15.6122753  67.7738903
  15.1660113  26.0512753  58.4298903  15.5890113  25.6952753  57.7558903
  15.4900113  25.6292753  59.1218903  15.2760113  25.9362753  58.4328903
  18.3970113  28.9032753  57.7258903  19.2410113  29.0072753  57.5308903
  18.1000113  29.7212753  57.7938903  18.4780113  29.0392753  57.7068903
  21.6100113  13.3742753  67.0398903  21.7880113  12.5652753  66.7648903
  21.4670113  13.8152753  66.3008903  21.6150113  13.3202753  66.8898903
  22.2040113  18.3002753  55.8128903  22.4910113  18.0682753  55.0228903
  22.9360113  18.3792753  56.2818903  22.3540113  18.2772753  55.7658903
  22.9260113  18.6392753  50.9338903  23.2070113  19.4272753  51.1828903
  22.1500113  18.8042753  50.5708903  22.8530113  18.7802753  50.9168903
  26.9670113  30.6132753  52.4008903  27.6320113  30.4652753  51.8558903
  27.3270113  30.5302753  53.1908903  27.1190113  30.5792753  52.4368903
  17.3950113  30.1222753  63.4658903  17.6870113  30.0552753  64.2858903
  16.7690113  29.5172753  63.4208903  17.3460113  30.0232753  63.5808903
  29.7560113  14.9812753  61.5608903  30.5130113  15.0532753  61.1328903
  29.8190113  14.2082753  61.9598903  29.8770113  14.8782753  61.5558903
  12.3090113  16.2792753  65.4578903  12.3050113  16.8662753  66.1038903
  12.9030113  16.5912753  64.9008903  12.3960113  16.4122753  65.4708903
  24.6470113  26.6132753  65.9998903  24.6130113  26.9952753  66.7838903
  25.5010113  26.5712753  65.8288903  24.7680113  26.6632753  66.0908903
  21.7850113  26.8102753  50.7498903  21.6040113  27.3552753  51.4068903
  22.5510113  27.1002753  50.4488903  21.8710113  26.9342753  50.8028903
  25.2920113  14.7062753  51.8038903  25.8320113  14.0242753  51.8798903
  25.3540113  15.1042753  52.5778903  25.3810113  14.6642753  51.9298903
  13.2460113  15.8742753  54.3728903  13.1320113  15.0102753  54.4038903
  12.7710113  16.1682753  55.0428903  13.1590113  15.7902753  54.4758903
  15.3880113  28.2842753  62.5878903  14.6900113  27.7762753  62.7138903
  15.6480113  28.0792753  61.7798903  15.3230113  28.1792753  62.4868903
  22.5500113  17.0822753  53.1178903  22.0420113  16.4202753  52.8638903
  22.6020113  17.5862753  52.4078903  22.4830113  17.0592753  52.9758903
  23.0990113  29.7772753  63.4978903  23.8670113  29.6972753  63.0918903
  22.5160113  29.6562753  62.8598903  23.1260113  29.7472753  63.3438903
  22.5500113  14.0232753  53.0088903  22.0950113  13.6212753  52.3828903
  23.3230113  14.1782753  52.6338903  22.5970113  13.9872753  52.8608903
  29.3760113  30.3802753  56.3988903  28.9210113  31.0972753  56.5998903
  28.7620113  29.8092753  56.1568903  29.2180113  30.4022753  56.3928903
  21.1480113  16.3902753  57.5308903  21.2220113  16.9582753  56.8728903
  21.2690113  16.8822753  58.2408903  21.1760113  16.5472753  57.5388903
  26.3730113  26.2252753  55.9428903  27.0740113  25.7432753  56.1318903
  25.7130113  25.6562753  55.9878903  26.3790113  26.0702753  55.9768903
  16.7490113  27.1352753  65.1548903  17.5900113  27.1982753  64.9328903
  16.7120113  27.5322753  65.9308903  16.8680113  27.2032753  65.2368903
  15.7560113  12.2132753  55.8788903  16.2920113  12.9012753  55.8688903
  15.7590113  11.9392753  55.0508903  15.8350113  12.2742753  55.7548903
  18.7120113  22.6462753  59.9038903  18.8840113  22.4362753  60.7328903
  18.0570113  22.1122753  59.6878903  18.6410113  22.5362753  59.9948903
  24.9400113  16.5602753  63.4188903  24.8450113  16.8792753  64.2248903
  24.3470113  15.9212753  63.3808903  24.8380113  16.5122753  63.5328903
  19.4620113  22.5842753  62.4938903  19.5150113  23.4312753  62.6958903
  19.1770113  22.2142753  63.2308903  19.4280113  22.6542753  62.6318903
  25.6390113  23.2792753  61.6238903  25.1250113  22.8672753  62.1948903
  25.5130113  24.1232753  61.8048903  25.5450113  23.3432753  61.7348903
  26.1960113  12.5042753  56.2548903  26.2450113  12.1862753  57.0658903
  26.5190113  11.8602753  55.7618903  26.2510113  12.3622753  56.3018903
  12.2830113  26.9552753  68.7048903  13.0390113  27.3042753  68.9628903
  12.4600113  26.1022753  68.6478903  12.4210113  26.8802753  68.7348903
  28.6600113  16.7402753  64.5628903  29.4320113  16.5152753  64.8998903
  28.1850113  16.9572753  65.2628903  28.7040113  16.7392753  64.7158903
  16.2040113  16.0232753  57.5328903  16.4760113  15.5932753  56.8248903
  16.0280113  15.3872753  58.1038903  16.2180113  15.8662753  57.5128903
  28.8920113  23.7182753  51.7508903  29.0110113  23.4312753  52.5658903
  29.6990113  23.7392753  51.4208903  29.0280113  23.6792753  51.8228903
  16.0280113  23.4502753  57.0818903  16.8790113  23.3702753  56.9088903
  15.6710113  22.7682753  56.6698903  16.1010113  23.3372753  56.9948903
  14.7950113  30.1752753  58.3188903  14.1220113  29.6772753  58.0738903
  15.1980113  30.3602753  57.5678903  14.7550113  30.1292753  58.1718903
  14.3450113  17.1252753  60.6148903  15.1880113  17.3452753  60.5718903
  13.9560113  17.6982753  60.0838903  14.4120113  17.2422753  60.5298903
  31.1260113  28.2272753  66.0048903  30.4440113  28.5372753  65.5578903
  30.7570113  27.7692753  66.6498903  30.9700113  28.2052753  66.0338903
  26.7870113  20.2552753  51.3358903  26.5670113  20.9862753  50.9138903
  26.3390113  20.3062753  52.0828903  26.6880113  20.3702753  51.3838903
  18.3960113  23.4572753  55.3168903  19.1090113  23.9522753  55.4068903
  18.6180113  22.8902753  54.6908903  18.5340113  23.4462753  55.2378903
  30.9740113  15.1162753  50.7888903  30.3120113  14.5482753  50.8118903
  30.7810113  15.6282753  50.1088903  30.8480113  15.1082753  50.6918903
  12.5520113  25.1002753  58.6368903  11.8850113  25.5882753  58.9128903
  13.2320113  25.6452753  58.6658903  12.5540113  25.2522753  58.6818903
  20.1990113  18.8102753  68.7328903  19.7150113  19.3872753  69.1748903
  20.1710113  19.1052753  67.9118903  20.1230113  18.9392753  68.6768903
  31.2970113  19.4942753  63.3448903  31.5120113  18.6942753  63.0688903
  30.4470113  19.5542753  63.1558903  31.2030113  19.3852753  63.2758903
  12.6180113  21.7842753  53.7398903  12.4330113  20.9452753  53.8918903
  13.2770113  21.7482753  53.1698903  12.6880113  21.6552753  53.6778903
  28.9760113  14.6742753  53.0678903  29.7220113  14.2672753  53.2668903
  29.2390113  15.3892753  52.6428903  29.1250113  14.7202753  53.0348903
  22.9190113  27.1602753  57.6438903  22.3960113  27.7942753  57.3508903
  23.2290113  26.7962753  56.9148903  22.8870113  27.2002753  57.4928903
  12.7900113  25.9482753  53.3148903  13.3420113  26.5172753  53.6788903
  12.5580113  25.4332753  53.9798903  12.8370113  25.9562753  53.4668903
  16.9940113  24.9482753  60.4038903  17.4610113  25.2372753  61.0818903
  17.5660113  24.4702753  59.9498903  17.1480113  24.9202753  60.4368903
  25.4300113  16.9622753  58.1408903  25.7740113  17.1142753  58.9278903
  24.9770113  16.2242753  58.2538903  25.4140113  16.8752753  58.2738903
  12.6200113  24.3972753  50.9428903  13.3760113  23.9652753  51.0008903
  12.6350113  24.9292753  51.6338903  12.7340113  24.4122753  51.0538903
  13.5600113  22.6182753  58.9478903  13.9910113  22.4892753  58.2008903
  13.3550113  23.4662753  58.9218903  13.5930113  22.7242753  58.8338903
  19.9060113  16.1822753  52.5978903  19.9040113  16.0652753  51.7328903
  19.7250113  17.0302753  52.6898903  19.8790113  16.2902753  52.4838903
  28.9600113  28.6092753  64.0948903  28.2890113  29.1232753  64.3128903
  29.0230113  28.7092753  63.2308903  28.8700113  28.7002753  63.9998903
  17.6440113  26.1342753  57.2298903  17.7700113  26.9772753  57.4168903
  18.3120113  25.7352753  57.6258903  17.7620113  26.2002753  57.3158903
  15.7740113  19.6172753  67.0918903  15.2380113  19.1112753  67.5598903
  15.7940113  19.2272753  66.3118903  15.6970113  19.4842753  67.0458903
  16.2590113  19.0142753  52.2318903  16.1310113  18.5662753  52.9698903
  15.6770113  18.6722753  51.6798903  16.1540113  18.8972753  52.2598903
  16.4260113  20.8442753  58.8308903  15.6450113  20.7852753  58.4478903
  16.4980113  20.0922753  59.2678903  16.3210113  20.7252753  58.8388903
  16.8560113  20.5812753  62.2988903  16.8810113  19.9062753  61.7478903
  16.2100113  21.0772753  61.9868903  16.7650113  20.5542753  62.1718903
  26.7510113  18.2942753  60.6948903  26.0890113  18.6222753  61.1578903
  26.9380113  18.9282753  60.1258903  26.6810113  18.4362753  60.6788903
  20.9560113  29.3582753  61.6908903  20.6790113  28.7172753  61.1678903
  20.7480113  30.0842753  61.2528903  20.8850113  29.3712753  61.5488903
  23.3960113  14.2002753  64.1238903  23.5450113  13.3752753  63.8808903
  23.7750113  14.2552753  64.9078903  23.4740113  14.0862753  64.2038903
  24.9440113  16.2632753  54.2058903  25.4340113  16.9802753  54.1288903
  24.1540113  16.5242753  53.9428903  24.9000113  16.4072753  54.1558903
  14.6550113  21.9362753  67.8578903  14.6180113  22.4372753  67.1438903
  14.9860113  21.1842753  67.5628903  14.6980113  21.8982753  67.7088903
  26.2580113  24.1412753  66.1158903  26.7420113  24.8592753  66.2138903
  26.6520113  23.7142753  65.4648903  26.3880113  24.1842753  66.0338903
  20.5540113  26.9862753  67.2928903  20.9080113  26.8082753  68.0698903
  20.1180113  26.2572753  67.0938903  20.5420113  26.8522753  67.3788903
  21.5260113  17.7332753  59.9308903  22.0060113  18.4322753  60.1388903
  21.8990113  17.0862753  60.3818903  21.6520113  17.7412753  60.0278903
  23.7150113  20.9022753  52.2048903  23.7070113  21.6242753  51.7148903
  23.0760113  21.0372753  52.7818903  23.6200113  21.0292753  52.2178903
  28.6870113  24.7722753  56.1858903  29.0430113  24.4222753  56.9008903
  28.6790113  24.1112753  55.6158903  28.7390113  24.6222753  56.2068903
  24.7320113  27.8382753  60.0298903  24.1290113  27.5422753  59.4728903
  25.2770113  28.2902753  59.5208903  24.7230113  27.8612753  59.8718903
  24.7450113  24.6892753  59.4298903  23.9480113  24.9132753  59.7038903
  25.0030113  24.0952753  60.0148903  24.6650113  24.6342753  59.5568903
  18.6370113  29.5012753  53.8778903  18.4900113  28.7252753  54.2488903
  19.3260113  29.3542753  53.3628903  18.7170113  29.3642753  53.8568903
  18.3080113  13.2442753  51.8658903  18.4050113  13.1372753  52.7268903
  17.6000113  13.7502753  51.8008903  18.2180113  13.3032753  51.9838903
  20.9290113  29.0172753  52.2798903  21.5510113  29.1802753  52.8698903
  20.9650113  29.7082753  51.7478903  21.0260113  29.1432753  52.2888903
  28.0050113  22.6872753  64.2758903  28.0600113  22.8122753  63.4138903
  28.7580113  23.0072753  64.5778903  28.1240113  22.7522753  64.1928903
  24.1960113  28.0362753  68.5528903  24.3600113  28.3192753  69.3618903
  24.4590113  28.6972753  68.0478903  24.2590113  28.1762753  68.5978903
  29.0370113  12.9852753  67.2628903  28.4000113  12.5852753  66.8208903
  29.0630113  12.5542753  68.0208903  28.9470113  12.8632753  67.3088903
  15.4300113  21.5512753  53.1088903  15.7540113  20.7722753  52.8868903
  16.0760113  21.9192753  53.5638903  15.5730113  21.4902753  53.1428903
  23.7360113  22.4932753  63.8758903  23.5810113  23.1032753  64.4798903
  24.2700113  21.9352753  64.2818903  23.7920113  22.5012753  64.0248903
  12.4270113  13.2122753  54.0768903  12.5560113  12.5042753  53.5848903
  12.0600113  12.8942753  54.8018903  12.3920113  13.0602753  54.1118903
  22.1200113  20.8932753  54.5338903  22.1790113  21.5432753  55.1128903
  21.9310113  20.1972753  55.0248903  22.1010113  20.8862753  54.6918903
  27.3460113  25.2222753  60.4028903  26.8670113  25.5202753  59.7368903
  26.9900113  24.4462753  60.5808903  27.2230113  25.1512753  60.3308903
  16.6160113  15.4102753  51.0458903  16.1050113  15.4632753  50.3398903
  17.4000113  15.6502753  50.7498903  16.6560113  15.4532753  50.8978903
  21.3430113  22.9402753  58.9648903  20.4960113  22.7462753  59.0458903
  21.6670113  22.7752753  59.7578903  21.2650113  22.8872753  59.0938903
  18.0950113  29.6702753  49.8508903  18.5340113  28.9732753  50.1388903
  18.3020113  30.2942753  50.4238903  18.1910113  29.6592753  49.9778903
  15.1910113  22.6332753  61.2808903  15.9130113  23.1212753  61.2438903
  14.9210113  22.6032753  60.4518903  15.2580113  22.7012753  61.1528903
  18.4210113  17.8042753  58.0158903  19.2670113  17.6142753  58.1138903
  18.0510113  17.0272753  57.8778903  18.4910113  17.6612753  58.0098903
  31.0380113  29.3882753  52.3428903  31.7320113  28.9212753  52.0948903
  30.4990113  28.7902753  52.6798903  31.0610113  29.2302753  52.3558903
  13.2420113  19.1422753  54.6708903  13.7310113  18.8502753  55.3318903
  13.3710113  18.5492753  54.0438903  13.3330113  19.0112753  54.6758903
  28.2770113  22.1642753  61.5218903  28.2700113  21.3882753  61.9198903
  27.4360113  22.3982753  61.5148903  28.1520113  22.0842753  61.5798903
  17.7670113  20.5762753  50.1568903  17.1570113  20.1712753  50.6308903
  17.3810113  20.6942753  49.3838903  17.6200113  20.5332753  50.1128903
  14.5860113  23.6852753  65.5588903  14.1650113  23.1672753  64.9978903
  14.2340113  24.4712753  65.4158903  14.4720113  23.7252753  65.4548903
  29.5330113  22.2352753  58.9588903  29.2470113  22.6362753  59.6788903
  30.3930113  22.1732753  59.0858903  29.6180113  22.2852753  59.0838903
  19.2220113  19.0372753  52.8668903  19.4940113  19.8632753  52.9338903
  18.3590113  19.1122753  52.7708903  19.1350113  19.1702753  52.8618903
  27.1950113  16.1592753  67.4988903  26.6700113  16.6182753  68.0228903
  26.8340113  15.3642753  67.4928903  27.0640113  16.1092753  67.5748903
  12.7020113  15.0072753  59.4028903  12.7460113  15.3512753  58.6018903
  13.4570113  15.2442753  59.7698903  12.8200113  15.0932753  59.3388903
  30.6640113  27.8682753  59.4878903  30.9540113  28.1252753  58.7068903
  31.3590113  27.9642753  60.0068903  30.8100113  27.9202753  59.4488903
  25.6870113  19.7282753  67.5748903  25.7600113  19.8322753  68.4378903
  25.0530113  20.2862753  67.3538903  25.6040113  19.8262753  67.6698903
  27.9550113  20.0472753  65.9398903  28.2740113  20.8332753  66.1428903
  27.5850113  19.7772753  66.6828903  27.9480113  20.1232753  66.0798903
  27.2690113  26.4712753  51.4698903  27.6030113  25.6652753  51.5048903
  26.5140113  26.3992753  51.8998903  27.2070113  26.3412753  51.5388903
  27.7510113  18.3052753  57.1288903  27.0060113  17.9822753  57.4468903
  27.7530113  19.1312753  57.4088903  27.6410113  18.3792753  57.2168903
  30.6530113  20.5892753  68.6748903  30.6010113  20.2482753  67.8738903
  31.3900113  21.0562753  68.6528903  30.7540113  20.6082753  68.5528903
  30.1910113  24.2652753  64.8808903  30.8190113  23.7162753  64.6248903
  30.1300113  24.8302753  64.2188903  30.2750113  24.2682753  64.7448903
  24.6430113  24.3462753  50.8728903  25.3270113  23.8322753  50.7038903
  24.2260113  24.3922753  50.1078903  24.6820113  24.2772753  50.7348903
  19.3250113  25.4962753  62.1768903  19.0270113  26.0882753  62.7438903
  19.3800113  25.9382753  61.4278903  19.2890113  25.6492753  62.1498903
  17.3040113  24.4462753  65.5748903  16.4980113  24.1562753  65.7418903
  17.2150113  25.3142753  65.5808903  17.1720113  24.5312753  65.5998903
  26.6630113  14.6352753  64.5898903  27.4070113  15.0872753  64.5268903
  26.0970113  15.1052753  64.1208903  26.6900113  14.7722753  64.5118903
  21.8410113  21.9192753  61.6678903  22.3170113  22.2932753  62.2958903
  21.0180113  22.0532753  61.9268903  21.7900113  21.9942753  61.7988903
  18.5510113  17.5222753  64.4088903  18.7120113  16.7782753  64.8358903
  18.5060113  17.2732753  63.5738903  18.5680113  17.3752753  64.3488903
  21.1050113  29.3122753  56.8958903  21.6510113  29.9912753  56.9498903
  20.7550113  29.3942753  56.1008903  21.1340113  29.4252753  56.7858903
  27.9480113  12.6152753  62.2598903  27.6680113  13.4402753  62.2158903
  28.6640113  12.6682753  62.7558903  28.0130113  12.7452753  62.3268903
  20.3030113  13.3302753  64.2888903  21.0080113  13.6502753  63.8868903
  20.5440113  12.5232753  64.5158903  20.4420113  13.2582753  64.2628903
  19.2880113  27.5402753  60.2848903  18.6640113  28.1222753  60.1028903
  19.5360113  27.2542753  59.4988903  19.2320113  27.5842753  60.1418903
  23.5970113  24.1742753  67.2738903  24.3540113  24.4602753  66.9478903
  23.0500113  24.2262753  66.5958903  23.6280113  24.2242753  67.1248903
  27.5060113  26.7242753  65.7778903  27.8520113  26.9942753  66.5318903
  27.8000113  27.3062753  65.1978903  27.6010113  26.8502753  65.8038903
  29.3690113  18.8702753  51.1168903  29.7470113  19.5472753  50.7168903
  28.5270113  19.0942753  51.1478903  29.3000113  19.0032753  51.0618903
  20.8820113  22.3162753  50.1998903  20.0770113  22.1392753  49.9148903
  20.8490113  23.1672753  50.3918903  20.7580113  22.4152753  50.1868903
  16.8120113  18.3832753  60.3498903  17.2520113  18.2802753  59.6038903
  17.3570113  18.0702753  60.9548903  16.9570113  18.3222753  60.3288903
  24.8280113  17.4852753  65.9418903  24.1800113  17.9552753  66.2898903
  25.3930113  17.3962753  66.6008903  24.8160113  17.5412753  66.0908903
  24.5160113  19.0222753  62.2398903  24.8180113  19.4422753  62.9428903
  24.5520113  18.1822753  62.4718903  24.5660113  18.9602753  62.3778903
  21.9410113  29.1892753  66.1648903  22.4190113  28.5892753  65.7488903
  21.5900113  28.7462753  66.8298903  21.9600113  29.0352753  66.2018903
  27.0640113  18.4692753  54.4918903  27.2710113  18.2682753  55.3158903
  27.8200113  18.7372753  54.1498903  27.2060113  18.4792753  54.5628903
  20.3590113  13.3682753  60.3968903  19.5330113  13.2192753  60.6338903
  20.3190113  13.4032753  59.5258903  20.2310113  13.3512753  60.3028903
  28.0860113  14.5522753  55.9658903  27.3720113  14.0812753  56.1368903
  27.9240113  14.8932753  55.1798903  27.9570113  14.5332753  55.8748903
  28.5290113  22.4962753  54.3458903  29.0050113  21.7672753  54.2978903
  27.7080113  22.2102753  54.2698903  28.4780113  22.3462753  54.3268903
  22.0000113  24.4082753  65.1848903  21.2050113  24.3442753  65.5358903
  22.0710113  25.2552753  64.9898903  21.8930113  24.5232753  65.2078903
  12.9240113  13.7662753  66.4318903  12.7840113  14.5612753  66.1008903
  12.1380113  13.5232753  66.7208903  12.7870113  13.8482753  66.4258903
  17.8300113  30.6152753  60.5018903  17.8410113  30.6742753  61.3718903
  17.4050113  29.8682753  60.3518903  17.7690113  30.5132753  60.6078903
  15.9880113  16.5102753  53.6568903  16.1140113  16.1812753  52.8588903
  15.1760113  16.2612753  53.8558903  15.8870113  16.4252753  53.5688903
  24.7450113  23.6632753  56.7008903  24.8210113  24.0042753  57.4998903
  24.9140113  22.8162753  56.8218903  24.7810113  23.5882753  56.8368903
  22.2670113  22.9372753  56.2658903  21.9690113  22.6222753  57.0228903
  22.9620113  23.4102753  56.5008903  22.3260113  22.9602753  56.4128903
  22.4890113  27.0552753  64.2928903  23.1760113  26.9412753  64.8178903
  22.6230113  27.8462753  63.9488903  22.6100113  27.1552753  64.3198903
  30.6650113  19.6642753  66.1038903  29.8100113  19.5422753  66.2298903
  30.8180113  19.2692753  65.3408903  30.5610113  19.5872753  66.0098903
  25.1780113  20.3292753  64.6798903  24.9230113  19.6102753  65.1018903
  25.9990113  20.4452753  64.9498903  25.2620113  20.2402753  64.7818903
  14.5940113  30.1132753  65.9438903  13.9400113  29.5442753  66.0418903
  14.2190113  30.8862753  66.0948903  14.4420113  30.1432753  65.9808903
  23.1120113  21.5192753  67.8668903  23.4350113  22.2052753  67.4348903
  22.4080113  21.8422753  68.2688903  23.0550113  21.6682753  67.8618903
  26.1960113  29.8932753  58.7958903  25.7450113  30.5362753  59.1748903
  26.9040113  29.8142753  59.3008903  26.2340113  29.9762753  58.9268903
  22.8970113  24.9832753  61.7258903  22.2030113  25.3852753  62.0688903
  23.5740113  25.4162753  62.0648903  22.8940113  25.1062753  61.8268903
  28.2740113  27.5762753  68.3058903  29.0500113  27.1862753  68.3888903
  27.8050113  27.2402753  68.9608903  28.3190113  27.4692753  68.4148903
  15.9650113  18.5212753  64.0728903  16.3400113  19.1402753  63.5858903
  16.6390113  18.0472753  64.3578903  16.1200113  18.5432753  64.0428903
  13.7400113  16.9692753  63.3478903  13.8170113  16.8002753  62.4948903
  14.4860113  17.3752753  63.5448903  13.8610113  17.0042753  63.2508903
  29.2990113  19.6092753  53.7878903  29.4020113  19.5512753  52.9238903
  30.0400113  19.2772753  54.1058903  29.4240113  19.5522753  53.7068903
  16.2940113  14.3792753  65.7588903  16.2130113  13.5352753  65.9648903
  15.9800113  14.4232753  64.9458903  16.2360113  14.2612753  65.6688903
  23.2190113  26.5742753  54.8948903  23.0140113  27.4072753  54.7358903
  22.4440113  26.1922753  55.0168903  23.0740113  26.6412753  54.8898903
  28.4010113  19.7552753  63.1438903  28.3990113  18.8922753  63.2678903
  28.4680113  20.0792753  63.9508903  28.4110113  19.6752753  63.2808903
  13.1370113  22.1952753  63.5718903  13.4570113  22.4142753  62.7908903
  13.0370113  21.3302753  63.5168903  13.1690113  22.1002753  63.4488903
  14.5930113  18.1312753  50.1898903  13.9210113  18.1452753  50.7458903
  14.6880113  17.2832753  50.0058903  14.5080113  18.0082753  50.2448903
  24.2800113  14.5552753  66.9258903  24.3720113  15.2672753  67.4198903
  23.6430113  14.1102753  67.3228903  24.1990113  14.5942753  67.0578903
  23.2740113  14.7452753  57.7798903  22.5740113  15.2632753  57.7238903
  23.3120113  14.3652753  56.9958903  23.1760113  14.7662753  57.6558903
  18.5810113  26.8362753  51.3038903  19.0220113  26.9162753  52.0518903
  17.7760113  26.6202753  51.5618903  18.5270113  26.8162753  51.4528903
  26.8720113  15.2612753  60.5798903  27.7270113  15.3602753  60.7248903
  26.5030113  15.8142753  61.1448903  26.9440113  15.3582753  60.6848903
  17.9000113  21.4872753  64.9568903  17.5040113  22.2612753  65.0318903
  17.4940113  21.1142753  64.2808903  17.7820113  21.5462753  64.8678903
  27.1760113  20.5412753  59.0708903  27.8420113  21.0822753  59.2308903
  26.8310113  20.8522753  58.3318903  27.2230113  20.6672753  58.9858903
  27.4890113  28.6072753  54.8778903  27.3150113  27.9532753  55.4278903
  28.2020113  28.3362753  54.4548903  27.5690113  28.4702753  54.8968903
  15.9100113  25.9062753  51.9048903  15.6660113  25.5992753  52.6848903
  15.8770113  25.2032753  51.3888903  15.8690113  25.7572753  51.9438903
  18.7290113  24.1512753  50.6478903  17.9110113  23.8832753  50.7878903
  18.7010113  25.0032753  50.8328903  18.6040113  24.2382753  50.6958903
  18.3290113  14.4642753  62.4068903  17.4650113  14.5482753  62.4868903
  18.5490113  13.9502753  63.0758903  18.2340113  14.4012753  62.5178903
  30.3470113  13.0992753  63.7358903  30.2950113  13.0552753  64.6058903
  31.0340113  12.5962753  63.5458903  30.4410113  13.0192753  63.8358903
  22.4320113  15.2122753  60.7808903  21.6950113  14.7582753  60.8938903
  23.0030113  14.8102753  61.3038903  22.4070113  15.0852753  60.8748903
  25.1640113  26.0602753  62.5688903  25.3700113  26.3612753  63.3608903
  25.1030113  26.7822753  62.0838903  25.1850113  26.2112753  62.6138903
  24.6980113  30.2742753  66.8148903  23.9450113  30.2562753  66.3738903
  24.8660113  31.1262753  66.8988903  24.6120113  30.3972753  66.7618903
  19.9350113  19.5412753  65.9848903  19.6130113  18.9652753  65.4148903
  19.5760113  20.2962753  65.7388903  19.8350113  19.5672753  65.8648903
  20.7310113  12.7932753  50.6118903  20.8090113  13.0402753  49.7788903
  19.9880113  13.1702753  50.8698903  20.6330113  12.8852753  50.5268903
  29.9760113  24.6992753  62.0268903  29.9440113  23.8372753  61.8918903
  29.2830113  25.0012753  61.5928903  29.8690113  24.6162753  61.9428903
  18.3700113  29.8972753  66.2328903  18.4110113  30.0232753  67.0958903
  19.0210113  29.3372753  66.0768903  18.4720113  29.8332753  66.3378903
  28.0810113  27.9592753  60.8238903  28.6080113  27.8762753  60.1328903
  27.6900113  27.1812753  60.8778903  28.1010113  27.8322753  60.7298903
  15.5490113  14.5472753  63.0548903  15.2060113  13.7802753  62.8208903
  14.8540113  15.0712753  63.1188903  15.3960113  14.5112753  63.0298903
  24.5950113  13.4032753  60.0318903  25.2650113  13.9472753  60.1588903
  24.0920113  13.8272753  59.4588903  24.6200113  13.5462753  59.9658903
  15.9630113  28.2802753  67.5928903  16.5580113  28.7112753  68.0648903
  15.5990113  28.9042753  67.1038903  15.9970113  28.4362753  67.5898903
  23.9540113  19.2112753  57.5248903  24.5050113  18.6042753  57.8248903
  23.5290113  19.4742753  58.2398903  23.9730113  19.1602753  57.6738903
  14.2020113  17.8612753  57.0108903  13.8340113  18.1632753  57.7418903
  14.7360113  17.2322753  57.2948903  14.2260113  17.8132753  57.1608903
  13.8900113  26.2692753  64.5218903  13.3160113  26.6852753  65.0308903
  14.6230113  26.7342753  64.6168903  13.9140113  26.3992753  64.6108903
  25.9240113  21.0422753  54.0868903  25.9920113  20.1922753  54.2678903
  25.1010113  21.1282753  53.8088903  25.8120113  20.9292753  54.0728903
  15.6760113  29.5362753  53.2968903  15.5310113  29.6922753  52.4508903
  16.5420113  29.6152753  53.3748903  15.7830113  29.5712753  53.1838903
  19.8430113  21.9332753  53.0248903  19.9430113  22.0722753  52.1698903
  20.6610113  21.8732753  53.3208903  19.9780113  21.9442753  52.9418903
  29.0030113  29.9972753  50.5048903  29.6400113  29.8632753  51.0858903
  28.6620113  29.2032753  50.3878903  29.0470113  29.8602753  50.5728903
  29.1980113  22.4152753  67.2378903  29.8320113  22.2452753  67.8118903
  29.6150113  22.8182753  66.5858903  29.3530113  22.4502753  67.2268903
  25.0780113  26.2622753  52.8268903  24.8270113  26.1342753  53.6528903
  24.7610113  25.5672753  52.4058903  24.9940113  26.1412753  52.8868903
  29.8230113  16.9792753  67.9758903  29.6270113  17.6232753  68.5308903
  29.1010113  16.4892753  67.9678903  29.6880113  17.0022753  68.0568903
  29.7220113  17.9202753  60.9468903  28.8890113  18.1702753  60.8748903
  29.6660113  17.0802753  61.1758903  29.5910113  17.8332753  60.9698903
  18.9820113  14.9082753  66.1408903  19.2160113  14.3322753  65.5278903
  18.1400113  14.7272753  66.2818903  18.8920113  14.7962753  66.0708903
  26.6090113  22.5262753  68.5928903  27.4800113  22.4902753  68.5568903
  26.3900113  22.9462753  67.8608903  26.7060113  22.5822753  68.4798903
  16.3630113  28.3512753  59.7738903  16.2840113  27.5412753  59.4578903
  15.9190113  28.8382753  59.2018903  16.2860113  28.3032753  59.6428903
  21.9640113  24.4702753  52.2568903  22.6810113  24.1232753  51.9008903
  21.9300113  25.2702753  51.9088903  22.0650113  24.5372753  52.1528903
  13.9350113  30.5952753  63.3548903  14.4280113  30.5392753  64.0728903
  14.1230113  29.8622753  62.9198903  14.0360113  30.4782753  63.3968903
  23.3730113  13.1112753  36.4956493  23.1280113  13.5992753  35.8156493
  24.2360113  13.0382753  36.3956493  23.4640113  13.1722753  36.3806493
  23.1820113  20.0272753  41.1666493  22.6580113  20.6232753  41.5296493
  23.5790113  19.6592753  41.8506493  23.1630113  20.0612753  41.3216493
  13.0510113  24.1672753  36.6226493  12.6100113  24.2852753  37.3656493
  12.7680113  23.3922753  36.3376493  12.9440113  24.0702753  36.6906493
  29.3260113  27.4682753  34.1376493  30.0270113  26.9492753  34.1336493
  28.7390113  27.0232753  33.6686493  29.3430113  27.3252753  34.0676493
  12.7940113  17.9592753  33.1296493  12.0160113  18.1212753  32.7696493
  12.8330113  17.0882753  33.1516493  12.6850113  17.8542753  33.0796493
  15.9330113  23.2222753  31.8016493  15.5410113  22.8512753  31.1156493
  15.8530113  22.6242753  32.4306493  15.8630113  23.0792753  31.7926493
  25.8530113  21.0942753  37.8426493  25.9330113  21.0982753  36.9736493
  25.2690113  20.4622753  37.9916493  25.7780113  21.0012753  37.7366493
  15.5600113  24.8632753  35.7016493  16.1680113  24.6932753  36.3046493
  14.8090113  24.7232753  36.1226493  15.5390113  24.8172753  35.8526493
  19.8420113  14.1982753  35.6506493  19.7720113  14.8752753  35.1046493
  20.5830113  13.8102753  35.4016493  19.9410113  14.2412753  35.5326493
  14.4510113  27.9542753  31.7786493  14.9180113  28.0382753  31.0466493
  14.9060113  27.3762753  32.2476493  14.5870113  27.8812753  31.7396493
  12.9910113  26.9022753  42.8776493  13.1200113  26.6222753  43.6936493
  12.3810113  26.3612753  42.5686493  12.9200113  26.7812753  42.9526493
  19.5650113  24.4272753  47.9446493  19.3290113  24.4242753  48.7846493
  18.8170113  24.2792753  47.5206493  19.4190113  24.4042753  48.0056493
  14.4370113  21.4232753  37.0796493  13.9750113  21.0312753  36.4526493
  15.1370113  20.9102753  37.1716493  14.4720113  21.2902753  37.0006493
  18.9450113  17.0332753  42.4266493  19.6230113  17.0512753  41.8776493
  18.9000113  16.1972753  42.6716493  19.0380113  16.9122753  42.3816493
  19.5470113  27.6192753  45.2076493  19.6850113  28.3792753  44.8006493
  20.3380113  27.2542753  45.2346493  19.6840113  27.6782753  45.1516493
  16.4380113  19.5232753  37.1026493  17.2550113  19.3362753  37.3456493
  15.9610113  18.9092753  37.4986493  16.4880113  19.4052753  37.1976493
  20.6420113  25.5042753  39.7126493  20.9900113  24.7052753  39.7426493
  21.3070113  26.0082753  39.4576493  20.7920113  25.4602753  39.6796493
  20.6990113  24.9532753  35.9236493  21.0300113  24.3092753  36.4096493
  20.9390113  24.7422753  35.1126493  20.7830113  24.8272753  35.8756493
  22.6670113  19.0842753  47.2626493  21.8190113  18.9852753  47.0846493
  22.6960113  19.8292753  47.7166493  22.5460113  19.1802753  47.3036493
  17.0350113  14.6172753  36.3686493  16.7390113  15.1182753  35.7186493
  17.9020113  14.6952753  36.3116493  17.1190113  14.7032753  36.2646493
  27.2250113  12.0442753  46.3766493  27.0670113  12.8132753  45.9946493
  26.4530113  11.8242753  46.7206493  27.0870113  12.1252753  46.3716493
  20.0140113  13.7592753  38.5916493  20.0870113  14.6192753  38.7206493
  19.9760113  13.6842753  37.7236493  20.0190113  13.8752753  38.4826493
  24.6870113  16.6852753  30.8906493  24.2370113  17.3662753  31.1976493
  24.8010113  16.1812753  31.5936493  24.6380113  16.7112753  31.0396493
  12.8930113  19.1842753  40.0926493  12.6370113  20.0152753  40.0176493
  12.2290113  18.8012753  40.5096493  12.7570113  19.2502753  40.1436493
  12.8030113  28.8942753  37.9926493  12.2110113  29.4522753  37.6796493
  13.2290113  28.6252753  37.2806493  12.7790113  28.9362753  37.8416493
  18.6430113  26.7382753  35.4726493  18.0640113  26.4632753  36.0646493
  19.2670113  26.1292753  35.4976493  18.6500113  26.6082753  35.5636493
  24.7860113  29.0262753  32.9946493  25.5130113  29.4982753  33.0966493
  25.0150113  28.2322753  33.2746493  24.9280113  28.9792753  33.0516493
  22.9540113  29.4182753  34.9846493  23.1680113  29.9452753  35.6466493
  23.7210113  29.2442753  34.6056493  23.0990113  29.4702753  35.0266493
  15.9220113  14.0012753  40.5836493  15.4010113  13.3732753  40.2756493
  16.5130113  13.5642753  41.0546493  15.9330113  13.8432753  40.6076493
  19.2280113  16.1342753  49.8816493  19.3450113  15.6802753  49.1456493
  19.5160113  16.9322753  49.6786493  19.2880113  16.1852753  49.7426493
  14.3480113  27.5642753  35.9236493  15.0040113  26.9892753  35.9386493
  14.7370113  28.3132753  35.7026493  14.5030113  27.5892753  35.8936493
  30.0810113  16.6582753  37.1856493  29.7350113  17.3362753  37.6116493
  29.4450113  16.0602753  37.2016493  29.9360113  16.6702753  37.2506493
  25.3930113  29.4282753  43.2896493  26.1370113  29.8842753  43.2796493
  25.2720113  29.2142753  42.4526493  25.4850113  29.4642753  43.1646493
  14.9610113  15.7312753  48.8656493  14.1830113  15.3412753  48.7936493
  15.4520113  15.3192753  48.2746493  14.9180113  15.6122753  48.7676493
  15.1660113  26.0512753  39.4236493  15.5890113  25.6952753  38.7496493
  15.4900113  25.6292753  40.1156493  15.2760113  25.9362753  39.4266493
  18.3970113  28.9032753  38.7196493  19.2410113  29.0072753  38.5246493
  18.1000113  29.7212753  38.7876493  18.4780113  29.0392753  38.7006493
  21.6100113  13.3742753  48.0336493  21.7880113  12.5652753  47.7586493
  21.4670113  13.8152753  47.2946493  21.6150113  13.3202753  47.8836493
  22.2040113  18.3002753  36.8066493  22.4910113  18.0682753  36.0166493
  22.9360113  18.3792753  37.2756493  22.3540113  18.2772753  36.7596493
  22.9260113  18.6392753  31.9276493  23.2070113  19.4272753  32.1766493
  22.1500113  18.8042753  31.5646493  22.8530113  18.7802753  31.9106493
  26.9670113  30.6132753  33.3946493  27.6320113  30.4652753  32.8496493
  27.3270113  30.5302753  34.1846493  27.1190113  30.5792753  33.4306493
  17.3950113  30.1222753  44.4596493  17.6870113  30.0552753  45.2796493
  16.7690113  29.5172753  44.4146493  17.3460113  30.0232753  44.5746493
  29.7560113  14.9812753  42.5546493  30.5130113  15.0532753  42.1266493
  29.8190113  14.2082753  42.9536493  29.8770113  14.8782753  42.5496493
  12.3090113  16.2792753  46.4516493  12.3050113  16.8662753  47.0976493
  12.9030113  16.5912753  45.8946493  12.3960113  16.4122753  46.4646493
  24.6470113  26.6132753  46.9936493  24.6130113  26.9952753  47.7776493
  25.5010113  26.5712753  46.8226493  24.7680113  26.6632753  47.0846493
  21.7850113  26.8102753  31.7436493  21.6040113  27.3552753  32.4006493
  22.5510113  27.1002753  31.4426493  21.8710113  26.9342753  31.7966493
  25.2920113  14.7062753  32.7976493  25.8320113  14.0242753  32.8736493
  25.3540113  15.1042753  33.5716493  25.3810113  14.6642753  32.9236493
  13.2460113  15.8742753  35.3666493  13.1320113  15.0102753  35.3976493
  12.7710113  16.1682753  36.0366493  13.1590113  15.7902753  35.4696493
  15.3880113  28.2842753  43.5816493  14.6900113  27.7762753  43.7076493
  15.6480113  28.0792753  42.7736493  15.3230113  28.1792753  43.4806493
  22.5500113  17.0822753  34.1116493  22.0420113  16.4202753  33.8576493
  22.6020113  17.5862753  33.4016493  22.4830113  17.0592753  33.9696493
  23.0990113  29.7772753  44.4916493  23.8670113  29.6972753  44.0856493
  22.5160113  29.6562753  43.8536493  23.1260113  29.7472753  44.3376493
  22.5500113  14.0232753  34.0026493  22.0950113  13.6212753  33.3766493
  23.3230113  14.1782753  33.6276493  22.5970113  13.9872753  33.8546493
  29.3760113  30.3802753  37.3926493  28.9210113  31.0972753  37.5936493
  28.7620113  29.8092753  37.1506493  29.2180113  30.4022753  37.3866493
  21.1480113  16.3902753  38.5246493  21.2220113  16.9582753  37.8666493
  21.2690113  16.8822753  39.2346493  21.1760113  16.5472753  38.5326493
  26.3730113  26.2252753  36.9366493  27.0740113  25.7432753  37.1256493
  25.7130113  25.6562753  36.9816493  26.3790113  26.0702753  36.9706493
  16.7490113  27.1352753  46.1486493  17.5900113  27.1982753  45.9266493
  16.7120113  27.5322753  46.9246493  16.8680113  27.2032753  46.2306493
  15.7560113  12.2132753  36.8726493  16.2920113  12.9012753  36.8626493
  15.7590113  11.9392753  36.0446493  15.8350113  12.2742753  36.7486493
  18.7120113  22.6462753  40.8976493  18.8840113  22.4362753  41.7266493
  18.0570113  22.1122753  40.6816493  18.6410113  22.5362753  40.9886493
  24.9400113  16.5602753  44.4126493  24.8450113  16.8792753  45.2186493
  24.3470113  15.9212753  44.3746493  24.8380113  16.5122753  44.5266493
  19.4620113  22.5842753  43.4876493  19.5150113  23.4312753  43.6896493
  19.1770113  22.2142753  44.2246493  19.4280113  22.6542753  43.6256493
  25.6390113  23.2792753  42.6176493  25.1250113  22.8672753  43.1886493
  25.5130113  24.1232753  42.7986493  25.5450113  23.3432753  42.7286493
  26.1960113  12.5042753  37.2486493  26.2450113  12.1862753  38.0596493
  26.5190113  11.8602753  36.7556493  26.2510113  12.3622753  37.2956493
  12.2830113  26.9552753  49.6986493  13.0390113  27.3042753  49.9566493
  12.4600113  26.1022753  49.6416493  12.4210113  26.8802753  49.7286493
  28.6600113  16.7402753  45.5566493  29.4320113  16.5152753  45.8936493
  28.1850113  16.9572753  46.2566493  28.7040113  16.7392753  45.7096493
  16.2040113  16.0232753  38.5266493  16.4760113  15.5932753  37.8186493
  16.0280113  15.3872753  39.0976493  16.2180113  15.8662753  38.5066493
  28.8920113  23.7182753  32.7446493  29.0110113  23.4312753  33.5596493
  29.6990113  23.7392753  32.4146493  29.0280113  23.6792753  32.8166493
  16.0280113  23.4502753  38.0756493  16.8790113  23.3702753  37.9026493
  15.6710113  22.7682753  37.6636493  16.1010113  23.3372753  37.9886493
  14.7950113  30.1752753  39.3126493  14.1220113  29.6772753  39.0676493
  15.1980113  30.3602753  38.5616493  14.7550113  30.1292753  39.1656493
  14.3450113  17.1252753  41.6086493  15.1880113  17.3452753  41.5656493
  13.9560113  17.6982753  41.0776493  14.4120113  17.2422753  41.5236493
  18.3960113  23.4572753  36.3106493  19.1090113  23.9522753  36.4006493
  18.6180113  22.8902753  35.6846493  18.5340113  23.4462753  36.2316493
  30.9740113  15.1162753  31.7826493  30.3120113  14.5482753  31.8056493
  30.7810113  15.6282753  31.1026493  30.8480113  15.1082753  31.6856493
  12.5520113  25.1002753  39.6306493  11.8850113  25.5882753  39.9066493
  13.2320113  25.6452753  39.6596493  12.5540113  25.2522753  39.6756493
  20.1990113  18.8102753  49.7266493  19.7150113  19.3872753  50.1686493
  20.1710113  19.1052753  48.9056493  20.1230113  18.9392753  49.6706493
  31.2970113  19.4942753  44.3386493  31.5120113  18.6942753  44.0626493
  30.4470113  19.5542753  44.1496493  31.2030113  19.3852753  44.2696493
  12.6180113  21.7842753  34.7336493  12.4330113  20.9452753  34.8856493
  13.2770113  21.7482753  34.1636493  12.6880113  21.6552753  34.6716493
  28.9760113  14.6742753  34.0616493  29.7220113  14.2672753  34.2606493
  29.2390113  15.3892753  33.6366493  29.1250113  14.7202753  34.0286493
  22.9190113  27.1602753  38.6376493  22.3960113  27.7942753  38.3446493
  23.2290113  26.7962753  37.9086493  22.8870113  27.2002753  38.4866493
  12.7900113  25.9482753  34.3086493  13.3420113  26.5172753  34.6726493
  12.5580113  25.4332753  34.9736493  12.8370113  25.9562753  34.4606493
  16.9940113  24.9482753  41.3976493  17.4610113  25.2372753  42.0756493
  17.5660113  24.4702753  40.9436493  17.1480113  24.9202753  41.4306493
  12.6200113  24.3972753  31.9366493  13.3760113  23.9652753  31.9946493
  12.6350113  24.9292753  32.6276493  12.7340113  24.4122753  32.0476493
  13.5600113  22.6182753  39.9416493  13.9910113  22.4892753  39.1946493
  13.3550113  23.4662753  39.9156493  13.5930113  22.7242753  39.8276493
  19.9060113  16.1822753  33.5916493  19.9040113  16.0652753  32.7266493
  19.7250113  17.0302753  33.6836493  19.8790113  16.2902753  33.4776493
  28.9600113  28.6092753  45.0886493  28.2890113  29.1232753  45.3066493
  29.0230113  28.7092753  44.2246493  28.8700113  28.7002753  44.9936493
  17.6440113  26.1342753  38.2236493  17.7700113  26.9772753  38.4106493
  18.3120113  25.7352753  38.6196493  17.7620113  26.2002753  38.3096493
  15.7740113  19.6172753  48.0856493  15.2380113  19.1112753  48.5536493
  15.7940113  19.2272753  47.3056493  15.6970113  19.4842753  48.0396493
  16.2590113  19.0142753  33.2256493  16.1310113  18.5662753  33.9636493
  15.6770113  18.6722753  32.6736493  16.1540113  18.8972753  33.2536493
  16.4260113  20.8442753  39.8246493  15.6450113  20.7852753  39.4416493
  16.4980113  20.0922753  40.2616493  16.3210113  20.7252753  39.8326493
  16.8560113  20.5812753  43.2926493  16.8810113  19.9062753  42.7416493
  16.2100113  21.0772753  42.9806493  16.7650113  20.5542753  43.1656493
  26.7510113  18.2942753  41.6886493  26.0890113  18.6222753  42.1516493
  26.9380113  18.9282753  41.1196493  26.6810113  18.4362753  41.6726493
  20.9560113  29.3582753  42.6846493  20.6790113  28.7172753  42.1616493
  20.7480113  30.0842753  42.2466493  20.8850113  29.3712753  42.5426493
  23.3960113  14.2002753  45.1176493  23.5450113  13.3752753  44.8746493
  23.7750113  14.2552753  45.9016493  23.4740113  14.0862753  45.1976493
  24.9440113  16.2632753  35.1996493  25.4340113  16.9802753  35.1226493
  24.1540113  16.5242753  34.9366493  24.9000113  16.4072753  35.1496493
  14.6550113  21.9362753  48.8516493  14.6180113  22.4372753  48.1376493
  14.9860113  21.1842753  48.5566493  14.6980113  21.8982753  48.7026493
  26.2580113  24.1412753  47.1096493  26.7420113  24.8592753  47.2076493
  26.6520113  23.7142753  46.4586493  26.3880113  24.1842753  47.0276493
  20.5540113  26.9862753  48.2866493  20.9080113  26.8082753  49.0636493
  20.1180113  26.2572753  48.0876493  20.5420113  26.8522753  48.3726493
  21.5260113  17.7332753  40.9246493  22.0060113  18.4322753  41.1326493
  21.8990113  17.0862753  41.3756493  21.6520113  17.7412753  41.0216493
  23.7150113  20.9022753  33.1986493  23.7070113  21.6242753  32.7086493
  23.0760113  21.0372753  33.7756493  23.6200113  21.0292753  33.2116493
  28.6870113  24.7722753  37.1796493  29.0430113  24.4222753  37.8946493
  28.6790113  24.1112753  36.6096493  28.7390113  24.6222753  37.2006493
  24.7320113  27.8382753  41.0236493  24.1290113  27.5422753  40.4666493
  25.2770113  28.2902753  40.5146493  24.7230113  27.8612753  40.8656493
  24.7450113  24.6892753  40.4236493  23.9480113  24.9132753  40.6976493
  25.0030113  24.0952753  41.0086493  24.6650113  24.6342753  40.5506493
  18.6370113  29.5012753  34.8716493  18.4900113  28.7252753  35.2426493
  19.3260113  29.3542753  34.3566493  18.7170113  29.3642753  34.8506493
  18.3080113  13.2442753  32.8596493  18.4050113  13.1372753  33.7206493
  17.6000113  13.7502753  32.7946493  18.2180113  13.3032753  32.9776493
  20.9290113  29.0172753  33.2736493  21.5510113  29.1802753  33.8636493
  20.9650113  29.7082753  32.7416493  21.0260113  29.1432753  33.2826493
  28.0050113  22.6872753  45.2696493  28.0600113  22.8122753  44.4076493
  28.7580113  23.0072753  45.5716493  28.1240113  22.7522753  45.1866493
  24.1960113  28.0362753  49.5466493  24.3600113  28.3192753  50.3556493
  24.4590113  28.6972753  49.0416493  24.2590113  28.1762753  49.5916493
  29.0370113  12.9852753  48.2566493  28.4000113  12.5852753  47.8146493
  29.0630113  12.5542753  49.0146493  28.9470113  12.8632753  48.3026493
  15.4300113  21.5512753  34.1026493  15.7540113  20.7722753  33.8806493
  16.0760113  21.9192753  34.5576493  15.5730113  21.4902753  34.1366493
  23.7360113  22.4932753  44.8696493  23.5810113  23.1032753  45.4736493
  24.2700113  21.9352753  45.2756493  23.7920113  22.5012753  45.0186493
  12.4270113  13.2122753  35.0706493  12.5560113  12.5042753  34.5786493
  12.0600113  12.8942753  35.7956493  12.3920113  13.0602753  35.1056493
  22.1200113  20.8932753  35.5276493  22.1790113  21.5432753  36.1066493
  21.9310113  20.1972753  36.0186493  22.1010113  20.8862753  35.6856493
  27.3460113  25.2222753  41.3966493  26.8670113  25.5202753  40.7306493
  26.9900113  24.4462753  41.5746493  27.2230113  25.1512753  41.3246493
  16.6160113  15.4102753  32.0396493  16.1050113  15.4632753  31.3336493
  17.4000113  15.6502753  31.7436493  16.6560113  15.4532753  31.8916493
  21.3430113  22.9402753  39.9586493  20.4960113  22.7462753  40.0396493
  21.6670113  22.7752753  40.7516493  21.2650113  22.8872753  40.0876493
  18.0950113  29.6702753  30.8446493  18.5340113  28.9732753  31.1326493
  18.3020113  30.2942753  31.4176493  18.1910113  29.6592753  30.9716493
  15.1910113  22.6332753  42.2746493  15.9130113  23.1212753  42.2376493
  14.9210113  22.6032753  41.4456493  15.2580113  22.7012753  42.1466493
  18.4210113  17.8042753  39.0096493  19.2670113  17.6142753  39.1076493
  18.0510113  17.0272753  38.8716493  18.4910113  17.6612753  39.0036493
  13.2420113  19.1422753  35.6646493  13.7310113  18.8502753  36.3256493
  13.3710113  18.5492753  35.0376493  13.3330113  19.0112753  35.6696493
  28.2770113  22.1642753  42.5156493  28.2700113  21.3882753  42.9136493
  27.4360113  22.3982753  42.5086493  28.1520113  22.0842753  42.5736493
  17.7670113  20.5762753  31.1506493  17.1570113  20.1712753  31.6246493
  17.3810113  20.6942753  30.3776493  17.6200113  20.5332753  31.1066493
  14.5860113  23.6852753  46.5526493  14.1650113  23.1672753  45.9916493
  14.2340113  24.4712753  46.4096493  14.4720113  23.7252753  46.4486493
  29.5330113  22.2352753  39.9526493  29.2470113  22.6362753  40.6726493
  30.3930113  22.1732753  40.0796493  29.6180113  22.2852753  40.0776493
  19.2220113  19.0372753  33.8606493  19.4940113  19.8632753  33.9276493
  18.3590113  19.1122753  33.7646493  19.1350113  19.1702753  33.8556493
  27.1950113  16.1592753  48.4926493  26.6700113  16.6182753  49.0166493
  26.8340113  15.3642753  48.4866493  27.0640113  16.1092753  48.5686493
  12.7020113  15.0072753  40.3966493  12.7460113  15.3512753  39.5956493
  13.4570113  15.2442753  40.7636493  12.8200113  15.0932753  40.3326493
  25.6870113  19.7282753  48.5686493  25.7600113  19.8322753  49.4316493
  25.0530113  20.2862753  48.3476493  25.6040113  19.8262753  48.6636493
  27.2690113  26.4712753  32.4636493  27.6030113  25.6652753  32.4986493
  26.5140113  26.3992753  32.8936493  27.2070113  26.3412753  32.5326493
  27.7510113  18.3052753  38.1226493  27.0060113  17.9822753  38.4406493
  27.7530113  19.1312753  38.4026493  27.6410113  18.3792753  38.2106493
  30.6530113  20.5892753  49.6686493  30.6010113  20.2482753  48.8676493
  31.3900113  21.0562753  49.6466493  30.7540113  20.6082753  49.5466493
  30.1910113  24.2652753  45.8746493  30.8190113  23.7162753  45.6186493
  30.1300113  24.8302753  45.2126493  30.2750113  24.2682753  45.7386493
  24.6430113  24.3462753  31.8666493  25.3270113  23.8322753  31.6976493
  24.2260113  24.3922753  31.1016493  24.6820113  24.2772753  31.7286493
  19.3250113  25.4962753  43.1706493  19.0270113  26.0882753  43.7376493
  19.3800113  25.9382753  42.4216493  19.2890113  25.6492753  43.1436493
  17.3040113  24.4462753  46.5686493  16.4980113  24.1562753  46.7356493
  17.2150113  25.3142753  46.5746493  17.1720113  24.5312753  46.5936493
  26.6630113  14.6352753  45.5836493  27.4070113  15.0872753  45.5206493
  26.0970113  15.1052753  45.1146493  26.6900113  14.7722753  45.5056493
  21.8410113  21.9192753  42.6616493  22.3170113  22.2932753  43.2896493
  21.0180113  22.0532753  42.9206493  21.7900113  21.9942753  42.7926493
  18.5510113  17.5222753  45.4026493  18.7120113  16.7782753  45.8296493
  18.5060113  17.2732753  44.5676493  18.5680113  17.3752753  45.3426493
  21.1050113  29.3122753  37.8896493  21.6510113  29.9912753  37.9436493
  20.7550113  29.3942753  37.0946493  21.1340113  29.4252753  37.7796493
  27.9480113  12.6152753  43.2536493  27.6680113  13.4402753  43.2096493
  28.6640113  12.6682753  43.7496493  28.0130113  12.7452753  43.3206493
  20.3030113  13.3302753  45.2826493  21.0080113  13.6502753  44.8806493
  20.5440113  12.5232753  45.5096493  20.4420113  13.2582753  45.2566493
  19.2880113  27.5402753  41.2786493  18.6640113  28.1222753  41.0966493
  19.5360113  27.2542753  40.4926493  19.2320113  27.5842753  41.1356493
  23.5970113  24.1742753  48.2676493  24.3540113  24.4602753  47.9416493
  23.0500113  24.2262753  47.5896493  23.6280113  24.2242753  48.1186493
  27.5060113  26.7242753  46.7716493  27.8520113  26.9942753  47.5256493
  27.8000113  27.3062753  46.1916493  27.6010113  26.8502753  46.7976493
  29.3690113  18.8702753  32.1106493  29.7470113  19.5472753  31.7106493
  28.5270113  19.0942753  32.1416493  29.3000113  19.0032753  32.0556493
  20.8820113  22.3162753  31.1936493  20.0770113  22.1392753  30.9086493
  20.8490113  23.1672753  31.3856493  20.7580113  22.4152753  31.1806493
  16.8120113  18.3832753  41.3436493  17.2520113  18.2802753  40.5976493
  17.3570113  18.0702753  41.9486493  16.9570113  18.3222753  41.3226493
  24.8280113  17.4852753  46.9356493  24.1800113  17.9552753  47.2836493
  25.3930113  17.3962753  47.5946493  24.8160113  17.5412753  47.0846493
  24.5160113  19.0222753  43.2336493  24.8180113  19.4422753  43.9366493
  24.5520113  18.1822753  43.4656493  24.5660113  18.9602753  43.3716493
  21.9410113  29.1892753  47.1586493  22.4190113  28.5892753  46.7426493
  21.5900113  28.7462753  47.8236493  21.9600113  29.0352753  47.1956493
  27.0640113  18.4692753  35.4856493  27.2710113  18.2682753  36.3096493
  27.8200113  18.7372753  35.1436493  27.2060113  18.4792753  35.5566493
  20.3590113  13.3682753  41.3906493  19.5330113  13.2192753  41.6276493
  20.3190113  13.4032753  40.5196493  20.2310113  13.3512753  41.2966493
  28.0860113  14.5522753  36.9596493  27.3720113  14.0812753  37.1306493
  27.9240113  14.8932753  36.1736493  27.9570113  14.5332753  36.8686493
  28.5290113  22.4962753  35.3396493  29.0050113  21.7672753  35.2916493
  27.7080113  22.2102753  35.2636493  28.4780113  22.3462753  35.3206493
  22.0000113  24.4082753  46.1786493  21.2050113  24.3442753  46.5296493
  22.0710113  25.2552753  45.9836493  21.8930113  24.5232753  46.2016493
  12.9240113  13.7662753  47.4256493  12.7840113  14.5612753  47.0946493
  12.1380113  13.5232753  47.7146493  12.7870113  13.8482753  47.4196493
  17.8300113  30.6152753  41.4956493  17.8410113  30.6742753  42.3656493
  17.4050113  29.8682753  41.3456493  17.7690113  30.5132753  41.6016493
  15.9880113  16.5102753  34.6506493  16.1140113  16.1812753  33.8526493
  15.1760113  16.2612753  34.8496493  15.8870113  16.4252753  34.5626493
  24.7450113  23.6632753  37.6946493  24.8210113  24.0042753  38.4936493
  24.9140113  22.8162753  37.8156493  24.7810113  23.5882753  37.8306493
  22.2670113  22.9372753  37.2596493  21.9690113  22.6222753  38.0166493
  22.9620113  23.4102753  37.4946493  22.3260113  22.9602753  37.4066493
  22.4890113  27.0552753  45.2866493  23.1760113  26.9412753  45.8116493
  22.6230113  27.8462753  44.9426493  22.6100113  27.1552753  45.3136493
  30.6650113  19.6642753  47.0976493  29.8100113  19.5422753  47.2236493
  30.8180113  19.2692753  46.3346493  30.5610113  19.5872753  47.0036493
  25.1780113  20.3292753  45.6736493  24.9230113  19.6102753  46.0956493
  25.9990113  20.4452753  45.9436493  25.2620113  20.2402753  45.7756493
  14.5940113  30.1132753  46.9376493  13.9400113  29.5442753  47.0356493
  14.2190113  30.8862753  47.0886493  14.4420113  30.1432753  46.9746493
  23.1120113  21.5192753  48.8606493  23.4350113  22.2052753  48.4286493
  22.4080113  21.8422753  49.2626493  23.0550113  21.6682753  48.8556493
  26.1960113  29.8932753  39.7896493  25.7450113  30.5362753  40.1686493
  26.9040113  29.8142753  40.2946493  26.2340113  29.9762753  39.9206493
  22.8970113  24.9832753  42.7196493  22.2030113  25.3852753  43.0626493
  23.5740113  25.4162753  43.0586493  22.8940113  25.1062753  42.8206493
  28.2740113  27.5762753  49.2996493  29.0500113  27.1862753  49.3826493
  27.8050113  27.2402753  49.9546493  28.3190113  27.4692753  49.4086493
  15.9650113  18.5212753  45.0666493  16.3400113  19.1402753  44.5796493
  16.6390113  18.0472753  45.3516493  16.1200113  18.5432753  45.0366493
  13.7400113  16.9692753  44.3416493  13.8170113  16.8002753  43.4886493
  14.4860113  17.3752753  44.5386493  13.8610113  17.0042753  44.2446493
  29.2990113  19.6092753  34.7816493  29.4020113  19.5512753  33.9176493
  30.0400113  19.2772753  35.0996493  29.4240113  19.5522753  34.7006493
  16.2940113  14.3792753  46.7526493  16.2130113  13.5352753  46.9586493
  15.9800113  14.4232753  45.9396493  16.2360113  14.2612753  46.6626493
  23.2190113  26.5742753  35.8886493  23.0140113  27.4072753  35.7296493
  22.4440113  26.1922753  36.0106493  23.0740113  26.6412753  35.8836493
  28.4010113  19.7552753  44.1376493  28.3990113  18.8922753  44.2616493
  28.4680113  20.0792753  44.9446493  28.4110113  19.6752753  44.2746493
  13.1370113  22.1952753  44.5656493  13.4570113  22.4142753  43.7846493
  13.0370113  21.3302753  44.5106493  13.1690113  22.1002753  44.4426493
  14.5930113  18.1312753  31.1836493  13.9210113  18.1452753  31.7396493
  14.6880113  17.2832753  30.9996493  14.5080113  18.0082753  31.2386493
  24.2800113  14.5552753  47.9196493  24.3720113  15.2672753  48.4136493
  23.6430113  14.1102753  48.3166493  24.1990113  14.5942753  48.0516493
  23.2740113  14.7452753  38.7736493  22.5740113  15.2632753  38.7176493
  23.3120113  14.3652753  37.9896493  23.1760113  14.7662753  38.6496493
  18.5810113  26.8362753  32.2976493  19.0220113  26.9162753  33.0456493
  17.7760113  26.6202753  32.5556493  18.5270113  26.8162753  32.4466493
  26.8720113  15.2612753  41.5736493  27.7270113  15.3602753  41.7186493
  26.5030113  15.8142753  42.1386493  26.9440113  15.3582753  41.6786493
  17.9000113  21.4872753  45.9506493  17.5040113  22.2612753  46.0256493
  17.4940113  21.1142753  45.2746493  17.7820113  21.5462753  45.8616493
  27.1760113  20.5412753  40.0646493  27.8420113  21.0822753  40.2246493
  26.8310113  20.8522753  39.3256493  27.2230113  20.6672753  39.9796493
  27.4890113  28.6072753  35.8716493  27.3150113  27.9532753  36.4216493
  28.2020113  28.3362753  35.4486493  27.5690113  28.4702753  35.8906493
  15.9100113  25.9062753  32.8986493  15.6660113  25.5992753  33.6786493
  15.8770113  25.2032753  32.3826493  15.8690113  25.7572753  32.9376493
  18.7290113  24.1512753  31.6416493  17.9110113  23.8832753  31.7816493
  18.7010113  25.0032753  31.8266493  18.6040113  24.2382753  31.6896493
  18.3290113  14.4642753  43.4006493  17.4650113  14.5482753  43.4806493
  18.5490113  13.9502753  44.0696493  18.2340113  14.4012753  43.5116493
  30.3470113  13.0992753  44.7296493  30.2950113  13.0552753  45.5996493
  31.0340113  12.5962753  44.5396493  30.4410113  13.0192753  44.8296493
  22.4320113  15.2122753  41.7746493  21.6950113  14.7582753  41.8876493
  23.0030113  14.8102753  42.2976493  22.4070113  15.0852753  41.8686493
  25.1640113  26.0602753  43.5626493  25.3700113  26.3612753  44.3546493
  25.1030113  26.7822753  43.0776493  25.1850113  26.2112753  43.6076493
  24.6980113  30.2742753  47.8086493  23.9450113  30.2562753  47.3676493
  24.8660113  31.1262753  47.8926493  24.6120113  30.3972753  47.7556493
  19.9350113  19.5412753  46.9786493  19.6130113  18.9652753  46.4086493
  19.5760113  20.2962753  46.7326493  19.8350113  19.5672753  46.8586493
  20.7310113  12.7932753  31.6056493  20.8090113  13.0402753  30.7726493
  19.9880113  13.1702753  31.8636493  20.6330113  12.8852753  31.5206493
  29.9760113  24.6992753  43.0206493  29.9440113  23.8372753  42.8856493
  29.2830113  25.0012753  42.5866493  29.8690113  24.6162753  42.9366493
  18.3700113  29.8972753  47.2266493  18.4110113  30.0232753  48.0896493
  19.0210113  29.3372753  47.0706493  18.4720113  29.8332753  47.3316493
  28.0810113  27.9592753  41.8176493  28.6080113  27.8762753  41.1266493
  27.6900113  27.1812753  41.8716493  28.1010113  27.8322753  41.7236493
  15.5490113  14.5472753  44.0486493  15.2060113  13.7802753  43.8146493
  14.8540113  15.0712753  44.1126493  15.3960113  14.5112753  44.0236493
  24.5950113  13.4032753  41.0256493  25.2650113  13.9472753  41.1526493
  24.0920113  13.8272753  40.4526493  24.6200113  13.5462753  40.9596493
  15.9630113  28.2802753  48.5866493  16.5580113  28.7112753  49.0586493
  15.5990113  28.9042753  48.0976493  15.9970113  28.4362753  48.5836493
  23.9540113  19.2112753  38.5186493  24.5050113  18.6042753  38.8186493
  23.5290113  19.4742753  39.2336493  23.9730113  19.1602753  38.6676493
  14.2020113  17.8612753  38.0046493  13.8340113  18.1632753  38.7356493
  14.7360113  17.2322753  38.2886493  14.2260113  17.8132753  38.1546493
  13.8900113  26.2692753  45.5156493  13.3160113  26.6852753  46.0246493
  14.6230113  26.7342753  45.6106493  13.9140113  26.3992753  45.6046493
  25.9240113  21.0422753  35.0806493  25.9920113  20.1922753  35.2616493
  25.1010113  21.1282753  34.8026493  25.8120113  20.9292753  35.0666493
  15.6760113  29.5362753  34.2906493  15.5310113  29.6922753  33.4446493
  16.5420113  29.6152753  34.3686493  15.7830113  29.5712753  34.1776493
  19.8430113  21.9332753  34.0186493  19.9430113  22.0722753  33.1636493
  20.6610113  21.8732753  34.3146493  19.9780113  21.9442753  33.9356493
  29.0030113  29.9972753  31.4986493  29.6400113  29.8632753  32.0796493
  28.6620113  29.2032753  31.3816493  29.0470113  29.8602753  31.5666493
  29.1980113  22.4152753  48.2316493  29.8320113  22.2452753  48.8056493
  29.6150113  22.8182753  47.5796493  29.3530113  22.4502753  48.2206493
  25.0780113  26.2622753  33.8206493  24.8270113  26.1342753  34.6466493
  24.7610113  25.5672753  33.3996493  24.9940113  26.1412753  33.8806493
  29.8230113  16.9792753  48.9696493  29.6270113  17.6232753  49.5246493
  29.1010113  16.4892753  48.9616493  29.6880113  17.0022753  49.0506493
  29.7220113  17.9202753  41.9406493  28.8890113  18.1702753  41.8686493
  29.6660113  17.0802753  42.1696493  29.5910113  17.8332753  41.9636493
  18.9820113  14.9082753  47.1346493  19.2160113  14.3322753  46.5216493
  18.1400113  14.7272753  47.2756493  18.8920113  14.7962753  47.0646493
  26.6090113  22.5262753  49.5866493  27.4800113  22.4902753  49.5506493
  26.3900113  22.9462753  48.8546493  26.7060113  22.5822753  49.4736493
  16.3630113  28.3512753  40.7676493  16.2840113  27.5412753  40.4516493
  15.9190113  28.8382753  40.1956493  16.2860113  28.3032753  40.6366493
  21.9640113  24.4702753  33.2506493  22.6810113  24.1232753  32.8946493
  21.9300113  25.2702753  32.9026493  22.0650113  24.5372753  33.1466493
  13.9350113  30.5952753  44.3486493  14.4280113  30.5392753  45.0666493
  14.1230113  29.8622753  43.9136493  14.0360113  30.4782753  44.3906493
  23.3730113  13.1112753  17.4894083  23.1280113  13.5992753  16.8094083
  24.2360113  13.0382753  17.3894083  23.4640113  13.1722753  17.3744083
  23.1820113  20.0272753  22.1604083  22.6580113  20.6232753  22.5234083
  23.5790113  19.6592753  22.8444083  23.1630113  20.0612753  22.3154083
  13.0510113  24.1672753  17.6164083  12.6100113  24.2852753  18.3594083
  12.7680113  23.3922753  17.3314083  12.9440113  24.0702753  17.6844083
  29.3260113  27.4682753  15.1314083  30.0270113  26.9492753  15.1274083
  28.7390113  27.0232753  14.6624083  29.3430113  27.3252753  15.0614083
  12.7940113  17.9592753  14.1234083  12.0160113  18.1212753  13.7634083
  12.8330113  17.0882753  14.1454083  12.6850113  17.8542753  14.0734083
  15.9330113  23.2222753  12.7954083  15.5410113  22.8512753  12.1094083
  15.8530113  22.6242753  13.4244083  15.8630113  23.0792753  12.7864083
  25.8530113  21.0942753  18.8364083  25.9330113  21.0982753  17.9674083
  25.2690113  20.4622753  18.9854083  25.7780113  21.0012753  18.7304083
  15.5600113  24.8632753  16.6954083  16.1680113  24.6932753  17.2984083
  14.8090113  24.7232753  17.1164083  15.5390113  24.8172753  16.8464083
  19.8420113  14.1982753  16.6444083  19.7720113  14.8752753  16.0984083
  20.5830113  13.8102753  16.3954083  19.9410113  14.2412753  16.5264083
  14.4510113  27.9542753  12.7724083  14.9180113  28.0382753  12.0404083
  14.9060113  27.3762753  13.2414083  14.5870113  27.8812753  12.7334083
  12.9910113  26.9022753  23.8714083  13.1200113  26.6222753  24.6874083
  12.3810113  26.3612753  23.5624083  12.9200113  26.7812753  23.9464083
  19.5650113  24.4272753  28.9384083  19.3290113  24.4242753  29.7784083
  18.8170113  24.2792753  28.5144083  19.4190113  24.4042753  28.9994083
  14.4370113  21.4232753  18.0734083  13.9750113  21.0312753  17.4464083
  15.1370113  20.9102753  18.1654083  14.4720113  21.2902753  17.9944083
  18.9450113  17.0332753  23.4204083  19.6230113  17.0512753  22.8714083
  18.9000113  16.1972753  23.6654083  19.0380113  16.9122753  23.3754083
  19.5470113  27.6192753  26.2014083  19.6850113  28.3792753  25.7944083
  20.3380113  27.2542753  26.2284083  19.6840113  27.6782753  26.1454083
  16.4380113  19.5232753  18.0964083  17.2550113  19.3362753  18.3394083
  15.9610113  18.9092753  18.4924083  16.4880113  19.4052753  18.1914083
  20.6420113  25.5042753  20.7064083  20.9900113  24.7052753  20.7364083
  21.3070113  26.0082753  20.4514083  20.7920113  25.4602753  20.6734083
  20.6990113  24.9532753  16.9174083  21.0300113  24.3092753  17.4034083
  20.9390113  24.7422753  16.1064083  20.7830113  24.8272753  16.8694083
  22.6670113  19.0842753  28.2564083  21.8190113  18.9852753  28.0784083
  22.6960113  19.8292753  28.7104083  22.5460113  19.1802753  28.2974083
  17.0350113  14.6172753  17.3624083  16.7390113  15.1182753  16.7124083
  17.9020113  14.6952753  17.3054083  17.1190113  14.7032753  17.2584083
  27.2250113  12.0442753  27.3704083  27.0670113  12.8132753  26.9884083
  26.4530113  11.8242753  27.7144083  27.0870113  12.1252753  27.3654083
  20.0140113  13.7592753  19.5854083  20.0870113  14.6192753  19.7144083
  19.9760113  13.6842753  18.7174083  20.0190113  13.8752753  19.4764083
  24.6870113  16.6852753  11.8844083  24.2370113  17.3662753  12.1914083
  24.8010113  16.1812753  12.5874083  24.6380113  16.7112753  12.0334083
  12.8930113  19.1842753  21.0864083  12.6370113  20.0152753  21.0114083
  12.2290113  18.8012753  21.5034083  12.7570113  19.2502753  21.1374083
  12.8030113  28.8942753  18.9864083  12.2110113  29.4522753  18.6734083
  13.2290113  28.6252753  18.2744083  12.7790113  28.9362753  18.8354083
  18.6430113  26.7382753  16.4664083  18.0640113  26.4632753  17.0584083
  19.2670113  26.1292753  16.4914083  18.6500113  26.6082753  16.5574083
  24.7860113  29.0262753  13.9884083  25.5130113  29.4982753  14.0904083
  25.0150113  28.2322753  14.2684083  24.9280113  28.9792753  14.0454083
  22.9540113  29.4182753  15.9784083  23.1680113  29.9452753  16.6404083
  23.7210113  29.2442753  15.5994083  23.0990113  29.4702753  16.0204083
  15.9220113  14.0012753  21.5774083  15.4010113  13.3732753  21.2694083
  16.5130113  13.5642753  22.0484083  15.9330113  13.8432753  21.6014083
  19.2280113  16.1342753  30.8754083  19.3450113  15.6802753  30.1394083
  19.5160113  16.9322753  30.6724083  19.2880113  16.1852753  30.7364083
  14.3480113  27.5642753  16.9174083  15.0040113  26.9892753  16.9324083
  14.7370113  28.3132753  16.6964083  14.5030113  27.5892753  16.8874083
  30.0810113  16.6582753  18.1794083  29.7350113  17.3362753  18.6054083
  29.4450113  16.0602753  18.1954083  29.9360113  16.6702753  18.2444083
  25.3930113  29.4282753  24.2834083  26.1370113  29.8842753  24.2734083
  25.2720113  29.2142753  23.4464083  25.4850113  29.4642753  24.1584083
  14.9610113  15.7312753  29.8594083  14.1830113  15.3412753  29.7874083
  15.4520113  15.3192753  29.2684083  14.9180113  15.6122753  29.7614083
  15.1660113  26.0512753  20.4174083  15.5890113  25.6952753  19.7434083
  15.4900113  25.6292753  21.1094083  15.2760113  25.9362753  20.4204083
  18.3970113  28.9032753  19.7134083  19.2410113  29.0072753  19.5184083
  18.1000113  29.7212753  19.7814083  18.4780113  29.0392753  19.6944083
  21.6100113  13.3742753  29.0274083  21.7880113  12.5652753  28.7524083
  21.4670113  13.8152753  28.2884083  21.6150113  13.3202753  28.8774083
  22.2040113  18.3002753  17.8004083  22.4910113  18.0682753  17.0104083
  22.9360113  18.3792753  18.2694083  22.3540113  18.2772753  17.7534083
  22.9260113  18.6392753  12.9214083  23.2070113  19.4272753  13.1704083
  22.1500113  18.8042753  12.5584083  22.8530113  18.7802753  12.9044083
  26.9670113  30.6132753  14.3884083  27.6320113  30.4652753  13.8434083
  27.3270113  30.5302753  15.1784083  27.1190113  30.5792753  14.4244083
  17.3950113  30.1222753  25.4534083  17.6870113  30.0552753  26.2734083
  16.7690113  29.5172753  25.4084083  17.3460113  30.0232753  25.5684083
  29.7560113  14.9812753  23.5484083  30.5130113  15.0532753  23.1204083
  29.8190113  14.2082753  23.9474083  29.8770113  14.8782753  23.5434083
  12.3090113  16.2792753  27.4454083  12.3050113  16.8662753  28.0914083
  12.9030113  16.5912753  26.8884083  12.3960113  16.4122753  27.4584083
  24.6470113  26.6132753  27.9874083  24.6130113  26.9952753  28.7714083
  25.5010113  26.5712753  27.8164083  24.7680113  26.6632753  28.0784083
  21.7850113  26.8102753  12.7374083  21.6040113  27.3552753  13.3944083
  22.5510113  27.1002753  12.4364083  21.8710113  26.9342753  12.7904083
  25.2920113  14.7062753  13.7914083  25.8320113  14.0242753  13.8674083
  25.3540113  15.1042753  14.5654083  25.3810113  14.6642753  13.9174083
  13.2460113  15.8742753  16.3604083  13.1320113  15.0102753  16.3914083
  12.7710113  16.1682753  17.0304083  13.1590113  15.7902753  16.4634083
  15.3880113  28.2842753  24.5754083  14.6900113  27.7762753  24.7014083
  15.6480113  28.0792753  23.7674083  15.3230113  28.1792753  24.4744083
  22.5500113  17.0822753  15.1054083  22.0420113  16.4202753  14.8514083
  22.6020113  17.5862753  14.3954083  22.4830113  17.0592753  14.9634083
  23.0990113  29.7772753  25.4854083  23.8670113  29.6972753  25.0794083
  22.5160113  29.6562753  24.8474083  23.1260113  29.7472753  25.3314083
  22.5500113  14.0232753  14.9964083  22.0950113  13.6212753  14.3704083
  23.3230113  14.1782753  14.6214083  22.5970113  13.9872753  14.8484083
  29.3760113  30.3802753  18.3864083  28.9210113  31.0972753  18.5874083
  28.7620113  29.8092753  18.1444083  29.2180113  30.4022753  18.3804083
  21.1480113  16.3902753  19.5184083  21.2220113  16.9582753  18.8604083
  21.2690113  16.8822753  20.2284083  21.1760113  16.5472753  19.5264083
  26.3730113  26.2252753  17.9304083  27.0740113  25.7432753  18.1194083
  25.7130113  25.6562753  17.9754083  26.3790113  26.0702753  17.9644083
  16.7490113  27.1352753  27.1424083  17.5900113  27.1982753  26.9204083
  16.7120113  27.5322753  27.9184083  16.8680113  27.2032753  27.2244083
  15.7560113  12.2132753  17.8664083  16.2920113  12.9012753  17.8564083
  15.7590113  11.9392753  17.0384083  15.8350113  12.2742753  17.7424083
  18.7120113  22.6462753  21.8914083  18.8840113  22.4362753  22.7204083
  18.0570113  22.1122753  21.6754083  18.6410113  22.5362753  21.9824083
  24.9400113  16.5602753  25.4064083  24.8450113  16.8792753  26.2124083
  24.3470113  15.9212753  25.3684083  24.8380113  16.5122753  25.5204083
  19.4620113  22.5842753  24.4814083  19.5150113  23.4312753  24.6834083
  19.1770113  22.2142753  25.2184083  19.4280113  22.6542753  24.6194083
  25.6390113  23.2792753  23.6114083  25.1250113  22.8672753  24.1824083
  25.5130113  24.1232753  23.7924083  25.5450113  23.3432753  23.7224083
  26.1960113  12.5042753  18.2424083  26.2450113  12.1862753  19.0534083
  26.5190113  11.8602753  17.7494083  26.2510113  12.3622753  18.2894083
  12.2830113  26.9552753  30.6924083  13.0390113  27.3042753  30.9504083
  12.4600113  26.1022753  30.6354083  12.4210113  26.8802753  30.7224083
  28.6600113  16.7402753  26.5504083  29.4320113  16.5152753  26.8874083
  28.1850113  16.9572753  27.2504083  28.7040113  16.7392753  26.7034083
  16.2040113  16.0232753  19.5204083  16.4760113  15.5932753  18.8124083
  16.0280113  15.3872753  20.0914083  16.2180113  15.8662753  19.5004083
  28.8920113  23.7182753  13.7384083  29.0110113  23.4312753  14.5534083
  29.6990113  23.7392753  13.4084083  29.0280113  23.6792753  13.8104083
  16.0280113  23.4502753  19.0694083  16.8790113  23.3702753  18.8964083
  15.6710113  22.7682753  18.6574083  16.1010113  23.3372753  18.9824083
  14.7950113  30.1752753  20.3064083  14.1220113  29.6772753  20.0614083
  15.1980113  30.3602753  19.5554083  14.7550113  30.1292753  20.1594083
  14.3450113  17.1252753  22.6024083  15.1880113  17.3452753  22.5594083
  13.9560113  17.6982753  22.0714083  14.4120113  17.2422753  22.5174083
  31.1260113  28.2272753  27.9924083  30.4440113  28.5372753  27.5454083
  30.7570113  27.7692753  28.6374083  30.9700113  28.2052753  28.0214083
  26.7870113  20.2552753  13.3234083  26.5670113  20.9862753  12.9014083
  26.3390113  20.3062753  14.0704083  26.6880113  20.3702753  13.3714083
  18.3960113  23.4572753  17.3044083  19.1090113  23.9522753  17.3944083
  18.6180113  22.8902753  16.6784083  18.5340113  23.4462753  17.2254083
  30.9740113  15.1162753  12.7764083  30.3120113  14.5482753  12.7994083
  30.7810113  15.6282753  12.0964083  30.8480113  15.1082753  12.6794083
  12.5520113  25.1002753  20.6244083  11.8850113  25.5882753  20.9004083
  13.2320113  25.6452753  20.6534083  12.5540113  25.2522753  20.6694083
  20.1990113  18.8102753  30.7204083  19.7150113  19.3872753  31.1624083
  20.1710113  19.1052753  29.8994083  20.1230113  18.9392753  30.6644083
  31.2970113  19.4942753  25.3324083  31.5120113  18.6942753  25.0564083
  30.4470113  19.5542753  25.1434083  31.2030113  19.3852753  25.2634083
  12.6180113  21.7842753  15.7274083  12.4330113  20.9452753  15.8794083
  13.2770113  21.7482753  15.1574083  12.6880113  21.6552753  15.6654083
  28.9760113  14.6742753  15.0554083  29.7220113  14.2672753  15.2544083
  29.2390113  15.3892753  14.6304083  29.1250113  14.7202753  15.0224083
  22.9190113  27.1602753  19.6314083  22.3960113  27.7942753  19.3384083
  23.2290113  26.7962753  18.9024083  22.8870113  27.2002753  19.4804083
  12.7900113  25.9482753  15.3024083  13.3420113  26.5172753  15.6664083
  12.5580113  25.4332753  15.9674083  12.8370113  25.9562753  15.4544083
  16.9940113  24.9482753  22.3914083  17.4610113  25.2372753  23.0694083
  17.5660113  24.4702753  21.9374083  17.1480113  24.9202753  22.4244083
  25.4300113  16.9622753  20.1284083  25.7740113  17.1142753  20.9154083
  24.9770113  16.2242753  20.2414083  25.4140113  16.8752753  20.2614083
  12.6200113  24.3972753  12.9304083  13.3760113  23.9652753  12.9884083
  12.6350113  24.9292753  13.6214083  12.7340113  24.4122753  13.0414083
  13.5600113  22.6182753  20.9354083  13.9910113  22.4892753  20.1884083
  13.3550113  23.4662753  20.9094083  13.5930113  22.7242753  20.8214083
  19.9060113  16.1822753  14.5854083  19.9040113  16.0652753  13.7204083
  19.7250113  17.0302753  14.6774083  19.8790113  16.2902753  14.4714083
  28.9600113  28.6092753  26.0824083  28.2890113  29.1232753  26.3004083
  29.0230113  28.7092753  25.2184083  28.8700113  28.7002753  25.9874083
  17.6440113  26.1342753  19.2174083  17.7700113  26.9772753  19.4044083
  18.3120113  25.7352753  19.6134083  17.7620113  26.2002753  19.3034083
  15.7740113  19.6172753  29.0794083  15.2380113  19.1112753  29.5474083
  15.7940113  19.2272753  28.2994083  15.6970113  19.4842753  29.0334083
  16.2590113  19.0142753  14.2194083  16.1310113  18.5662753  14.9574083
  15.6770113  18.6722753  13.6674083  16.1540113  18.8972753  14.2474083
  16.4260113  20.8442753  20.8184083  15.6450113  20.7852753  20.4354083
  16.4980113  20.0922753  21.2554083  16.3210113  20.7252753  20.8264083
  16.8560113  20.5812753  24.2864083  16.8810113  19.9062753  23.7354083
  16.2100113  21.0772753  23.9744083  16.7650113  20.5542753  24.1594083
  26.7510113  18.2942753  22.6824083  26.0890113  18.6222753  23.1454083
  26.9380113  18.9282753  22.1134083  26.6810113  18.4362753  22.6664083
  20.9560113  29.3582753  23.6784083  20.6790113  28.7172753  23.1554083
  20.7480113  30.0842753  23.2404083  20.8850113  29.3712753  23.5364083
  23.3960113  14.2002753  26.1114083  23.5450113  13.3752753  25.8684083
  23.7750113  14.2552753  26.8954083  23.4740113  14.0862753  26.1914083
  24.9440113  16.2632753  16.1934083  25.4340113  16.9802753  16.1164083
  24.1540113  16.5242753  15.9304083  24.9000113  16.4072753  16.1434083
  14.6550113  21.9362753  29.8454083  14.6180113  22.4372753  29.1314083
  14.9860113  21.1842753  29.5504083  14.6980113  21.8982753  29.6964083
  26.2580113  24.1412753  28.1034083  26.7420113  24.8592753  28.2014083
  26.6520113  23.7142753  27.4524083  26.3880113  24.1842753  28.0214083
  20.5540113  26.9862753  29.2804083  20.9080113  26.8082753  30.0574083
  20.1180113  26.2572753  29.0814083  20.5420113  26.8522753  29.3664083
  21.5260113  17.7332753  21.9184083  22.0060113  18.4322753  22.1264083
  21.8990113  17.0862753  22.3694083  21.6520113  17.7412753  22.0154083
  23.7150113  20.9022753  14.1924083  23.7070113  21.6242753  13.7024083
  23.0760113  21.0372753  14.7694083  23.6200113  21.0292753  14.2054083
  28.6870113  24.7722753  18.1734083  29.0430113  24.4222753  18.8884083
  28.6790113  24.1112753  17.6034083  28.7390113  24.6222753  18.1944083
  24.7320113  27.8382753  22.0174083  24.1290113  27.5422753  21.4604083
  25.2770113  28.2902753  21.5084083  24.7230113  27.8612753  21.8594083
  24.7450113  24.6892753  21.4174083  23.9480113  24.9132753  21.6914083
  25.0030113  24.0952753  22.0024083  24.6650113  24.6342753  21.5444083
  18.6370113  29.5012753  15.8654083  18.4900113  28.7252753  16.2364083
  19.3260113  29.3542753  15.3504083  18.7170113  29.3642753  15.8444083
  18.3080113  13.2442753  13.8534083  18.4050113  13.1372753  14.7144083
  17.6000113  13.7502753  13.7884083  18.2180113  13.3032753  13.9714083
  20.9290113  29.0172753  14.2674083  21.5510113  29.1802753  14.8574083
  20.9650113  29.7082753  13.7354083  21.0260113  29.1432753  14.2764083
  28.0050113  22.6872753  26.2634083  28.0600113  22.8122753  25.4014083
  28.7580113  23.0072753  26.5654083  28.1240113  22.7522753  26.1804083
  24.1960113  28.0362753  30.5404083  24.3600113  28.3192753  31.3494083
  24.4590113  28.6972753  30.0354083  24.2590113  28.1762753  30.5854083
  29.0370113  12.9852753  29.2504083  28.4000113  12.5852753  28.8084083
  29.0630113  12.5542753  30.0084083  28.9470113  12.8632753  29.2964083
  15.4300113  21.5512753  15.0964083  15.7540113  20.7722753  14.8744083
  16.0760113  21.9192753  15.5514083  15.5730113  21.4902753  15.1304083
  23.7360113  22.4932753  25.8634083  23.5810113  23.1032753  26.4674083
  24.2700113  21.9352753  26.2694083  23.7920113  22.5012753  26.0124083
  12.4270113  13.2122753  16.0644083  12.5560113  12.5042753  15.5724083
  12.0600113  12.8942753  16.7894083  12.3920113  13.0602753  16.0994083
  22.1200113  20.8932753  16.5214083  22.1790113  21.5432753  17.1004083
  21.9310113  20.1972753  17.0124083  22.1010113  20.8862753  16.6794083
  27.3460113  25.2222753  22.3904083  26.8670113  25.5202753  21.7244083
  26.9900113  24.4462753  22.5684083  27.2230113  25.1512753  22.3184083
  16.6160113  15.4102753  13.0334083  16.1050113  15.4632753  12.3274083
  17.4000113  15.6502753  12.7374083  16.6560113  15.4532753  12.8854083
  21.3430113  22.9402753  20.9524083  20.4960113  22.7462753  21.0334083
  21.6670113  22.7752753  21.7454083  21.2650113  22.8872753  21.0814083
  18.0950113  29.6702753  11.8384083  18.5340113  28.9732753  12.1264083
  18.3020113  30.2942753  12.4114083  18.1910113  29.6592753  11.9654083
  15.1910113  22.6332753  23.2684083  15.9130113  23.1212753  23.2314083
  14.9210113  22.6032753  22.4394083  15.2580113  22.7012753  23.1404083
  18.4210113  17.8042753  20.0034083  19.2670113  17.6142753  20.1014083
  18.0510113  17.0272753  19.8654083  18.4910113  17.6612753  19.9974083
  31.0380113  29.3882753  14.3304083  31.7320113  28.9212753  14.0824083
  30.4990113  28.7902753  14.6674083  31.0610113  29.2302753  14.3434083
  13.2420113  19.1422753  16.6584083  13.7310113  18.8502753  17.3194083
  13.3710113  18.5492753  16.0314083  13.3330113  19.0112753  16.6634083
  28.2770113  22.1642753  23.5094083  28.2700113  21.3882753  23.9074083
  27.4360113  22.3982753  23.5024083  28.1520113  22.0842753  23.5674083
  17.7670113  20.5762753  12.1444083  17.1570113  20.1712753  12.6184083
  17.3810113  20.6942753  11.3714083  17.6200113  20.5332753  12.1004083
  14.5860113  23.6852753  27.5464083  14.1650113  23.1672753  26.9854083
  14.2340113  24.4712753  27.4034083  14.4720113  23.7252753  27.4424083
  29.5330113  22.2352753  20.9464083  29.2470113  22.6362753  21.6664083
  30.3930113  22.1732753  21.0734083  29.6180113  22.2852753  21.0714083
  19.2220113  19.0372753  14.8544083  19.4940113  19.8632753  14.9214083
  18.3590113  19.1122753  14.7584083  19.1350113  19.1702753  14.8494083
  27.1950113  16.1592753  29.4864083  26.6700113  16.6182753  30.0104083
  26.8340113  15.3642753  29.4804083  27.0640113  16.1092753  29.5624083
  12.7020113  15.0072753  21.3904083  12.7460113  15.3512753  20.5894083
  13.4570113  15.2442753  21.7574083  12.8200113  15.0932753  21.3264083
  30.6640113  27.8682753  21.4754083  30.9540113  28.1252753  20.6944083
  31.3590113  27.9642753  21.9944083  30.8100113  27.9202753  21.4364083
  25.6870113  19.7282753  29.5624083  25.7600113  19.8322753  30.4254083
  25.0530113  20.2862753  29.3414083  25.6040113  19.8262753  29.6574083
  27.9550113  20.0472753  27.9274083  28.2740113  20.8332753  28.1304083
  27.5850113  19.7772753  28.6704083  27.9480113  20.1232753  28.0674083
  27.2690113  26.4712753  13.4574083  27.6030113  25.6652753  13.4924083
  26.5140113  26.3992753  13.8874083  27.2070113  26.3412753  13.5264083
  27.7510113  18.3052753  19.1164083  27.0060113  17.9822753  19.4344083
  27.7530113  19.1312753  19.3964083  27.6410113  18.3792753  19.2044083
  30.6530113  20.5892753  30.6624083  30.6010113  20.2482753  29.8614083
  31.3900113  21.0562753  30.6404083  30.7540113  20.6082753  30.5404083
  30.1910113  24.2652753  26.8684083  30.8190113  23.7162753  26.6124083
  30.1300113  24.8302753  26.2064083  30.2750113  24.2682753  26.7324083
  24.6430113  24.3462753  12.8604083  25.3270113  23.8322753  12.6914083
  24.2260113  24.3922753  12.0954083  24.6820113  24.2772753  12.7224083
  19.3250113  25.4962753  24.1644083  19.0270113  26.0882753  24.7314083
  19.3800113  25.9382753  23.4154083  19.2890113  25.6492753  24.1374083
  17.3040113  24.4462753  27.5624083  16.4980113  24.1562753  27.7294083
  17.2150113  25.3142753  27.5684083  17.1720113  24.5312753  27.5874083
  26.6630113  14.6352753  26.5774083  27.4070113  15.0872753  26.5144083
  26.0970113  15.1052753  26.1084083  26.6900113  14.7722753  26.4994083
  21.8410113  21.9192753  23.6554083  22.3170113  22.2932753  24.2834083
  21.0180113  22.0532753  23.9144083  21.7900113  21.9942753  23.7864083
  18.5510113  17.5222753  26.3964083  18.7120113  16.7782753  26.8234083
  18.5060113  17.2732753  25.5614083  18.5680113  17.3752753  26.3364083
  21.1050113  29.3122753  18.8834083  21.6510113  29.9912753  18.9374083
  20.7550113  29.3942753  18.0884083  21.1340113  29.4252753  18.7734083
  27.9480113  12.6152753  24.2474083  27.6680113  13.4402753  24.2034083
  28.6640113  12.6682753  24.7434083  28.0130113  12.7452753  24.3144083
  20.3030113  13.3302753  26.2764083  21.0080113  13.6502753  25.8744083
  20.5440113  12.5232753  26.5034083  20.4420113  13.2582753  26.2504083
  19.2880113  27.5402753  22.2724083  18.6640113  28.1222753  22.0904083
  19.5360113  27.2542753  21.4864083  19.2320113  27.5842753  22.1294083
  23.5970113  24.1742753  29.2614083  24.3540113  24.4602753  28.9354083
  23.0500113  24.2262753  28.5834083  23.6280113  24.2242753  29.1124083
  27.5060113  26.7242753  27.7654083  27.8520113  26.9942753  28.5194083
  27.8000113  27.3062753  27.1854083  27.6010113  26.8502753  27.7914083
  29.3690113  18.8702753  13.1044083  29.7470113  19.5472753  12.7044083
  28.5270113  19.0942753  13.1354083  29.3000113  19.0032753  13.0494083
  20.8820113  22.3162753  12.1874083  20.0770113  22.1392753  11.9024083
  20.8490113  23.1672753  12.3794083  20.7580113  22.4152753  12.1744083
  16.8120113  18.3832753  22.3374083  17.2520113  18.2802753  21.5914083
  17.3570113  18.0702753  22.9424083  16.9570113  18.3222753  22.3164083
  24.8280113  17.4852753  27.9294083  24.1800113  17.9552753  28.2774083
  25.3930113  17.3962753  28.5884083  24.8160113  17.5412753  28.0784083
  24.5160113  19.0222753  24.2274083  24.8180113  19.4422753  24.9304083
  24.5520113  18.1822753  24.4594083  24.5660113  18.9602753  24.3654083
  21.9410113  29.1892753  28.1524083  22.4190113  28.5892753  27.7364083
  21.5900113  28.7462753  28.8174083  21.9600113  29.0352753  28.1894083
  27.0640113  18.4692753  16.4794083  27.2710113  18.2682753  17.3034083
  27.8200113  18.7372753  16.1374083  27.2060113  18.4792753  16.5504083
  20.3590113  13.3682753  22.3844083  19.5330113  13.2192753  22.6214083
  20.3190113  13.4032753  21.5134083  20.2310113  13.3512753  22.2904083
  28.0860113  14.5522753  17.9534083  27.3720113  14.0812753  18.1244083
  27.9240113  14.8932753  17.1674083  27.9570113  14.5332753  17.8624083
  28.5290113  22.4962753  16.3334083  29.0050113  21.7672753  16.2854083
  27.7080113  22.2102753  16.2574083  28.4780113  22.3462753  16.3144083
  22.0000113  24.4082753  27.1724083  21.2050113  24.3442753  27.5234083
  22.0710113  25.2552753  26.9774083  21.8930113  24.5232753  27.1954083
  12.9240113  13.7662753  28.4194083  12.7840113  14.5612753  28.0884083
  12.1380113  13.5232753  28.7084083  12.7870113  13.8482753  28.4134083
  17.8300113  30.6152753  22.4894083  17.8410113  30.6742753  23.3594083
  17.4050113  29.8682753  22.3394083  17.7690113  30.5132753  22.5954083
  15.9880113  16.5102753  15.6444083  16.1140113  16.1812753  14.8464083
  15.1760113  16.2612753  15.8434083  15.8870113  16.4252753  15.5564083
  24.7450113  23.6632753  18.6884083  24.8210113  24.0042753  19.4874083
  24.9140113  22.8162753  18.8094083  24.7810113  23.5882753  18.8244083
  22.2670113  22.9372753  18.2534083  21.9690113  22.6222753  19.0104083
  22.9620113  23.4102753  18.4884083  22.3260113  22.9602753  18.4004083
  22.4890113  27.0552753  26.2804083  23.1760113  26.9412753  26.8054083
  22.6230113  27.8462753  25.9364083  22.6100113  27.1552753  26.3074083
  30.6650113  19.6642753  28.0914083  29.8100113  19.5422753  28.2174083
  30.8180113  19.2692753  27.3284083  30.5610113  19.5872753  27.9974083
  25.1780113  20.3292753  26.6674083  24.9230113  19.6102753  27.0894083
  25.9990113  20.4452753  26.9374083  25.2620113  20.2402753  26.7694083
  14.5940113  30.1132753  27.9314083  13.9400113  29.5442753  28.0294083
  14.2190113  30.8862753  28.0824083  14.4420113  30.1432753  27.9684083
  23.1120113  21.5192753  29.8544083  23.4350113  22.2052753  29.4224083
  22.4080113  21.8422753  30.2564083  23.0550113  21.6682753  29.8494083
  26.1960113  29.8932753  20.7834083  25.7450113  30.5362753  21.1624083
  26.9040113  29.8142753  21.2884083  26.2340113  29.9762753  20.9144083
  22.8970113  24.9832753  23.7134083  22.2030113  25.3852753  24.0564083
  23.5740113  25.4162753  24.0524083  22.8940113  25.1062753  23.8144083
  28.2740113  27.5762753  30.2934083  29.0500113  27.1862753  30.3764083
  27.8050113  27.2402753  30.9484083  28.3190113  27.4692753  30.4024083
  15.9650113  18.5212753  26.0604083  16.3400113  19.1402753  25.5734083
  16.6390113  18.0472753  26.3454083  16.1200113  18.5432753  26.0304083
  13.7400113  16.9692753  25.3354083  13.8170113  16.8002753  24.4824083
  14.4860113  17.3752753  25.5324083  13.8610113  17.0042753  25.2384083
  29.2990113  19.6092753  15.7754083  29.4020113  19.5512753  14.9114083
  30.0400113  19.2772753  16.0934083  29.4240113  19.5522753  15.6944083
  16.2940113  14.3792753  27.7464083  16.2130113  13.5352753  27.9524083
  15.9800113  14.4232753  26.9334083  16.2360113  14.2612753  27.6564083
  23.2190113  26.5742753  16.8824083  23.0140113  27.4072753  16.7234083
  22.4440113  26.1922753  17.0044083  23.0740113  26.6412753  16.8774083
  28.4010113  19.7552753  25.1314083  28.3990113  18.8922753  25.2554083
  28.4680113  20.0792753  25.9384083  28.4110113  19.6752753  25.2684083
  13.1370113  22.1952753  25.5594083  13.4570113  22.4142753  24.7784083
  13.0370113  21.3302753  25.5044083  13.1690113  22.1002753  25.4364083
  14.5930113  18.1312753  12.1774083  13.9210113  18.1452753  12.7334083
  14.6880113  17.2832753  11.9934083  14.5080113  18.0082753  12.2324083
  24.2800113  14.5552753  28.9134083  24.3720113  15.2672753  29.4074083
  23.6430113  14.1102753  29.3104083  24.1990113  14.5942753  29.0454083
  23.2740113  14.7452753  19.7674083  22.5740113  15.2632753  19.7114083
  23.3120113  14.3652753  18.9834083  23.1760113  14.7662753  19.6434083
  18.5810113  26.8362753  13.2914083  19.0220113  26.9162753  14.0394083
  17.7760113  26.6202753  13.5494083  18.5270113  26.8162753  13.4404083
  26.8720113  15.2612753  22.5674083  27.7270113  15.3602753  22.7124083
  26.5030113  15.8142753  23.1324083  26.9440113  15.3582753  22.6724083
  17.9000113  21.4872753  26.9444083  17.5040113  22.2612753  27.0194083
  17.4940113  21.1142753  26.2684083  17.7820113  21.5462753  26.8554083
  27.1760113  20.5412753  21.0584083  27.8420113  21.0822753  21.2184083
  26.8310113  20.8522753  20.3194083  27.2230113  20.6672753  20.9734083
  27.4890113  28.6072753  16.8654083  27.3150113  27.9532753  17.4154083
  28.2020113  28.3362753  16.4424083  27.5690113  28.4702753  16.8844083
  15.9100113  25.9062753  13.8924083  15.6660113  25.5992753  14.6724083
  15.8770113  25.2032753  13.3764083  15.8690113  25.7572753  13.9314083
  18.7290113  24.1512753  12.6354083  17.9110113  23.8832753  12.7754083
  18.7010113  25.0032753  12.8204083  18.6040113  24.2382753  12.6834083
  18.3290113  14.4642753  24.3944083  17.4650113  14.5482753  24.4744083
  18.5490113  13.9502753  25.0634083  18.2340113  14.4012753  24.5054083
  30.3470113  13.0992753  25.7234083  30.2950113  13.0552753  26.5934083
  31.0340113  12.5962753  25.5334083  30.4410113  13.0192753  25.8234083
  22.4320113  15.2122753  22.7684083  21.6950113  14.7582753  22.8814083
  23.0030113  14.8102753  23.2914083  22.4070113  15.0852753  22.8624083
  25.1640113  26.0602753  24.5564083  25.3700113  26.3612753  25.3484083
  25.1030113  26.7822753  24.0714083  25.1850113  26.2112753  24.6014083
  24.6980113  30.2742753  28.8024083  23.9450113  30.2562753  28.3614083
  24.8660113  31.1262753  28.8864083  24.6120113  30.3972753  28.7494083
  19.9350113  19.5412753  27.9724083  19.6130113  18.9652753  27.4024083
  19.5760113  20.2962753  27.7264083  19.8350113  19.5672753  27.8524083
  20.7310113  12.7932753  12.5994083  20.8090113  13.0402753  11.7664083
  19.9880113  13.1702753  12.8574083  20.6330113  12.8852753  12.5144083
  29.9760113  24.6992753  24.0144083  29.9440113  23.8372753  23.8794083
  29.2830113  25.0012753  23.5804083  29.8690113  24.6162753  23.9304083
  18.3700113  29.8972753  28.2204083  18.4110113  30.0232753  29.0834083
  19.0210113  29.3372753  28.0644083  18.4720113  29.8332753  28.3254083
  15.5490113  14.5472753  25.0424083  15.2060113  13.7802753  24.8084083
  14.8540113  15.0712753  25.1064083  15.3960113  14.5112753  25.0174083
  24.5950113  13.4032753  22.0194083  25.2650113  13.9472753  22.1464083
  24.0920113  13.8272753  21.4464083  24.6200113  13.5462753  21.9534083
  15.9630113  28.2802753  29.5804083  16.5580113  28.7112753  30.0524083
  15.5990113  28.9042753  29.0914083  15.9970113  28.4362753  29.5774083
  23.9540113  19.2112753  19.5124083  24.5050113  18.6042753  19.8124083
  23.5290113  19.4742753  20.2274083  23.9730113  19.1602753  19.6614083
  14.2020113  17.8612753  18.9984083  13.8340113  18.1632753  19.7294083
  14.7360113  17.2322753  19.2824083  14.2260113  17.8132753  19.1484083
  13.8900113  26.2692753  26.5094083  13.3160113  26.6852753  27.0184083
  14.6230113  26.7342753  26.6044083  13.9140113  26.3992753  26.5984083
  25.9240113  21.0422753  16.0744083  25.9920113  20.1922753  16.2554083
  25.1010113  21.1282753  15.7964083  25.8120113  20.9292753  16.0604083
  15.6760113  29.5362753  15.2844083  15.5310113  29.6922753  14.4384083
  16.5420113  29.6152753  15.3624083  15.7830113  29.5712753  15.1714083
  19.8430113  21.9332753  15.0124083  19.9430113  22.0722753  14.1574083
  20.6610113  21.8732753  15.3084083  19.9780113  21.9442753  14.9294083
  29.0030113  29.9972753  12.4924083  29.6400113  29.8632753  13.0734083
  28.6620113  29.2032753  12.3754083  29.0470113  29.8602753  12.5604083
  29.1980113  22.4152753  29.2254083  29.8320113  22.2452753  29.7994083
  29.6150113  22.8182753  28.5734083  29.3530113  22.4502753  29.2144083
  25.0780113  26.2622753  14.8144083  24.8270113  26.1342753  15.6404083
  24.7610113  25.5672753  14.3934083  24.9940113  26.1412753  14.8744083
  29.8230113  16.9792753  29.9634083  29.6270113  17.6232753  30.5184083
  29.1010113  16.4892753  29.9554083  29.6880113  17.0022753  30.0444083
  29.7220113  17.9202753  22.9344083  28.8890113  18.1702753  22.8624083
  29.6660113  17.0802753  23.1634083  29.5910113  17.8332753  22.9574083
  18.9820113  14.9082753  28.1284083  19.2160113  14.3322753  27.5154083
  18.1400113  14.7272753  28.2694083  18.8920113  14.7962753  28.0584083
  26.6090113  22.5262753  30.5804083  27.4800113  22.4902753  30.5444083
  26.3900113  22.9462753  29.8484083  26.7060113  22.5822753  30.4674083
  16.3630113  28.3512753  21.7614083  16.2840113  27.5412753  21.4454083
  15.9190113  28.8382753  21.1894083  16.2860113  28.3032753  21.6304083
  21.9640113  24.4702753  14.2444083  22.6810113  24.1232753  13.8884083
  21.9300113  25.2702753  13.8964083  22.0650113  24.5372753  14.1404083
  13.9350113  30.5952753  25.3424083  14.4280113  30.5392753  26.0604083
  14.1230113  29.8622753  24.9074083  14.0360113  30.4782753  25.3844083
  23.1820113  20.0272753   3.1541673  22.6580113  20.6232753   3.5171673
  23.5790113  19.6592753   3.8381673  23.1630113  20.0612753   3.3091673
  12.9910113  26.9022753   4.8651673  13.1200113  26.6222753   5.6811673
  12.3810113  26.3612753   4.5561673  12.9200113  26.7812753   4.9401673
  19.5650113  24.4272753   9.9321673  19.3290113  24.4242753  10.7721673
  18.8170113  24.2792753   9.5081673  19.4190113  24.4042753   9.9931673
  18.9450113  17.0332753   4.4141673  19.6230113  17.0512753   3.8651673
  18.9000113  16.1972753   4.6591673  19.0380113  16.9122753   4.3691673
  19.5470113  27.6192753   7.1951673  19.6850113  28.3792753   6.7881673
  20.3380113  27.2542753   7.2221673  19.6840113  27.6782753   7.1391673
  22.6670113  19.0842753   9.2501673  21.8190113  18.9852753   9.0721673
  22.6960113  19.8292753   9.7041673  22.5460113  19.1802753   9.2911673
  27.2250113  12.0442753   8.3641673  27.0670113  12.8132753   7.9821673
  26.4530113  11.8242753   8.7081673  27.0870113  12.1252753   8.3591673
  12.8930113  19.1842753   2.0801673  12.6370113  20.0152753   2.0051673
  12.2290113  18.8012753   2.4971673  12.7570113  19.2502753   2.1311673
  15.9220113  14.0012753   2.5711673  15.4010113  13.3732753   2.2631673
  16.5130113  13.5642753   3.0421673  15.9330113  13.8432753   2.5951673
  19.2280113  16.1342753  11.8691673  19.3450113  15.6802753  11.1331673
  19.5160113  16.9322753  11.6661673  19.2880113  16.1852753  11.7301673
  25.3930113  29.4282753   5.2771673  26.1370113  29.8842753   5.2671673
  25.2720113  29.2142753   4.4401673  25.4850113  29.4642753   5.1521673
  14.9610113  15.7312753  10.8531673  14.1830113  15.3412753  10.7811673
  15.4520113  15.3192753  10.2621673  14.9180113  15.6122753  10.7551673
  21.6100113  13.3742753  10.0211673  21.7880113  12.5652753   9.7461673
  21.4670113  13.8152753   9.2821673  21.6150113  13.3202753   9.8711673
  17.3950113  30.1222753   6.4471673  17.6870113  30.0552753   7.2671673
  16.7690113  29.5172753   6.4021673  17.3460113  30.0232753   6.5621673
  29.7560113  14.9812753   4.5421673  30.5130113  15.0532753   4.1141673
  29.8190113  14.2082753   4.9411673  29.8770113  14.8782753   4.5371673
  12.3090113  16.2792753   8.4391673  12.3050113  16.8662753   9.0851673
  12.9030113  16.5912753   7.8821673  12.3960113  16.4122753   8.4521673
  24.6470113  26.6132753   8.9811673  24.6130113  26.9952753   9.7651673
  25.5010113  26.5712753   8.8101673  24.7680113  26.6632753   9.0721673
  15.3880113  28.2842753   5.5691673  14.6900113  27.7762753   5.6951673
  15.6480113  28.0792753   4.7611673  15.3230113  28.1792753   5.4681673
  23.0990113  29.7772753   6.4791673  23.8670113  29.6972753   6.0731673
  22.5160113  29.6562753   5.8411673  23.1260113  29.7472753   6.3251673
  16.7490113  27.1352753   8.1361673  17.5900113  27.1982753   7.9141673
  16.7120113  27.5322753   8.9121673  16.8680113  27.2032753   8.2181673
  18.7120113  22.6462753   2.8851673  18.8840113  22.4362753   3.7141673
  18.0570113  22.1122753   2.6691673  18.6410113  22.5362753   2.9761673
  24.9400113  16.5602753   6.4001673  24.8450113  16.8792753   7.2061673
  24.3470113  15.9212753   6.3621673  24.8380113  16.5122753   6.5141673
  19.4620113  22.5842753   5.4751673  19.5150113  23.4312753   5.6771673
  19.1770113  22.2142753   6.2121673  19.4280113  22.6542753   5.6131673
  25.6390113  23.2792753   4.6051673  25.1250113  22.8672753   5.1761673
  25.5130113  24.1232753   4.7861673  25.5450113  23.3432753   4.7161673
  12.2830113  26.9552753  11.6861673  13.0390113  27.3042753  11.9441673
  12.4600113  26.1022753  11.6291673  12.4210113  26.8802753  11.7161673
  28.6600113  16.7402753   7.5441673  29.4320113  16.5152753   7.8811673
  28.1850113  16.9572753   8.2441673  28.7040113  16.7392753   7.6971673
  14.3450113  17.1252753   3.5961673  15.1880113  17.3452753   3.5531673
  13.9560113  17.6982753   3.0651673  14.4120113  17.2422753   3.5111673
  31.1260113  28.2272753   8.9861673  30.4440113  28.5372753   8.5391673
  30.7570113  27.7692753   9.6311673  30.9700113  28.2052753   9.0151673
  20.1990113  18.8102753  11.7141673  19.7150113  19.3872753  12.1561673
  20.1710113  19.1052753  10.8931673  20.1230113  18.9392753  11.6581673
  31.2970113  19.4942753   6.3261673  31.5120113  18.6942753   6.0501673
  30.4470113  19.5542753   6.1371673  31.2030113  19.3852753   6.2571673
  16.9940113  24.9482753   3.3851673  17.4610113  25.2372753   4.0631673
  17.5660113  24.4702753   2.9311673  17.1480113  24.9202753   3.4181673
  28.9600113  28.6092753   7.0761673  28.2890113  29.1232753   7.2941673
  29.0230113  28.7092753   6.2121673  28.8700113  28.7002753   6.9811673
  15.7740113  19.6172753  10.0731673  15.2380113  19.1112753  10.5411673
  15.7940113  19.2272753   9.2931673  15.6970113  19.4842753  10.0271673
  16.8560113  20.5812753   5.2801673  16.8810113  19.9062753   4.7291673
  16.2100113  21.0772753   4.9681673  16.7650113  20.5542753   5.1531673
  26.7510113  18.2942753   3.6761673  26.0890113  18.6222753   4.1391673
  26.9380113  18.9282753   3.1071673  26.6810113  18.4362753   3.6601673
  20.9560113  29.3582753   4.6721673  20.6790113  28.7172753   4.1491673
  20.7480113  30.0842753   4.2341673  20.8850113  29.3712753   4.5301673
  23.3960113  14.2002753   7.1051673  23.5450113  13.3752753   6.8621673
  23.7750113  14.2552753   7.8891673  23.4740113  14.0862753   7.1851673
  14.6550113  21.9362753  10.8391673  14.6180113  22.4372753  10.1251673
  14.9860113  21.1842753  10.5441673  14.6980113  21.8982753  10.6901673
  26.2580113  24.1412753   9.0971673  26.7420113  24.8592753   9.1951673
  26.6520113  23.7142753   8.4461673  26.3880113  24.1842753   9.0151673
  20.5540113  26.9862753  10.2741673  20.9080113  26.8082753  11.0511673
  20.1180113  26.2572753  10.0751673  20.5420113  26.8522753  10.3601673
  21.5260113  17.7332753   2.9121673  22.0060113  18.4322753   3.1201673
  21.8990113  17.0862753   3.3631673  21.6520113  17.7412753   3.0091673
  24.7320113  27.8382753   3.0111673  24.1290113  27.5422753   2.4541673
  25.2770113  28.2902753   2.5021673  24.7230113  27.8612753   2.8531673
  24.7450113  24.6892753   2.4111673  23.9480113  24.9132753   2.6851673
  25.0030113  24.0952753   2.9961673  24.6650113  24.6342753   2.5381673
  28.0050113  22.6872753   7.2571673  28.0600113  22.8122753   6.3951673
  28.7580113  23.0072753   7.5591673  28.1240113  22.7522753   7.1741673
  24.1960113  28.0362753  11.5341673  24.3600113  28.3192753  12.3431673
  24.4590113  28.6972753  11.0291673  24.2590113  28.1762753  11.5791673
  29.0370113  12.9852753  10.2441673  28.4000113  12.5852753   9.8021673
  29.0630113  12.5542753  11.0021673  28.9470113  12.8632753  10.2901673
  23.7360113  22.4932753   6.8571673  23.5810113  23.1032753   7.4611673
  24.2700113  21.9352753   7.2631673  23.7920113  22.5012753   7.0061673
  27.3460113  25.2222753   3.3841673  26.8670113  25.5202753   2.7181673
  26.9900113  24.4462753   3.5621673  27.2230113  25.1512753   3.3121673
  21.3430113  22.9402753   1.9461673  20.4960113  22.7462753   2.0271673
  21.6670113  22.7752753   2.7391673  21.2650113  22.8872753   2.0751673
  15.1910113  22.6332753   4.2621673  15.9130113  23.1212753   4.2251673
  14.9210113  22.6032753   3.4331673  15.2580113  22.7012753   4.1341673
  28.2770113  22.1642753   4.5031673  28.2700113  21.3882753   4.9011673
  27.4360113  22.3982753   4.4961673  28.1520113  22.0842753   4.5611673
  14.5860113  23.6852753   8.5401673  14.1650113  23.1672753   7.9791673
  14.2340113  24.4712753   8.3971673  14.4720113  23.7252753   8.4361673
  29.5330113  22.2352753   1.9401673  29.2470113  22.6362753   2.6601673
  30.3930113  22.1732753   2.0671673  29.6180113  22.2852753   2.0651673
  27.1950113  16.1592753  10.4801673  26.6700113  16.6182753  11.0041673
  26.8340113  15.3642753  10.4741673  27.0640113  16.1092753  10.5561673
  30.6640113  27.8682753   2.4691673  30.9540113  28.1252753   1.6881673
  31.3590113  27.9642753   2.9881673  30.8100113  27.9202753   2.4301673
  25.6870113  19.7282753  10.5561673  25.7600113  19.8322753  11.4191673
  25.0530113  20.2862753  10.3351673  25.6040113  19.8262753  10.6511673
  27.9550113  20.0472753   8.9211673  28.2740113  20.8332753   9.1241673
  27.5850113  19.7772753   9.6641673  27.9480113  20.1232753   9.0611673
  30.6530113  20.5892753  11.6561673  30.6010113  20.2482753  10.8551673
  31.3900113  21.0562753  11.6341673  30.7540113  20.6082753  11.5341673
  30.1910113  24.2652753   7.8621673  30.8190113  23.7162753   7.6061673
  30.1300113  24.8302753   7.2001673  30.2750113  24.2682753   7.7261673
  19.3250113  25.4962753   5.1581673  19.0270113  26.0882753   5.7251673
  19.3800113  25.9382753   4.4091673  19.2890113  25.6492753   5.1311673
  17.3040113  24.4462753   8.5561673  16.4980113  24.1562753   8.7231673
  17.2150113  25.3142753   8.5621673  17.1720113  24.5312753   8.5811673
  26.6630113  14.6352753   7.5711673  27.4070113  15.0872753   7.5081673
  26.0970113  15.1052753   7.1021673  26.6900113  14.7722753   7.4931673
  21.8410113  21.9192753   4.6491673  22.3170113  22.2932753   5.2771673
  21.0180113  22.0532753   4.9081673  21.7900113  21.9942753   4.7801673
  18.5510113  17.5222753   7.3901673  18.7120113  16.7782753   7.8171673
  18.5060113  17.2732753   6.5551673  18.5680113  17.3752753   7.3301673
  27.9480113  12.6152753   5.2411673  27.6680113  13.4402753   5.1971673
  28.6640113  12.6682753   5.7371673  28.0130113  12.7452753   5.3081673
  20.3030113  13.3302753   7.2701673  21.0080113  13.6502753   6.8681673
  20.5440113  12.5232753   7.4971673  20.4420113  13.2582753   7.2441673
  19.2880113  27.5402753   3.2661673  18.6640113  28.1222753   3.0841673
  19.5360113  27.2542753   2.4801673  19.2320113  27.5842753   3.1231673
  23.5970113  24.1742753  10.2551673  24.3540113  24.4602753   9.9291673
  23.0500113  24.2262753   9.5771673  23.6280113  24.2242753  10.1061673
  27.5060113  26.7242753   8.7591673  27.8520113  26.9942753   9.5131673
  27.8000113  27.3062753   8.1791673  27.6010113  26.8502753   8.7851673
  16.8120113  18.3832753   3.3311673  17.2520113  18.2802753   2.5851673
  17.3570113  18.0702753   3.9361673  16.9570113  18.3222753   3.3101673
  24.8280113  17.4852753   8.9231673  24.1800113  17.9552753   9.2711673
  25.3930113  17.3962753   9.5821673  24.8160113  17.5412753   9.0721673
  24.5160113  19.0222753   5.2211673  24.8180113  19.4422753   5.9241673
  24.5520113  18.1822753   5.4531673  24.5660113  18.9602753   5.3591673
  21.9410113  29.1892753   9.1461673  22.4190113  28.5892753   8.7301673
  21.5900113  28.7462753   9.8111673  21.9600113  29.0352753   9.1831673
  20.3590113  13.3682753   3.3781673  19.5330113  13.2192753   3.6151673
  20.3190113  13.4032753   2.5071673  20.2310113  13.3512753   3.2841673
  22.0000113  24.4082753   8.1661673  21.2050113  24.3442753   8.5171673
  22.0710113  25.2552753   7.9711673  21.8930113  24.5232753   8.1891673
  12.9240113  13.7662753   9.4131673  12.7840113  14.5612753   9.0821673
  12.1380113  13.5232753   9.7021673  12.7870113  13.8482753   9.4071673
  17.8300113  30.6152753   3.4831673  17.8410113  30.6742753   4.3531673
  17.4050113  29.8682753   3.3331673  17.7690113  30.5132753   3.5891673
  22.4890113  27.0552753   7.2741673  23.1760113  26.9412753   7.7991673
  22.6230113  27.8462753   6.9301673  22.6100113  27.1552753   7.3011673
  30.6650113  19.6642753   9.0851673  29.8100113  19.5422753   9.2111673
  30.8180113  19.2692753   8.3221673  30.5610113  19.5872753   8.9911673
  25.1780113  20.3292753   7.6611673  24.9230113  19.6102753   8.0831673
  25.9990113  20.4452753   7.9311673  25.2620113  20.2402753   7.7631673
  14.5940113  30.1132753   8.9251673  13.9400113  29.5442753   9.0231673
  14.2190113  30.8862753   9.0761673  14.4420113  30.1432753   8.9621673
  23.1120113  21.5192753  10.8481673  23.4350113  22.2052753  10.4161673
  22.4080113  21.8422753  11.2501673  23.0550113  21.6682753  10.8431673
  26.1960113  29.8932753   1.7771673  25.7450113  30.5362753   2.1561673
  26.9040113  29.8142753   2.2821673  26.2340113  29.9762753   1.9081673
  22.8970113  24.9832753   4.7071673  22.2030113  25.3852753   5.0501673
  23.5740113  25.4162753   5.0461673  22.8940113  25.1062753   4.8081673
  28.2740113  27.5762753  11.2871673  29.0500113  27.1862753  11.3701673
  27.8050113  27.2402753  11.9421673  28.3190113  27.4692753  11.3961673
  15.9650113  18.5212753   7.0541673  16.3400113  19.1402753   6.5671673
  16.6390113  18.0472753   7.3391673  16.1200113  18.5432753   7.0241673
  13.7400113  16.9692753   6.3291673  13.8170113  16.8002753   5.4761673
  14.4860113  17.3752753   6.5261673  13.8610113  17.0042753   6.2321673
  16.2940113  14.3792753   8.7401673  16.2130113  13.5352753   8.9461673
  15.9800113  14.4232753   7.9271673  16.2360113  14.2612753   8.6501673
  28.4010113  19.7552753   6.1251673  28.3990113  18.8922753   6.2491673
  28.4680113  20.0792753   6.9321673  28.4110113  19.6752753   6.2621673
  13.1370113  22.1952753   6.5531673  13.4570113  22.4142753   5.7721673
  13.0370113  21.3302753   6.4981673  13.1690113  22.1002753   6.4301673
  24.2800113  14.5552753   9.9071673  24.3720113  15.2672753  10.4011673
  23.6430113  14.1102753  10.3041673  24.1990113  14.5942753  10.0391673
  26.8720113  15.2612753   3.5611673  27.7270113  15.3602753   3.7061673
  26.5030113  15.8142753   4.1261673  26.9440113  15.3582753   3.6661673
  17.9000113  21.4872753   7.9381673  17.5040113  22.2612753   8.0131673
  17.4940113  21.1142753   7.2621673  17.7820113  21.5462753   7.8491673
  18.3290113  14.4642753   5.3881673  17.4650113  14.5482753   5.4681673
  18.5490113  13.9502753   6.0571673  18.2340113  14.4012753   5.4991673
  30.3470113  13.0992753   6.7171673  30.2950113  13.0552753   7.5871673
  31.0340113  12.5962753   6.5271673  30.4410113  13.0192753   6.8171673
  22.4320113  15.2122753   3.7621673  21.6950113  14.7582753   3.8751673
  23.0030113  14.8102753   4.2851673  22.4070113  15.0852753   3.8561673
  25.1640113  26.0602753   5.5501673  25.3700113  26.3612753   6.3421673
  25.1030113  26.7822753   5.0651673  25.1850113  26.2112753   5.5951673
  24.6980113  30.2742753   9.7961673  23.9450113  30.2562753   9.3551673
  24.8660113  31.1262753   9.8801673  24.6120113  30.3972753   9.7431673
  19.9350113  19.5412753   8.9661673  19.6130113  18.9652753   8.3961673
  19.5760113  20.2962753   8.7201673  19.8350113  19.5672753   8.8461673
  29.9760113  24.6992753   5.0081673  29.9440113  23.8372753   4.8731673
  29.2830113  25.0012753   4.5741673  29.8690113  24.6162753   4.9241673
  18.3700113  29.8972753   9.2141673  18.4110113  30.0232753  10.0771673
  19.0210113  29.3372753   9.0581673  18.4720113  29.8332753   9.3191673
  28.0810113  27.9592753   3.8051673  28.6080113  27.8762753   3.1141673
  27.6900113  27.1812753   3.8591673  28.1010113  27.8322753   3.7111673
  15.5490113  14.5472753   6.0361673  15.2060113  13.7802753   5.8021673
  14.8540113  15.0712753   6.1001673  15.3960113  14.5112753   6.0111673
  24.5950113  13.4032753   3.0131673  25.2650113  13.9472753   3.1401673
  24.0920113  13.8272753   2.4401673  24.6200113  13.5462753   2.9471673
  15.9630113  28.2802753  10.5741673  16.5580113  28.7112753  11.0461673
  15.5990113  28.9042753  10.0851673  15.9970113  28.4362753  10.5711673
  13.8900113  26.2692753   7.5031673  13.3160113  26.6852753   8.0121673
  14.6230113  26.7342753   7.5981673  13.9140113  26.3992753   7.5921673
  29.1980113  22.4152753  10.2191673  29.8320113  22.2452753  10.7931673
  29.6150113  22.8182753   9.5671673  29.3530113  22.4502753  10.2081673
  29.8230113  16.9792753  10.9571673  29.6270113  17.6232753  11.5121673
  29.1010113  16.4892753  10.9491673  29.6880113  17.0022753  11.0381673
  29.7220113  17.9202753   3.9281673  28.8890113  18.1702753   3.8561673
  29.6660113  17.0802753   4.1571673  29.5910113  17.8332753   3.9511673
  18.9820113  14.9082753   9.1221673  19.2160113  14.3322753   8.5091673
  18.1400113  14.7272753   9.2631673  18.8920113  14.7962753   9.0521673
  26.6090113  22.5262753  11.5741673  27.4800113  22.4902753  11.5381673
  26.3900113  22.9462753  10.8421673  26.7060113  22.5822753  11.4611673
  16.3630113  28.3512753   2.7551673  16.2840113  27.5412753   2.4391673
  15.9190113  28.8382753   2.1831673  16.2860113  28.3032753   2.6241673
  13.9350113  30.5952753   6.3361673  14.4280113  30.5392753   7.0541673
  14.1230113  29.8622753   5.9011673  14.0360113  30.4782753   6.3781673
  13.0510113   5.6891673  74.6351313  12.6100113   5.8071673  75.3781313
  12.7680113   4.9141673  74.3501313  12.9440113   5.5921673  74.7031313
  29.3260113   8.9901673  72.1501313  30.0270113   8.4711673  72.1461313
  28.7390113   8.5451673  71.6811313  29.3430113   8.8471673  72.0801313
  15.9330113   4.7441673  69.8141313  15.5410113   4.3731673  69.1281313
  15.8530113   4.1461673  70.4431313  15.8630113   4.6011673  69.8051313
  25.8530113   2.6161673  75.8551313  25.9330113   2.6201673  74.9861313
  25.2690113   1.9841673  76.0041313  25.7780113   2.5231673  75.7491313
  15.5600113   6.3851673  73.7141313  16.1680113   6.2151673  74.3171313
  14.8090113   6.2451673  74.1351313  15.5390113   6.3391673  73.8651313
  14.4510113   9.4761673  69.7911313  14.9180113   9.5601673  69.0591313
  14.9060113   8.8981673  70.2601313  14.5870113   9.4031673  69.7521313
  14.4370113   2.9451673  75.0921313  13.9750113   2.5531673  74.4651313
  15.1370113   2.4321673  75.1841313  14.4720113   2.8121673  75.0131313
  20.6420113   7.0261673  77.7251313  20.9900113   6.2271673  77.7551313
  21.3070113   7.5301673  77.4701313  20.7920113   6.9821673  77.6921313
  20.6990113   6.4751673  73.9361313  21.0300113   5.8311673  74.4221313
  20.9390113   6.2641673  73.1251313  20.7830113   6.3491673  73.8881313
  12.8030113  10.4161673  76.0051313  12.2110113  10.9741673  75.6921313
  13.2290113  10.1471673  75.2931313  12.7790113  10.4581673  75.8541313
  18.6430113   8.2601673  73.4851313  18.0640113   7.9851673  74.0771313
  19.2670113   7.6511673  73.5101313  18.6500113   8.1301673  73.5761313
  24.7860113  10.5481673  71.0071313  25.5130113  11.0201673  71.1091313
  25.0150113   9.7541673  71.2871313  24.9280113  10.5011673  71.0641313
  22.9540113  10.9401673  72.9971313  23.1680113  11.4671673  73.6591313
  23.7210113  10.7661673  72.6181313  23.0990113  10.9921673  73.0391313
  14.3480113   9.0861673  73.9361313  15.0040113   8.5111673  73.9511313
  14.7370113   9.8351673  73.7151313  14.5030113   9.1111673  73.9061313
  15.1660113   7.5731673  77.4361313  15.5890113   7.2171673  76.7621313
  15.4900113   7.1511673  78.1281313  15.2760113   7.4581673  77.4391313
  18.3970113  10.4251673  76.7321313  19.2410113  10.5291673  76.5371313
  18.1000113  11.2431673  76.8001313  18.4780113  10.5611673  76.7131313
  26.9670113  12.1351673  71.4071313  27.6320113  11.9871673  70.8621313
  27.3270113  12.0521673  72.1971313  27.1190113  12.1011673  71.4431313
  21.7850113   8.3321673  69.7561313  21.6040113   8.8771673  70.4131313
  22.5510113   8.6221673  69.4551313  21.8710113   8.4561673  69.8091313
  29.3760113  11.9021673  75.4051313  28.9210113  12.6191673  75.6061313
  28.7620113  11.3311673  75.1631313  29.2180113  11.9241673  75.3991313
  26.3730113   7.7471673  74.9491313  27.0740113   7.2651673  75.1381313
  25.7130113   7.1781673  74.9941313  26.3790113   7.5921673  74.9831313
  28.8920113   5.2401673  70.7571313  29.0110113   4.9531673  71.5721313
  29.6990113   5.2611673  70.4271313  29.0280113   5.2011673  70.8291313
  16.0280113   4.9721673  76.0881313  16.8790113   4.8921673  75.9151313
  15.6710113   4.2901673  75.6761313  16.1010113   4.8591673  76.0011313
  14.7950113  11.6971673  77.3251313  14.1220113  11.1991673  77.0801313
  15.1980113  11.8821673  76.5741313  14.7550113  11.6511673  77.1781313
  26.7870113   1.7771673  70.3421313  26.5670113   2.5081673  69.9201313
  26.3390113   1.8281673  71.0891313  26.6880113   1.8921673  70.3901313
  18.3960113   4.9791673  74.3231313  19.1090113   5.4741673  74.4131313
  18.6180113   4.4121673  73.6971313  18.5340113   4.9681673  74.2441313
  12.5520113   6.6221673  77.6431313  11.8850113   7.1101673  77.9191313
  13.2320113   7.1671673  77.6721313  12.5540113   6.7741673  77.6881313
  12.6180113   3.3061673  72.7461313  12.4330113   2.4671673  72.8981313
  13.2770113   3.2701673  72.1761313  12.6880113   3.1771673  72.6841313
  22.9190113   8.6821673  76.6501313  22.3960113   9.3161673  76.3571313
  23.2290113   8.3181673  75.9211313  22.8870113   8.7221673  76.4991313
  12.7900113   7.4701673  72.3211313  13.3420113   8.0391673  72.6851313
  12.5580113   6.9551673  72.9861313  12.8370113   7.4781673  72.4731313
  12.6200113   5.9191673  69.9491313  13.3760113   5.4871673  70.0071313
  12.6350113   6.4511673  70.6401313  12.7340113   5.9341673  70.0601313
  13.5600113   4.1401673  77.9541313  13.9910113   4.0111673  77.2071313
  13.3550113   4.9881673  77.9281313  13.5930113   4.2461673  77.8401313
  17.6440113   7.6561673  76.2361313  17.7700113   8.4991673  76.4231313
  18.3120113   7.2571673  76.6321313  17.7620113   7.7221673  76.3221313
  16.4260113   2.3661673  77.8371313  15.6450113   2.3071673  77.4541313
  16.4980113   1.6141673  78.2741313  16.3210113   2.2471673  77.8451313
  23.7150113   2.4241673  71.2111313  23.7070113   3.1461673  70.7211313
  23.0760113   2.5591673  71.7881313  23.6200113   2.5511673  71.2241313
  28.6870113   6.2941673  75.1921313  29.0430113   5.9441673  75.9071313
  28.6790113   5.6331673  74.6221313  28.7390113   6.1441673  75.2131313
  24.7450113   6.2111673  78.4361313  23.9480113   6.4351673  78.7101313
  25.0030113   5.6171673  79.0211313  24.6650113   6.1561673  78.5631313
  18.6370113  11.0231673  72.8841313  18.4900113  10.2471673  73.2551313
  19.3260113  10.8761673  72.3691313  18.7170113  10.8861673  72.8631313
  20.9290113  10.5391673  71.2861313  21.5510113  10.7021673  71.8761313
  20.9650113  11.2301673  70.7541313  21.0260113  10.6651673  71.2951313
  15.4300113   3.0731673  72.1151313  15.7540113   2.2941673  71.8931313
  16.0760113   3.4411673  72.5701313  15.5730113   3.0121673  72.1491313
  22.1200113   2.4151673  73.5401313  22.1790113   3.0651673  74.1191313
  21.9310113   1.7191673  74.0311313  22.1010113   2.4081673  73.6981313
  21.3430113   4.4621673  77.9711313  20.4960113   4.2681673  78.0521313
  21.6670113   4.2971673  78.7641313  21.2650113   4.4091673  78.1001313
  18.0950113  11.1921673  68.8571313  18.5340113  10.4951673  69.1451313
  18.3020113  11.8161673  69.4301313  18.1910113  11.1811673  68.9841313
  31.0380113  10.9101673  71.3491313  31.7320113  10.4431673  71.1011313
  30.4990113  10.3121673  71.6861313  31.0610113  10.7521673  71.3621313
  17.7670113   2.0981673  69.1631313  17.1570113   1.6931673  69.6371313
  17.3810113   2.2161673  68.3901313  17.6200113   2.0551673  69.1191313
  29.5330113   3.7571673  77.9651313  29.2470113   4.1581673  78.6851313
  30.3930113   3.6951673  78.0921313  29.6180113   3.8071673  78.0901313
  30.6640113   9.3901673  78.4941313  30.9540113   9.6471673  77.7131313
  31.3590113   9.4861673  79.0131313  30.8100113   9.4421673  78.4551313
  27.2690113   7.9931673  70.4761313  27.6030113   7.1871673  70.5111313
  26.5140113   7.9211673  70.9061313  27.2070113   7.8631673  70.5451313
  24.6430113   5.8681673  69.8791313  25.3270113   5.3541673  69.7101313
  24.2260113   5.9141673  69.1141313  24.6820113   5.7991673  69.7411313
  21.1050113  10.8341673  75.9021313  21.6510113  11.5131673  75.9561313
  20.7550113  10.9161673  75.1071313  21.1340113  10.9471673  75.7921313
  20.8820113   3.8381673  69.2061313  20.0770113   3.6611673  68.9211313
  20.8490113   4.6891673  69.3981313  20.7580113   3.9371673  69.1931313
  28.5290113   4.0181673  73.3521313  29.0050113   3.2891673  73.3041313
  27.7080113   3.7321673  73.2761313  28.4780113   3.8681673  73.3331313
  24.7450113   5.1851673  75.7071313  24.8210113   5.5261673  76.5061313
  24.9140113   4.3381673  75.8281313  24.7810113   5.1101673  75.8431313
  22.2670113   4.4591673  75.2721313  21.9690113   4.1441673  76.0291313
  22.9620113   4.9321673  75.5071313  22.3260113   4.4821673  75.4191313
  26.1960113  11.4151673  77.8021313  25.7450113  12.0581673  78.1811313
  26.9040113  11.3361673  78.3071313  26.2340113  11.4981673  77.9331313
  23.2190113   8.0961673  73.9011313  23.0140113   8.9291673  73.7421313
  22.4440113   7.7141673  74.0231313  23.0740113   8.1631673  73.8961313
  18.5810113   8.3581673  70.3101313  19.0220113   8.4381673  71.0581313
  17.7760113   8.1421673  70.5681313  18.5270113   8.3381673  70.4591313
  27.1760113   2.0631673  78.0771313  27.8420113   2.6041673  78.2371313
  26.8310113   2.3741673  77.3381313  27.2230113   2.1891673  77.9921313
  27.4890113  10.1291673  73.8841313  27.3150113   9.4751673  74.4341313
  28.2020113   9.8581673  73.4611313  27.5690113   9.9921673  73.9031313
  15.9100113   7.4281673  70.9111313  15.6660113   7.1211673  71.6911313
  15.8770113   6.7251673  70.3951313  15.8690113   7.2791673  70.9501313
  18.7290113   5.6731673  69.6541313  17.9110113   5.4051673  69.7941313
  18.7010113   6.5251673  69.8391313  18.6040113   5.7601673  69.7021313
  25.9240113   2.5641673  73.0931313  25.9920113   1.7141673  73.2741313
  25.1010113   2.6501673  72.8151313  25.8120113   2.4511673  73.0791313
  15.6760113  11.0581673  72.3031313  15.5310113  11.2141673  71.4571313
  16.5420113  11.1371673  72.3811313  15.7830113  11.0931673  72.1901313
  19.8430113   3.4551673  72.0311313  19.9430113   3.5941673  71.1761313
  20.6610113   3.3951673  72.3271313  19.9780113   3.4661673  71.9481313
  29.0030113  11.5191673  69.5111313  29.6400113  11.3851673  70.0921313
  28.6620113  10.7251673  69.3941313  29.0470113  11.3821673  69.5791313
  25.0780113   7.7841673  71.8331313  24.8270113   7.6561673  72.6591313
  24.7610113   7.0891673  71.4121313  24.9940113   7.6631673  71.8931313
  16.3630113   9.8731673  78.7801313  16.2840113   9.0631673  78.4641313
  15.9190113  10.3601673  78.2081313  16.2860113   9.8251673  78.6491313
  21.9640113   5.9921673  71.2631313  22.6810113   5.6451673  70.9071313
  21.9300113   6.7921673  70.9151313  22.0650113   6.0591673  71.1591313
  13.0510113   5.6891673  55.6288903  12.6100113   5.8071673  56.3718903
  12.7680113   4.9141673  55.3438903  12.9440113   5.5921673  55.6968903
  29.3260113   8.9901673  53.1438903  30.0270113   8.4711673  53.1398903
  28.7390113   8.5451673  52.6748903  29.3430113   8.8471673  53.0738903
  15.9330113   4.7441673  50.8078903  15.5410113   4.3731673  50.1218903
  15.8530113   4.1461673  51.4368903  15.8630113   4.6011673  50.7988903
  25.8530113   2.6161673  56.8488903  25.9330113   2.6201673  55.9798903
  25.2690113   1.9841673  56.9978903  25.7780113   2.5231673  56.7428903
  15.5600113   6.3851673  54.7078903  16.1680113   6.2151673  55.3108903
  14.8090113   6.2451673  55.1288903  15.5390113   6.3391673  54.8588903
  14.4510113   9.4761673  50.7848903  14.9180113   9.5601673  50.0528903
  14.9060113   8.8981673  51.2538903  14.5870113   9.4031673  50.7458903
  12.9910113   8.4241673  61.8838903  13.1200113   8.1441673  62.6998903
  12.3810113   7.8831673  61.5748903  12.9200113   8.3031673  61.9588903
  19.5650113   5.9491673  66.9508903  19.3290113   5.9461673  67.7908903
  18.8170113   5.8011673  66.5268903  19.4190113   5.9261673  67.0118903
  14.4370113   2.9451673  56.0858903  13.9750113   2.5531673  55.4588903
  15.1370113   2.4321673  56.1778903  14.4720113   2.8121673  56.0068903
  19.5470113   9.1411673  64.2138903  19.6850113   9.9011673  63.8068903
  20.3380113   8.7761673  64.2408903  19.6840113   9.2001673  64.1578903
  20.6420113   7.0261673  58.7188903  20.9900113   6.2271673  58.7488903
  21.3070113   7.5301673  58.4638903  20.7920113   6.9821673  58.6858903
  20.6990113   6.4751673  54.9298903  21.0300113   5.8311673  55.4158903
  20.9390113   6.2641673  54.1188903  20.7830113   6.3491673  54.8818903
  12.8030113  10.4161673  56.9988903  12.2110113  10.9741673  56.6858903
  13.2290113  10.1471673  56.2868903  12.7790113  10.4581673  56.8478903
  18.6430113   8.2601673  54.4788903  18.0640113   7.9851673  55.0708903
  19.2670113   7.6511673  54.5038903  18.6500113   8.1301673  54.5698903
  24.7860113  10.5481673  52.0008903  25.5130113  11.0201673  52.1028903
  25.0150113   9.7541673  52.2808903  24.9280113  10.5011673  52.0578903
  22.9540113  10.9401673  53.9908903  23.1680113  11.4671673  54.6528903
  23.7210113  10.7661673  53.6118903  23.0990113  10.9921673  54.0328903
  14.3480113   9.0861673  54.9298903  15.0040113   8.5111673  54.9448903
  14.7370113   9.8351673  54.7088903  14.5030113   9.1111673  54.8998903
  25.3930113  10.9501673  62.2958903  26.1370113  11.4061673  62.2858903
  25.2720113  10.7361673  61.4588903  25.4850113  10.9861673  62.1708903
  15.1660113   7.5731673  58.4298903  15.5890113   7.2171673  57.7558903
  15.4900113   7.1511673  59.1218903  15.2760113   7.4581673  58.4328903
  18.3970113  10.4251673  57.7258903  19.2410113  10.5291673  57.5308903
  18.1000113  11.2431673  57.7938903  18.4780113  10.5611673  57.7068903
  26.9670113  12.1351673  52.4008903  27.6320113  11.9871673  51.8558903
  27.3270113  12.0521673  53.1908903  27.1190113  12.1011673  52.4368903
  17.3950113  11.6441673  63.4658903  17.6870113  11.5771673  64.2858903
  16.7690113  11.0391673  63.4208903  17.3460113  11.5451673  63.5808903
  24.6470113   8.1351673  65.9998903  24.6130113   8.5171673  66.7838903
  25.5010113   8.0931673  65.8288903  24.7680113   8.1851673  66.0908903
  21.7850113   8.3321673  50.7498903  21.6040113   8.8771673  51.4068903
  22.5510113   8.6221673  50.4488903  21.8710113   8.4561673  50.8028903
  15.3880113   9.8061673  62.5878903  14.6900113   9.2981673  62.7138903
  15.6480113   9.6011673  61.7798903  15.3230113   9.7011673  62.4868903
  23.0990113  11.2991673  63.4978903  23.8670113  11.2191673  63.0918903
  22.5160113  11.1781673  62.8598903  23.1260113  11.2691673  63.3438903
  29.3760113  11.9021673  56.3988903  28.9210113  12.6191673  56.5998903
  28.7620113  11.3311673  56.1568903  29.2180113  11.9241673  56.3928903
  26.3730113   7.7471673  55.9428903  27.0740113   7.2651673  56.1318903
  25.7130113   7.1781673  55.9878903  26.3790113   7.5921673  55.9768903
  16.7490113   8.6571673  65.1548903  17.5900113   8.7201673  64.9328903
  16.7120113   9.0541673  65.9308903  16.8680113   8.7251673  65.2368903
  18.7120113   4.1681673  59.9038903  18.8840113   3.9581673  60.7328903
  18.0570113   3.6341673  59.6878903  18.6410113   4.0581673  59.9948903
  19.4620113   4.1061673  62.4938903  19.5150113   4.9531673  62.6958903
  19.1770113   3.7361673  63.2308903  19.4280113   4.1761673  62.6318903
  25.6390113   4.8011673  61.6238903  25.1250113   4.3891673  62.1948903
  25.5130113   5.6451673  61.8048903  25.5450113   4.8651673  61.7348903
  12.2830113   8.4771673  68.7048903  13.0390113   8.8261673  68.9628903
  12.4600113   7.6241673  68.6478903  12.4210113   8.4021673  68.7348903
  28.8920113   5.2401673  51.7508903  29.0110113   4.9531673  52.5658903
  29.6990113   5.2611673  51.4208903  29.0280113   5.2011673  51.8228903
  16.0280113   4.9721673  57.0818903  16.8790113   4.8921673  56.9088903
  15.6710113   4.2901673  56.6698903  16.1010113   4.8591673  56.9948903
  14.7950113  11.6971673  58.3188903  14.1220113  11.1991673  58.0738903
  15.1980113  11.8821673  57.5678903  14.7550113  11.6511673  58.1718903
  31.1260113   9.7491673  66.0048903  30.4440113  10.0591673  65.5578903
  30.7570113   9.2911673  66.6498903  30.9700113   9.7271673  66.0338903
  26.7870113   1.7771673  51.3358903  26.5670113   2.5081673  50.9138903
  26.3390113   1.8281673  52.0828903  26.6880113   1.8921673  51.3838903
  18.3960113   4.9791673  55.3168903  19.1090113   5.4741673  55.4068903
  18.6180113   4.4121673  54.6908903  18.5340113   4.9681673  55.2378903
  12.5520113   6.6221673  58.6368903  11.8850113   7.1101673  58.9128903
  13.2320113   7.1671673  58.6658903  12.5540113   6.7741673  58.6818903
  12.6180113   3.3061673  53.7398903  12.4330113   2.4671673  53.8918903
  13.2770113   3.2701673  53.1698903  12.6880113   3.1771673  53.6778903
  22.9190113   8.6821673  57.6438903  22.3960113   9.3161673  57.3508903
  23.2290113   8.3181673  56.9148903  22.8870113   8.7221673  57.4928903
  12.7900113   7.4701673  53.3148903  13.3420113   8.0391673  53.6788903
  12.5580113   6.9551673  53.9798903  12.8370113   7.4781673  53.4668903
  16.9940113   6.4701673  60.4038903  17.4610113   6.7591673  61.0818903
  17.5660113   5.9921673  59.9498903  17.1480113   6.4421673  60.4368903
  12.6200113   5.9191673  50.9428903  13.3760113   5.4871673  51.0008903
  12.6350113   6.4511673  51.6338903  12.7340113   5.9341673  51.0538903
  13.5600113   4.1401673  58.9478903  13.9910113   4.0111673  58.2008903
  13.3550113   4.9881673  58.9218903  13.5930113   4.2461673  58.8338903
  28.9600113  10.1311673  64.0948903  28.2890113  10.6451673  64.3128903
  29.0230113  10.2311673  63.2308903  28.8700113  10.2221673  63.9998903
  17.6440113   7.6561673  57.2298903  17.7700113   8.4991673  57.4168903
  18.3120113   7.2571673  57.6258903  17.7620113   7.7221673  57.3158903
  16.4260113   2.3661673  58.8308903  15.6450113   2.3071673  58.4478903
  16.4980113   1.6141673  59.2678903  16.3210113   2.2471673  58.8388903
  20.9560113  10.8801673  61.6908903  20.6790113  10.2391673  61.1678903
  20.7480113  11.6061673  61.2528903  20.8850113  10.8931673  61.5488903
  14.6550113   3.4581673  67.8578903  14.6180113   3.9591673  67.1438903
  14.9860113   2.7061673  67.5628903  14.6980113   3.4201673  67.7088903
  26.2580113   5.6631673  66.1158903  26.7420113   6.3811673  66.2138903
  26.6520113   5.2361673  65.4648903  26.3880113   5.7061673  66.0338903
  20.5540113   8.5081673  67.2928903  20.9080113   8.3301673  68.0698903
  20.1180113   7.7791673  67.0938903  20.5420113   8.3741673  67.3788903
  23.7150113   2.4241673  52.2048903  23.7070113   3.1461673  51.7148903
  23.0760113   2.5591673  52.7818903  23.6200113   2.5511673  52.2178903
  28.6870113   6.2941673  56.1858903  29.0430113   5.9441673  56.9008903
  28.6790113   5.6331673  55.6158903  28.7390113   6.1441673  56.2068903
  24.7320113   9.3601673  60.0298903  24.1290113   9.0641673  59.4728903
  25.2770113   9.8121673  59.5208903  24.7230113   9.3831673  59.8718903
  24.7450113   6.2111673  59.4298903  23.9480113   6.4351673  59.7038903
  25.0030113   5.6171673  60.0148903  24.6650113   6.1561673  59.5568903
  18.6370113  11.0231673  53.8778903  18.4900113  10.2471673  54.2488903
  19.3260113  10.8761673  53.3628903  18.7170113  10.8861673  53.8568903
  20.9290113  10.5391673  52.2798903  21.5510113  10.7021673  52.8698903
  20.9650113  11.2301673  51.7478903  21.0260113  10.6651673  52.2888903
  28.0050113   4.2091673  64.2758903  28.0600113   4.3341673  63.4138903
  28.7580113   4.5291673  64.5778903  28.1240113   4.2741673  64.1928903
  24.1960113   9.5581673  68.5528903  24.3600113   9.8411673  69.3618903
  24.4590113  10.2191673  68.0478903  24.2590113   9.6981673  68.5978903
  15.4300113   3.0731673  53.1088903  15.7540113   2.2941673  52.8868903
  16.0760113   3.4411673  53.5638903  15.5730113   3.0121673  53.1428903
  23.7360113   4.0151673  63.8758903  23.5810113   4.6251673  64.4798903
  24.2700113   3.4571673  64.2818903  23.7920113   4.0231673  64.0248903
  22.1200113   2.4151673  54.5338903  22.1790113   3.0651673  55.1128903
  21.9310113   1.7191673  55.0248903  22.1010113   2.4081673  54.6918903
  27.3460113   6.7441673  60.4028903  26.8670113   7.0421673  59.7368903
  26.9900113   5.9681673  60.5808903  27.2230113   6.6731673  60.3308903
  21.3430113   4.4621673  58.9648903  20.4960113   4.2681673  59.0458903
  21.6670113   4.2971673  59.7578903  21.2650113   4.4091673  59.0938903
  18.0950113  11.1921673  49.8508903  18.5340113  10.4951673  50.1388903
  18.3020113  11.8161673  50.4238903  18.1910113  11.1811673  49.9778903
  15.1910113   4.1551673  61.2808903  15.9130113   4.6431673  61.2438903
  14.9210113   4.1251673  60.4518903  15.2580113   4.2231673  61.1528903
  31.0380113  10.9101673  52.3428903  31.7320113  10.4431673  52.0948903
  30.4990113  10.3121673  52.6798903  31.0610113  10.7521673  52.3558903
  28.2770113   3.6861673  61.5218903  28.2700113   2.9101673  61.9198903
  27.4360113   3.9201673  61.5148903  28.1520113   3.6061673  61.5798903
  17.7670113   2.0981673  50.1568903  17.1570113   1.6931673  50.6308903
  17.3810113   2.2161673  49.3838903  17.6200113   2.0551673  50.1128903
  14.5860113   5.2071673  65.5588903  14.1650113   4.6891673  64.9978903
  14.2340113   5.9931673  65.4158903  14.4720113   5.2471673  65.4548903
  29.5330113   3.7571673  58.9588903  29.2470113   4.1581673  59.6788903
  30.3930113   3.6951673  59.0858903  29.6180113   3.8071673  59.0838903
  30.6640113   9.3901673  59.4878903  30.9540113   9.6471673  58.7068903
  31.3590113   9.4861673  60.0068903  30.8100113   9.4421673  59.4488903
  27.2690113   7.9931673  51.4698903  27.6030113   7.1871673  51.5048903
  26.5140113   7.9211673  51.8998903  27.2070113   7.8631673  51.5388903
  30.6530113   2.1111673  68.6748903  30.6010113   1.7701673  67.8738903
  31.3900113   2.5781673  68.6528903  30.7540113   2.1301673  68.5528903
  30.1910113   5.7871673  64.8808903  30.8190113   5.2381673  64.6248903
  30.1300113   6.3521673  64.2188903  30.2750113   5.7901673  64.7448903
  24.6430113   5.8681673  50.8728903  25.3270113   5.3541673  50.7038903
  24.2260113   5.9141673  50.1078903  24.6820113   5.7991673  50.7348903
  19.3250113   7.0181673  62.1768903  19.0270113   7.6101673  62.7438903
  19.3800113   7.4601673  61.4278903  19.2890113   7.1711673  62.1498903
  17.3040113   5.9681673  65.5748903  16.4980113   5.6781673  65.7418903
  17.2150113   6.8361673  65.5808903  17.1720113   6.0531673  65.5998903
  21.8410113   3.4411673  61.6678903  22.3170113   3.8151673  62.2958903
  21.0180113   3.5751673  61.9268903  21.7900113   3.5161673  61.7988903
  21.1050113  10.8341673  56.8958903  21.6510113  11.5131673  56.9498903
  20.7550113  10.9161673  56.1008903  21.1340113  10.9471673  56.7858903
  19.2880113   9.0621673  60.2848903  18.6640113   9.6441673  60.1028903
  19.5360113   8.7761673  59.4988903  19.2320113   9.1061673  60.1418903
  23.5970113   5.6961673  67.2738903  24.3540113   5.9821673  66.9478903
  23.0500113   5.7481673  66.5958903  23.6280113   5.7461673  67.1248903
  27.5060113   8.2461673  65.7778903  27.8520113   8.5161673  66.5318903
  27.8000113   8.8281673  65.1978903  27.6010113   8.3721673  65.8038903
  20.8820113   3.8381673  50.1998903  20.0770113   3.6611673  49.9148903
  20.8490113   4.6891673  50.3918903  20.7580113   3.9371673  50.1868903
  21.9410113  10.7111673  66.1648903  22.4190113  10.1111673  65.7488903
  21.5900113  10.2681673  66.8298903  21.9600113  10.5571673  66.2018903
  28.5290113   4.0181673  54.3458903  29.0050113   3.2891673  54.2978903
  27.7080113   3.7321673  54.2698903  28.4780113   3.8681673  54.3268903
  22.0000113   5.9301673  65.1848903  21.2050113   5.8661673  65.5358903
  22.0710113   6.7771673  64.9898903  21.8930113   6.0451673  65.2078903
  17.8300113  12.1371673  60.5018903  17.8410113  12.1961673  61.3718903
  17.4050113  11.3901673  60.3518903  17.7690113  12.0351673  60.6078903
  24.7450113   5.1851673  56.7008903  24.8210113   5.5261673  57.4998903
  24.9140113   4.3381673  56.8218903  24.7810113   5.1101673  56.8368903
  22.2670113   4.4591673  56.2658903  21.9690113   4.1441673  57.0228903
  22.9620113   4.9321673  56.5008903  22.3260113   4.4821673  56.4128903
  22.4890113   8.5771673  64.2928903  23.1760113   8.4631673  64.8178903
  22.6230113   9.3681673  63.9488903  22.6100113   8.6771673  64.3198903
  14.5940113  11.6351673  65.9438903  13.9400113  11.0661673  66.0418903
  14.2190113  12.4081673  66.0948903  14.4420113  11.6651673  65.9808903
  23.1120113   3.0411673  67.8668903  23.4350113   3.7271673  67.4348903
  22.4080113   3.3641673  68.2688903  23.0550113   3.1901673  67.8618903
  26.1960113  11.4151673  58.7958903  25.7450113  12.0581673  59.1748903
  26.9040113  11.3361673  59.3008903  26.2340113  11.4981673  58.9268903
  22.8970113   6.5051673  61.7258903  22.2030113   6.9071673  62.0688903
  23.5740113   6.9381673  62.0648903  22.8940113   6.6281673  61.8268903
  28.2740113   9.0981673  68.3058903  29.0500113   8.7081673  68.3888903
  27.8050113   8.7621673  68.9608903  28.3190113   8.9911673  68.4148903
  23.2190113   8.0961673  54.8948903  23.0140113   8.9291673  54.7358903
  22.4440113   7.7141673  55.0168903  23.0740113   8.1631673  54.8898903
  13.1370113   3.7171673  63.5718903  13.4570113   3.9361673  62.7908903
  13.0370113   2.8521673  63.5168903  13.1690113   3.6221673  63.4488903
  18.5810113   8.3581673  51.3038903  19.0220113   8.4381673  52.0518903
  17.7760113   8.1421673  51.5618903  18.5270113   8.3381673  51.4528903
  17.9000113   3.0091673  64.9568903  17.5040113   3.7831673  65.0318903
  17.4940113   2.6361673  64.2808903  17.7820113   3.0681673  64.8678903
  27.1760113   2.0631673  59.0708903  27.8420113   2.6041673  59.2308903
  26.8310113   2.3741673  58.3318903  27.2230113   2.1891673  58.9858903
  27.4890113  10.1291673  54.8778903  27.3150113   9.4751673  55.4278903
  28.2020113   9.8581673  54.4548903  27.5690113   9.9921673  54.8968903
  15.9100113   7.4281673  51.9048903  15.6660113   7.1211673  52.6848903
  15.8770113   6.7251673  51.3888903  15.8690113   7.2791673  51.9438903
  18.7290113   5.6731673  50.6478903  17.9110113   5.4051673  50.7878903
  18.7010113   6.5251673  50.8328903  18.6040113   5.7601673  50.6958903
  25.1640113   7.5821673  62.5688903  25.3700113   7.8831673  63.3608903
  25.1030113   8.3041673  62.0838903  25.1850113   7.7331673  62.6138903
  24.6980113  11.7961673  66.8148903  23.9450113  11.7781673  66.3738903
  24.8660113  12.6481673  66.8988903  24.6120113  11.9191673  66.7618903
  29.9760113   6.2211673  62.0268903  29.9440113   5.3591673  61.8918903
  29.2830113   6.5231673  61.5928903  29.8690113   6.1381673  61.9428903
  18.3700113  11.4191673  66.2328903  18.4110113  11.5451673  67.0958903
  19.0210113  10.8591673  66.0768903  18.4720113  11.3551673  66.3378903
  28.0810113   9.4811673  60.8238903  28.6080113   9.3981673  60.1328903
  27.6900113   8.7031673  60.8778903  28.1010113   9.3541673  60.7298903
  15.9630113   9.8021673  67.5928903  16.5580113  10.2331673  68.0648903
  15.5990113  10.4261673  67.1038903  15.9970113   9.9581673  67.5898903
  13.8900113   7.7911673  64.5218903  13.3160113   8.2071673  65.0308903
  14.6230113   8.2561673  64.6168903  13.9140113   7.9211673  64.6108903
  25.9240113   2.5641673  54.0868903  25.9920113   1.7141673  54.2678903
  25.1010113   2.6501673  53.8088903  25.8120113   2.4511673  54.0728903
  15.6760113  11.0581673  53.2968903  15.5310113  11.2141673  52.4508903
  16.5420113  11.1371673  53.3748903  15.7830113  11.0931673  53.1838903
  19.8430113   3.4551673  53.0248903  19.9430113   3.5941673  52.1698903
  20.6610113   3.3951673  53.3208903  19.9780113   3.4661673  52.9418903
  29.0030113  11.5191673  50.5048903  29.6400113  11.3851673  51.0858903
  28.6620113  10.7251673  50.3878903  29.0470113  11.3821673  50.5728903
  29.1980113   3.9371673  67.2378903  29.8320113   3.7671673  67.8118903
  29.6150113   4.3401673  66.5858903  29.3530113   3.9721673  67.2268903
  25.0780113   7.7841673  52.8268903  24.8270113   7.6561673  53.6528903
  24.7610113   7.0891673  52.4058903  24.9940113   7.6631673  52.8868903
  26.6090113   4.0481673  68.5928903  27.4800113   4.0121673  68.5568903
  26.3900113   4.4681673  67.8608903  26.7060113   4.1041673  68.4798903
  16.3630113   9.8731673  59.7738903  16.2840113   9.0631673  59.4578903
  15.9190113  10.3601673  59.2018903  16.2860113   9.8251673  59.6428903
  21.9640113   5.9921673  52.2568903  22.6810113   5.6451673  51.9008903
  21.9300113   6.7921673  51.9088903  22.0650113   6.0591673  52.1528903
  13.9350113  12.1171673  63.3548903  14.4280113  12.0611673  64.0728903
  14.1230113  11.3841673  62.9198903  14.0360113  12.0001673  63.3968903
  13.0510113   5.6891673  36.6226493  12.6100113   5.8071673  37.3656493
  12.7680113   4.9141673  36.3376493  12.9440113   5.5921673  36.6906493
  29.3260113   8.9901673  34.1376493  30.0270113   8.4711673  34.1336493
  28.7390113   8.5451673  33.6686493  29.3430113   8.8471673  34.0676493
  15.9330113   4.7441673  31.8016493  15.5410113   4.3731673  31.1156493
  15.8530113   4.1461673  32.4306493  15.8630113   4.6011673  31.7926493
  25.8530113   2.6161673  37.8426493  25.9330113   2.6201673  36.9736493
  25.2690113   1.9841673  37.9916493  25.7780113   2.5231673  37.7366493
  15.5600113   6.3851673  35.7016493  16.1680113   6.2151673  36.3046493
  14.8090113   6.2451673  36.1226493  15.5390113   6.3391673  35.8526493
  14.4510113   9.4761673  31.7786493  14.9180113   9.5601673  31.0466493
  14.9060113   8.8981673  32.2476493  14.5870113   9.4031673  31.7396493
  12.9910113   8.4241673  42.8776493  13.1200113   8.1441673  43.6936493
  12.3810113   7.8831673  42.5686493  12.9200113   8.3031673  42.9526493
  19.5650113   5.9491673  47.9446493  19.3290113   5.9461673  48.7846493
  18.8170113   5.8011673  47.5206493  19.4190113   5.9261673  48.0056493
  14.4370113   2.9451673  37.0796493  13.9750113   2.5531673  36.4526493
  15.1370113   2.4321673  37.1716493  14.4720113   2.8121673  37.0006493
  19.5470113   9.1411673  45.2076493  19.6850113   9.9011673  44.8006493
  20.3380113   8.7761673  45.2346493  19.6840113   9.2001673  45.1516493
  20.6420113   7.0261673  39.7126493  20.9900113   6.2271673  39.7426493
  21.3070113   7.5301673  39.4576493  20.7920113   6.9821673  39.6796493
  20.6990113   6.4751673  35.9236493  21.0300113   5.8311673  36.4096493
  20.9390113   6.2641673  35.1126493  20.7830113   6.3491673  35.8756493
  12.8030113  10.4161673  37.9926493  12.2110113  10.9741673  37.6796493
  13.2290113  10.1471673  37.2806493  12.7790113  10.4581673  37.8416493
  18.6430113   8.2601673  35.4726493  18.0640113   7.9851673  36.0646493
  19.2670113   7.6511673  35.4976493  18.6500113   8.1301673  35.5636493
  24.7860113  10.5481673  32.9946493  25.5130113  11.0201673  33.0966493
  25.0150113   9.7541673  33.2746493  24.9280113  10.5011673  33.0516493
  22.9540113  10.9401673  34.9846493  23.1680113  11.4671673  35.6466493
  23.7210113  10.7661673  34.6056493  23.0990113  10.9921673  35.0266493
  14.3480113   9.0861673  35.9236493  15.0040113   8.5111673  35.9386493
  14.7370113   9.8351673  35.7026493  14.5030113   9.1111673  35.8936493
  25.3930113  10.9501673  43.2896493  26.1370113  11.4061673  43.2796493
  25.2720113  10.7361673  42.4526493  25.4850113  10.9861673  43.1646493
  15.1660113   7.5731673  39.4236493  15.5890113   7.2171673  38.7496493
  15.4900113   7.1511673  40.1156493  15.2760113   7.4581673  39.4266493
  18.3970113  10.4251673  38.7196493  19.2410113  10.5291673  38.5246493
  18.1000113  11.2431673  38.7876493  18.4780113  10.5611673  38.7006493
  26.9670113  12.1351673  33.3946493  27.6320113  11.9871673  32.8496493
  27.3270113  12.0521673  34.1846493  27.1190113  12.1011673  33.4306493
  17.3950113  11.6441673  44.4596493  17.6870113  11.5771673  45.2796493
  16.7690113  11.0391673  44.4146493  17.3460113  11.5451673  44.5746493
  24.6470113   8.1351673  46.9936493  24.6130113   8.5171673  47.7776493
  25.5010113   8.0931673  46.8226493  24.7680113   8.1851673  47.0846493
  21.7850113   8.3321673  31.7436493  21.6040113   8.8771673  32.4006493
  22.5510113   8.6221673  31.4426493  21.8710113   8.4561673  31.7966493
  15.3880113   9.8061673  43.5816493  14.6900113   9.2981673  43.7076493
  15.6480113   9.6011673  42.7736493  15.3230113   9.7011673  43.4806493
  23.0990113  11.2991673  44.4916493  23.8670113  11.2191673  44.0856493
  22.5160113  11.1781673  43.8536493  23.1260113  11.2691673  44.3376493
  26.3730113   7.7471673  36.9366493  27.0740113   7.2651673  37.1256493
  25.7130113   7.1781673  36.9816493  26.3790113   7.5921673  36.9706493
  16.7490113   8.6571673  46.1486493  17.5900113   8.7201673  45.9266493
  16.7120113   9.0541673  46.9246493  16.8680113   8.7251673  46.2306493
  18.7120113   4.1681673  40.8976493  18.8840113   3.9581673  41.7266493
  18.0570113   3.6341673  40.6816493  18.6410113   4.0581673  40.9886493
  19.4620113   4.1061673  43.4876493  19.5150113   4.9531673  43.6896493
  19.1770113   3.7361673  44.2246493  19.4280113   4.1761673  43.6256493
  25.6390113   4.8011673  42.6176493  25.1250113   4.3891673  43.1886493
  25.5130113   5.6451673  42.7986493  25.5450113   4.8651673  42.7286493
  12.2830113   8.4771673  49.6986493  13.0390113   8.8261673  49.9566493
  12.4600113   7.6241673  49.6416493  12.4210113   8.4021673  49.7286493
  28.8920113   5.2401673  32.7446493  29.0110113   4.9531673  33.5596493
  29.6990113   5.2611673  32.4146493  29.0280113   5.2011673  32.8166493
  16.0280113   4.9721673  38.0756493  16.8790113   4.8921673  37.9026493
  15.6710113   4.2901673  37.6636493  16.1010113   4.8591673  37.9886493
  14.7950113  11.6971673  39.3126493  14.1220113  11.1991673  39.0676493
  15.1980113  11.8821673  38.5616493  14.7550113  11.6511673  39.1656493
  31.1260113   9.7491673  46.9986493  30.4440113  10.0591673  46.5516493
  30.7570113   9.2911673  47.6436493  30.9700113   9.7271673  47.0276493
  26.7870113   1.7771673  32.3296493  26.5670113   2.5081673  31.9076493
  26.3390113   1.8281673  33.0766493  26.6880113   1.8921673  32.3776493
  18.3960113   4.9791673  36.3106493  19.1090113   5.4741673  36.4006493
  18.6180113   4.4121673  35.6846493  18.5340113   4.9681673  36.2316493
  12.5520113   6.6221673  39.6306493  11.8850113   7.1101673  39.9066493
  13.2320113   7.1671673  39.6596493  12.5540113   6.7741673  39.6756493
  12.6180113   3.3061673  34.7336493  12.4330113   2.4671673  34.8856493
  13.2770113   3.2701673  34.1636493  12.6880113   3.1771673  34.6716493
  22.9190113   8.6821673  38.6376493  22.3960113   9.3161673  38.3446493
  23.2290113   8.3181673  37.9086493  22.8870113   8.7221673  38.4866493
  12.7900113   7.4701673  34.3086493  13.3420113   8.0391673  34.6726493
  12.5580113   6.9551673  34.9736493  12.8370113   7.4781673  34.4606493
  16.9940113   6.4701673  41.3976493  17.4610113   6.7591673  42.0756493
  17.5660113   5.9921673  40.9436493  17.1480113   6.4421673  41.4306493
  12.6200113   5.9191673  31.9366493  13.3760113   5.4871673  31.9946493
  12.6350113   6.4511673  32.6276493  12.7340113   5.9341673  32.0476493
  13.5600113   4.1401673  39.9416493  13.9910113   4.0111673  39.1946493
  13.3550113   4.9881673  39.9156493  13.5930113   4.2461673  39.8276493
  28.9600113  10.1311673  45.0886493  28.2890113  10.6451673  45.3066493
  29.0230113  10.2311673  44.2246493  28.8700113  10.2221673  44.9936493
  17.6440113   7.6561673  38.2236493  17.7700113   8.4991673  38.4106493
  18.3120113   7.2571673  38.6196493  17.7620113   7.7221673  38.3096493
  16.4260113   2.3661673  39.8246493  15.6450113   2.3071673  39.4416493
  16.4980113   1.6141673  40.2616493  16.3210113   2.2471673  39.8326493
  20.9560113  10.8801673  42.6846493  20.6790113  10.2391673  42.1616493
  20.7480113  11.6061673  42.2466493  20.8850113  10.8931673  42.5426493
  14.6550113   3.4581673  48.8516493  14.6180113   3.9591673  48.1376493
  14.9860113   2.7061673  48.5566493  14.6980113   3.4201673  48.7026493
  26.2580113   5.6631673  47.1096493  26.7420113   6.3811673  47.2076493
  26.6520113   5.2361673  46.4586493  26.3880113   5.7061673  47.0276493
  20.5540113   8.5081673  48.2866493  20.9080113   8.3301673  49.0636493
  20.1180113   7.7791673  48.0876493  20.5420113   8.3741673  48.3726493
  23.7150113   2.4241673  33.1986493  23.7070113   3.1461673  32.7086493
  23.0760113   2.5591673  33.7756493  23.6200113   2.5511673  33.2116493
  28.6870113   6.2941673  37.1796493  29.0430113   5.9441673  37.8946493
  28.6790113   5.6331673  36.6096493  28.7390113   6.1441673  37.2006493
  24.7320113   9.3601673  41.0236493  24.1290113   9.0641673  40.4666493
  25.2770113   9.8121673  40.5146493  24.7230113   9.3831673  40.8656493
  24.7450113   6.2111673  40.4236493  23.9480113   6.4351673  40.6976493
  25.0030113   5.6171673  41.0086493  24.6650113   6.1561673  40.5506493
  18.6370113  11.0231673  34.8716493  18.4900113  10.2471673  35.2426493
  19.3260113  10.8761673  34.3566493  18.7170113  10.8861673  34.8506493
  20.9290113  10.5391673  33.2736493  21.5510113  10.7021673  33.8636493
  20.9650113  11.2301673  32.7416493  21.0260113  10.6651673  33.2826493
  28.0050113   4.2091673  45.2696493  28.0600113   4.3341673  44.4076493
  28.7580113   4.5291673  45.5716493  28.1240113   4.2741673  45.1866493
  24.1960113   9.5581673  49.5466493  24.3600113   9.8411673  50.3556493
  24.4590113  10.2191673  49.0416493  24.2590113   9.6981673  49.5916493
  15.4300113   3.0731673  34.1026493  15.7540113   2.2941673  33.8806493
  16.0760113   3.4411673  34.5576493  15.5730113   3.0121673  34.1366493
  23.7360113   4.0151673  44.8696493  23.5810113   4.6251673  45.4736493
  24.2700113   3.4571673  45.2756493  23.7920113   4.0231673  45.0186493
  22.1200113   2.4151673  35.5276493  22.1790113   3.0651673  36.1066493
  21.9310113   1.7191673  36.0186493  22.1010113   2.4081673  35.6856493
  27.3460113   6.7441673  41.3966493  26.8670113   7.0421673  40.7306493
  26.9900113   5.9681673  41.5746493  27.2230113   6.6731673  41.3246493
  21.3430113   4.4621673  39.9586493  20.4960113   4.2681673  40.0396493
  21.6670113   4.2971673  40.7516493  21.2650113   4.4091673  40.0876493
  18.0950113  11.1921673  30.8446493  18.5340113  10.4951673  31.1326493
  18.3020113  11.8161673  31.4176493  18.1910113  11.1811673  30.9716493
  15.1910113   4.1551673  42.2746493  15.9130113   4.6431673  42.2376493
  14.9210113   4.1251673  41.4456493  15.2580113   4.2231673  42.1466493
  31.0380113  10.9101673  33.3366493  31.7320113  10.4431673  33.0886493
  30.4990113  10.3121673  33.6736493  31.0610113  10.7521673  33.3496493
  28.2770113   3.6861673  42.5156493  28.2700113   2.9101673  42.9136493
  27.4360113   3.9201673  42.5086493  28.1520113   3.6061673  42.5736493
  17.7670113   2.0981673  31.1506493  17.1570113   1.6931673  31.6246493
  17.3810113   2.2161673  30.3776493  17.6200113   2.0551673  31.1066493
  14.5860113   5.2071673  46.5526493  14.1650113   4.6891673  45.9916493
  14.2340113   5.9931673  46.4096493  14.4720113   5.2471673  46.4486493
  29.5330113   3.7571673  39.9526493  29.2470113   4.1581673  40.6726493
  30.3930113   3.6951673  40.0796493  29.6180113   3.8071673  40.0776493
  30.6640113   9.3901673  40.4816493  30.9540113   9.6471673  39.7006493
  31.3590113   9.4861673  41.0006493  30.8100113   9.4421673  40.4426493
  27.2690113   7.9931673  32.4636493  27.6030113   7.1871673  32.4986493
  26.5140113   7.9211673  32.8936493  27.2070113   7.8631673  32.5326493
  30.6530113   2.1111673  49.6686493  30.6010113   1.7701673  48.8676493
  31.3900113   2.5781673  49.6466493  30.7540113   2.1301673  49.5466493
  30.1910113   5.7871673  45.8746493  30.8190113   5.2381673  45.6186493
  30.1300113   6.3521673  45.2126493  30.2750113   5.7901673  45.7386493
  24.6430113   5.8681673  31.8666493  25.3270113   5.3541673  31.6976493
  24.2260113   5.9141673  31.1016493  24.6820113   5.7991673  31.7286493
  19.3250113   7.0181673  43.1706493  19.0270113   7.6101673  43.7376493
  19.3800113   7.4601673  42.4216493  19.2890113   7.1711673  43.1436493
  17.3040113   5.9681673  46.5686493  16.4980113   5.6781673  46.7356493
  17.2150113   6.8361673  46.5746493  17.1720113   6.0531673  46.5936493
  21.8410113   3.4411673  42.6616493  22.3170113   3.8151673  43.2896493
  21.0180113   3.5751673  42.9206493  21.7900113   3.5161673  42.7926493
  21.1050113  10.8341673  37.8896493  21.6510113  11.5131673  37.9436493
  20.7550113  10.9161673  37.0946493  21.1340113  10.9471673  37.7796493
  19.2880113   9.0621673  41.2786493  18.6640113   9.6441673  41.0966493
  19.5360113   8.7761673  40.4926493  19.2320113   9.1061673  41.1356493
  23.5970113   5.6961673  48.2676493  24.3540113   5.9821673  47.9416493
  23.0500113   5.7481673  47.5896493  23.6280113   5.7461673  48.1186493
  27.5060113   8.2461673  46.7716493  27.8520113   8.5161673  47.5256493
  27.8000113   8.8281673  46.1916493  27.6010113   8.3721673  46.7976493
  20.8820113   3.8381673  31.1936493  20.0770113   3.6611673  30.9086493
  20.8490113   4.6891673  31.3856493  20.7580113   3.9371673  31.1806493
  21.9410113  10.7111673  47.1586493  22.4190113  10.1111673  46.7426493
  21.5900113  10.2681673  47.8236493  21.9600113  10.5571673  47.1956493
  28.5290113   4.0181673  35.3396493  29.0050113   3.2891673  35.2916493
  27.7080113   3.7321673  35.2636493  28.4780113   3.8681673  35.3206493
  22.0000113   5.9301673  46.1786493  21.2050113   5.8661673  46.5296493
  22.0710113   6.7771673  45.9836493  21.8930113   6.0451673  46.2016493
  17.8300113  12.1371673  41.4956493  17.8410113  12.1961673  42.3656493
  17.4050113  11.3901673  41.3456493  17.7690113  12.0351673  41.6016493
  24.7450113   5.1851673  37.6946493  24.8210113   5.5261673  38.4936493
  24.9140113   4.3381673  37.8156493  24.7810113   5.1101673  37.8306493
  22.2670113   4.4591673  37.2596493  21.9690113   4.1441673  38.0166493
  22.9620113   4.9321673  37.4946493  22.3260113   4.4821673  37.4066493
  22.4890113   8.5771673  45.2866493  23.1760113   8.4631673  45.8116493
  22.6230113   9.3681673  44.9426493  22.6100113   8.6771673  45.3136493
  14.5940113  11.6351673  46.9376493  13.9400113  11.0661673  47.0356493
  14.2190113  12.4081673  47.0886493  14.4420113  11.6651673  46.9746493
  23.1120113   3.0411673  48.8606493  23.4350113   3.7271673  48.4286493
  22.4080113   3.3641673  49.2626493  23.0550113   3.1901673  48.8556493
  26.1960113  11.4151673  39.7896493  25.7450113  12.0581673  40.1686493
  26.9040113  11.3361673  40.2946493  26.2340113  11.4981673  39.9206493
  22.8970113   6.5051673  42.7196493  22.2030113   6.9071673  43.0626493
  23.5740113   6.9381673  43.0586493  22.8940113   6.6281673  42.8206493
  28.2740113   9.0981673  49.2996493  29.0500113   8.7081673  49.3826493
  27.8050113   8.7621673  49.9546493  28.3190113   8.9911673  49.4086493
  23.2190113   8.0961673  35.8886493  23.0140113   8.9291673  35.7296493
  22.4440113   7.7141673  36.0106493  23.0740113   8.1631673  35.8836493
  13.1370113   3.7171673  44.5656493  13.4570113   3.9361673  43.7846493
  13.0370113   2.8521673  44.5106493  13.1690113   3.6221673  44.4426493
  18.5810113   8.3581673  32.2976493  19.0220113   8.4381673  33.0456493
  17.7760113   8.1421673  32.5556493  18.5270113   8.3381673  32.4466493
  17.9000113   3.0091673  45.9506493  17.5040113   3.7831673  46.0256493
  17.4940113   2.6361673  45.2746493  17.7820113   3.0681673  45.8616493
  27.1760113   2.0631673  40.0646493  27.8420113   2.6041673  40.2246493
  26.8310113   2.3741673  39.3256493  27.2230113   2.1891673  39.9796493
  27.4890113  10.1291673  35.8716493  27.3150113   9.4751673  36.4216493
  28.2020113   9.8581673  35.4486493  27.5690113   9.9921673  35.8906493
  15.9100113   7.4281673  32.8986493  15.6660113   7.1211673  33.6786493
  15.8770113   6.7251673  32.3826493  15.8690113   7.2791673  32.9376493
  18.7290113   5.6731673  31.6416493  17.9110113   5.4051673  31.7816493
  18.7010113   6.5251673  31.8266493  18.6040113   5.7601673  31.6896493
  25.1640113   7.5821673  43.5626493  25.3700113   7.8831673  44.3546493
  25.1030113   8.3041673  43.0776493  25.1850113   7.7331673  43.6076493
  24.6980113  11.7961673  47.8086493  23.9450113  11.7781673  47.3676493
  24.8660113  12.6481673  47.8926493  24.6120113  11.9191673  47.7556493
  29.9760113   6.2211673  43.0206493  29.9440113   5.3591673  42.8856493
  29.2830113   6.5231673  42.5866493  29.8690113   6.1381673  42.9366493
  18.3700113  11.4191673  47.2266493  18.4110113  11.5451673  48.0896493
  19.0210113  10.8591673  47.0706493  18.4720113  11.3551673  47.3316493
  28.0810113   9.4811673  41.8176493  28.6080113   9.3981673  41.1266493
  27.6900113   8.7031673  41.8716493  28.1010113   9.3541673  41.7236493
  15.9630113   9.8021673  48.5866493  16.5580113  10.2331673  49.0586493
  15.5990113  10.4261673  48.0976493  15.9970113   9.9581673  48.5836493
  13.8900113   7.7911673  45.5156493  13.3160113   8.2071673  46.0246493
  14.6230113   8.2561673  45.6106493  13.9140113   7.9211673  45.6046493
  25.9240113   2.5641673  35.0806493  25.9920113   1.7141673  35.2616493
  25.1010113   2.6501673  34.8026493  25.8120113   2.4511673  35.0666493
  15.6760113  11.0581673  34.2906493  15.5310113  11.2141673  33.4446493
  16.5420113  11.1371673  34.3686493  15.7830113  11.0931673  34.1776493
  19.8430113   3.4551673  34.0186493  19.9430113   3.5941673  33.1636493
  20.6610113   3.3951673  34.3146493  19.9780113   3.4661673  33.9356493
  29.0030113  11.5191673  31.4986493  29.6400113  11.3851673  32.0796493
  28.6620113  10.7251673  31.3816493  29.0470113  11.3821673  31.5666493
  29.1980113   3.9371673  48.2316493  29.8320113   3.7671673  48.8056493
  29.6150113   4.3401673  47.5796493  29.3530113   3.9721673  48.2206493
  25.0780113   7.7841673  33.8206493  24.8270113   7.6561673  34.6466493
  24.7610113   7.0891673  33.3996493  24.9940113   7.6631673  33.8806493
  26.6090113   4.0481673  49.5866493  27.4800113   4.0121673  49.5506493
  26.3900113   4.4681673  48.8546493  26.7060113   4.1041673  49.4736493
  16.3630113   9.8731673  40.7676493  16.2840113   9.0631673  40.4516493
  15.9190113  10.3601673  40.1956493  16.2860113   9.8251673  40.6366493
  21.9640113   5.9921673  33.2506493  22.6810113   5.6451673  32.8946493
  21.9300113   6.7921673  32.9026493  22.0650113   6.0591673  33.1466493
  13.9350113  12.1171673  44.3486493  14.4280113  12.0611673  45.0666493
  14.1230113  11.3841673  43.9136493  14.0360113  12.0001673  44.3906493
  13.0510113   5.6891673  17.6164083  12.6100113   5.8071673  18.3594083
  12.7680113   4.9141673  17.3314083  12.9440113   5.5921673  17.6844083
  29.3260113   8.9901673  15.1314083  30.0270113   8.4711673  15.1274083
  28.7390113   8.5451673  14.6624083  29.3430113   8.8471673  15.0614083
  15.9330113   4.7441673  12.7954083  15.5410113   4.3731673  12.1094083
  15.8530113   4.1461673  13.4244083  15.8630113   4.6011673  12.7864083
  25.8530113   2.6161673  18.8364083  25.9330113   2.6201673  17.9674083
  25.2690113   1.9841673  18.9854083  25.7780113   2.5231673  18.7304083
  15.5600113   6.3851673  16.6954083  16.1680113   6.2151673  17.2984083
  14.8090113   6.2451673  17.1164083  15.5390113   6.3391673  16.8464083
  14.4510113   9.4761673  12.7724083  14.9180113   9.5601673  12.0404083
  14.9060113   8.8981673  13.2414083  14.5870113   9.4031673  12.7334083
  12.9910113   8.4241673  23.8714083  13.1200113   8.1441673  24.6874083
  12.3810113   7.8831673  23.5624083  12.9200113   8.3031673  23.9464083
  19.5650113   5.9491673  28.9384083  19.3290113   5.9461673  29.7784083
  18.8170113   5.8011673  28.5144083  19.4190113   5.9261673  28.9994083
  14.4370113   2.9451673  18.0734083  13.9750113   2.5531673  17.4464083
  15.1370113   2.4321673  18.1654083  14.4720113   2.8121673  17.9944083
  19.5470113   9.1411673  26.2014083  19.6850113   9.9011673  25.7944083
  20.3380113   8.7761673  26.2284083  19.6840113   9.2001673  26.1454083
  20.6420113   7.0261673  20.7064083  20.9900113   6.2271673  20.7364083
  21.3070113   7.5301673  20.4514083  20.7920113   6.9821673  20.6734083
  20.6990113   6.4751673  16.9174083  21.0300113   5.8311673  17.4034083
  20.9390113   6.2641673  16.1064083  20.7830113   6.3491673  16.8694083
  12.8030113  10.4161673  18.9864083  12.2110113  10.9741673  18.6734083
  13.2290113  10.1471673  18.2744083  12.7790113  10.4581673  18.8354083
  18.6430113   8.2601673  16.4664083  18.0640113   7.9851673  17.0584083
  19.2670113   7.6511673  16.4914083  18.6500113   8.1301673  16.5574083
  24.7860113  10.5481673  13.9884083  25.5130113  11.0201673  14.0904083
  25.0150113   9.7541673  14.2684083  24.9280113  10.5011673  14.0454083
  22.9540113  10.9401673  15.9784083  23.1680113  11.4671673  16.6404083
  23.7210113  10.7661673  15.5994083  23.0990113  10.9921673  16.0204083
  14.3480113   9.0861673  16.9174083  15.0040113   8.5111673  16.9324083
  14.7370113   9.8351673  16.6964083  14.5030113   9.1111673  16.8874083
  25.3930113  10.9501673  24.2834083  26.1370113  11.4061673  24.2734083
  25.2720113  10.7361673  23.4464083  25.4850113  10.9861673  24.1584083
  15.1660113   7.5731673  20.4174083  15.5890113   7.2171673  19.7434083
  15.4900113   7.1511673  21.1094083  15.2760113   7.4581673  20.4204083
  18.3970113  10.4251673  19.7134083  19.2410113  10.5291673  19.5184083
  18.1000113  11.2431673  19.7814083  18.4780113  10.5611673  19.6944083
  26.9670113  12.1351673  14.3884083  27.6320113  11.9871673  13.8434083
  27.3270113  12.0521673  15.1784083  27.1190113  12.1011673  14.4244083
  17.3950113  11.6441673  25.4534083  17.6870113  11.5771673  26.2734083
  16.7690113  11.0391673  25.4084083  17.3460113  11.5451673  25.5684083
  24.6470113   8.1351673  27.9874083  24.6130113   8.5171673  28.7714083
  25.5010113   8.0931673  27.8164083  24.7680113   8.1851673  28.0784083
  21.7850113   8.3321673  12.7374083  21.6040113   8.8771673  13.3944083
  22.5510113   8.6221673  12.4364083  21.8710113   8.4561673  12.7904083
  15.3880113   9.8061673  24.5754083  14.6900113   9.2981673  24.7014083
  15.6480113   9.6011673  23.7674083  15.3230113   9.7011673  24.4744083
  23.0990113  11.2991673  25.4854083  23.8670113  11.2191673  25.0794083
  22.5160113  11.1781673  24.8474083  23.1260113  11.2691673  25.3314083
  29.3760113  11.9021673  18.3864083  28.9210113  12.6191673  18.5874083
  28.7620113  11.3311673  18.1444083  29.2180113  11.9241673  18.3804083
  26.3730113   7.7471673  17.9304083  27.0740113   7.2651673  18.1194083
  25.7130113   7.1781673  17.9754083  26.3790113   7.5921673  17.9644083
  16.7490113   8.6571673  27.1424083  17.5900113   8.7201673  26.9204083
  16.7120113   9.0541673  27.9184083  16.8680113   8.7251673  27.2244083
  18.7120113   4.1681673  21.8914083  18.8840113   3.9581673  22.7204083
  18.0570113   3.6341673  21.6754083  18.6410113   4.0581673  21.9824083
  19.4620113   4.1061673  24.4814083  19.5150113   4.9531673  24.6834083
  19.1770113   3.7361673  25.2184083  19.4280113   4.1761673  24.6194083
  25.6390113   4.8011673  23.6114083  25.1250113   4.3891673  24.1824083
  25.5130113   5.6451673  23.7924083  25.5450113   4.8651673  23.7224083
  12.2830113   8.4771673  30.6924083  13.0390113   8.8261673  30.9504083
  12.4600113   7.6241673  30.6354083  12.4210113   8.4021673  30.7224083
  28.8920113   5.2401673  13.7384083  29.0110113   4.9531673  14.5534083
  29.6990113   5.2611673  13.4084083  29.0280113   5.2011673  13.8104083
  16.0280113   4.9721673  19.0694083  16.8790113   4.8921673  18.8964083
  15.6710113   4.2901673  18.6574083  16.1010113   4.8591673  18.9824083
  14.7950113  11.6971673  20.3064083  14.1220113  11.1991673  20.0614083
  15.1980113  11.8821673  19.5554083  14.7550113  11.6511673  20.1594083
  31.1260113   9.7491673  27.9924083  30.4440113  10.0591673  27.5454083
  30.7570113   9.2911673  28.6374083  30.9700113   9.7271673  28.0214083
  26.7870113   1.7771673  13.3234083  26.5670113   2.5081673  12.9014083
  26.3390113   1.8281673  14.0704083  26.6880113   1.8921673  13.3714083
  18.3960113   4.9791673  17.3044083  19.1090113   5.4741673  17.3944083
  18.6180113   4.4121673  16.6784083  18.5340113   4.9681673  17.2254083
  12.5520113   6.6221673  20.6244083  11.8850113   7.1101673  20.9004083
  13.2320113   7.1671673  20.6534083  12.5540113   6.7741673  20.6694083
  12.6180113   3.3061673  15.7274083  12.4330113   2.4671673  15.8794083
  13.2770113   3.2701673  15.1574083  12.6880113   3.1771673  15.6654083
  22.9190113   8.6821673  19.6314083  22.3960113   9.3161673  19.3384083
  23.2290113   8.3181673  18.9024083  22.8870113   8.7221673  19.4804083
  12.7900113   7.4701673  15.3024083  13.3420113   8.0391673  15.6664083
  12.5580113   6.9551673  15.9674083  12.8370113   7.4781673  15.4544083
  16.9940113   6.4701673  22.3914083  17.4610113   6.7591673  23.0694083
  17.5660113   5.9921673  21.9374083  17.1480113   6.4421673  22.4244083
  12.6200113   5.9191673  12.9304083  13.3760113   5.4871673  12.9884083
  12.6350113   6.4511673  13.6214083  12.7340113   5.9341673  13.0414083
  13.5600113   4.1401673  20.9354083  13.9910113   4.0111673  20.1884083
  13.3550113   4.9881673  20.9094083  13.5930113   4.2461673  20.8214083
  28.9600113  10.1311673  26.0824083  28.2890113  10.6451673  26.3004083
  29.0230113  10.2311673  25.2184083  28.8700113  10.2221673  25.9874083
  17.6440113   7.6561673  19.2174083  17.7700113   8.4991673  19.4044083
  18.3120113   7.2571673  19.6134083  17.7620113   7.7221673  19.3034083
  16.4260113   2.3661673  20.8184083  15.6450113   2.3071673  20.4354083
  16.4980113   1.6141673  21.2554083  16.3210113   2.2471673  20.8264083
  20.9560113  10.8801673  23.6784083  20.6790113  10.2391673  23.1554083
  20.7480113  11.6061673  23.2404083  20.8850113  10.8931673  23.5364083
  14.6550113   3.4581673  29.8454083  14.6180113   3.9591673  29.1314083
  14.9860113   2.7061673  29.5504083  14.6980113   3.4201673  29.6964083
  26.2580113   5.6631673  28.1034083  26.7420113   6.3811673  28.2014083
  26.6520113   5.2361673  27.4524083  26.3880113   5.7061673  28.0214083
  20.5540113   8.5081673  29.2804083  20.9080113   8.3301673  30.0574083
  20.1180113   7.7791673  29.0814083  20.5420113   8.3741673  29.3664083
  23.7150113   2.4241673  14.1924083  23.7070113   3.1461673  13.7024083
  23.0760113   2.5591673  14.7694083  23.6200113   2.5511673  14.2054083
  28.6870113   6.2941673  18.1734083  29.0430113   5.9441673  18.8884083
  28.6790113   5.6331673  17.6034083  28.7390113   6.1441673  18.1944083
  24.7320113   9.3601673  22.0174083  24.1290113   9.0641673  21.4604083
  25.2770113   9.8121673  21.5084083  24.7230113   9.3831673  21.8594083
  24.7450113   6.2111673  21.4174083  23.9480113   6.4351673  21.6914083
  25.0030113   5.6171673  22.0024083  24.6650113   6.1561673  21.5444083
  18.6370113  11.0231673  15.8654083  18.4900113  10.2471673  16.2364083
  19.3260113  10.8761673  15.3504083  18.7170113  10.8861673  15.8444083
  20.9290113  10.5391673  14.2674083  21.5510113  10.7021673  14.8574083
  20.9650113  11.2301673  13.7354083  21.0260113  10.6651673  14.2764083
  28.0050113   4.2091673  26.2634083  28.0600113   4.3341673  25.4014083
  28.7580113   4.5291673  26.5654083  28.1240113   4.2741673  26.1804083
  24.1960113   9.5581673  30.5404083  24.3600113   9.8411673  31.3494083
  24.4590113  10.2191673  30.0354083  24.2590113   9.6981673  30.5854083
  15.4300113   3.0731673  15.0964083  15.7540113   2.2941673  14.8744083
  16.0760113   3.4411673  15.5514083  15.5730113   3.0121673  15.1304083
  23.7360113   4.0151673  25.8634083  23.5810113   4.6251673  26.4674083
  24.2700113   3.4571673  26.2694083  23.7920113   4.0231673  26.0124083
  22.1200113   2.4151673  16.5214083  22.1790113   3.0651673  17.1004083
  21.9310113   1.7191673  17.0124083  22.1010113   2.4081673  16.6794083
  27.3460113   6.7441673  22.3904083  26.8670113   7.0421673  21.7244083
  26.9900113   5.9681673  22.5684083  27.2230113   6.6731673  22.3184083
  21.3430113   4.4621673  20.9524083  20.4960113   4.2681673  21.0334083
  21.6670113   4.2971673  21.7454083  21.2650113   4.4091673  21.0814083
  18.0950113  11.1921673  11.8384083  18.5340113  10.4951673  12.1264083
  18.3020113  11.8161673  12.4114083  18.1910113  11.1811673  11.9654083
  15.1910113   4.1551673  23.2684083  15.9130113   4.6431673  23.2314083
  14.9210113   4.1251673  22.4394083  15.2580113   4.2231673  23.1404083
  31.0380113  10.9101673  14.3304083  31.7320113  10.4431673  14.0824083
  30.4990113  10.3121673  14.6674083  31.0610113  10.7521673  14.3434083
  28.2770113   3.6861673  23.5094083  28.2700113   2.9101673  23.9074083
  27.4360113   3.9201673  23.5024083  28.1520113   3.6061673  23.5674083
  17.7670113   2.0981673  12.1444083  17.1570113   1.6931673  12.6184083
  17.3810113   2.2161673  11.3714083  17.6200113   2.0551673  12.1004083
  14.5860113   5.2071673  27.5464083  14.1650113   4.6891673  26.9854083
  14.2340113   5.9931673  27.4034083  14.4720113   5.2471673  27.4424083
  29.5330113   3.7571673  20.9464083  29.2470113   4.1581673  21.6664083
  30.3930113   3.6951673  21.0734083  29.6180113   3.8071673  21.0714083
  30.6640113   9.3901673  21.4754083  30.9540113   9.6471673  20.6944083
  31.3590113   9.4861673  21.9944083  30.8100113   9.4421673  21.4364083
  27.2690113   7.9931673  13.4574083  27.6030113   7.1871673  13.4924083
  26.5140113   7.9211673  13.8874083  27.2070113   7.8631673  13.5264083
  30.6530113   2.1111673  30.6624083  30.6010113   1.7701673  29.8614083
  31.3900113   2.5781673  30.6404083  30.7540113   2.1301673  30.5404083
  30.1910113   5.7871673  26.8684083  30.8190113   5.2381673  26.6124083
  30.1300113   6.3521673  26.2064083  30.2750113   5.7901673  26.7324083
  24.6430113   5.8681673  12.8604083  25.3270113   5.3541673  12.6914083
  24.2260113   5.9141673  12.0954083  24.6820113   5.7991673  12.7224083
  19.3250113   7.0181673  24.1644083  19.0270113   7.6101673  24.7314083
  19.3800113   7.4601673  23.4154083  19.2890113   7.1711673  24.1374083
  17.3040113   5.9681673  27.5624083  16.4980113   5.6781673  27.7294083
  17.2150113   6.8361673  27.5684083  17.1720113   6.0531673  27.5874083
  21.8410113   3.4411673  23.6554083  22.3170113   3.8151673  24.2834083
  21.0180113   3.5751673  23.9144083  21.7900113   3.5161673  23.7864083
  21.1050113  10.8341673  18.8834083  21.6510113  11.5131673  18.9374083
  20.7550113  10.9161673  18.0884083  21.1340113  10.9471673  18.7734083
  19.2880113   9.0621673  22.2724083  18.6640113   9.6441673  22.0904083
  19.5360113   8.7761673  21.4864083  19.2320113   9.1061673  22.1294083
  23.5970113   5.6961673  29.2614083  24.3540113   5.9821673  28.9354083
  23.0500113   5.7481673  28.5834083  23.6280113   5.7461673  29.1124083
  27.5060113   8.2461673  27.7654083  27.8520113   8.5161673  28.5194083
  27.8000113   8.8281673  27.1854083  27.6010113   8.3721673  27.7914083
  20.8820113   3.8381673  12.1874083  20.0770113   3.6611673  11.9024083
  20.8490113   4.6891673  12.3794083  20.7580113   3.9371673  12.1744083
  21.9410113  10.7111673  28.1524083  22.4190113  10.1111673  27.7364083
  21.5900113  10.2681673  28.8174083  21.9600113  10.5571673  28.1894083
  28.5290113   4.0181673  16.3334083  29.0050113   3.2891673  16.2854083
  27.7080113   3.7321673  16.2574083  28.4780113   3.8681673  16.3144083
  22.0000113   5.9301673  27.1724083  21.2050113   5.8661673  27.5234083
  22.0710113   6.7771673  26.9774083  21.8930113   6.0451673  27.1954083
  17.8300113  12.1371673  22.4894083  17.8410113  12.1961673  23.3594083
  17.4050113  11.3901673  22.3394083  17.7690113  12.0351673  22.5954083
  24.7450113   5.1851673  18.6884083  24.8210113   5.5261673  19.4874083
  24.9140113   4.3381673  18.8094083  24.7810113   5.1101673  18.8244083
  22.2670113   4.4591673  18.2534083  21.9690113   4.1441673  19.0104083
  22.9620113   4.9321673  18.4884083  22.3260113   4.4821673  18.4004083
  22.4890113   8.5771673  26.2804083  23.1760113   8.4631673  26.8054083
  22.6230113   9.3681673  25.9364083  22.6100113   8.6771673  26.3074083
  14.5940113  11.6351673  27.9314083  13.9400113  11.0661673  28.0294083
  14.2190113  12.4081673  28.0824083  14.4420113  11.6651673  27.9684083
  23.1120113   3.0411673  29.8544083  23.4350113   3.7271673  29.4224083
  22.4080113   3.3641673  30.2564083  23.0550113   3.1901673  29.8494083
  26.1960113  11.4151673  20.7834083  25.7450113  12.0581673  21.1624083
  26.9040113  11.3361673  21.2884083  26.2340113  11.4981673  20.9144083
  22.8970113   6.5051673  23.7134083  22.2030113   6.9071673  24.0564083
  23.5740113   6.9381673  24.0524083  22.8940113   6.6281673  23.8144083
  28.2740113   9.0981673  30.2934083  29.0500113   8.7081673  30.3764083
  27.8050113   8.7621673  30.9484083  28.3190113   8.9911673  30.4024083
  23.2190113   8.0961673  16.8824083  23.0140113   8.9291673  16.7234083
  22.4440113   7.7141673  17.0044083  23.0740113   8.1631673  16.8774083
  13.1370113   3.7171673  25.5594083  13.4570113   3.9361673  24.7784083
  13.0370113   2.8521673  25.5044083  13.1690113   3.6221673  25.4364083
  18.5810113   8.3581673  13.2914083  19.0220113   8.4381673  14.0394083
  17.7760113   8.1421673  13.5494083  18.5270113   8.3381673  13.4404083
  17.9000113   3.0091673  26.9444083  17.5040113   3.7831673  27.0194083
  17.4940113   2.6361673  26.2684083  17.7820113   3.0681673  26.8554083
  27.1760113   2.0631673  21.0584083  27.8420113   2.6041673  21.2184083
  26.8310113   2.3741673  20.3194083  27.2230113   2.1891673  20.9734083
  27.4890113  10.1291673  16.8654083  27.3150113   9.4751673  17.4154083
  28.2020113   9.8581673  16.4424083  27.5690113   9.9921673  16.8844083
  15.9100113   7.4281673  13.8924083  15.6660113   7.1211673  14.6724083
  15.8770113   6.7251673  13.3764083  15.8690113   7.2791673  13.9314083
  18.7290113   5.6731673  12.6354083  17.9110113   5.4051673  12.7754083
  18.7010113   6.5251673  12.8204083  18.6040113   5.7601673  12.6834083
  25.1640113   7.5821673  24.5564083  25.3700113   7.8831673  25.3484083
  25.1030113   8.3041673  24.0714083  25.1850113   7.7331673  24.6014083
  24.6980113  11.7961673  28.8024083  23.9450113  11.7781673  28.3614083
  24.8660113  12.6481673  28.8864083  24.6120113  11.9191673  28.7494083
  29.9760113   6.2211673  24.0144083  29.9440113   5.3591673  23.8794083
  29.2830113   6.5231673  23.5804083  29.8690113   6.1381673  23.9304083
  18.3700113  11.4191673  28.2204083  18.4110113  11.5451673  29.0834083
  19.0210113  10.8591673  28.0644083  18.4720113  11.3551673  28.3254083
  28.0810113   9.4811673  22.8114083  28.6080113   9.3981673  22.1204083
  27.6900113   8.7031673  22.8654083  28.1010113   9.3541673  22.7174083
  15.9630113   9.8021673  29.5804083  16.5580113  10.2331673  30.0524083
  15.5990113  10.4261673  29.0914083  15.9970113   9.9581673  29.5774083
  13.8900113   7.7911673  26.5094083  13.3160113   8.2071673  27.0184083
  14.6230113   8.2561673  26.6044083  13.9140113   7.9211673  26.5984083
  25.9240113   2.5641673  16.0744083  25.9920113   1.7141673  16.2554083
  25.1010113   2.6501673  15.7964083  25.8120113   2.4511673  16.0604083
  15.6760113  11.0581673  15.2844083  15.5310113  11.2141673  14.4384083
  16.5420113  11.1371673  15.3624083  15.7830113  11.0931673  15.1714083
  19.8430113   3.4551673  15.0124083  19.9430113   3.5941673  14.1574083
  20.6610113   3.3951673  15.3084083  19.9780113   3.4661673  14.9294083
  29.0030113  11.5191673  12.4924083  29.6400113  11.3851673  13.0734083
  28.6620113  10.7251673  12.3754083  29.0470113  11.3821673  12.5604083
  29.1980113   3.9371673  29.2254083  29.8320113   3.7671673  29.7994083
  29.6150113   4.3401673  28.5734083  29.3530113   3.9721673  29.2144083
  25.0780113   7.7841673  14.8144083  24.8270113   7.6561673  15.6404083
  24.7610113   7.0891673  14.3934083  24.9940113   7.6631673  14.8744083
  26.6090113   4.0481673  30.5804083  27.4800113   4.0121673  30.5444083
  26.3900113   4.4681673  29.8484083  26.7060113   4.1041673  30.4674083
  16.3630113   9.8731673  21.7614083  16.2840113   9.0631673  21.4454083
  15.9190113  10.3601673  21.1894083  16.2860113   9.8251673  21.6304083
  21.9640113   5.9921673  14.2444083  22.6810113   5.6451673  13.8884083
  21.9300113   6.7921673  13.8964083  22.0650113   6.0591673  14.1404083
  13.9350113  12.1171673  25.3424083  14.4280113  12.0611673  26.0604083
  14.1230113  11.3841673  24.9074083  14.0360113  12.0001673  25.3844083
  12.9910113   8.4241673   4.8651673  13.1200113   8.1441673   5.6811673
  12.3810113   7.8831673   4.5561673  12.9200113   8.3031673   4.9401673
  19.5650113   5.9491673   9.9321673  19.3290113   5.9461673  10.7721673
  18.8170113   5.8011673   9.5081673  19.4190113   5.9261673   9.9931673
  19.5470113   9.1411673   7.1951673  19.6850113   9.9011673   6.7881673
  20.3380113   8.7761673   7.2221673  19.6840113   9.2001673   7.1391673
  25.3930113  10.9501673   5.2771673  26.1370113  11.4061673   5.2671673
  25.2720113  10.7361673   4.4401673  25.4850113  10.9861673   5.1521673
  17.3950113  11.6441673   6.4471673  17.6870113  11.5771673   7.2671673
  16.7690113  11.0391673   6.4021673  17.3460113  11.5451673   6.5621673
  24.6470113   8.1351673   8.9811673  24.6130113   8.5171673   9.7651673
  25.5010113   8.0931673   8.8101673  24.7680113   8.1851673   9.0721673
  15.3880113   9.8061673   5.5691673  14.6900113   9.2981673   5.6951673
  15.6480113   9.6011673   4.7611673  15.3230113   9.7011673   5.4681673
  23.0990113  11.2991673   6.4791673  23.8670113  11.2191673   6.0731673
  22.5160113  11.1781673   5.8411673  23.1260113  11.2691673   6.3251673
  16.7490113   8.6571673   8.1361673  17.5900113   8.7201673   7.9141673
  16.7120113   9.0541673   8.9121673  16.8680113   8.7251673   8.2181673
  18.7120113   4.1681673   2.8851673  18.8840113   3.9581673   3.7141673
  18.0570113   3.6341673   2.6691673  18.6410113   4.0581673   2.9761673
  19.4620113   4.1061673   5.4751673  19.5150113   4.9531673   5.6771673
  19.1770113   3.7361673   6.2121673  19.4280113   4.1761673   5.6131673
  25.6390113   4.8011673   4.6051673  25.1250113   4.3891673   5.1761673
  25.5130113   5.6451673   4.7861673  25.5450113   4.8651673   4.7161673
  12.2830113   8.4771673  11.6861673  13.0390113   8.8261673  11.9441673
  12.4600113   7.6241673  11.6291673  12.4210113   8.4021673  11.7161673
  31.1260113   9.7491673   8.9861673  30.4440113  10.0591673   8.5391673
  30.7570113   9.2911673   9.6311673  30.9700113   9.7271673   9.0151673
  16.9940113   6.4701673   3.3851673  17.4610113   6.7591673   4.0631673
  17.5660113   5.9921673   2.9311673  17.1480113   6.4421673   3.4181673
  28.9600113  10.1311673   7.0761673  28.2890113  10.6451673   7.2941673
  29.0230113  10.2311673   6.2121673  28.8700113  10.2221673   6.9811673
  20.9560113  10.8801673   4.6721673  20.6790113  10.2391673   4.1491673
  20.7480113  11.6061673   4.2341673  20.8850113  10.8931673   4.5301673
  14.6550113   3.4581673  10.8391673  14.6180113   3.9591673  10.1251673
  14.9860113   2.7061673  10.5441673  14.6980113   3.4201673  10.6901673
  26.2580113   5.6631673   9.0971673  26.7420113   6.3811673   9.1951673
  26.6520113   5.2361673   8.4461673  26.3880113   5.7061673   9.0151673
  20.5540113   8.5081673  10.2741673  20.9080113   8.3301673  11.0511673
  20.1180113   7.7791673  10.0751673  20.5420113   8.3741673  10.3601673
  24.7320113   9.3601673   3.0111673  24.1290113   9.0641673   2.4541673
  25.2770113   9.8121673   2.5021673  24.7230113   9.3831673   2.8531673
  24.7450113   6.2111673   2.4111673  23.9480113   6.4351673   2.6851673
  25.0030113   5.6171673   2.9961673  24.6650113   6.1561673   2.5381673
  28.0050113   4.2091673   7.2571673  28.0600113   4.3341673   6.3951673
  28.7580113   4.5291673   7.5591673  28.1240113   4.2741673   7.1741673
  24.1960113   9.5581673  11.5341673  24.3600113   9.8411673  12.3431673
  24.4590113  10.2191673  11.0291673  24.2590113   9.6981673  11.5791673
  23.7360113   4.0151673   6.8571673  23.5810113   4.6251673   7.4611673
  24.2700113   3.4571673   7.2631673  23.7920113   4.0231673   7.0061673
  27.3460113   6.7441673   3.3841673  26.8670113   7.0421673   2.7181673
  26.9900113   5.9681673   3.5621673  27.2230113   6.6731673   3.3121673
  21.3430113   4.4621673   1.9461673  20.4960113   4.2681673   2.0271673
  21.6670113   4.2971673   2.7391673  21.2650113   4.4091673   2.0751673
  15.1910113   4.1551673   4.2621673  15.9130113   4.6431673   4.2251673
  14.9210113   4.1251673   3.4331673  15.2580113   4.2231673   4.1341673
  28.2770113   3.6861673   4.5031673  28.2700113   2.9101673   4.9011673
  27.4360113   3.9201673   4.4961673  28.1520113   3.6061673   4.5611673
  14.5860113   5.2071673   8.5401673  14.1650113   4.6891673   7.9791673
  14.2340113   5.9931673   8.3971673  14.4720113   5.2471673   8.4361673
  29.5330113   3.7571673   1.9401673  29.2470113   4.1581673   2.6601673
  30.3930113   3.6951673   2.0671673  29.6180113   3.8071673   2.0651673
  30.6640113   9.3901673   2.4691673  30.9540113   9.6471673   1.6881673
  31.3590113   9.4861673   2.9881673  30.8100113   9.4421673   2.4301673
  30.6530113   2.1111673  11.6561673  30.6010113   1.7701673  10.8551673
  31.3900113   2.5781673  11.6341673  30.7540113   2.1301673  11.5341673
  30.1910113   5.7871673   7.8621673  30.8190113   5.2381673   7.6061673
  30.1300113   6.3521673   7.2001673  30.2750113   5.7901673   7.7261673
  19.3250113   7.0181673   5.1581673  19.0270113   7.6101673   5.7251673
  19.3800113   7.4601673   4.4091673  19.2890113   7.1711673   5.1311673
  17.3040113   5.9681673   8.5561673  16.4980113   5.6781673   8.7231673
  17.2150113   6.8361673   8.5621673  17.1720113   6.0531673   8.5811673
  21.8410113   3.4411673   4.6491673  22.3170113   3.8151673   5.2771673
  21.0180113   3.5751673   4.9081673  21.7900113   3.5161673   4.7801673
  19.2880113   9.0621673   3.2661673  18.6640113   9.6441673   3.0841673
  19.5360113   8.7761673   2.4801673  19.2320113   9.1061673   3.1231673
  23.5970113   5.6961673  10.2551673  24.3540113   5.9821673   9.9291673
  23.0500113   5.7481673   9.5771673  23.6280113   5.7461673  10.1061673
  27.5060113   8.2461673   8.7591673  27.8520113   8.5161673   9.5131673
  27.8000113   8.8281673   8.1791673  27.6010113   8.3721673   8.7851673
  21.9410113  10.7111673   9.1461673  22.4190113  10.1111673   8.7301673
  21.5900113  10.2681673   9.8111673  21.9600113  10.5571673   9.1831673
  22.0000113   5.9301673   8.1661673  21.2050113   5.8661673   8.5171673
  22.0710113   6.7771673   7.9711673  21.8930113   6.0451673   8.1891673
  17.8300113  12.1371673   3.4831673  17.8410113  12.1961673   4.3531673
  17.4050113  11.3901673   3.3331673  17.7690113  12.0351673   3.5891673
  22.4890113   8.5771673   7.2741673  23.1760113   8.4631673   7.7991673
  22.6230113   9.3681673   6.9301673  22.6100113   8.6771673   7.3011673
  14.5940113  11.6351673   8.9251673  13.9400113  11.0661673   9.0231673
  14.2190113  12.4081673   9.0761673  14.4420113  11.6651673   8.9621673
  23.1120113   3.0411673  10.8481673  23.4350113   3.7271673  10.4161673
  22.4080113   3.3641673  11.2501673  23.0550113   3.1901673  10.8431673
  26.1960113  11.4151673   1.7771673  25.7450113  12.0581673   2.1561673
  26.9040113  11.3361673   2.2821673  26.2340113  11.4981673   1.9081673
  22.8970113   6.5051673   4.7071673  22.2030113   6.9071673   5.0501673
  23.5740113   6.9381673   5.0461673  22.8940113   6.6281673   4.8081673
  28.2740113   9.0981673  11.2871673  29.0500113   8.7081673  11.3701673
  27.8050113   8.7621673  11.9421673  28.3190113   8.9911673  11.3961673
  13.1370113   3.7171673   6.5531673  13.4570113   3.9361673   5.7721673
  13.0370113   2.8521673   6.4981673  13.1690113   3.6221673   6.4301673
  17.9000113   3.0091673   7.9381673  17.5040113   3.7831673   8.0131673
  17.4940113   2.6361673   7.2621673  17.7820113   3.0681673   7.8491673
  25.1640113   7.5821673   5.5501673  25.3700113   7.8831673   6.3421673
  25.1030113   8.3041673   5.0651673  25.1850113   7.7331673   5.5951673
  24.6980113  11.7961673   9.7961673  23.9450113  11.7781673   9.3551673
  24.8660113  12.6481673   9.8801673  24.6120113  11.9191673   9.7431673
  29.9760113   6.2211673   5.0081673  29.9440113   5.3591673   4.8731673
  29.2830113   6.5231673   4.5741673  29.8690113   6.1381673   4.9241673
  18.3700113  11.4191673   9.2141673  18.4110113  11.5451673  10.0771673
  19.0210113  10.8591673   9.0581673  18.4720113  11.3551673   9.3191673
  28.0810113   9.4811673   3.8051673  28.6080113   9.3981673   3.1141673
  27.6900113   8.7031673   3.8591673  28.1010113   9.3541673   3.7111673
  15.9630113   9.8021673  10.5741673  16.5580113  10.2331673  11.0461673
  15.5990113  10.4261673  10.0851673  15.9970113   9.9581673  10.5711673
  13.8900113   7.7911673   7.5031673  13.3160113   8.2071673   8.0121673
  14.6230113   8.2561673   7.5981673  13.9140113   7.9211673   7.5921673
  29.1980113   3.9371673  10.2191673  29.8320113   3.7671673  10.7931673
  29.6150113   4.3401673   9.5671673  29.3530113   3.9721673  10.2081673
  26.6090113   4.0481673  11.5741673  27.4800113   4.0121673  11.5381673
  26.3900113   4.4681673  10.8421673  26.7060113   4.1041673  11.4611673
  16.3630113   9.8731673   2.7551673  16.2840113   9.0631673   2.4391673
  15.9190113  10.3601673   2.1831673  16.2860113   9.8251673   2.6241673
  13.9350113  12.1171673   6.3361673  14.4280113  12.0611673   7.0541673
  14.1230113  11.3841673   5.9011673  14.0360113  12.0001673   6.3781673
   4.5081673  68.5455993  74.5081313   4.2631673  69.0335993  73.8281313
   5.3711673  68.4725993  74.4081313   4.5991673  68.6065993  74.3931313
   6.9881673  76.5285993  75.8551313   7.0681673  76.5325993  74.9861313
   6.4041673  75.8965993  76.0041313   6.9131673  76.4355993  75.7491313
   5.8221673  72.1195993  68.9031313   5.3721673  72.8005993  69.2101313
   5.9361673  71.6155993  69.6061313   5.7731673  72.1455993  69.0521313
  11.2161673  72.0925993  75.1981313  10.8701673  72.7705993  75.6241313
  10.5801673  71.4945993  75.2141313  11.0711673  72.1045993  75.2631313
   3.3391673  73.7345993  74.8191313   3.6261673  73.5025993  74.0291313
   4.0711673  73.8135993  75.2881313   3.4891673  73.7115993  74.7721313
   4.0611673  74.0735993  69.9401313   4.3421673  74.8615993  70.1891313
   3.2851673  74.2385993  69.5771313   3.9881673  74.2145993  69.9231313
   6.4271673  70.1405993  70.8101313   6.9671673  69.4585993  70.8861313
   6.4891673  70.5385993  71.5841313   6.5161673  70.0985993  70.9361313
   3.6851673  72.5165993  72.1241313   3.1771673  71.8545993  71.8701313
   3.7371673  73.0205993  71.4141313   3.6181673  72.4935993  71.9821313
   3.6851673  69.4575993  72.0151313   3.2301673  69.0555993  71.3891313
   4.4581673  69.6125993  71.6401313   3.7321673  69.4215993  71.8671313
   2.2831673  71.8245993  76.5371313   2.3571673  72.3925993  75.8791313
   2.4041673  72.3165993  77.2471313   2.3111673  71.9815993  76.5451313
   7.3311673  67.9385993  75.2611313   7.3801673  67.6205993  76.0721313
   7.6541673  67.2945993  74.7681313   7.3861673  67.7965993  75.3081313
   7.9221673  75.6895993  70.3421313   7.7021673  76.4205993  69.9201313
   7.4741673  75.7405993  71.0891313   7.8231673  75.8045993  70.3901313
  12.1091673  70.5505993  69.7951313  11.4471673  69.9825993  69.8181313
  11.9161673  71.0625993  69.1151313  11.9831673  70.5425993  69.6981313
  10.1111673  70.1085993  72.0741313  10.8571673  69.7015993  72.2731313
  10.3741673  70.8235993  71.6491313  10.2601673  70.1545993  72.0411313
   6.5651673  72.3965993  77.1471313   6.9091673  72.5485993  77.9341313
   6.1121673  71.6585993  77.2601313   6.5491673  72.3095993  77.2801313
   6.0791673  71.6975993  73.2121313   6.5691673  72.4145993  73.1351313
   5.2891673  71.9585993  72.9491313   6.0351673  71.8415993  73.1621313
   4.8501673  76.3365993  71.2111313   4.8421673  77.0585993  70.7211313
   4.2111673  76.4715993  71.7881313   4.7551673  76.4635993  71.2241313
   3.2551673  76.3275993  73.5401313   3.3141673  76.9775993  74.1191313
   3.0661673  75.6315993  74.0311313   3.2361673  76.3205993  73.6981313
   2.4781673  78.3745993  77.9711313   1.6311673  78.1805993  78.0521313
   2.8021673  78.2095993  78.7641313   2.4001673  78.3215993  78.1001313
  10.6681673  77.6695993  77.9651313  10.3821673  78.0705993  78.6851313
  11.5281673  77.6075993  78.0921313  10.7531673  77.7195993  78.0901313
   8.8861673  73.7395993  76.1351313   8.1411673  73.4165993  76.4531313
   8.8881673  74.5655993  76.4151313   8.7761673  73.8135993  76.2231313
  10.5041673  74.3045993  70.1231313  10.8821673  74.9815993  69.7231313
   9.6621673  74.5285993  70.1541313  10.4351673  74.4375993  70.0681313
   8.1991673  73.9035993  73.4981313   8.4061673  73.7025993  74.3221313
   8.9551673  74.1715993  73.1561313   8.3411673  73.9135993  73.5691313
   9.2211673  69.9865993  74.9721313   8.5071673  69.5155993  75.1431313
   9.0591673  70.3275993  74.1861313   9.0921673  69.9675993  74.8811313
   9.6641673  77.9305993  73.3521313  10.1401673  77.2015993  73.3041313
   8.8431673  77.6445993  73.2761313   9.6131673  77.7805993  73.3331313
  10.4341673  75.0435993  72.7941313  10.5371673  74.9855993  71.9301313
  11.1751673  74.7115993  73.1121313  10.5591673  74.9865993  72.7131313
   4.4091673  70.1795993  76.7861313   3.7091673  70.6975993  76.7301313
   4.4471673  69.7995993  76.0021313   4.3111673  70.2005993  76.6621313
   8.3111673  75.9755993  78.0771313   8.9771673  76.5165993  78.2371313
   7.9661673  76.2865993  77.3381313   8.3581673  76.1015993  77.9921313
   5.0891673  74.6455993  76.5311313   5.6401673  74.0385993  76.8311313
   4.6641673  74.9085993  77.2461313   5.1081673  74.5945993  76.6801313
   7.0591673  76.4765993  73.0931313   7.1271673  75.6265993  73.2741313
   6.2361673  76.5625993  72.8151313   6.9471673  76.3635993  73.0791313
   4.5081673  68.5455993  55.5018903   4.2631673  69.0335993  54.8218903
   5.3711673  68.4725993  55.4018903   4.5991673  68.6065993  55.3868903
   4.3171673  75.4615993  60.1728903   3.7931673  76.0575993  60.5358903
   4.7141673  75.0935993  60.8568903   4.2981673  75.4955993  60.3278903
   6.9881673  76.5285993  56.8488903   7.0681673  76.5325993  55.9798903
   6.4041673  75.8965993  56.9978903   6.9131673  76.4355993  56.7428903
   3.8021673  74.5185993  66.2688903   2.9541673  74.4195993  66.0908903
   3.8311673  75.2635993  66.7228903   3.6811673  74.6145993  66.3098903
   8.3601673  67.4785993  65.3828903   8.2021673  68.2475993  65.0008903
   7.5881673  67.2585993  65.7268903   8.2221673  67.5595993  65.3778903
   5.8221673  72.1195993  49.8968903   5.3721673  72.8005993  50.2038903
   5.9361673  71.6155993  50.5998903   5.7731673  72.1455993  50.0458903
  11.2161673  72.0925993  56.1918903  10.8701673  72.7705993  56.6178903
  10.5801673  71.4945993  56.2078903  11.0711673  72.1045993  56.2568903
   2.7451673  68.8085993  67.0398903   2.9231673  67.9995993  66.7648903
   2.6021673  69.2495993  66.3008903   2.7501673  68.7545993  66.8898903
   3.3391673  73.7345993  55.8128903   3.6261673  73.5025993  55.0228903
   4.0711673  73.8135993  56.2818903   3.4891673  73.7115993  55.7658903
   4.0611673  74.0735993  50.9338903   4.3421673  74.8615993  51.1828903
   3.2851673  74.2385993  50.5708903   3.9881673  74.2145993  50.9168903
  10.8911673  70.4155993  61.5608903  11.6481673  70.4875993  61.1328903
  10.9541673  69.6425993  61.9598903  11.0121673  70.3125993  61.5558903
   6.4271673  70.1405993  51.8038903   6.9671673  69.4585993  51.8798903
   6.4891673  70.5385993  52.5778903   6.5161673  70.0985993  51.9298903
   3.6851673  72.5165993  53.1178903   3.1771673  71.8545993  52.8638903
   3.7371673  73.0205993  52.4078903   3.6181673  72.4935993  52.9758903
   3.6851673  69.4575993  53.0088903   3.2301673  69.0555993  52.3828903
   4.4581673  69.6125993  52.6338903   3.7321673  69.4215993  52.8608903
   2.2831673  71.8245993  57.5308903   2.3571673  72.3925993  56.8728903
   2.4041673  72.3165993  58.2408903   2.3111673  71.9815993  57.5388903
   6.0751673  71.9945993  63.4188903   5.9801673  72.3135993  64.2248903
   5.4821673  71.3555993  63.3808903   5.9731673  71.9465993  63.5328903
   7.3311673  67.9385993  56.2548903   7.3801673  67.6205993  57.0658903
   7.6541673  67.2945993  55.7618903   7.3861673  67.7965993  56.3018903
   9.7951673  72.1745993  64.5628903  10.5671673  71.9495993  64.8998903
   9.3201673  72.3915993  65.2628903   9.8391673  72.1735993  64.7158903
   7.9221673  75.6895993  51.3358903   7.7021673  76.4205993  50.9138903
   7.4741673  75.7405993  52.0828903   7.8231673  75.8045993  51.3838903
  12.1091673  70.5505993  50.7888903  11.4471673  69.9825993  50.8118903
  11.9161673  71.0625993  50.1088903  11.9831673  70.5425993  50.6918903
  12.4321673  74.9285993  63.3448903  12.6471673  74.1285993  63.0688903
  11.5821673  74.9885993  63.1558903  12.3381673  74.8195993  63.2758903
  10.1111673  70.1085993  53.0678903  10.8571673  69.7015993  53.2668903
  10.3741673  70.8235993  52.6428903  10.2601673  70.1545993  53.0348903
   6.5651673  72.3965993  58.1408903   6.9091673  72.5485993  58.9278903
   6.1121673  71.6585993  58.2538903   6.5491673  72.3095993  58.2738903
   7.8861673  73.7285993  60.6948903   7.2241673  74.0565993  61.1578903
   8.0731673  74.3625993  60.1258903   7.8161673  73.8705993  60.6788903
   4.5311673  69.6345993  64.1238903   4.6801673  68.8095993  63.8808903
   4.9101673  69.6895993  64.9078903   4.6091673  69.5205993  64.2038903
   6.0791673  71.6975993  54.2058903   6.5691673  72.4145993  54.1288903
   5.2891673  71.9585993  53.9428903   6.0351673  71.8415993  54.1558903
   2.6611673  73.1675993  59.9308903   3.1411673  73.8665993  60.1388903
   3.0341673  72.5205993  60.3818903   2.7871673  73.1755993  60.0278903
   4.8501673  76.3365993  52.2048903   4.8421673  77.0585993  51.7148903
   4.2111673  76.4715993  52.7818903   4.7551673  76.4635993  52.2178903
   9.1401673  78.1215993  64.2758903   9.1951673  78.2465993  63.4138903
   9.8931673  78.4415993  64.5778903   9.2591673  78.1865993  64.1928903
  10.1721673  68.4195993  67.2628903   9.5351673  68.0195993  66.8208903
  10.1981673  67.9885993  68.0208903  10.0821673  68.2975993  67.3088903
   4.8711673  77.9275993  63.8758903   4.7161673  78.5375993  64.4798903
   5.4051673  77.3695993  64.2818903   4.9271673  77.9355993  64.0248903
   3.2551673  76.3275993  54.5338903   3.3141673  76.9775993  55.1128903
   3.0661673  75.6315993  55.0248903   3.2361673  76.3205993  54.6918903
   2.4781673  78.3745993  58.9648903   1.6311673  78.1805993  59.0458903
   2.8021673  78.2095993  59.7578903   2.4001673  78.3215993  59.0938903
   9.4121673  77.5985993  61.5218903   9.4051673  76.8225993  61.9198903
   8.5711673  77.8325993  61.5148903   9.2871673  77.5185993  61.5798903
  10.6681673  77.6695993  58.9588903  10.3821673  78.0705993  59.6788903
  11.5281673  77.6075993  59.0858903  10.7531673  77.7195993  59.0838903
   8.3301673  71.5935993  67.4988903   7.8051673  72.0525993  68.0228903
   7.9691673  70.7985993  67.4928903   8.1991673  71.5435993  67.5748903
   6.8221673  75.1625993  67.5748903   6.8951673  75.2665993  68.4378903
   6.1881673  75.7205993  67.3538903   6.7391673  75.2605993  67.6698903
   9.0901673  75.4815993  65.9398903   9.4091673  76.2675993  66.1428903
   8.7201673  75.2115993  66.6828903   9.0831673  75.5575993  66.0798903
   8.8861673  73.7395993  57.1288903   8.1411673  73.4165993  57.4468903
   8.8881673  74.5655993  57.4088903   8.7761673  73.8135993  57.2168903
  11.7881673  76.0235993  68.6748903  11.7361673  75.6825993  67.8738903
  12.5251673  76.4905993  68.6528903  11.8891673  76.0425993  68.5528903
   7.7981673  70.0695993  64.5898903   8.5421673  70.5215993  64.5268903
   7.2321673  70.5395993  64.1208903   7.8251673  70.2065993  64.5118903
   2.9761673  77.3535993  61.6678903   3.4521673  77.7275993  62.2958903
   2.1531673  77.4875993  61.9268903   2.9251673  77.4285993  61.7988903
   9.0831673  68.0495993  62.2598903   8.8031673  68.8745993  62.2158903
   9.7991673  68.1025993  62.7558903   9.1481673  68.1795993  62.3268903
  10.5041673  74.3045993  51.1168903  10.8821673  74.9815993  50.7168903
   9.6621673  74.5285993  51.1478903  10.4351673  74.4375993  51.0618903
   5.9631673  72.9195993  65.9418903   5.3151673  73.3895993  66.2898903
   6.5281673  72.8305993  66.6008903   5.9511673  72.9755993  66.0908903
   5.6511673  74.4565993  62.2398903   5.9531673  74.8765993  62.9428903
   5.6871673  73.6165993  62.4718903   5.7011673  74.3945993  62.3778903
   8.1991673  73.9035993  54.4918903   8.4061673  73.7025993  55.3158903
   8.9551673  74.1715993  54.1498903   8.3411673  73.9135993  54.5628903
   9.2211673  69.9865993  55.9658903   8.5071673  69.5155993  56.1368903
   9.0591673  70.3275993  55.1798903   9.0921673  69.9675993  55.8748903
   9.6641673  77.9305993  54.3458903  10.1401673  77.2015993  54.2978903
   8.8431673  77.6445993  54.2698903   9.6131673  77.7805993  54.3268903
  11.8001673  75.0985993  66.1038903  10.9451673  74.9765993  66.2298903
  11.9531673  74.7035993  65.3408903  11.6961673  75.0215993  66.0098903
   6.3131673  75.7635993  64.6798903   6.0581673  75.0445993  65.1018903
   7.1341673  75.8795993  64.9498903   6.3971673  75.6745993  64.7818903
   4.2471673  76.9535993  67.8668903   4.5701673  77.6395993  67.4348903
   3.5431673  77.2765993  68.2688903   4.1901673  77.1025993  67.8618903
  10.4341673  75.0435993  53.7878903  10.5371673  74.9855993  52.9238903
  11.1751673  74.7115993  54.1058903  10.5591673  74.9865993  53.7068903
   9.5361673  75.1895993  63.1438903   9.5341673  74.3265993  63.2678903
   9.6031673  75.5135993  63.9508903   9.5461673  75.1095993  63.2808903
   5.4151673  69.9895993  66.9258903   5.5071673  70.7015993  67.4198903
   4.7781673  69.5445993  67.3228903   5.3341673  70.0285993  67.0578903
   4.4091673  70.1795993  57.7798903   3.7091673  70.6975993  57.7238903
   4.4471673  69.7995993  56.9958903   4.3111673  70.2005993  57.6558903
   8.0071673  70.6955993  60.5798903   8.8621673  70.7945993  60.7248903
   7.6381673  71.2485993  61.1448903   8.0791673  70.7925993  60.6848903
   8.3111673  75.9755993  59.0708903   8.9771673  76.5165993  59.2308903
   7.9661673  76.2865993  58.3318903   8.3581673  76.1015993  58.9858903
  11.4821673  68.5335993  63.7358903  11.4301673  68.4895993  64.6058903
  12.1691673  68.0305993  63.5458903  11.5761673  68.4535993  63.8358903
   3.5671673  70.6465993  60.7808903   2.8301673  70.1925993  60.8938903
   4.1381673  70.2445993  61.3038903   3.5421673  70.5195993  60.8748903
   5.7301673  68.8375993  60.0318903   6.4001673  69.3815993  60.1588903
   5.2271673  69.2615993  59.4588903   5.7551673  68.9805993  59.9658903
   5.0891673  74.6455993  57.5248903   5.6401673  74.0385993  57.8248903
   4.6641673  74.9085993  58.2398903   5.1081673  74.5945993  57.6738903
   7.0591673  76.4765993  54.0868903   7.1271673  75.6265993  54.2678903
   6.2361673  76.5625993  53.8088903   6.9471673  76.3635993  54.0728903
  10.3331673  77.8495993  67.2378903  10.9671673  77.6795993  67.8118903
  10.7501673  78.2525993  66.5858903  10.4881673  77.8845993  67.2268903
  10.9581673  72.4135993  67.9758903  10.7621673  73.0575993  68.5308903
  10.2361673  71.9235993  67.9678903  10.8231673  72.4365993  68.0568903
  10.8571673  73.3545993  60.9468903  10.0241673  73.6045993  60.8748903
  10.8011673  72.5145993  61.1758903  10.7261673  73.2675993  60.9698903
   7.7441673  77.9605993  68.5928903   8.6151673  77.9245993  68.5568903
   7.5251673  78.3805993  67.8608903   7.8411673  78.0165993  68.4798903
   4.5081673  68.5455993  36.4956493   4.2631673  69.0335993  35.8156493
   5.3711673  68.4725993  36.3956493   4.5991673  68.6065993  36.3806493
   4.3171673  75.4615993  41.1666493   3.7931673  76.0575993  41.5296493
   4.7141673  75.0935993  41.8506493   4.2981673  75.4955993  41.3216493
   6.9881673  76.5285993  37.8426493   7.0681673  76.5325993  36.9736493
   6.4041673  75.8965993  37.9916493   6.9131673  76.4355993  37.7366493
   3.8021673  74.5185993  47.2626493   2.9541673  74.4195993  47.0846493
   3.8311673  75.2635993  47.7166493   3.6811673  74.6145993  47.3036493
   8.3601673  67.4785993  46.3766493   8.2021673  68.2475993  45.9946493
   7.5881673  67.2585993  46.7206493   8.2221673  67.5595993  46.3716493
   5.8221673  72.1195993  30.8906493   5.3721673  72.8005993  31.1976493
   5.9361673  71.6155993  31.5936493   5.7731673  72.1455993  31.0396493
  11.2161673  72.0925993  37.1856493  10.8701673  72.7705993  37.6116493
  10.5801673  71.4945993  37.2016493  11.0711673  72.1045993  37.2506493
   2.7451673  68.8085993  48.0336493   2.9231673  67.9995993  47.7586493
   2.6021673  69.2495993  47.2946493   2.7501673  68.7545993  47.8836493
   3.3391673  73.7345993  36.8066493   3.6261673  73.5025993  36.0166493
   4.0711673  73.8135993  37.2756493   3.4891673  73.7115993  36.7596493
   4.0611673  74.0735993  31.9276493   4.3421673  74.8615993  32.1766493
   3.2851673  74.2385993  31.5646493   3.9881673  74.2145993  31.9106493
  10.8911673  70.4155993  42.5546493  11.6481673  70.4875993  42.1266493
  10.9541673  69.6425993  42.9536493  11.0121673  70.3125993  42.5496493
   6.4271673  70.1405993  32.7976493   6.9671673  69.4585993  32.8736493
   6.4891673  70.5385993  33.5716493   6.5161673  70.0985993  32.9236493
   3.6851673  72.5165993  34.1116493   3.1771673  71.8545993  33.8576493
   3.7371673  73.0205993  33.4016493   3.6181673  72.4935993  33.9696493
   3.6851673  69.4575993  34.0026493   3.2301673  69.0555993  33.3766493
   4.4581673  69.6125993  33.6276493   3.7321673  69.4215993  33.8546493
   2.2831673  71.8245993  38.5246493   2.3571673  72.3925993  37.8666493
   2.4041673  72.3165993  39.2346493   2.3111673  71.9815993  38.5326493
   6.0751673  71.9945993  44.4126493   5.9801673  72.3135993  45.2186493
   5.4821673  71.3555993  44.3746493   5.9731673  71.9465993  44.5266493
   7.3311673  67.9385993  37.2486493   7.3801673  67.6205993  38.0596493
   7.6541673  67.2945993  36.7556493   7.3861673  67.7965993  37.2956493
   9.7951673  72.1745993  45.5566493  10.5671673  71.9495993  45.8936493
   9.3201673  72.3915993  46.2566493   9.8391673  72.1735993  45.7096493
   7.9221673  75.6895993  32.3296493   7.7021673  76.4205993  31.9076493
   7.4741673  75.7405993  33.0766493   7.8231673  75.8045993  32.3776493
  12.1091673  70.5505993  31.7826493  11.4471673  69.9825993  31.8056493
  11.9161673  71.0625993  31.1026493  11.9831673  70.5425993  31.6856493
  12.4321673  74.9285993  44.3386493  12.6471673  74.1285993  44.0626493
  11.5821673  74.9885993  44.1496493  12.3381673  74.8195993  44.2696493
  10.1111673  70.1085993  34.0616493  10.8571673  69.7015993  34.2606493
  10.3741673  70.8235993  33.6366493  10.2601673  70.1545993  34.0286493
   6.5651673  72.3965993  39.1346493   6.9091673  72.5485993  39.9216493
   6.1121673  71.6585993  39.2476493   6.5491673  72.3095993  39.2676493
   7.8861673  73.7285993  41.6886493   7.2241673  74.0565993  42.1516493
   8.0731673  74.3625993  41.1196493   7.8161673  73.8705993  41.6726493
   4.5311673  69.6345993  45.1176493   4.6801673  68.8095993  44.8746493
   4.9101673  69.6895993  45.9016493   4.6091673  69.5205993  45.1976493
   6.0791673  71.6975993  35.1996493   6.5691673  72.4145993  35.1226493
   5.2891673  71.9585993  34.9366493   6.0351673  71.8415993  35.1496493
   2.6611673  73.1675993  40.9246493   3.1411673  73.8665993  41.1326493
   3.0341673  72.5205993  41.3756493   2.7871673  73.1755993  41.0216493
   4.8501673  76.3365993  33.1986493   4.8421673  77.0585993  32.7086493
   4.2111673  76.4715993  33.7756493   4.7551673  76.4635993  33.2116493
   9.1401673  78.1215993  45.2696493   9.1951673  78.2465993  44.4076493
   9.8931673  78.4415993  45.5716493   9.2591673  78.1865993  45.1866493
  10.1721673  68.4195993  48.2566493   9.5351673  68.0195993  47.8146493
  10.1981673  67.9885993  49.0146493  10.0821673  68.2975993  48.3026493
   4.8711673  77.9275993  44.8696493   4.7161673  78.5375993  45.4736493
   5.4051673  77.3695993  45.2756493   4.9271673  77.9355993  45.0186493
   3.2551673  76.3275993  35.5276493   3.3141673  76.9775993  36.1066493
   3.0661673  75.6315993  36.0186493   3.2361673  76.3205993  35.6856493
   2.4781673  78.3745993  39.9586493   1.6311673  78.1805993  40.0396493
   2.8021673  78.2095993  40.7516493   2.4001673  78.3215993  40.0876493
   9.4121673  77.5985993  42.5156493   9.4051673  76.8225993  42.9136493
   8.5711673  77.8325993  42.5086493   9.2871673  77.5185993  42.5736493
  10.6681673  77.6695993  39.9526493  10.3821673  78.0705993  40.6726493
  11.5281673  77.6075993  40.0796493  10.7531673  77.7195993  40.0776493
   8.3301673  71.5935993  48.4926493   7.8051673  72.0525993  49.0166493
   7.9691673  70.7985993  48.4866493   8.1991673  71.5435993  48.5686493
   6.8221673  75.1625993  48.5686493   6.8951673  75.2665993  49.4316493
   6.1881673  75.7205993  48.3476493   6.7391673  75.2605993  48.6636493
   9.0901673  75.4815993  46.9336493   9.4091673  76.2675993  47.1366493
   8.7201673  75.2115993  47.6766493   9.0831673  75.5575993  47.0736493
   8.8861673  73.7395993  38.1226493   8.1411673  73.4165993  38.4406493
   8.8881673  74.5655993  38.4026493   8.7761673  73.8135993  38.2106493
  11.7881673  76.0235993  49.6686493  11.7361673  75.6825993  48.8676493
  12.5251673  76.4905993  49.6466493  11.8891673  76.0425993  49.5466493
   7.7981673  70.0695993  45.5836493   8.5421673  70.5215993  45.5206493
   7.2321673  70.5395993  45.1146493   7.8251673  70.2065993  45.5056493
   2.9761673  77.3535993  42.6616493   3.4521673  77.7275993  43.2896493
   2.1531673  77.4875993  42.9206493   2.9251673  77.4285993  42.7926493
   9.0831673  68.0495993  43.2536493   8.8031673  68.8745993  43.2096493
   9.7991673  68.1025993  43.7496493   9.1481673  68.1795993  43.3206493
  10.5041673  74.3045993  32.1106493  10.8821673  74.9815993  31.7106493
   9.6621673  74.5285993  32.1416493  10.4351673  74.4375993  32.0556493
   5.9631673  72.9195993  46.9356493   5.3151673  73.3895993  47.2836493
   6.5281673  72.8305993  47.5946493   5.9511673  72.9755993  47.0846493
   5.6511673  74.4565993  43.2336493   5.9531673  74.8765993  43.9366493
   5.6871673  73.6165993  43.4656493   5.7011673  74.3945993  43.3716493
   8.1991673  73.9035993  35.4856493   8.4061673  73.7025993  36.3096493
   8.9551673  74.1715993  35.1436493   8.3411673  73.9135993  35.5566493
   9.2211673  69.9865993  36.9596493   8.5071673  69.5155993  37.1306493
   9.0591673  70.3275993  36.1736493   9.0921673  69.9675993  36.8686493
   9.6641673  77.9305993  35.3396493  10.1401673  77.2015993  35.2916493
   8.8431673  77.6445993  35.2636493   9.6131673  77.7805993  35.3206493
  11.8001673  75.0985993  47.0976493  10.9451673  74.9765993  47.2236493
  11.9531673  74.7035993  46.3346493  11.6961673  75.0215993  47.0036493
   6.3131673  75.7635993  45.6736493   6.0581673  75.0445993  46.0956493
   7.1341673  75.8795993  45.9436493   6.3971673  75.6745993  45.7756493
   4.2471673  76.9535993  48.8606493   4.5701673  77.6395993  48.4286493
   3.5431673  77.2765993  49.2626493   4.1901673  77.1025993  48.8556493
  10.4341673  75.0435993  34.7816493  10.5371673  74.9855993  33.9176493
  11.1751673  74.7115993  35.0996493  10.5591673  74.9865993  34.7006493
   9.5361673  75.1895993  44.1376493   9.5341673  74.3265993  44.2616493
   9.6031673  75.5135993  44.9446493   9.5461673  75.1095993  44.2746493
   5.4151673  69.9895993  47.9196493   5.5071673  70.7015993  48.4136493
   4.7781673  69.5445993  48.3166493   5.3341673  70.0285993  48.0516493
   4.4091673  70.1795993  38.7736493   3.7091673  70.6975993  38.7176493
   4.4471673  69.7995993  37.9896493   4.3111673  70.2005993  38.6496493
   8.0071673  70.6955993  41.5736493   8.8621673  70.7945993  41.7186493
   7.6381673  71.2485993  42.1386493   8.0791673  70.7925993  41.6786493
   8.3111673  75.9755993  40.0646493   8.9771673  76.5165993  40.2246493
   7.9661673  76.2865993  39.3256493   8.3581673  76.1015993  39.9796493
  11.4821673  68.5335993  44.7296493  11.4301673  68.4895993  45.5996493
  12.1691673  68.0305993  44.5396493  11.5761673  68.4535993  44.8296493
   3.5671673  70.6465993  41.7746493   2.8301673  70.1925993  41.8876493
   4.1381673  70.2445993  42.2976493   3.5421673  70.5195993  41.8686493
   5.7301673  68.8375993  41.0256493   6.4001673  69.3815993  41.1526493
   5.2271673  69.2615993  40.4526493   5.7551673  68.9805993  40.9596493
   5.0891673  74.6455993  38.5186493   5.6401673  74.0385993  38.8186493
   4.6641673  74.9085993  39.2336493   5.1081673  74.5945993  38.6676493
   7.0591673  76.4765993  35.0806493   7.1271673  75.6265993  35.2616493
   6.2361673  76.5625993  34.8026493   6.9471673  76.3635993  35.0666493
  10.3331673  77.8495993  48.2316493  10.9671673  77.6795993  48.8056493
  10.7501673  78.2525993  47.5796493  10.4881673  77.8845993  48.2206493
  10.9581673  72.4135993  48.9696493  10.7621673  73.0575993  49.5246493
  10.2361673  71.9235993  48.9616493  10.8231673  72.4365993  49.0506493
  10.8571673  73.3545993  41.9406493  10.0241673  73.6045993  41.8686493
  10.8011673  72.5145993  42.1696493  10.7261673  73.2675993  41.9636493
   7.7441673  77.9605993  49.5866493   8.6151673  77.9245993  49.5506493
   7.5251673  78.3805993  48.8546493   7.8411673  78.0165993  49.4736493
   4.5081673  68.5455993  17.4894083   4.2631673  69.0335993  16.8094083
   5.3711673  68.4725993  17.3894083   4.5991673  68.6065993  17.3744083
   4.3171673  75.4615993  22.1604083   3.7931673  76.0575993  22.5234083
   4.7141673  75.0935993  22.8444083   4.2981673  75.4955993  22.3154083
   6.9881673  76.5285993  18.8364083   7.0681673  76.5325993  17.9674083
   6.4041673  75.8965993  18.9854083   6.9131673  76.4355993  18.7304083
   3.8021673  74.5185993  28.2564083   2.9541673  74.4195993  28.0784083
   3.8311673  75.2635993  28.7104083   3.6811673  74.6145993  28.2974083
   8.3601673  67.4785993  27.3704083   8.2021673  68.2475993  26.9884083
   7.5881673  67.2585993  27.7144083   8.2221673  67.5595993  27.3654083
   5.8221673  72.1195993  11.8844083   5.3721673  72.8005993  12.1914083
   5.9361673  71.6155993  12.5874083   5.7731673  72.1455993  12.0334083
  11.2161673  72.0925993  18.1794083  10.8701673  72.7705993  18.6054083
  10.5801673  71.4945993  18.1954083  11.0711673  72.1045993  18.2444083
   2.7451673  68.8085993  29.0274083   2.9231673  67.9995993  28.7524083
   2.6021673  69.2495993  28.2884083   2.7501673  68.7545993  28.8774083
   3.3391673  73.7345993  17.8004083   3.6261673  73.5025993  17.0104083
   4.0711673  73.8135993  18.2694083   3.4891673  73.7115993  17.7534083
   4.0611673  74.0735993  12.9214083   4.3421673  74.8615993  13.1704083
   3.2851673  74.2385993  12.5584083   3.9881673  74.2145993  12.9044083
  10.8911673  70.4155993  23.5484083  11.6481673  70.4875993  23.1204083
  10.9541673  69.6425993  23.9474083  11.0121673  70.3125993  23.5434083
   6.4271673  70.1405993  13.7914083   6.9671673  69.4585993  13.8674083
   6.4891673  70.5385993  14.5654083   6.5161673  70.0985993  13.9174083
   3.6851673  72.5165993  15.1054083   3.1771673  71.8545993  14.8514083
   3.7371673  73.0205993  14.3954083   3.6181673  72.4935993  14.9634083
   3.6851673  69.4575993  14.9964083   3.2301673  69.0555993  14.3704083
   4.4581673  69.6125993  14.6214083   3.7321673  69.4215993  14.8484083
   2.2831673  71.8245993  19.5184083   2.3571673  72.3925993  18.8604083
   2.4041673  72.3165993  20.2284083   2.3111673  71.9815993  19.5264083
   6.0751673  71.9945993  25.4064083   5.9801673  72.3135993  26.2124083
   5.4821673  71.3555993  25.3684083   5.9731673  71.9465993  25.5204083
   7.3311673  67.9385993  18.2424083   7.3801673  67.6205993  19.0534083
   7.6541673  67.2945993  17.7494083   7.3861673  67.7965993  18.2894083
   9.7951673  72.1745993  26.5504083  10.5671673  71.9495993  26.8874083
   9.3201673  72.3915993  27.2504083   9.8391673  72.1735993  26.7034083
   7.9221673  75.6895993  13.3234083   7.7021673  76.4205993  12.9014083
   7.4741673  75.7405993  14.0704083   7.8231673  75.8045993  13.3714083
  12.1091673  70.5505993  12.7764083  11.4471673  69.9825993  12.7994083
  11.9161673  71.0625993  12.0964083  11.9831673  70.5425993  12.6794083
  12.4321673  74.9285993  25.3324083  12.6471673  74.1285993  25.0564083
  11.5821673  74.9885993  25.1434083  12.3381673  74.8195993  25.2634083
  10.1111673  70.1085993  15.0554083  10.8571673  69.7015993  15.2544083
  10.3741673  70.8235993  14.6304083  10.2601673  70.1545993  15.0224083
   6.5651673  72.3965993  20.1284083   6.9091673  72.5485993  20.9154083
   6.1121673  71.6585993  20.2414083   6.5491673  72.3095993  20.2614083
   7.8861673  73.7285993  22.6824083   7.2241673  74.0565993  23.1454083
   8.0731673  74.3625993  22.1134083   7.8161673  73.8705993  22.6664083
   4.5311673  69.6345993  26.1114083   4.6801673  68.8095993  25.8684083
   4.9101673  69.6895993  26.8954083   4.6091673  69.5205993  26.1914083
   6.0791673  71.6975993  16.1934083   6.5691673  72.4145993  16.1164083
   5.2891673  71.9585993  15.9304083   6.0351673  71.8415993  16.1434083
   2.6611673  73.1675993  21.9184083   3.1411673  73.8665993  22.1264083
   3.0341673  72.5205993  22.3694083   2.7871673  73.1755993  22.0154083
   4.8501673  76.3365993  14.1924083   4.8421673  77.0585993  13.7024083
   4.2111673  76.4715993  14.7694083   4.7551673  76.4635993  14.2054083
   9.1401673  78.1215993  26.2634083   9.1951673  78.2465993  25.4014083
   9.8931673  78.4415993  26.5654083   9.2591673  78.1865993  26.1804083
  10.1721673  68.4195993  29.2504083   9.5351673  68.0195993  28.8084083
  10.1981673  67.9885993  30.0084083  10.0821673  68.2975993  29.2964083
   4.8711673  77.9275993  25.8634083   4.7161673  78.5375993  26.4674083
   5.4051673  77.3695993  26.2694083   4.9271673  77.9355993  26.0124083
   3.2551673  76.3275993  16.5214083   3.3141673  76.9775993  17.1004083
   3.0661673  75.6315993  17.0124083   3.2361673  76.3205993  16.6794083
   2.4781673  78.3745993  20.9524083   1.6311673  78.1805993  21.0334083
   2.8021673  78.2095993  21.7454083   2.4001673  78.3215993  21.0814083
   9.4121673  77.5985993  23.5094083   9.4051673  76.8225993  23.9074083
   8.5711673  77.8325993  23.5024083   9.2871673  77.5185993  23.5674083
  10.6681673  77.6695993  20.9464083  10.3821673  78.0705993  21.6664083
  11.5281673  77.6075993  21.0734083  10.7531673  77.7195993  21.0714083
   8.3301673  71.5935993  29.4864083   7.8051673  72.0525993  30.0104083
   7.9691673  70.7985993  29.4804083   8.1991673  71.5435993  29.5624083
   6.8221673  75.1625993  29.5624083   6.8951673  75.2665993  30.4254083
   6.1881673  75.7205993  29.3414083   6.7391673  75.2605993  29.6574083
   9.0901673  75.4815993  27.9274083   9.4091673  76.2675993  28.1304083
   8.7201673  75.2115993  28.6704083   9.0831673  75.5575993  28.0674083
   8.8861673  73.7395993  19.1164083   8.1411673  73.4165993  19.4344083
   8.8881673  74.5655993  19.3964083   8.7761673  73.8135993  19.2044083
  11.7881673  76.0235993  30.6624083  11.7361673  75.6825993  29.8614083
  12.5251673  76.4905993  30.6404083  11.8891673  76.0425993  30.5404083
   7.7981673  70.0695993  26.5774083   8.5421673  70.5215993  26.5144083
   7.2321673  70.5395993  26.1084083   7.8251673  70.2065993  26.4994083
   2.9761673  77.3535993  23.6554083   3.4521673  77.7275993  24.2834083
   2.1531673  77.4875993  23.9144083   2.9251673  77.4285993  23.7864083
   9.0831673  68.0495993  24.2474083   8.8031673  68.8745993  24.2034083
   9.7991673  68.1025993  24.7434083   9.1481673  68.1795993  24.3144083
  10.5041673  74.3045993  13.1044083  10.8821673  74.9815993  12.7044083
   9.6621673  74.5285993  13.1354083  10.4351673  74.4375993  13.0494083
   5.9631673  72.9195993  27.9294083   5.3151673  73.3895993  28.2774083
   6.5281673  72.8305993  28.5884083   5.9511673  72.9755993  28.0784083
   5.6511673  74.4565993  24.2274083   5.9531673  74.8765993  24.9304083
   5.6871673  73.6165993  24.4594083   5.7011673  74.3945993  24.3654083
   8.1991673  73.9035993  16.4794083   8.4061673  73.7025993  17.3034083
   8.9551673  74.1715993  16.1374083   8.3411673  73.9135993  16.5504083
   9.2211673  69.9865993  17.9534083   8.5071673  69.5155993  18.1244083
   9.0591673  70.3275993  17.1674083   9.0921673  69.9675993  17.8624083
   9.6641673  77.9305993  16.3334083  10.1401673  77.2015993  16.2854083
   8.8431673  77.6445993  16.2574083   9.6131673  77.7805993  16.3144083
  11.8001673  75.0985993  28.0914083  10.9451673  74.9765993  28.2174083
  11.9531673  74.7035993  27.3284083  11.6961673  75.0215993  27.9974083
   6.3131673  75.7635993  26.6674083   6.0581673  75.0445993  27.0894083
   7.1341673  75.8795993  26.9374083   6.3971673  75.6745993  26.7694083
   4.2471673  76.9535993  29.8544083   4.5701673  77.6395993  29.4224083
   3.5431673  77.2765993  30.2564083   4.1901673  77.1025993  29.8494083
  10.4341673  75.0435993  15.7754083  10.5371673  74.9855993  14.9114083
  11.1751673  74.7115993  16.0934083  10.5591673  74.9865993  15.6944083
   9.5361673  75.1895993  25.1314083   9.5341673  74.3265993  25.2554083
   9.6031673  75.5135993  25.9384083   9.5461673  75.1095993  25.2684083
   5.4151673  69.9895993  28.9134083   5.5071673  70.7015993  29.4074083
   4.7781673  69.5445993  29.3104083   5.3341673  70.0285993  29.0454083
   4.4091673  70.1795993  19.7674083   3.7091673  70.6975993  19.7114083
   4.4471673  69.7995993  18.9834083   4.3111673  70.2005993  19.6434083
   8.0071673  70.6955993  22.5674083   8.8621673  70.7945993  22.7124083
   7.6381673  71.2485993  23.1324083   8.0791673  70.7925993  22.6724083
   8.3111673  75.9755993  21.0584083   8.9771673  76.5165993  21.2184083
   7.9661673  76.2865993  20.3194083   8.3581673  76.1015993  20.9734083
  11.4821673  68.5335993  25.7234083  11.4301673  68.4895993  26.5934083
  12.1691673  68.0305993  25.5334083  11.5761673  68.4535993  25.8234083
   3.5671673  70.6465993  22.7684083   2.8301673  70.1925993  22.8814083
   4.1381673  70.2445993  23.2914083   3.5421673  70.5195993  22.8624083
   5.7301673  68.8375993  22.0194083   6.4001673  69.3815993  22.1464083
   5.2271673  69.2615993  21.4464083   5.7551673  68.9805993  21.9534083
   5.0891673  74.6455993  19.5124083   5.6401673  74.0385993  19.8124083
   4.6641673  74.9085993  20.2274083   5.1081673  74.5945993  19.6614083
   7.0591673  76.4765993  16.0744083   7.1271673  75.6265993  16.2554083
   6.2361673  76.5625993  15.7964083   6.9471673  76.3635993  16.0604083
  10.3331673  77.8495993  29.2254083  10.9671673  77.6795993  29.7994083
  10.7501673  78.2525993  28.5734083  10.4881673  77.8845993  29.2144083
  10.9581673  72.4135993  29.9634083  10.7621673  73.0575993  30.5184083
  10.2361673  71.9235993  29.9554083  10.8231673  72.4365993  30.0444083
  10.8571673  73.3545993  22.9344083  10.0241673  73.6045993  22.8624083
  10.8011673  72.5145993  23.1634083  10.7261673  73.2675993  22.9574083
   7.7441673  77.9605993  30.5804083   8.6151673  77.9245993  30.5444083
   7.5251673  78.3805993  29.8484083   7.8411673  78.0165993  30.4674083
   4.3171673  75.4615993   3.1541673   3.7931673  76.0575993   3.5171673
   4.7141673  75.0935993   3.8381673   4.2981673  75.4955993   3.3091673
   3.8021673  74.5185993   9.2501673   2.9541673  74.4195993   9.0721673
   3.8311673  75.2635993   9.7041673   3.6811673  74.6145993   9.2911673
   8.3601673  67.4785993   8.3641673   8.2021673  68.2475993   7.9821673
   7.5881673  67.2585993   8.7081673   8.2221673  67.5595993   8.3591673
   2.7451673  68.8085993  10.0211673   2.9231673  67.9995993   9.7461673
   2.6021673  69.2495993   9.2821673   2.7501673  68.7545993   9.8711673
  10.8911673  70.4155993   4.5421673  11.6481673  70.4875993   4.1141673
  10.9541673  69.6425993   4.9411673  11.0121673  70.3125993   4.5371673
   6.0751673  71.9945993   6.4001673   5.9801673  72.3135993   7.2061673
   5.4821673  71.3555993   6.3621673   5.9731673  71.9465993   6.5141673
   9.7951673  72.1745993   7.5441673  10.5671673  71.9495993   7.8811673
   9.3201673  72.3915993   8.2441673   9.8391673  72.1735993   7.6971673
  12.4321673  74.9285993   6.3261673  12.6471673  74.1285993   6.0501673
  11.5821673  74.9885993   6.1371673  12.3381673  74.8195993   6.2571673
   7.8861673  73.7285993   3.6761673   7.2241673  74.0565993   4.1391673
   8.0731673  74.3625993   3.1071673   7.8161673  73.8705993   3.6601673
   4.5311673  69.6345993   7.1051673   4.6801673  68.8095993   6.8621673
   4.9101673  69.6895993   7.8891673   4.6091673  69.5205993   7.1851673
   2.6611673  73.1675993   2.9121673   3.1411673  73.8665993   3.1201673
   3.0341673  72.5205993   3.3631673   2.7871673  73.1755993   3.0091673
   9.1401673  78.1215993   7.2571673   9.1951673  78.2465993   6.3951673
   9.8931673  78.4415993   7.5591673   9.2591673  78.1865993   7.1741673
  10.1721673  68.4195993  10.2441673   9.5351673  68.0195993   9.8021673
  10.1981673  67.9885993  11.0021673  10.0821673  68.2975993  10.2901673
   4.8711673  77.9275993   6.8571673   4.7161673  78.5375993   7.4611673
   5.4051673  77.3695993   7.2631673   4.9271673  77.9355993   7.0061673
   2.4781673  78.3745993   1.9461673   1.6311673  78.1805993   2.0271673
   2.8021673  78.2095993   2.7391673   2.4001673  78.3215993   2.0751673
   9.4121673  77.5985993   4.5031673   9.4051673  76.8225993   4.9011673
   8.5711673  77.8325993   4.4961673   9.2871673  77.5185993   4.5611673
  10.6681673  77.6695993   1.9401673  10.3821673  78.0705993   2.6601673
  11.5281673  77.6075993   2.0671673  10.7531673  77.7195993   2.0651673
   8.3301673  71.5935993  10.4801673   7.8051673  72.0525993  11.0041673
   7.9691673  70.7985993  10.4741673   8.1991673  71.5435993  10.5561673
   6.8221673  75.1625993  10.5561673   6.8951673  75.2665993  11.4191673
   6.1881673  75.7205993  10.3351673   6.7391673  75.2605993  10.6511673
   9.0901673  75.4815993   8.9211673   9.4091673  76.2675993   9.1241673
   8.7201673  75.2115993   9.6641673   9.0831673  75.5575993   9.0611673
  11.7881673  76.0235993  11.6561673  11.7361673  75.6825993  10.8551673
  12.5251673  76.4905993  11.6341673  11.8891673  76.0425993  11.5341673
   7.7981673  70.0695993   7.5711673   8.5421673  70.5215993   7.5081673
   7.2321673  70.5395993   7.1021673   7.8251673  70.2065993   7.4931673
   2.9761673  77.3535993   4.6491673   3.4521673  77.7275993   5.2771673
   2.1531673  77.4875993   4.9081673   2.9251673  77.4285993   4.7801673
   9.0831673  68.0495993   5.2411673   8.8031673  68.8745993   5.1971673
   9.7991673  68.1025993   5.7371673   9.1481673  68.1795993   5.3081673
   5.9631673  72.9195993   8.9231673   5.3151673  73.3895993   9.2711673
   6.5281673  72.8305993   9.5821673   5.9511673  72.9755993   9.0721673
   5.6511673  74.4565993   5.2211673   5.9531673  74.8765993   5.9241673
   5.6871673  73.6165993   5.4531673   5.7011673  74.3945993   5.3591673
  11.8001673  75.0985993   9.0851673  10.9451673  74.9765993   9.2111673
  11.9531673  74.7035993   8.3221673  11.6961673  75.0215993   8.9911673
   6.3131673  75.7635993   7.6611673   6.0581673  75.0445993   8.0831673
   7.1341673  75.8795993   7.9311673   6.3971673  75.6745993   7.7631673
   4.2471673  76.9535993  10.8481673   4.5701673  77.6395993  10.4161673
   3.5431673  77.2765993  11.2501673   4.1901673  77.1025993  10.8431673
   9.5361673  75.1895993   6.1251673   9.5341673  74.3265993   6.2491673
   9.6031673  75.5135993   6.9321673   9.5461673  75.1095993   6.2621673
   5.4151673  69.9895993   9.9071673   5.5071673  70.7015993  10.4011673
   4.7781673  69.5445993  10.3041673   5.3341673  70.0285993  10.0391673
   8.0071673  70.6955993   3.5611673   8.8621673  70.7945993   3.7061673
   7.6381673  71.2485993   4.1261673   8.0791673  70.7925993   3.6661673
  11.4821673  68.5335993   6.7171673  11.4301673  68.4895993   7.5871673
  12.1691673  68.0305993   6.5271673  11.5761673  68.4535993   6.8171673
   3.5671673  70.6465993   3.7621673   2.8301673  70.1925993   3.8751673
   4.1381673  70.2445993   4.2851673   3.5421673  70.5195993   3.8561673
   5.7301673  68.8375993   3.0131673   6.4001673  69.3815993   3.1401673
   5.2271673  69.2615993   2.4401673   5.7551673  68.9805993   2.9471673
  10.3331673  77.8495993  10.2191673  10.9671673  77.6795993  10.7931673
  10.7501673  78.2525993   9.5671673  10.4881673  77.8845993  10.2081673
  10.9581673  72.4135993  10.9571673  10.7621673  73.0575993  11.5121673
  10.2361673  71.9235993  10.9491673  10.8231673  72.4365993  11.0381673
  10.8571673  73.3545993   3.9281673  10.0241673  73.6045993   3.8561673
  10.8011673  72.5145993   4.1571673  10.7261673  73.2675993   3.9511673
   7.7441673  77.9605993  11.5741673   8.6151673  77.9245993  11.5381673
   7.5251673  78.3805993  10.8421673   7.8411673  78.0165993  11.4611673
   4.5081673  50.0674913  74.5081313   4.2631673  50.5554913  73.8281313
   5.3711673  49.9944913  74.4081313   4.5991673  50.1284913  74.3931313
  10.4611673  64.4244913  72.1501313  11.1621673  63.9054913  72.1461313
   9.8741673  63.9794913  71.6811313  10.4781673  64.2814913  72.0801313
   6.9881673  58.0504913  75.8551313   7.0681673  58.0544913  74.9861313
   6.4041673  57.4184913  76.0041313   6.9131673  57.9574913  75.7491313
   1.7771673  62.4604913  77.7251313   2.1251673  61.6614913  77.7551313
   2.4421673  62.9644913  77.4701313   1.9271673  62.4164913  77.6921313
   1.8341673  61.9094913  73.9361313   2.1651673  61.2654913  74.4221313
   2.0741673  61.6984913  73.1251313   1.9181673  61.7834913  73.8881313
   5.8221673  53.6414913  68.9031313   5.3721673  54.3224913  69.2101313
   5.9361673  53.1374913  69.6061313   5.7731673  53.6674913  69.0521313
   5.9211673  65.9824913  71.0071313   6.6481673  66.4544913  71.1091313
   6.1501673  65.1884913  71.2871313   6.0631673  65.9354913  71.0641313
   4.0891673  66.3744913  72.9971313   4.3031673  66.9014913  73.6591313
   4.8561673  66.2004913  72.6181313   4.2341673  66.4264913  73.0391313
  11.2161673  53.6144913  75.1981313  10.8701673  54.2924913  75.6241313
  10.5801673  53.0164913  75.2141313  11.0711673  53.6264913  75.2631313
   3.3391673  55.2564913  74.8191313   3.6261673  55.0244913  74.0291313
   4.0711673  55.3354913  75.2881313   3.4891673  55.2334913  74.7721313
   4.0611673  55.5954913  69.9401313   4.3421673  56.3834913  70.1891313
   3.2851673  55.7604913  69.5771313   3.9881673  55.7364913  69.9231313
   8.1021673  67.5694913  71.4071313   8.7671673  67.4214913  70.8621313
   8.4621673  67.4864913  72.1971313   8.2541673  67.5354913  71.4431313
   2.9201673  63.7664913  69.7561313   2.7391673  64.3114913  70.4131313
   3.6861673  64.0564913  69.4551313   3.0061673  63.8904913  69.8091313
   6.4271673  51.6624913  70.8101313   6.9671673  50.9804913  70.8861313
   6.4891673  52.0604913  71.5841313   6.5161673  51.6204913  70.9361313
   3.6851673  54.0384913  72.1241313   3.1771673  53.3764913  71.8701313
   3.7371673  54.5424913  71.4141313   3.6181673  54.0154913  71.9821313
   3.6851673  50.9794913  72.0151313   3.2301673  50.5774913  71.3891313
   4.4581673  51.1344913  71.6401313   3.7321673  50.9434913  71.8671313
  10.5111673  67.3364913  75.4051313  10.0561673  68.0534913  75.6061313
   9.8971673  66.7654913  75.1631313  10.3531673  67.3584913  75.3991313
   2.2831673  53.3464913  76.5371313   2.3571673  53.9144913  75.8791313
   2.4041673  53.8384913  77.2471313   2.3111673  53.5034913  76.5451313
   7.5081673  63.1814913  74.9491313   8.2091673  62.6994913  75.1381313
   6.8481673  62.6124913  74.9941313   7.5141673  63.0264913  74.9831313
   7.3311673  49.4604913  75.2611313   7.3801673  49.1424913  76.0721313
   7.6541673  48.8164913  74.7681313   7.3861673  49.3184913  75.3081313
  10.0271673  60.6744913  70.7571313  10.1461673  60.3874913  71.5721313
  10.8341673  60.6954913  70.4271313  10.1631673  60.6354913  70.8291313
   7.9221673  57.2114913  70.3421313   7.7021673  57.9424913  69.9201313
   7.4741673  57.2624913  71.0891313   7.8231673  57.3264913  70.3901313
  12.1091673  52.0724913  69.7951313  11.4471673  51.5044913  69.8181313
  11.9161673  52.5844913  69.1151313  11.9831673  52.0644913  69.6981313
  10.1111673  51.6304913  72.0741313  10.8571673  51.2234913  72.2731313
  10.3741673  52.3454913  71.6491313  10.2601673  51.6764913  72.0411313
   4.0541673  64.1164913  76.6501313   3.5311673  64.7504913  76.3571313
   4.3641673  63.7524913  75.9211313   4.0221673  64.1564913  76.4991313
   6.5651673  53.9184913  77.1471313   6.9091673  54.0704913  77.9341313
   6.1121673  53.1804913  77.2601313   6.5491673  53.8314913  77.2801313
   6.0791673  53.2194913  73.2121313   6.5691673  53.9364913  73.1351313
   5.2891673  53.4804913  72.9491313   6.0351673  53.3634913  73.1621313
   4.8501673  57.8584913  71.2111313   4.8421673  58.5804913  70.7211313
   4.2111673  57.9934913  71.7881313   4.7551673  57.9854913  71.2241313
   9.8221673  61.7284913  75.1921313  10.1781673  61.3784913  75.9071313
   9.8141673  61.0674913  74.6221313   9.8741673  61.5784913  75.2131313
   5.8801673  61.6454913  78.4361313   5.0831673  61.8694913  78.7101313
   6.1381673  61.0514913  79.0211313   5.8001673  61.5904913  78.5631313
   2.0641673  65.9734913  71.2861313   2.6861673  66.1364913  71.8761313
   2.1001673  66.6644913  70.7541313   2.1611673  66.0994913  71.2951313
   3.2551673  57.8494913  73.5401313   3.3141673  58.4994913  74.1191313
   3.0661673  57.1534913  74.0311313   3.2361673  57.8424913  73.6981313
   2.4781673  59.8964913  77.9711313   1.6311673  59.7024913  78.0521313
   2.8021673  59.7314913  78.7641313   2.4001673  59.8434913  78.1001313
  12.1731673  66.3444913  71.3491313  12.8671673  65.8774913  71.1011313
  11.6341673  65.7464913  71.6861313  12.1961673  66.1864913  71.3621313
  10.6681673  59.1914913  77.9651313  10.3821673  59.5924913  78.6851313
  11.5281673  59.1294913  78.0921313  10.7531673  59.2414913  78.0901313
  11.7991673  64.8244913  78.4941313  12.0891673  65.0814913  77.7131313
  12.4941673  64.9204913  79.0131313  11.9451673  64.8764913  78.4551313
   8.4041673  63.4274913  70.4761313   8.7381673  62.6214913  70.5111313
   7.6491673  63.3554913  70.9061313   8.3421673  63.2974913  70.5451313
   8.8861673  55.2614913  76.1351313   8.1411673  54.9384913  76.4531313
   8.8881673  56.0874913  76.4151313   8.7761673  55.3354913  76.2231313
   5.7781673  61.3024913  69.8791313   6.4621673  60.7884913  69.7101313
   5.3611673  61.3484913  69.1141313   5.8171673  61.2334913  69.7411313
   2.2401673  66.2684913  75.9021313   2.7861673  66.9474913  75.9561313
   1.8901673  66.3504913  75.1071313   2.2691673  66.3814913  75.7921313
  10.5041673  55.8264913  70.1231313  10.8821673  56.5034913  69.7231313
   9.6621673  56.0504913  70.1541313  10.4351673  55.9594913  70.0681313
   8.1991673  55.4254913  73.4981313   8.4061673  55.2244913  74.3221313
   8.9551673  55.6934913  73.1561313   8.3411673  55.4354913  73.5691313
   9.2211673  51.5084913  74.9721313   8.5071673  51.0374913  75.1431313
   9.0591673  51.8494913  74.1861313   9.0921673  51.4894913  74.8811313
   9.6641673  59.4524913  73.3521313  10.1401673  58.7234913  73.3041313
   8.8431673  59.1664913  73.2761313   9.6131673  59.3024913  73.3331313
   5.8801673  60.6194913  75.7071313   5.9561673  60.9604913  76.5061313
   6.0491673  59.7724913  75.8281313   5.9161673  60.5444913  75.8431313
   3.4021673  59.8934913  75.2721313   3.1041673  59.5784913  76.0291313
   4.0971673  60.3664913  75.5071313   3.4611673  59.9164913  75.4191313
   7.3311673  66.8494913  77.8021313   6.8801673  67.4924913  78.1811313
   8.0391673  66.7704913  78.3071313   7.3691673  66.9324913  77.9331313
  10.4341673  56.5654913  72.7941313  10.5371673  56.5074913  71.9301313
  11.1751673  56.2334913  73.1121313  10.5591673  56.5084913  72.7131313
   4.3541673  63.5304913  73.9011313   4.1491673  64.3634913  73.7421313
   3.5791673  63.1484913  74.0231313   4.2091673  63.5974913  73.8961313
   4.4091673  51.7014913  76.7861313   3.7091673  52.2194913  76.7301313
   4.4471673  51.3214913  76.0021313   4.3111673  51.7224913  76.6621313
   8.3111673  57.4974913  78.0771313   8.9771673  58.0384913  78.2371313
   7.9661673  57.8084913  77.3381313   8.3581673  57.6234913  77.9921313
   8.6241673  65.5634913  73.8841313   8.4501673  64.9094913  74.4341313
   9.3371673  65.2924913  73.4611313   8.7041673  65.4264913  73.9031313
   5.0891673  56.1674913  76.5311313   5.6401673  55.5604913  76.8311313
   4.6641673  56.4304913  77.2461313   5.1081673  56.1164913  76.6801313
   7.0591673  57.9984913  73.0931313   7.1271673  57.1484913  73.2741313
   6.2361673  58.0844913  72.8151313   6.9471673  57.8854913  73.0791313
  10.1381673  66.9534913  69.5111313  10.7751673  66.8194913  70.0921313
   9.7971673  66.1594913  69.3941313  10.1821673  66.8164913  69.5791313
   6.2131673  63.2184913  71.8331313   5.9621673  63.0904913  72.6591313
   5.8961673  62.5234913  71.4121313   6.1291673  63.0974913  71.8931313
   3.0991673  61.4264913  71.2631313   3.8161673  61.0794913  70.9071313
   3.0651673  62.2264913  70.9151313   3.2001673  61.4934913  71.1591313
   4.5081673  50.0674913  55.5018903   4.2631673  50.5554913  54.8218903
   5.3711673  49.9944913  55.4018903   4.5991673  50.1284913  55.3868903
   4.3171673  56.9834913  60.1728903   3.7931673  57.5794913  60.5358903
   4.7141673  56.6154913  60.8568903   4.2981673  57.0174913  60.3278903
  10.4611673  64.4244913  53.1438903  11.1621673  63.9054913  53.1398903
   9.8741673  63.9794913  52.6748903  10.4781673  64.2814913  53.0738903
   6.9881673  58.0504913  56.8488903   7.0681673  58.0544913  55.9798903
   6.4041673  57.4184913  56.9978903   6.9131673  57.9574913  56.7428903
   1.7771673  62.4604913  58.7188903   2.1251673  61.6614913  58.7488903
   2.4421673  62.9644913  58.4638903   1.9271673  62.4164913  58.6858903
   1.8341673  61.9094913  54.9298903   2.1651673  61.2654913  55.4158903
   2.0741673  61.6984913  54.1188903   1.9181673  61.7834913  54.8818903
   3.8021673  56.0404913  66.2688903   2.9541673  55.9414913  66.0908903
   3.8311673  56.7854913  66.7228903   3.6811673  56.1364913  66.3098903
   8.3601673  49.0004913  65.3828903   8.2021673  49.7694913  65.0008903
   7.5881673  48.7804913  65.7268903   8.2221673  49.0814913  65.3778903
   5.8221673  53.6414913  49.8968903   5.3721673  54.3224913  50.2038903
   5.9361673  53.1374913  50.5998903   5.7731673  53.6674913  50.0458903
   5.9211673  65.9824913  52.0008903   6.6481673  66.4544913  52.1028903
   6.1501673  65.1884913  52.2808903   6.0631673  65.9354913  52.0578903
   4.0891673  66.3744913  53.9908903   4.3031673  66.9014913  54.6528903
   4.8561673  66.2004913  53.6118903   4.2341673  66.4264913  54.0328903
  11.2161673  53.6144913  56.1918903  10.8701673  54.2924913  56.6178903
  10.5801673  53.0164913  56.2078903  11.0711673  53.6264913  56.2568903
   6.5281673  66.3844913  62.2958903   7.2721673  66.8404913  62.2858903
   6.4071673  66.1704913  61.4588903   6.6201673  66.4204913  62.1708903
   2.7451673  50.3304913  67.0398903   2.9231673  49.5214913  66.7648903
   2.6021673  50.7714913  66.3008903   2.7501673  50.2764913  66.8898903
   3.3391673  55.2564913  55.8128903   3.6261673  55.0244913  55.0228903
   4.0711673  55.3354913  56.2818903   3.4891673  55.2334913  55.7658903
   4.0611673  55.5954913  50.9338903   4.3421673  56.3834913  51.1828903
   3.2851673  55.7604913  50.5708903   3.9881673  55.7364913  50.9168903
   8.1021673  67.5694913  52.4008903   8.7671673  67.4214913  51.8558903
   8.4621673  67.4864913  53.1908903   8.2541673  67.5354913  52.4368903
  10.8911673  51.9374913  61.5608903  11.6481673  52.0094913  61.1328903
  10.9541673  51.1644913  61.9598903  11.0121673  51.8344913  61.5558903
   5.7821673  63.5694913  65.9998903   5.7481673  63.9514913  66.7838903
   6.6361673  63.5274913  65.8288903   5.9031673  63.6194913  66.0908903
   2.9201673  63.7664913  50.7498903   2.7391673  64.3114913  51.4068903
   3.6861673  64.0564913  50.4488903   3.0061673  63.8904913  50.8028903
   6.4271673  51.6624913  51.8038903   6.9671673  50.9804913  51.8798903
   6.4891673  52.0604913  52.5778903   6.5161673  51.6204913  51.9298903
   3.6851673  54.0384913  53.1178903   3.1771673  53.3764913  52.8638903
   3.7371673  54.5424913  52.4078903   3.6181673  54.0154913  52.9758903
   4.2341673  66.7334913  63.4978903   5.0021673  66.6534913  63.0918903
   3.6511673  66.6124913  62.8598903   4.2611673  66.7034913  63.3438903
   3.6851673  50.9794913  53.0088903   3.2301673  50.5774913  52.3828903
   4.4581673  51.1344913  52.6338903   3.7321673  50.9434913  52.8608903
  10.5111673  67.3364913  56.3988903  10.0561673  68.0534913  56.5998903
   9.8971673  66.7654913  56.1568903  10.3531673  67.3584913  56.3928903
   2.2831673  53.3464913  57.5308903   2.3571673  53.9144913  56.8728903
   2.4041673  53.8384913  58.2408903   2.3111673  53.5034913  57.5388903
   7.5081673  63.1814913  55.9428903   8.2091673  62.6994913  56.1318903
   6.8481673  62.6124913  55.9878903   7.5141673  63.0264913  55.9768903
   6.0751673  53.5164913  63.4188903   5.9801673  53.8354913  64.2248903
   5.4821673  52.8774913  63.3808903   5.9731673  53.4684913  63.5328903
   6.7741673  60.2354913  61.6238903   6.2601673  59.8234913  62.1948903
   6.6481673  61.0794913  61.8048903   6.6801673  60.2994913  61.7348903
   7.3311673  49.4604913  56.2548903   7.3801673  49.1424913  57.0658903
   7.6541673  48.8164913  55.7618903   7.3861673  49.3184913  56.3018903
   9.7951673  53.6964913  64.5628903  10.5671673  53.4714913  64.8998903
   9.3201673  53.9134913  65.2628903   9.8391673  53.6954913  64.7158903
  10.0271673  60.6744913  51.7508903  10.1461673  60.3874913  52.5658903
  10.8341673  60.6954913  51.4208903  10.1631673  60.6354913  51.8228903
  12.2611673  65.1834913  66.0048903  11.5791673  65.4934913  65.5578903
  11.8921673  64.7254913  66.6498903  12.1051673  65.1614913  66.0338903
   7.9221673  57.2114913  51.3358903   7.7021673  57.9424913  50.9138903
   7.4741673  57.2624913  52.0828903   7.8231673  57.3264913  51.3838903
  12.1091673  52.0724913  50.7888903  11.4471673  51.5044913  50.8118903
  11.9161673  52.5844913  50.1088903  11.9831673  52.0644913  50.6918903
  12.4321673  56.4504913  63.3448903  12.6471673  55.6504913  63.0688903
  11.5821673  56.5104913  63.1558903  12.3381673  56.3414913  63.2758903
  10.1111673  51.6304913  53.0678903  10.8571673  51.2234913  53.2668903
  10.3741673  52.3454913  52.6428903  10.2601673  51.6764913  53.0348903
   4.0541673  64.1164913  57.6438903   3.5311673  64.7504913  57.3508903
   4.3641673  63.7524913  56.9148903   4.0221673  64.1564913  57.4928903
   6.5651673  53.9184913  58.1408903   6.9091673  54.0704913  58.9278903
   6.1121673  53.1804913  58.2538903   6.5491673  53.8314913  58.2738903
  10.0951673  65.5654913  64.0948903   9.4241673  66.0794913  64.3128903
  10.1581673  65.6654913  63.2308903  10.0051673  65.6564913  63.9998903
   7.8861673  55.2504913  60.6948903   7.2241673  55.5784913  61.1578903
   8.0731673  55.8844913  60.1258903   7.8161673  55.3924913  60.6788903
   2.0911673  66.3144913  61.6908903   1.8141673  65.6734913  61.1678903
   1.8831673  67.0404913  61.2528903   2.0201673  66.3274913  61.5488903
   4.5311673  51.1564913  64.1238903   4.6801673  50.3314913  63.8808903
   4.9101673  51.2114913  64.9078903   4.6091673  51.0424913  64.2038903
   6.0791673  53.2194913  54.2058903   6.5691673  53.9364913  54.1288903
   5.2891673  53.4804913  53.9428903   6.0351673  53.3634913  54.1558903
   7.3931673  61.0974913  66.1158903   7.8771673  61.8154913  66.2138903
   7.7871673  60.6704913  65.4648903   7.5231673  61.1404913  66.0338903
   2.6611673  54.6894913  59.9308903   3.1411673  55.3884913  60.1388903
   3.0341673  54.0424913  60.3818903   2.7871673  54.6974913  60.0278903
   4.8501673  57.8584913  52.2048903   4.8421673  58.5804913  51.7148903
   4.2111673  57.9934913  52.7818903   4.7551673  57.9854913  52.2178903
   9.8221673  61.7284913  56.1858903  10.1781673  61.3784913  56.9008903
   9.8141673  61.0674913  55.6158903   9.8741673  61.5784913  56.2068903
   5.8671673  64.7944913  60.0298903   5.2641673  64.4984913  59.4728903
   6.4121673  65.2464913  59.5208903   5.8581673  64.8174913  59.8718903
   5.8801673  61.6454913  59.4298903   5.0831673  61.8694913  59.7038903
   6.1381673  61.0514913  60.0148903   5.8001673  61.5904913  59.5568903
   2.0641673  65.9734913  52.2798903   2.6861673  66.1364913  52.8698903
   2.1001673  66.6644913  51.7478903   2.1611673  66.0994913  52.2888903
   9.1401673  59.6434913  64.2758903   9.1951673  59.7684913  63.4138903
   9.8931673  59.9634913  64.5778903   9.2591673  59.7084913  64.1928903
   5.3311673  64.9924913  68.5528903   5.4951673  65.2754913  69.3618903
   5.5941673  65.6534913  68.0478903   5.3941673  65.1324913  68.5978903
  10.1721673  49.9414913  67.2628903   9.5351673  49.5414913  66.8208903
  10.1981673  49.5104913  68.0208903  10.0821673  49.8194913  67.3088903
   4.8711673  59.4494913  63.8758903   4.7161673  60.0594913  64.4798903
   5.4051673  58.8914913  64.2818903   4.9271673  59.4574913  64.0248903
   3.2551673  57.8494913  54.5338903   3.3141673  58.4994913  55.1128903
   3.0661673  57.1534913  55.0248903   3.2361673  57.8424913  54.6918903
   8.4811673  62.1784913  60.4028903   8.0021673  62.4764913  59.7368903
   8.1251673  61.4024913  60.5808903   8.3581673  62.1074913  60.3308903
   2.4781673  59.8964913  58.9648903   1.6311673  59.7024913  59.0458903
   2.8021673  59.7314913  59.7578903   2.4001673  59.8434913  59.0938903
  12.1731673  66.3444913  52.3428903  12.8671673  65.8774913  52.0948903
  11.6341673  65.7464913  52.6798903  12.1961673  66.1864913  52.3558903
   9.4121673  59.1204913  61.5218903   9.4051673  58.3444913  61.9198903
   8.5711673  59.3544913  61.5148903   9.2871673  59.0404913  61.5798903
  10.6681673  59.1914913  58.9588903  10.3821673  59.5924913  59.6788903
  11.5281673  59.1294913  59.0858903  10.7531673  59.2414913  59.0838903
   8.3301673  53.1154913  67.4988903   7.8051673  53.5744913  68.0228903
   7.9691673  52.3204913  67.4928903   8.1991673  53.0654913  67.5748903
  11.7991673  64.8244913  59.4878903  12.0891673  65.0814913  58.7068903
  12.4941673  64.9204913  60.0068903  11.9451673  64.8764913  59.4488903
   6.8221673  56.6844913  67.5748903   6.8951673  56.7884913  68.4378903
   6.1881673  57.2424913  67.3538903   6.7391673  56.7824913  67.6698903
   9.0901673  57.0034913  65.9398903   9.4091673  57.7894913  66.1428903
   8.7201673  56.7334913  66.6828903   9.0831673  57.0794913  66.0798903
   8.4041673  63.4274913  51.4698903   8.7381673  62.6214913  51.5048903
   7.6491673  63.3554913  51.8998903   8.3421673  63.2974913  51.5388903
   8.8861673  55.2614913  57.1288903   8.1411673  54.9384913  57.4468903
   8.8881673  56.0874913  57.4088903   8.7761673  55.3354913  57.2168903
  11.7881673  57.5454913  68.6748903  11.7361673  57.2044913  67.8738903
  12.5251673  58.0124913  68.6528903  11.8891673  57.5644913  68.5528903
  11.3261673  61.2214913  64.8808903  11.9541673  60.6724913  64.6248903
  11.2651673  61.7864913  64.2188903  11.4101673  61.2244913  64.7448903
   5.7781673  61.3024913  50.8728903   6.4621673  60.7884913  50.7038903
   5.3611673  61.3484913  50.1078903   5.8171673  61.2334913  50.7348903
   7.7981673  51.5914913  64.5898903   8.5421673  52.0434913  64.5268903
   7.2321673  52.0614913  64.1208903   7.8251673  51.7284913  64.5118903
   2.9761673  58.8754913  61.6678903   3.4521673  59.2494913  62.2958903
   2.1531673  59.0094913  61.9268903   2.9251673  58.9504913  61.7988903
   2.2401673  66.2684913  56.8958903   2.7861673  66.9474913  56.9498903
   1.8901673  66.3504913  56.1008903   2.2691673  66.3814913  56.7858903
   9.0831673  49.5714913  62.2598903   8.8031673  50.3964913  62.2158903
   9.7991673  49.6244913  62.7558903   9.1481673  49.7014913  62.3268903
   4.7321673  61.1304913  67.2738903   5.4891673  61.4164913  66.9478903
   4.1851673  61.1824913  66.5958903   4.7631673  61.1804913  67.1248903
   8.6411673  63.6804913  65.7778903   8.9871673  63.9504913  66.5318903
   8.9351673  64.2624913  65.1978903   8.7361673  63.8064913  65.8038903
  10.5041673  55.8264913  51.1168903  10.8821673  56.5034913  50.7168903
   9.6621673  56.0504913  51.1478903  10.4351673  55.9594913  51.0618903
   5.9631673  54.4414913  65.9418903   5.3151673  54.9114913  66.2898903
   6.5281673  54.3524913  66.6008903   5.9511673  54.4974913  66.0908903
   5.6511673  55.9784913  62.2398903   5.9531673  56.3984913  62.9428903
   5.6871673  55.1384913  62.4718903   5.7011673  55.9164913  62.3778903
   3.0761673  66.1454913  66.1648903   3.5541673  65.5454913  65.7488903
   2.7251673  65.7024913  66.8298903   3.0951673  65.9914913  66.2018903
   8.1991673  55.4254913  54.4918903   8.4061673  55.2244913  55.3158903
   8.9551673  55.6934913  54.1498903   8.3411673  55.4354913  54.5628903
   9.2211673  51.5084913  55.9658903   8.5071673  51.0374913  56.1368903
   9.0591673  51.8494913  55.1798903   9.0921673  51.4894913  55.8748903
   9.6641673  59.4524913  54.3458903  10.1401673  58.7234913  54.2978903
   8.8431673  59.1664913  54.2698903   9.6131673  59.3024913  54.3268903
   3.1351673  61.3644913  65.1848903   2.3401673  61.3004913  65.5358903
   3.2061673  62.2114913  64.9898903   3.0281673  61.4794913  65.2078903
   5.8801673  60.6194913  56.7008903   5.9561673  60.9604913  57.4998903
   6.0491673  59.7724913  56.8218903   5.9161673  60.5444913  56.8368903
   3.4021673  59.8934913  56.2658903   3.1041673  59.5784913  57.0228903
   4.0971673  60.3664913  56.5008903   3.4611673  59.9164913  56.4128903
   3.6241673  64.0114913  64.2928903   4.3111673  63.8974913  64.8178903
   3.7581673  64.8024913  63.9488903   3.7451673  64.1114913  64.3198903
  11.8001673  56.6204913  66.1038903  10.9451673  56.4984913  66.2298903
  11.9531673  56.2254913  65.3408903  11.6961673  56.5434913  66.0098903
   6.3131673  57.2854913  64.6798903   6.0581673  56.5664913  65.1018903
   7.1341673  57.4014913  64.9498903   6.3971673  57.1964913  64.7818903
   4.2471673  58.4754913  67.8668903   4.5701673  59.1614913  67.4348903
   3.5431673  58.7984913  68.2688903   4.1901673  58.6244913  67.8618903
   7.3311673  66.8494913  58.7958903   6.8801673  67.4924913  59.1748903
   8.0391673  66.7704913  59.3008903   7.3691673  66.9324913  58.9268903
   4.0321673  61.9394913  61.7258903   3.3381673  62.3414913  62.0688903
   4.7091673  62.3724913  62.0648903   4.0291673  62.0624913  61.8268903
   9.4091673  64.5324913  68.3058903  10.1851673  64.1424913  68.3888903
   8.9401673  64.1964913  68.9608903   9.4541673  64.4254913  68.4148903
  10.4341673  56.5654913  53.7878903  10.5371673  56.5074913  52.9238903
  11.1751673  56.2334913  54.1058903  10.5591673  56.5084913  53.7068903
   4.3541673  63.5304913  54.8948903   4.1491673  64.3634913  54.7358903
   3.5791673  63.1484913  55.0168903   4.2091673  63.5974913  54.8898903
   9.5361673  56.7114913  63.1438903   9.5341673  55.8484913  63.2678903
   9.6031673  57.0354913  63.9508903   9.5461673  56.6314913  63.2808903
   5.4151673  51.5114913  66.9258903   5.5071673  52.2234913  67.4198903
   4.7781673  51.0664913  67.3228903   5.3341673  51.5504913  67.0578903
   4.4091673  51.7014913  57.7798903   3.7091673  52.2194913  57.7238903
   4.4471673  51.3214913  56.9958903   4.3111673  51.7224913  57.6558903
   8.0071673  52.2174913  60.5798903   8.8621673  52.3164913  60.7248903
   7.6381673  52.7704913  61.1448903   8.0791673  52.3144913  60.6848903
   8.3111673  57.4974913  59.0708903   8.9771673  58.0384913  59.2308903
   7.9661673  57.8084913  58.3318903   8.3581673  57.6234913  58.9858903
   8.6241673  65.5634913  54.8778903   8.4501673  64.9094913  55.4278903
   9.3371673  65.2924913  54.4548903   8.7041673  65.4264913  54.8968903
  11.4821673  50.0554913  63.7358903  11.4301673  50.0114913  64.6058903
  12.1691673  49.5524913  63.5458903  11.5761673  49.9754913  63.8358903
   3.5671673  52.1684913  60.7808903   2.8301673  51.7144913  60.8938903
   4.1381673  51.7664913  61.3038903   3.5421673  52.0414913  60.8748903
   6.2991673  63.0164913  62.5688903   6.5051673  63.3174913  63.3608903
   6.2381673  63.7384913  62.0838903   6.3201673  63.1674913  62.6138903
   5.8331673  67.2304913  66.8148903   5.0801673  67.2124913  66.3738903
   6.0011673  68.0824913  66.8988903   5.7471673  67.3534913  66.7618903
  11.1111673  61.6554913  62.0268903  11.0791673  60.7934913  61.8918903
  10.4181673  61.9574913  61.5928903  11.0041673  61.5724913  61.9428903
   9.2161673  64.9154913  60.8238903   9.7431673  64.8324913  60.1328903
   8.8251673  64.1374913  60.8778903   9.2361673  64.7884913  60.7298903
   5.7301673  50.3594913  60.0318903   6.4001673  50.9034913  60.1588903
   5.2271673  50.7834913  59.4588903   5.7551673  50.5024913  59.9658903
   5.0891673  56.1674913  57.5248903   5.6401673  55.5604913  57.8248903
   4.6641673  56.4304913  58.2398903   5.1081673  56.1164913  57.6738903
   7.0591673  57.9984913  54.0868903   7.1271673  57.1484913  54.2678903
   6.2361673  58.0844913  53.8088903   6.9471673  57.8854913  54.0728903
  10.1381673  66.9534913  50.5048903  10.7751673  66.8194913  51.0858903
   9.7971673  66.1594913  50.3878903  10.1821673  66.8164913  50.5728903
  10.3331673  59.3714913  67.2378903  10.9671673  59.2014913  67.8118903
  10.7501673  59.7744913  66.5858903  10.4881673  59.4064913  67.2268903
   6.2131673  63.2184913  52.8268903   5.9621673  63.0904913  53.6528903
   5.8961673  62.5234913  52.4058903   6.1291673  63.0974913  52.8868903
  10.9581673  53.9354913  67.9758903  10.7621673  54.5794913  68.5308903
  10.2361673  53.4454913  67.9678903  10.8231673  53.9584913  68.0568903
  10.8571673  54.8764913  60.9468903  10.0241673  55.1264913  60.8748903
  10.8011673  54.0364913  61.1758903  10.7261673  54.7894913  60.9698903
   7.7441673  59.4824913  68.5928903   8.6151673  59.4464913  68.5568903
   7.5251673  59.9024913  67.8608903   7.8411673  59.5384913  68.4798903
   3.0991673  61.4264913  52.2568903   3.8161673  61.0794913  51.9008903
   3.0651673  62.2264913  51.9088903   3.2001673  61.4934913  52.1528903
   4.5081673  50.0674913  36.4956493   4.2631673  50.5554913  35.8156493
   5.3711673  49.9944913  36.3956493   4.5991673  50.1284913  36.3806493
   4.3171673  56.9834913  41.1666493   3.7931673  57.5794913  41.5296493
   4.7141673  56.6154913  41.8506493   4.2981673  57.0174913  41.3216493
  10.4611673  64.4244913  34.1376493  11.1621673  63.9054913  34.1336493
   9.8741673  63.9794913  33.6686493  10.4781673  64.2814913  34.0676493
   6.9881673  58.0504913  37.8426493   7.0681673  58.0544913  36.9736493
   6.4041673  57.4184913  37.9916493   6.9131673  57.9574913  37.7366493
   1.7771673  62.4604913  39.7126493   2.1251673  61.6614913  39.7426493
   2.4421673  62.9644913  39.4576493   1.9271673  62.4164913  39.6796493
   1.8341673  61.9094913  35.9236493   2.1651673  61.2654913  36.4096493
   2.0741673  61.6984913  35.1126493   1.9181673  61.7834913  35.8756493
   3.8021673  56.0404913  47.2626493   2.9541673  55.9414913  47.0846493
   3.8311673  56.7854913  47.7166493   3.6811673  56.1364913  47.3036493
   8.3601673  49.0004913  46.3766493   8.2021673  49.7694913  45.9946493
   7.5881673  48.7804913  46.7206493   8.2221673  49.0814913  46.3716493
   5.8221673  53.6414913  30.8906493   5.3721673  54.3224913  31.1976493
   5.9361673  53.1374913  31.5936493   5.7731673  53.6674913  31.0396493
   5.9211673  65.9824913  32.9946493   6.6481673  66.4544913  33.0966493
   6.1501673  65.1884913  33.2746493   6.0631673  65.9354913  33.0516493
   4.0891673  66.3744913  34.9846493   4.3031673  66.9014913  35.6466493
   4.8561673  66.2004913  34.6056493   4.2341673  66.4264913  35.0266493
  11.2161673  53.6144913  37.1856493  10.8701673  54.2924913  37.6116493
  10.5801673  53.0164913  37.2016493  11.0711673  53.6264913  37.2506493
   6.5281673  66.3844913  43.2896493   7.2721673  66.8404913  43.2796493
   6.4071673  66.1704913  42.4526493   6.6201673  66.4204913  43.1646493
   2.7451673  50.3304913  48.0336493   2.9231673  49.5214913  47.7586493
   2.6021673  50.7714913  47.2946493   2.7501673  50.2764913  47.8836493
   3.3391673  55.2564913  36.8066493   3.6261673  55.0244913  36.0166493
   4.0711673  55.3354913  37.2756493   3.4891673  55.2334913  36.7596493
   4.0611673  55.5954913  31.9276493   4.3421673  56.3834913  32.1766493
   3.2851673  55.7604913  31.5646493   3.9881673  55.7364913  31.9106493
   8.1021673  67.5694913  33.3946493   8.7671673  67.4214913  32.8496493
   8.4621673  67.4864913  34.1846493   8.2541673  67.5354913  33.4306493
  10.8911673  51.9374913  42.5546493  11.6481673  52.0094913  42.1266493
  10.9541673  51.1644913  42.9536493  11.0121673  51.8344913  42.5496493
   5.7821673  63.5694913  46.9936493   5.7481673  63.9514913  47.7776493
   6.6361673  63.5274913  46.8226493   5.9031673  63.6194913  47.0846493
   2.9201673  63.7664913  31.7436493   2.7391673  64.3114913  32.4006493
   3.6861673  64.0564913  31.4426493   3.0061673  63.8904913  31.7966493
   6.4271673  51.6624913  32.7976493   6.9671673  50.9804913  32.8736493
   6.4891673  52.0604913  33.5716493   6.5161673  51.6204913  32.9236493
   3.6851673  54.0384913  34.1116493   3.1771673  53.3764913  33.8576493
   3.7371673  54.5424913  33.4016493   3.6181673  54.0154913  33.9696493
   4.2341673  66.7334913  44.4916493   5.0021673  66.6534913  44.0856493
   3.6511673  66.6124913  43.8536493   4.2611673  66.7034913  44.3376493
   3.6851673  50.9794913  34.0026493   3.2301673  50.5774913  33.3766493
   4.4581673  51.1344913  33.6276493   3.7321673  50.9434913  33.8546493
  10.5111673  67.3364913  37.3926493  10.0561673  68.0534913  37.5936493
   9.8971673  66.7654913  37.1506493  10.3531673  67.3584913  37.3866493
   2.2831673  53.3464913  38.5246493   2.3571673  53.9144913  37.8666493
   2.4041673  53.8384913  39.2346493   2.3111673  53.5034913  38.5326493
   7.5081673  63.1814913  36.9366493   8.2091673  62.6994913  37.1256493
   6.8481673  62.6124913  36.9816493   7.5141673  63.0264913  36.9706493
   6.0751673  53.5164913  44.4126493   5.9801673  53.8354913  45.2186493
   5.4821673  52.8774913  44.3746493   5.9731673  53.4684913  44.5266493
   6.7741673  60.2354913  42.6176493   6.2601673  59.8234913  43.1886493
   6.6481673  61.0794913  42.7986493   6.6801673  60.2994913  42.7286493
   7.3311673  49.4604913  37.2486493   7.3801673  49.1424913  38.0596493
   7.6541673  48.8164913  36.7556493   7.3861673  49.3184913  37.2956493
   9.7951673  53.6964913  45.5566493  10.5671673  53.4714913  45.8936493
   9.3201673  53.9134913  46.2566493   9.8391673  53.6954913  45.7096493
  10.0271673  60.6744913  32.7446493  10.1461673  60.3874913  33.5596493
  10.8341673  60.6954913  32.4146493  10.1631673  60.6354913  32.8166493
  12.2611673  65.1834913  46.9986493  11.5791673  65.4934913  46.5516493
  11.8921673  64.7254913  47.6436493  12.1051673  65.1614913  47.0276493
   7.9221673  57.2114913  32.3296493   7.7021673  57.9424913  31.9076493
   7.4741673  57.2624913  33.0766493   7.8231673  57.3264913  32.3776493
  12.1091673  52.0724913  31.7826493  11.4471673  51.5044913  31.8056493
  11.9161673  52.5844913  31.1026493  11.9831673  52.0644913  31.6856493
  12.4321673  56.4504913  44.3386493  12.6471673  55.6504913  44.0626493
  11.5821673  56.5104913  44.1496493  12.3381673  56.3414913  44.2696493
  10.1111673  51.6304913  34.0616493  10.8571673  51.2234913  34.2606493
  10.3741673  52.3454913  33.6366493  10.2601673  51.6764913  34.0286493
   4.0541673  64.1164913  38.6376493   3.5311673  64.7504913  38.3446493
   4.3641673  63.7524913  37.9086493   4.0221673  64.1564913  38.4866493
   6.5651673  53.9184913  39.1346493   6.9091673  54.0704913  39.9216493
   6.1121673  53.1804913  39.2476493   6.5491673  53.8314913  39.2676493
  10.0951673  65.5654913  45.0886493   9.4241673  66.0794913  45.3066493
  10.1581673  65.6654913  44.2246493  10.0051673  65.6564913  44.9936493
   7.8861673  55.2504913  41.6886493   7.2241673  55.5784913  42.1516493
   8.0731673  55.8844913  41.1196493   7.8161673  55.3924913  41.6726493
   2.0911673  66.3144913  42.6846493   1.8141673  65.6734913  42.1616493
   1.8831673  67.0404913  42.2466493   2.0201673  66.3274913  42.5426493
   4.5311673  51.1564913  45.1176493   4.6801673  50.3314913  44.8746493
   4.9101673  51.2114913  45.9016493   4.6091673  51.0424913  45.1976493
   6.0791673  53.2194913  35.1996493   6.5691673  53.9364913  35.1226493
   5.2891673  53.4804913  34.9366493   6.0351673  53.3634913  35.1496493
   7.3931673  61.0974913  47.1096493   7.8771673  61.8154913  47.2076493
   7.7871673  60.6704913  46.4586493   7.5231673  61.1404913  47.0276493
   2.6611673  54.6894913  40.9246493   3.1411673  55.3884913  41.1326493
   3.0341673  54.0424913  41.3756493   2.7871673  54.6974913  41.0216493
   4.8501673  57.8584913  33.1986493   4.8421673  58.5804913  32.7086493
   4.2111673  57.9934913  33.7756493   4.7551673  57.9854913  33.2116493
   9.8221673  61.7284913  37.1796493  10.1781673  61.3784913  37.8946493
   9.8141673  61.0674913  36.6096493   9.8741673  61.5784913  37.2006493
   5.8671673  64.7944913  41.0236493   5.2641673  64.4984913  40.4666493
   6.4121673  65.2464913  40.5146493   5.8581673  64.8174913  40.8656493
   5.8801673  61.6454913  40.4236493   5.0831673  61.8694913  40.6976493
   6.1381673  61.0514913  41.0086493   5.8001673  61.5904913  40.5506493
   2.0641673  65.9734913  33.2736493   2.6861673  66.1364913  33.8636493
   2.1001673  66.6644913  32.7416493   2.1611673  66.0994913  33.2826493
   9.1401673  59.6434913  45.2696493   9.1951673  59.7684913  44.4076493
   9.8931673  59.9634913  45.5716493   9.2591673  59.7084913  45.1866493
   5.3311673  64.9924913  49.5466493   5.4951673  65.2754913  50.3556493
   5.5941673  65.6534913  49.0416493   5.3941673  65.1324913  49.5916493
  10.1721673  49.9414913  48.2566493   9.5351673  49.5414913  47.8146493
  10.1981673  49.5104913  49.0146493  10.0821673  49.8194913  48.3026493
   4.8711673  59.4494913  44.8696493   4.7161673  60.0594913  45.4736493
   5.4051673  58.8914913  45.2756493   4.9271673  59.4574913  45.0186493
   3.2551673  57.8494913  35.5276493   3.3141673  58.4994913  36.1066493
   3.0661673  57.1534913  36.0186493   3.2361673  57.8424913  35.6856493
   8.4811673  62.1784913  41.3966493   8.0021673  62.4764913  40.7306493
   8.1251673  61.4024913  41.5746493   8.3581673  62.1074913  41.3246493
   2.4781673  59.8964913  39.9586493   1.6311673  59.7024913  40.0396493
   2.8021673  59.7314913  40.7516493   2.4001673  59.8434913  40.0876493
  12.1731673  66.3444913  33.3366493  12.8671673  65.8774913  33.0886493
  11.6341673  65.7464913  33.6736493  12.1961673  66.1864913  33.3496493
   9.4121673  59.1204913  42.5156493   9.4051673  58.3444913  42.9136493
   8.5711673  59.3544913  42.5086493   9.2871673  59.0404913  42.5736493
  10.6681673  59.1914913  39.9526493  10.3821673  59.5924913  40.6726493
  11.5281673  59.1294913  40.0796493  10.7531673  59.2414913  40.0776493
   8.3301673  53.1154913  48.4926493   7.8051673  53.5744913  49.0166493
   7.9691673  52.3204913  48.4866493   8.1991673  53.0654913  48.5686493
  11.7991673  64.8244913  40.4816493  12.0891673  65.0814913  39.7006493
  12.4941673  64.9204913  41.0006493  11.9451673  64.8764913  40.4426493
   6.8221673  56.6844913  48.5686493   6.8951673  56.7884913  49.4316493
   6.1881673  57.2424913  48.3476493   6.7391673  56.7824913  48.6636493
   9.0901673  57.0034913  46.9336493   9.4091673  57.7894913  47.1366493
   8.7201673  56.7334913  47.6766493   9.0831673  57.0794913  47.0736493
   8.4041673  63.4274913  32.4636493   8.7381673  62.6214913  32.4986493
   7.6491673  63.3554913  32.8936493   8.3421673  63.2974913  32.5326493
   8.8861673  55.2614913  38.1226493   8.1411673  54.9384913  38.4406493
   8.8881673  56.0874913  38.4026493   8.7761673  55.3354913  38.2106493
  11.7881673  57.5454913  49.6686493  11.7361673  57.2044913  48.8676493
  12.5251673  58.0124913  49.6466493  11.8891673  57.5644913  49.5466493
  11.3261673  61.2214913  45.8746493  11.9541673  60.6724913  45.6186493
  11.2651673  61.7864913  45.2126493  11.4101673  61.2244913  45.7386493
   5.7781673  61.3024913  31.8666493   6.4621673  60.7884913  31.6976493
   5.3611673  61.3484913  31.1016493   5.8171673  61.2334913  31.7286493
   7.7981673  51.5914913  45.5836493   8.5421673  52.0434913  45.5206493
   7.2321673  52.0614913  45.1146493   7.8251673  51.7284913  45.5056493
   2.9761673  58.8754913  42.6616493   3.4521673  59.2494913  43.2896493
   2.1531673  59.0094913  42.9206493   2.9251673  58.9504913  42.7926493
   2.2401673  66.2684913  37.8896493   2.7861673  66.9474913  37.9436493
   1.8901673  66.3504913  37.0946493   2.2691673  66.3814913  37.7796493
   9.0831673  49.5714913  43.2536493   8.8031673  50.3964913  43.2096493
   9.7991673  49.6244913  43.7496493   9.1481673  49.7014913  43.3206493
   4.7321673  61.1304913  48.2676493   5.4891673  61.4164913  47.9416493
   4.1851673  61.1824913  47.5896493   4.7631673  61.1804913  48.1186493
   8.6411673  63.6804913  46.7716493   8.9871673  63.9504913  47.5256493
   8.9351673  64.2624913  46.1916493   8.7361673  63.8064913  46.7976493
  10.5041673  55.8264913  32.1106493  10.8821673  56.5034913  31.7106493
   9.6621673  56.0504913  32.1416493  10.4351673  55.9594913  32.0556493
   5.9631673  54.4414913  46.9356493   5.3151673  54.9114913  47.2836493
   6.5281673  54.3524913  47.5946493   5.9511673  54.4974913  47.0846493
   5.6511673  55.9784913  43.2336493   5.9531673  56.3984913  43.9366493
   5.6871673  55.1384913  43.4656493   5.7011673  55.9164913  43.3716493
   3.0761673  66.1454913  47.1586493   3.5541673  65.5454913  46.7426493
   2.7251673  65.7024913  47.8236493   3.0951673  65.9914913  47.1956493
   8.1991673  55.4254913  35.4856493   8.4061673  55.2244913  36.3096493
   8.9551673  55.6934913  35.1436493   8.3411673  55.4354913  35.5566493
   9.2211673  51.5084913  36.9596493   8.5071673  51.0374913  37.1306493
   9.0591673  51.8494913  36.1736493   9.0921673  51.4894913  36.8686493
   9.6641673  59.4524913  35.3396493  10.1401673  58.7234913  35.2916493
   8.8431673  59.1664913  35.2636493   9.6131673  59.3024913  35.3206493
   3.1351673  61.3644913  46.1786493   2.3401673  61.3004913  46.5296493
   3.2061673  62.2114913  45.9836493   3.0281673  61.4794913  46.2016493
   5.8801673  60.6194913  37.6946493   5.9561673  60.9604913  38.4936493
   6.0491673  59.7724913  37.8156493   5.9161673  60.5444913  37.8306493
   3.4021673  59.8934913  37.2596493   3.1041673  59.5784913  38.0166493
   4.0971673  60.3664913  37.4946493   3.4611673  59.9164913  37.4066493
   3.6241673  64.0114913  45.2866493   4.3111673  63.8974913  45.8116493
   3.7581673  64.8024913  44.9426493   3.7451673  64.1114913  45.3136493
  11.8001673  56.6204913  47.0976493  10.9451673  56.4984913  47.2236493
  11.9531673  56.2254913  46.3346493  11.6961673  56.5434913  47.0036493
   6.3131673  57.2854913  45.6736493   6.0581673  56.5664913  46.0956493
   7.1341673  57.4014913  45.9436493   6.3971673  57.1964913  45.7756493
   4.2471673  58.4754913  48.8606493   4.5701673  59.1614913  48.4286493
   3.5431673  58.7984913  49.2626493   4.1901673  58.6244913  48.8556493
   7.3311673  66.8494913  39.7896493   6.8801673  67.4924913  40.1686493
   8.0391673  66.7704913  40.2946493   7.3691673  66.9324913  39.9206493
   4.0321673  61.9394913  42.7196493   3.3381673  62.3414913  43.0626493
   4.7091673  62.3724913  43.0586493   4.0291673  62.0624913  42.8206493
   9.4091673  64.5324913  49.2996493  10.1851673  64.1424913  49.3826493
   8.9401673  64.1964913  49.9546493   9.4541673  64.4254913  49.4086493
  10.4341673  56.5654913  34.7816493  10.5371673  56.5074913  33.9176493
  11.1751673  56.2334913  35.0996493  10.5591673  56.5084913  34.7006493
   4.3541673  63.5304913  35.8886493   4.1491673  64.3634913  35.7296493
   3.5791673  63.1484913  36.0106493   4.2091673  63.5974913  35.8836493
   9.5361673  56.7114913  44.1376493   9.5341673  55.8484913  44.2616493
   9.6031673  57.0354913  44.9446493   9.5461673  56.6314913  44.2746493
   5.4151673  51.5114913  47.9196493   5.5071673  52.2234913  48.4136493
   4.7781673  51.0664913  48.3166493   5.3341673  51.5504913  48.0516493
   4.4091673  51.7014913  38.7736493   3.7091673  52.2194913  38.7176493
   4.4471673  51.3214913  37.9896493   4.3111673  51.7224913  38.6496493
   8.0071673  52.2174913  41.5736493   8.8621673  52.3164913  41.7186493
   7.6381673  52.7704913  42.1386493   8.0791673  52.3144913  41.6786493
   8.3111673  57.4974913  40.0646493   8.9771673  58.0384913  40.2246493
   7.9661673  57.8084913  39.3256493   8.3581673  57.6234913  39.9796493
   8.6241673  65.5634913  35.8716493   8.4501673  64.9094913  36.4216493
   9.3371673  65.2924913  35.4486493   8.7041673  65.4264913  35.8906493
  11.4821673  50.0554913  44.7296493  11.4301673  50.0114913  45.5996493
  12.1691673  49.5524913  44.5396493  11.5761673  49.9754913  44.8296493
   3.5671673  52.1684913  41.7746493   2.8301673  51.7144913  41.8876493
   4.1381673  51.7664913  42.2976493   3.5421673  52.0414913  41.8686493
   6.2991673  63.0164913  43.5626493   6.5051673  63.3174913  44.3546493
   6.2381673  63.7384913  43.0776493   6.3201673  63.1674913  43.6076493
   5.8331673  67.2304913  47.8086493   5.0801673  67.2124913  47.3676493
   6.0011673  68.0824913  47.8926493   5.7471673  67.3534913  47.7556493
  11.1111673  61.6554913  43.0206493  11.0791673  60.7934913  42.8856493
  10.4181673  61.9574913  42.5866493  11.0041673  61.5724913  42.9366493
   9.2161673  64.9154913  41.8176493   9.7431673  64.8324913  41.1266493
   8.8251673  64.1374913  41.8716493   9.2361673  64.7884913  41.7236493
   5.7301673  50.3594913  41.0256493   6.4001673  50.9034913  41.1526493
   5.2271673  50.7834913  40.4526493   5.7551673  50.5024913  40.9596493
   5.0891673  56.1674913  38.5186493   5.6401673  55.5604913  38.8186493
   4.6641673  56.4304913  39.2336493   5.1081673  56.1164913  38.6676493
   7.0591673  57.9984913  35.0806493   7.1271673  57.1484913  35.2616493
   6.2361673  58.0844913  34.8026493   6.9471673  57.8854913  35.0666493
  10.1381673  66.9534913  31.4986493  10.7751673  66.8194913  32.0796493
   9.7971673  66.1594913  31.3816493  10.1821673  66.8164913  31.5666493
  10.3331673  59.3714913  48.2316493  10.9671673  59.2014913  48.8056493
  10.7501673  59.7744913  47.5796493  10.4881673  59.4064913  48.2206493
   6.2131673  63.2184913  33.8206493   5.9621673  63.0904913  34.6466493
   5.8961673  62.5234913  33.3996493   6.1291673  63.0974913  33.8806493
  10.9581673  53.9354913  48.9696493  10.7621673  54.5794913  49.5246493
  10.2361673  53.4454913  48.9616493  10.8231673  53.9584913  49.0506493
  10.8571673  54.8764913  41.9406493  10.0241673  55.1264913  41.8686493
  10.8011673  54.0364913  42.1696493  10.7261673  54.7894913  41.9636493
   7.7441673  59.4824913  49.5866493   8.6151673  59.4464913  49.5506493
   7.5251673  59.9024913  48.8546493   7.8411673  59.5384913  49.4736493
   3.0991673  61.4264913  33.2506493   3.8161673  61.0794913  32.8946493
   3.0651673  62.2264913  32.9026493   3.2001673  61.4934913  33.1466493
   4.5081673  50.0674913  17.4894083   4.2631673  50.5554913  16.8094083
   5.3711673  49.9944913  17.3894083   4.5991673  50.1284913  17.3744083
   4.3171673  56.9834913  22.1604083   3.7931673  57.5794913  22.5234083
   4.7141673  56.6154913  22.8444083   4.2981673  57.0174913  22.3154083
  10.4611673  64.4244913  15.1314083  11.1621673  63.9054913  15.1274083
   9.8741673  63.9794913  14.6624083  10.4781673  64.2814913  15.0614083
   6.9881673  58.0504913  18.8364083   7.0681673  58.0544913  17.9674083
   6.4041673  57.4184913  18.9854083   6.9131673  57.9574913  18.7304083
   1.7771673  62.4604913  20.7064083   2.1251673  61.6614913  20.7364083
   2.4421673  62.9644913  20.4514083   1.9271673  62.4164913  20.6734083
   1.8341673  61.9094913  16.9174083   2.1651673  61.2654913  17.4034083
   2.0741673  61.6984913  16.1064083   1.9181673  61.7834913  16.8694083
   3.8021673  56.0404913  28.2564083   2.9541673  55.9414913  28.0784083
   3.8311673  56.7854913  28.7104083   3.6811673  56.1364913  28.2974083
   8.3601673  49.0004913  27.3704083   8.2021673  49.7694913  26.9884083
   7.5881673  48.7804913  27.7144083   8.2221673  49.0814913  27.3654083
   5.8221673  53.6414913  11.8844083   5.3721673  54.3224913  12.1914083
   5.9361673  53.1374913  12.5874083   5.7731673  53.6674913  12.0334083
   5.9211673  65.9824913  13.9884083   6.6481673  66.4544913  14.0904083
   6.1501673  65.1884913  14.2684083   6.0631673  65.9354913  14.0454083
   4.0891673  66.3744913  15.9784083   4.3031673  66.9014913  16.6404083
   4.8561673  66.2004913  15.5994083   4.2341673  66.4264913  16.0204083
  11.2161673  53.6144913  18.1794083  10.8701673  54.2924913  18.6054083
  10.5801673  53.0164913  18.1954083  11.0711673  53.6264913  18.2444083
   6.5281673  66.3844913  24.2834083   7.2721673  66.8404913  24.2734083
   6.4071673  66.1704913  23.4464083   6.6201673  66.4204913  24.1584083
   2.7451673  50.3304913  29.0274083   2.9231673  49.5214913  28.7524083
   2.6021673  50.7714913  28.2884083   2.7501673  50.2764913  28.8774083
   3.3391673  55.2564913  17.8004083   3.6261673  55.0244913  17.0104083
   4.0711673  55.3354913  18.2694083   3.4891673  55.2334913  17.7534083
   4.0611673  55.5954913  12.9214083   4.3421673  56.3834913  13.1704083
   3.2851673  55.7604913  12.5584083   3.9881673  55.7364913  12.9044083
   8.1021673  67.5694913  14.3884083   8.7671673  67.4214913  13.8434083
   8.4621673  67.4864913  15.1784083   8.2541673  67.5354913  14.4244083
  10.8911673  51.9374913  23.5484083  11.6481673  52.0094913  23.1204083
  10.9541673  51.1644913  23.9474083  11.0121673  51.8344913  23.5434083
   5.7821673  63.5694913  27.9874083   5.7481673  63.9514913  28.7714083
   6.6361673  63.5274913  27.8164083   5.9031673  63.6194913  28.0784083
   2.9201673  63.7664913  12.7374083   2.7391673  64.3114913  13.3944083
   3.6861673  64.0564913  12.4364083   3.0061673  63.8904913  12.7904083
   6.4271673  51.6624913  13.7914083   6.9671673  50.9804913  13.8674083
   6.4891673  52.0604913  14.5654083   6.5161673  51.6204913  13.9174083
   3.6851673  54.0384913  15.1054083   3.1771673  53.3764913  14.8514083
   3.7371673  54.5424913  14.3954083   3.6181673  54.0154913  14.9634083
   4.2341673  66.7334913  25.4854083   5.0021673  66.6534913  25.0794083
   3.6511673  66.6124913  24.8474083   4.2611673  66.7034913  25.3314083
   3.6851673  50.9794913  14.9964083   3.2301673  50.5774913  14.3704083
   4.4581673  51.1344913  14.6214083   3.7321673  50.9434913  14.8484083
  10.5111673  67.3364913  18.3864083  10.0561673  68.0534913  18.5874083
   9.8971673  66.7654913  18.1444083  10.3531673  67.3584913  18.3804083
   2.2831673  53.3464913  19.5184083   2.3571673  53.9144913  18.8604083
   2.4041673  53.8384913  20.2284083   2.3111673  53.5034913  19.5264083
   7.5081673  63.1814913  17.9304083   8.2091673  62.6994913  18.1194083
   6.8481673  62.6124913  17.9754083   7.5141673  63.0264913  17.9644083
   6.0751673  53.5164913  25.4064083   5.9801673  53.8354913  26.2124083
   5.4821673  52.8774913  25.3684083   5.9731673  53.4684913  25.5204083
   6.7741673  60.2354913  23.6114083   6.2601673  59.8234913  24.1824083
   6.6481673  61.0794913  23.7924083   6.6801673  60.2994913  23.7224083
   7.3311673  49.4604913  18.2424083   7.3801673  49.1424913  19.0534083
   7.6541673  48.8164913  17.7494083   7.3861673  49.3184913  18.2894083
   9.7951673  53.6964913  26.5504083  10.5671673  53.4714913  26.8874083
   9.3201673  53.9134913  27.2504083   9.8391673  53.6954913  26.7034083
  10.0271673  60.6744913  13.7384083  10.1461673  60.3874913  14.5534083
  10.8341673  60.6954913  13.4084083  10.1631673  60.6354913  13.8104083
  12.2611673  65.1834913  27.9924083  11.5791673  65.4934913  27.5454083
  11.8921673  64.7254913  28.6374083  12.1051673  65.1614913  28.0214083
   7.9221673  57.2114913  13.3234083   7.7021673  57.9424913  12.9014083
   7.4741673  57.2624913  14.0704083   7.8231673  57.3264913  13.3714083
  12.1091673  52.0724913  12.7764083  11.4471673  51.5044913  12.7994083
  11.9161673  52.5844913  12.0964083  11.9831673  52.0644913  12.6794083
  12.4321673  56.4504913  25.3324083  12.6471673  55.6504913  25.0564083
  11.5821673  56.5104913  25.1434083  12.3381673  56.3414913  25.2634083
  10.1111673  51.6304913  15.0554083  10.8571673  51.2234913  15.2544083
  10.3741673  52.3454913  14.6304083  10.2601673  51.6764913  15.0224083
   4.0541673  64.1164913  19.6314083   3.5311673  64.7504913  19.3384083
   4.3641673  63.7524913  18.9024083   4.0221673  64.1564913  19.4804083
   6.5651673  53.9184913  20.1284083   6.9091673  54.0704913  20.9154083
   6.1121673  53.1804913  20.2414083   6.5491673  53.8314913  20.2614083
  10.0951673  65.5654913  26.0824083   9.4241673  66.0794913  26.3004083
  10.1581673  65.6654913  25.2184083  10.0051673  65.6564913  25.9874083
   7.8861673  55.2504913  22.6824083   7.2241673  55.5784913  23.1454083
   8.0731673  55.8844913  22.1134083   7.8161673  55.3924913  22.6664083
   2.0911673  66.3144913  23.6784083   1.8141673  65.6734913  23.1554083
   1.8831673  67.0404913  23.2404083   2.0201673  66.3274913  23.5364083
   4.5311673  51.1564913  26.1114083   4.6801673  50.3314913  25.8684083
   4.9101673  51.2114913  26.8954083   4.6091673  51.0424913  26.1914083
   6.0791673  53.2194913  16.1934083   6.5691673  53.9364913  16.1164083
   5.2891673  53.4804913  15.9304083   6.0351673  53.3634913  16.1434083
   7.3931673  61.0974913  28.1034083   7.8771673  61.8154913  28.2014083
   7.7871673  60.6704913  27.4524083   7.5231673  61.1404913  28.0214083
   2.6611673  54.6894913  21.9184083   3.1411673  55.3884913  22.1264083
   3.0341673  54.0424913  22.3694083   2.7871673  54.6974913  22.0154083
   4.8501673  57.8584913  14.1924083   4.8421673  58.5804913  13.7024083
   4.2111673  57.9934913  14.7694083   4.7551673  57.9854913  14.2054083
   9.8221673  61.7284913  18.1734083  10.1781673  61.3784913  18.8884083
   9.8141673  61.0674913  17.6034083   9.8741673  61.5784913  18.1944083
   5.8671673  64.7944913  22.0174083   5.2641673  64.4984913  21.4604083
   6.4121673  65.2464913  21.5084083   5.8581673  64.8174913  21.8594083
   5.8801673  61.6454913  21.4174083   5.0831673  61.8694913  21.6914083
   6.1381673  61.0514913  22.0024083   5.8001673  61.5904913  21.5444083
   2.0641673  65.9734913  14.2674083   2.6861673  66.1364913  14.8574083
   2.1001673  66.6644913  13.7354083   2.1611673  66.0994913  14.2764083
   9.1401673  59.6434913  26.2634083   9.1951673  59.7684913  25.4014083
   9.8931673  59.9634913  26.5654083   9.2591673  59.7084913  26.1804083
   5.3311673  64.9924913  30.5404083   5.4951673  65.2754913  31.3494083
   5.5941673  65.6534913  30.0354083   5.3941673  65.1324913  30.5854083
  10.1721673  49.9414913  29.2504083   9.5351673  49.5414913  28.8084083
  10.1981673  49.5104913  30.0084083  10.0821673  49.8194913  29.2964083
   4.8711673  59.4494913  25.8634083   4.7161673  60.0594913  26.4674083
   5.4051673  58.8914913  26.2694083   4.9271673  59.4574913  26.0124083
   3.2551673  57.8494913  16.5214083   3.3141673  58.4994913  17.1004083
   3.0661673  57.1534913  17.0124083   3.2361673  57.8424913  16.6794083
   8.4811673  62.1784913  22.3904083   8.0021673  62.4764913  21.7244083
   8.1251673  61.4024913  22.5684083   8.3581673  62.1074913  22.3184083
   2.4781673  59.8964913  20.9524083   1.6311673  59.7024913  21.0334083
   2.8021673  59.7314913  21.7454083   2.4001673  59.8434913  21.0814083
  12.1731673  66.3444913  14.3304083  12.8671673  65.8774913  14.0824083
  11.6341673  65.7464913  14.6674083  12.1961673  66.1864913  14.3434083
   9.4121673  59.1204913  23.5094083   9.4051673  58.3444913  23.9074083
   8.5711673  59.3544913  23.5024083   9.2871673  59.0404913  23.5674083
  10.6681673  59.1914913  20.9464083  10.3821673  59.5924913  21.6664083
  11.5281673  59.1294913  21.0734083  10.7531673  59.2414913  21.0714083
   8.3301673  53.1154913  29.4864083   7.8051673  53.5744913  30.0104083
   7.9691673  52.3204913  29.4804083   8.1991673  53.0654913  29.5624083
  11.7991673  64.8244913  21.4754083  12.0891673  65.0814913  20.6944083
  12.4941673  64.9204913  21.9944083  11.9451673  64.8764913  21.4364083
   6.8221673  56.6844913  29.5624083   6.8951673  56.7884913  30.4254083
   6.1881673  57.2424913  29.3414083   6.7391673  56.7824913  29.6574083
   9.0901673  57.0034913  27.9274083   9.4091673  57.7894913  28.1304083
   8.7201673  56.7334913  28.6704083   9.0831673  57.0794913  28.0674083
   8.4041673  63.4274913  13.4574083   8.7381673  62.6214913  13.4924083
   7.6491673  63.3554913  13.8874083   8.3421673  63.2974913  13.5264083
   8.8861673  55.2614913  19.1164083   8.1411673  54.9384913  19.4344083
   8.8881673  56.0874913  19.3964083   8.7761673  55.3354913  19.2044083
  11.7881673  57.5454913  30.6624083  11.7361673  57.2044913  29.8614083
  12.5251673  58.0124913  30.6404083  11.8891673  57.5644913  30.5404083
  11.3261673  61.2214913  26.8684083  11.9541673  60.6724913  26.6124083
  11.2651673  61.7864913  26.2064083  11.4101673  61.2244913  26.7324083
   5.7781673  61.3024913  12.8604083   6.4621673  60.7884913  12.6914083
   5.3611673  61.3484913  12.0954083   5.8171673  61.2334913  12.7224083
   7.7981673  51.5914913  26.5774083   8.5421673  52.0434913  26.5144083
   7.2321673  52.0614913  26.1084083   7.8251673  51.7284913  26.4994083
   2.9761673  58.8754913  23.6554083   3.4521673  59.2494913  24.2834083
   2.1531673  59.0094913  23.9144083   2.9251673  58.9504913  23.7864083
   2.2401673  66.2684913  18.8834083   2.7861673  66.9474913  18.9374083
   1.8901673  66.3504913  18.0884083   2.2691673  66.3814913  18.7734083
   9.0831673  49.5714913  24.2474083   8.8031673  50.3964913  24.2034083
   9.7991673  49.6244913  24.7434083   9.1481673  49.7014913  24.3144083
   4.7321673  61.1304913  29.2614083   5.4891673  61.4164913  28.9354083
   4.1851673  61.1824913  28.5834083   4.7631673  61.1804913  29.1124083
   8.6411673  63.6804913  27.7654083   8.9871673  63.9504913  28.5194083
   8.9351673  64.2624913  27.1854083   8.7361673  63.8064913  27.7914083
  10.5041673  55.8264913  13.1044083  10.8821673  56.5034913  12.7044083
   9.6621673  56.0504913  13.1354083  10.4351673  55.9594913  13.0494083
   5.9631673  54.4414913  27.9294083   5.3151673  54.9114913  28.2774083
   6.5281673  54.3524913  28.5884083   5.9511673  54.4974913  28.0784083
   5.6511673  55.9784913  24.2274083   5.9531673  56.3984913  24.9304083
   5.6871673  55.1384913  24.4594083   5.7011673  55.9164913  24.3654083
   3.0761673  66.1454913  28.1524083   3.5541673  65.5454913  27.7364083
   2.7251673  65.7024913  28.8174083   3.0951673  65.9914913  28.1894083
   8.1991673  55.4254913  16.4794083   8.4061673  55.2244913  17.3034083
   8.9551673  55.6934913  16.1374083   8.3411673  55.4354913  16.5504083
   9.2211673  51.5084913  17.9534083   8.5071673  51.0374913  18.1244083
   9.0591673  51.8494913  17.1674083   9.0921673  51.4894913  17.8624083
   9.6641673  59.4524913  16.3334083  10.1401673  58.7234913  16.2854083
   8.8431673  59.1664913  16.2574083   9.6131673  59.3024913  16.3144083
   3.1351673  61.3644913  27.1724083   2.3401673  61.3004913  27.5234083
   3.2061673  62.2114913  26.9774083   3.0281673  61.4794913  27.1954083
   5.8801673  60.6194913  18.6884083   5.9561673  60.9604913  19.4874083
   6.0491673  59.7724913  18.8094083   5.9161673  60.5444913  18.8244083
   3.4021673  59.8934913  18.2534083   3.1041673  59.5784913  19.0104083
   4.0971673  60.3664913  18.4884083   3.4611673  59.9164913  18.4004083
   3.6241673  64.0114913  26.2804083   4.3111673  63.8974913  26.8054083
   3.7581673  64.8024913  25.9364083   3.7451673  64.1114913  26.3074083
  11.8001673  56.6204913  28.0914083  10.9451673  56.4984913  28.2174083
  11.9531673  56.2254913  27.3284083  11.6961673  56.5434913  27.9974083
   6.3131673  57.2854913  26.6674083   6.0581673  56.5664913  27.0894083
   7.1341673  57.4014913  26.9374083   6.3971673  57.1964913  26.7694083
   4.2471673  58.4754913  29.8544083   4.5701673  59.1614913  29.4224083
   3.5431673  58.7984913  30.2564083   4.1901673  58.6244913  29.8494083
   7.3311673  66.8494913  20.7834083   6.8801673  67.4924913  21.1624083
   8.0391673  66.7704913  21.2884083   7.3691673  66.9324913  20.9144083
   4.0321673  61.9394913  23.7134083   3.3381673  62.3414913  24.0564083
   4.7091673  62.3724913  24.0524083   4.0291673  62.0624913  23.8144083
   9.4091673  64.5324913  30.2934083  10.1851673  64.1424913  30.3764083
   8.9401673  64.1964913  30.9484083   9.4541673  64.4254913  30.4024083
  10.4341673  56.5654913  15.7754083  10.5371673  56.5074913  14.9114083
  11.1751673  56.2334913  16.0934083  10.5591673  56.5084913  15.6944083
   4.3541673  63.5304913  16.8824083   4.1491673  64.3634913  16.7234083
   3.5791673  63.1484913  17.0044083   4.2091673  63.5974913  16.8774083
   9.5361673  56.7114913  25.1314083   9.5341673  55.8484913  25.2554083
   9.6031673  57.0354913  25.9384083   9.5461673  56.6314913  25.2684083
   5.4151673  51.5114913  28.9134083   5.5071673  52.2234913  29.4074083
   4.7781673  51.0664913  29.3104083   5.3341673  51.5504913  29.0454083
   4.4091673  51.7014913  19.7674083   3.7091673  52.2194913  19.7114083
   4.4471673  51.3214913  18.9834083   4.3111673  51.7224913  19.6434083
   8.0071673  52.2174913  22.5674083   8.8621673  52.3164913  22.7124083
   7.6381673  52.7704913  23.1324083   8.0791673  52.3144913  22.6724083
   8.3111673  57.4974913  21.0584083   8.9771673  58.0384913  21.2184083
   7.9661673  57.8084913  20.3194083   8.3581673  57.6234913  20.9734083
   8.6241673  65.5634913  16.8654083   8.4501673  64.9094913  17.4154083
   9.3371673  65.2924913  16.4424083   8.7041673  65.4264913  16.8844083
  11.4821673  50.0554913  25.7234083  11.4301673  50.0114913  26.5934083
  12.1691673  49.5524913  25.5334083  11.5761673  49.9754913  25.8234083
   3.5671673  52.1684913  22.7684083   2.8301673  51.7144913  22.8814083
   4.1381673  51.7664913  23.2914083   3.5421673  52.0414913  22.8624083
   6.2991673  63.0164913  24.5564083   6.5051673  63.3174913  25.3484083
   6.2381673  63.7384913  24.0714083   6.3201673  63.1674913  24.6014083
   5.8331673  67.2304913  28.8024083   5.0801673  67.2124913  28.3614083
   6.0011673  68.0824913  28.8864083   5.7471673  67.3534913  28.7494083
  11.1111673  61.6554913  24.0144083  11.0791673  60.7934913  23.8794083
  10.4181673  61.9574913  23.5804083  11.0041673  61.5724913  23.9304083
   9.2161673  64.9154913  22.8114083   9.7431673  64.8324913  22.1204083
   8.8251673  64.1374913  22.8654083   9.2361673  64.7884913  22.7174083
   5.7301673  50.3594913  22.0194083   6.4001673  50.9034913  22.1464083
   5.2271673  50.7834913  21.4464083   5.7551673  50.5024913  21.9534083
   5.0891673  56.1674913  19.5124083   5.6401673  55.5604913  19.8124083
   4.6641673  56.4304913  20.2274083   5.1081673  56.1164913  19.6614083
   7.0591673  57.9984913  16.0744083   7.1271673  57.1484913  16.2554083
   6.2361673  58.0844913  15.7964083   6.9471673  57.8854913  16.0604083
  10.1381673  66.9534913  12.4924083  10.7751673  66.8194913  13.0734083
   9.7971673  66.1594913  12.3754083  10.1821673  66.8164913  12.5604083
  10.3331673  59.3714913  29.2254083  10.9671673  59.2014913  29.7994083
  10.7501673  59.7744913  28.5734083  10.4881673  59.4064913  29.2144083
   6.2131673  63.2184913  14.8144083   5.9621673  63.0904913  15.6404083
   5.8961673  62.5234913  14.3934083   6.1291673  63.0974913  14.8744083
  10.9581673  53.9354913  29.9634083  10.7621673  54.5794913  30.5184083
  10.2361673  53.4454913  29.9554083  10.8231673  53.9584913  30.0444083
  10.8571673  54.8764913  22.9344083  10.0241673  55.1264913  22.8624083
  10.8011673  54.0364913  23.1634083  10.7261673  54.7894913  22.9574083
   7.7441673  59.4824913  30.5804083   8.6151673  59.4464913  30.5444083
   7.5251673  59.9024913  29.8484083   7.8411673  59.5384913  30.4674083
   3.0991673  61.4264913  14.2444083   3.8161673  61.0794913  13.8884083
   3.0651673  62.2264913  13.8964083   3.2001673  61.4934913  14.1404083
   4.3171673  56.9834913   3.1541673   3.7931673  57.5794913   3.5171673
   4.7141673  56.6154913   3.8381673   4.2981673  57.0174913   3.3091673
   3.8021673  56.0404913   9.2501673   2.9541673  55.9414913   9.0721673
   3.8311673  56.7854913   9.7041673   3.6811673  56.1364913   9.2911673
   8.3601673  49.0004913   8.3641673   8.2021673  49.7694913   7.9821673
   7.5881673  48.7804913   8.7081673   8.2221673  49.0814913   8.3591673
   6.5281673  66.3844913   5.2771673   7.2721673  66.8404913   5.2671673
   6.4071673  66.1704913   4.4401673   6.6201673  66.4204913   5.1521673
   2.7451673  50.3304913  10.0211673   2.9231673  49.5214913   9.7461673
   2.6021673  50.7714913   9.2821673   2.7501673  50.2764913   9.8711673
  10.8911673  51.9374913   4.5421673  11.6481673  52.0094913   4.1141673
  10.9541673  51.1644913   4.9411673  11.0121673  51.8344913   4.5371673
   5.7821673  63.5694913   8.9811673   5.7481673  63.9514913   9.7651673
   6.6361673  63.5274913   8.8101673   5.9031673  63.6194913   9.0721673
   4.2341673  66.7334913   6.4791673   5.0021673  66.6534913   6.0731673
   3.6511673  66.6124913   5.8411673   4.2611673  66.7034913   6.3251673
   6.0751673  53.5164913   6.4001673   5.9801673  53.8354913   7.2061673
   5.4821673  52.8774913   6.3621673   5.9731673  53.4684913   6.5141673
   6.7741673  60.2354913   4.6051673   6.2601673  59.8234913   5.1761673
   6.6481673  61.0794913   4.7861673   6.6801673  60.2994913   4.7161673
   9.7951673  53.6964913   7.5441673  10.5671673  53.4714913   7.8811673
   9.3201673  53.9134913   8.2441673   9.8391673  53.6954913   7.6971673
  12.2611673  65.1834913   8.9861673  11.5791673  65.4934913   8.5391673
  11.8921673  64.7254913   9.6311673  12.1051673  65.1614913   9.0151673
  12.4321673  56.4504913   6.3261673  12.6471673  55.6504913   6.0501673
  11.5821673  56.5104913   6.1371673  12.3381673  56.3414913   6.2571673
  10.0951673  65.5654913   7.0761673   9.4241673  66.0794913   7.2941673
  10.1581673  65.6654913   6.2121673  10.0051673  65.6564913   6.9811673
   7.8861673  55.2504913   3.6761673   7.2241673  55.5784913   4.1391673
   8.0731673  55.8844913   3.1071673   7.8161673  55.3924913   3.6601673
   2.0911673  66.3144913   4.6721673   1.8141673  65.6734913   4.1491673
   1.8831673  67.0404913   4.2341673   2.0201673  66.3274913   4.5301673
   4.5311673  51.1564913   7.1051673   4.6801673  50.3314913   6.8621673
   4.9101673  51.2114913   7.8891673   4.6091673  51.0424913   7.1851673
   7.3931673  61.0974913   9.0971673   7.8771673  61.8154913   9.1951673
   7.7871673  60.6704913   8.4461673   7.5231673  61.1404913   9.0151673
   2.6611673  54.6894913   2.9121673   3.1411673  55.3884913   3.1201673
   3.0341673  54.0424913   3.3631673   2.7871673  54.6974913   3.0091673
   5.8671673  64.7944913   3.0111673   5.2641673  64.4984913   2.4541673
   6.4121673  65.2464913   2.5021673   5.8581673  64.8174913   2.8531673
   5.8801673  61.6454913   2.4111673   5.0831673  61.8694913   2.6851673
   6.1381673  61.0514913   2.9961673   5.8001673  61.5904913   2.5381673
   9.1401673  59.6434913   7.2571673   9.1951673  59.7684913   6.3951673
   9.8931673  59.9634913   7.5591673   9.2591673  59.7084913   7.1741673
   5.3311673  64.9924913  11.5341673   5.4951673  65.2754913  12.3431673
   5.5941673  65.6534913  11.0291673   5.3941673  65.1324913  11.5791673
  10.1721673  49.9414913  10.2441673   9.5351673  49.5414913   9.8021673
  10.1981673  49.5104913  11.0021673  10.0821673  49.8194913  10.2901673
   4.8711673  59.4494913   6.8571673   4.7161673  60.0594913   7.4611673
   5.4051673  58.8914913   7.2631673   4.9271673  59.4574913   7.0061673
   8.4811673  62.1784913   3.3841673   8.0021673  62.4764913   2.7181673
   8.1251673  61.4024913   3.5621673   8.3581673  62.1074913   3.3121673
   2.4781673  59.8964913   1.9461673   1.6311673  59.7024913   2.0271673
   2.8021673  59.7314913   2.7391673   2.4001673  59.8434913   2.0751673
   9.4121673  59.1204913   4.5031673   9.4051673  58.3444913   4.9011673
   8.5711673  59.3544913   4.4961673   9.2871673  59.0404913   4.5611673
  10.6681673  59.1914913   1.9401673  10.3821673  59.5924913   2.6601673
  11.5281673  59.1294913   2.0671673  10.7531673  59.2414913   2.0651673
   8.3301673  53.1154913  10.4801673   7.8051673  53.5744913  11.0041673
   7.9691673  52.3204913  10.4741673   8.1991673  53.0654913  10.5561673
  11.7991673  64.8244913   2.4691673  12.0891673  65.0814913   1.6881673
  12.4941673  64.9204913   2.9881673  11.9451673  64.8764913   2.4301673
   6.8221673  56.6844913  10.5561673   6.8951673  56.7884913  11.4191673
   6.1881673  57.2424913  10.3351673   6.7391673  56.7824913  10.6511673
   9.0901673  57.0034913   8.9211673   9.4091673  57.7894913   9.1241673
   8.7201673  56.7334913   9.6641673   9.0831673  57.0794913   9.0611673
  11.7881673  57.5454913  11.6561673  11.7361673  57.2044913  10.8551673
  12.5251673  58.0124913  11.6341673  11.8891673  57.5644913  11.5341673
  11.3261673  61.2214913   7.8621673  11.9541673  60.6724913   7.6061673
  11.2651673  61.7864913   7.2001673  11.4101673  61.2244913   7.7261673
   7.7981673  51.5914913   7.5711673   8.5421673  52.0434913   7.5081673
   7.2321673  52.0614913   7.1021673   7.8251673  51.7284913   7.4931673
   2.9761673  58.8754913   4.6491673   3.4521673  59.2494913   5.2771673
   2.1531673  59.0094913   4.9081673   2.9251673  58.9504913   4.7801673
   9.0831673  49.5714913   5.2411673   8.8031673  50.3964913   5.1971673
   9.7991673  49.6244913   5.7371673   9.1481673  49.7014913   5.3081673
   4.7321673  61.1304913  10.2551673   5.4891673  61.4164913   9.9291673
   4.1851673  61.1824913   9.5771673   4.7631673  61.1804913  10.1061673
   8.6411673  63.6804913   8.7591673   8.9871673  63.9504913   9.5131673
   8.9351673  64.2624913   8.1791673   8.7361673  63.8064913   8.7851673
   5.9631673  54.4414913   8.9231673   5.3151673  54.9114913   9.2711673
   6.5281673  54.3524913   9.5821673   5.9511673  54.4974913   9.0721673
   5.6511673  55.9784913   5.2211673   5.9531673  56.3984913   5.9241673
   5.6871673  55.1384913   5.4531673   5.7011673  55.9164913   5.3591673
   3.0761673  66.1454913   9.1461673   3.5541673  65.5454913   8.7301673
   2.7251673  65.7024913   9.8111673   3.0951673  65.9914913   9.1831673
   3.1351673  61.3644913   8.1661673   2.3401673  61.3004913   8.5171673
   3.2061673  62.2114913   7.9711673   3.0281673  61.4794913   8.1891673
   3.6241673  64.0114913   7.2741673   4.3111673  63.8974913   7.7991673
   3.7581673  64.8024913   6.9301673   3.7451673  64.1114913   7.3011673
  11.8001673  56.6204913   9.0851673  10.9451673  56.4984913   9.2111673
  11.9531673  56.2254913   8.3221673  11.6961673  56.5434913   8.9911673
   6.3131673  57.2854913   7.6611673   6.0581673  56.5664913   8.0831673
   7.1341673  57.4014913   7.9311673   6.3971673  57.1964913   7.7631673
   4.2471673  58.4754913  10.8481673   4.5701673  59.1614913  10.4161673
   3.5431673  58.7984913  11.2501673   4.1901673  58.6244913  10.8431673
   7.3311673  66.8494913   1.7771673   6.8801673  67.4924913   2.1561673
   8.0391673  66.7704913   2.2821673   7.3691673  66.9324913   1.9081673
   4.0321673  61.9394913   4.7071673   3.3381673  62.3414913   5.0501673
   4.7091673  62.3724913   5.0461673   4.0291673  62.0624913   4.8081673
   9.4091673  64.5324913  11.2871673  10.1851673  64.1424913  11.3701673
   8.9401673  64.1964913  11.9421673   9.4541673  64.4254913  11.3961673
   9.5361673  56.7114913   6.1251673   9.5341673  55.8484913   6.2491673
   9.6031673  57.0354913   6.9321673   9.5461673  56.6314913   6.2621673
   5.4151673  51.5114913   9.9071673   5.5071673  52.2234913  10.4011673
   4.7781673  51.0664913  10.3041673   5.3341673  51.5504913  10.0391673
   8.0071673  52.2174913   3.5611673   8.8621673  52.3164913   3.7061673
   7.6381673  52.7704913   4.1261673   8.0791673  52.3144913   3.6661673
  11.4821673  50.0554913   6.7171673  11.4301673  50.0114913   7.5871673
  12.1691673  49.5524913   6.5271673  11.5761673  49.9754913   6.8171673
   3.5671673  52.1684913   3.7621673   2.8301673  51.7144913   3.8751673
   4.1381673  51.7664913   4.2851673   3.5421673  52.0414913   3.8561673
   6.2991673  63.0164913   5.5501673   6.5051673  63.3174913   6.3421673
   6.2381673  63.7384913   5.0651673   6.3201673  63.1674913   5.5951673
   5.8331673  67.2304913   9.7961673   5.0801673  67.2124913   9.3551673
   6.0011673  68.0824913   9.8801673   5.7471673  67.3534913   9.7431673
  11.1111673  61.6554913   5.0081673  11.0791673  60.7934913   4.8731673
  10.4181673  61.9574913   4.5741673  11.0041673  61.5724913   4.9241673
   9.2161673  64.9154913   3.8051673   9.7431673  64.8324913   3.1141673
   8.8251673  64.1374913   3.8591673   9.2361673  64.7884913   3.7111673
   5.7301673  50.3594913   3.0131673   6.4001673  50.9034913   3.1401673
   5.2271673  50.7834913   2.4401673   5.7551673  50.5024913   2.9471673
  10.3331673  59.3714913  10.2191673  10.9671673  59.2014913  10.7931673
  10.7501673  59.7744913   9.5671673  10.4881673  59.4064913  10.2081673
  10.9581673  53.9354913  10.9571673  10.7621673  54.5794913  11.5121673
  10.2361673  53.4454913  10.9491673  10.8231673  53.9584913  11.0381673
  10.8571673  54.8764913   3.9281673  10.0241673  55.1264913   3.8561673
  10.8011673  54.0364913   4.1571673  10.7261673  54.7894913   3.9511673
   7.7441673  59.4824913  11.5741673   8.6151673  59.4464913  11.5381673
   7.5251673  59.9024913  10.8421673   7.8411673  59.5384913  11.4611673
   4.5081673  31.5893833  74.5081313   4.2631673  32.0773833  73.8281313
   5.3711673  31.5163833  74.4081313   4.5991673  31.6503833  74.3931313
  10.4611673  45.9463833  72.1501313  11.1621673  45.4273833  72.1461313
   9.8741673  45.5013833  71.6811313  10.4781673  45.8033833  72.0801313
   6.9881673  39.5723833  75.8551313   7.0681673  39.5763833  74.9861313
   6.4041673  38.9403833  76.0041313   6.9131673  39.4793833  75.7491313
   1.7771673  43.9823833  77.7251313   2.1251673  43.1833833  77.7551313
   2.4421673  44.4863833  77.4701313   1.9271673  43.9383833  77.6921313
   1.8341673  43.4313833  73.9361313   2.1651673  42.7873833  74.4221313
   2.0741673  43.2203833  73.1251313   1.9181673  43.3053833  73.8881313
   5.8221673  35.1633833  68.9031313   5.3721673  35.8443833  69.2101313
   5.9361673  34.6593833  69.6061313   5.7731673  35.1893833  69.0521313
   5.9211673  47.5043833  71.0071313   6.6481673  47.9763833  71.1091313
   6.1501673  46.7103833  71.2871313   6.0631673  47.4573833  71.0641313
   4.0891673  47.8963833  72.9971313   4.3031673  48.4233833  73.6591313
   4.8561673  47.7223833  72.6181313   4.2341673  47.9483833  73.0391313
  11.2161673  35.1363833  75.1981313  10.8701673  35.8143833  75.6241313
  10.5801673  34.5383833  75.2141313  11.0711673  35.1483833  75.2631313
   3.3391673  36.7783833  74.8191313   3.6261673  36.5463833  74.0291313
   4.0711673  36.8573833  75.2881313   3.4891673  36.7553833  74.7721313
   4.0611673  37.1173833  69.9401313   4.3421673  37.9053833  70.1891313
   3.2851673  37.2823833  69.5771313   3.9881673  37.2583833  69.9231313
   8.1021673  49.0913833  71.4071313   8.7671673  48.9433833  70.8621313
   8.4621673  49.0083833  72.1971313   8.2541673  49.0573833  71.4431313
   2.9201673  45.2883833  69.7561313   2.7391673  45.8333833  70.4131313
   3.6861673  45.5783833  69.4551313   3.0061673  45.4123833  69.8091313
   6.4271673  33.1843833  70.8101313   6.9671673  32.5023833  70.8861313
   6.4891673  33.5823833  71.5841313   6.5161673  33.1423833  70.9361313
   3.6851673  35.5603833  72.1241313   3.1771673  34.8983833  71.8701313
   3.7371673  36.0643833  71.4141313   3.6181673  35.5373833  71.9821313
   3.6851673  32.5013833  72.0151313   3.2301673  32.0993833  71.3891313
   4.4581673  32.6563833  71.6401313   3.7321673  32.4653833  71.8671313
  10.5111673  48.8583833  75.4051313  10.0561673  49.5753833  75.6061313
   9.8971673  48.2873833  75.1631313  10.3531673  48.8803833  75.3991313
   2.2831673  34.8683833  76.5371313   2.3571673  35.4363833  75.8791313
   2.4041673  35.3603833  77.2471313   2.3111673  35.0253833  76.5451313
   7.5081673  44.7033833  74.9491313   8.2091673  44.2213833  75.1381313
   6.8481673  44.1343833  74.9941313   7.5141673  44.5483833  74.9831313
   7.3311673  30.9823833  75.2611313   7.3801673  30.6643833  76.0721313
   7.6541673  30.3383833  74.7681313   7.3861673  30.8403833  75.3081313
  10.0271673  42.1963833  70.7571313  10.1461673  41.9093833  71.5721313
  10.8341673  42.2173833  70.4271313  10.1631673  42.1573833  70.8291313
   7.9221673  38.7333833  70.3421313   7.7021673  39.4643833  69.9201313
   7.4741673  38.7843833  71.0891313   7.8231673  38.8483833  70.3901313
  12.1091673  33.5943833  69.7951313  11.4471673  33.0263833  69.8181313
  11.9161673  34.1063833  69.1151313  11.9831673  33.5863833  69.6981313
  10.1111673  33.1523833  72.0741313  10.8571673  32.7453833  72.2731313
  10.3741673  33.8673833  71.6491313  10.2601673  33.1983833  72.0411313
   4.0541673  45.6383833  76.6501313   3.5311673  46.2723833  76.3571313
   4.3641673  45.2743833  75.9211313   4.0221673  45.6783833  76.4991313
   6.5651673  35.4403833  77.1471313   6.9091673  35.5923833  77.9341313
   6.1121673  34.7023833  77.2601313   6.5491673  35.3533833  77.2801313
   6.0791673  34.7413833  73.2121313   6.5691673  35.4583833  73.1351313
   5.2891673  35.0023833  72.9491313   6.0351673  34.8853833  73.1621313
   4.8501673  39.3803833  71.2111313   4.8421673  40.1023833  70.7211313
   4.2111673  39.5153833  71.7881313   4.7551673  39.5073833  71.2241313
   9.8221673  43.2503833  75.1921313  10.1781673  42.9003833  75.9071313
   9.8141673  42.5893833  74.6221313   9.8741673  43.1003833  75.2131313
   5.8801673  43.1673833  78.4361313   5.0831673  43.3913833  78.7101313
   6.1381673  42.5733833  79.0211313   5.8001673  43.1123833  78.5631313
   2.0641673  47.4953833  71.2861313   2.6861673  47.6583833  71.8761313
   2.1001673  48.1863833  70.7541313   2.1611673  47.6213833  71.2951313
   3.2551673  39.3713833  73.5401313   3.3141673  40.0213833  74.1191313
   3.0661673  38.6753833  74.0311313   3.2361673  39.3643833  73.6981313
   2.4781673  41.4183833  77.9711313   1.6311673  41.2243833  78.0521313
   2.8021673  41.2533833  78.7641313   2.4001673  41.3653833  78.1001313
  12.1731673  47.8663833  71.3491313  12.8671673  47.3993833  71.1011313
  11.6341673  47.2683833  71.6861313  12.1961673  47.7083833  71.3621313
  10.6681673  40.7133833  77.9651313  10.3821673  41.1143833  78.6851313
  11.5281673  40.6513833  78.0921313  10.7531673  40.7633833  78.0901313
  11.7991673  46.3463833  78.4941313  12.0891673  46.6033833  77.7131313
  12.4941673  46.4423833  79.0131313  11.9451673  46.3983833  78.4551313
   8.4041673  44.9493833  70.4761313   8.7381673  44.1433833  70.5111313
   7.6491673  44.8773833  70.9061313   8.3421673  44.8193833  70.5451313
   8.8861673  36.7833833  76.1351313   8.1411673  36.4603833  76.4531313
   8.8881673  37.6093833  76.4151313   8.7761673  36.8573833  76.2231313
   5.7781673  42.8243833  69.8791313   6.4621673  42.3103833  69.7101313
   5.3611673  42.8703833  69.1141313   5.8171673  42.7553833  69.7411313
   2.2401673  47.7903833  75.9021313   2.7861673  48.4693833  75.9561313
   1.8901673  47.8723833  75.1071313   2.2691673  47.9033833  75.7921313
  10.5041673  37.3483833  70.1231313  10.8821673  38.0253833  69.7231313
   9.6621673  37.5723833  70.1541313  10.4351673  37.4813833  70.0681313
   8.1991673  36.9473833  73.4981313   8.4061673  36.7463833  74.3221313
   8.9551673  37.2153833  73.1561313   8.3411673  36.9573833  73.5691313
   9.2211673  33.0303833  74.9721313   8.5071673  32.5593833  75.1431313
   9.0591673  33.3713833  74.1861313   9.0921673  33.0113833  74.8811313
   9.6641673  40.9743833  73.3521313  10.1401673  40.2453833  73.3041313
   8.8431673  40.6883833  73.2761313   9.6131673  40.8243833  73.3331313
   5.8801673  42.1413833  75.7071313   5.9561673  42.4823833  76.5061313
   6.0491673  41.2943833  75.8281313   5.9161673  42.0663833  75.8431313
   3.4021673  41.4153833  75.2721313   3.1041673  41.1003833  76.0291313
   4.0971673  41.8883833  75.5071313   3.4611673  41.4383833  75.4191313
   7.3311673  48.3713833  77.8021313   6.8801673  49.0143833  78.1811313
   8.0391673  48.2923833  78.3071313   7.3691673  48.4543833  77.9331313
  10.4341673  38.0873833  72.7941313  10.5371673  38.0293833  71.9301313
  11.1751673  37.7553833  73.1121313  10.5591673  38.0303833  72.7131313
   4.3541673  45.0523833  73.9011313   4.1491673  45.8853833  73.7421313
   3.5791673  44.6703833  74.0231313   4.2091673  45.1193833  73.8961313
   4.4091673  33.2233833  76.7861313   3.7091673  33.7413833  76.7301313
   4.4471673  32.8433833  76.0021313   4.3111673  33.2443833  76.6621313
   8.3111673  39.0193833  78.0771313   8.9771673  39.5603833  78.2371313
   7.9661673  39.3303833  77.3381313   8.3581673  39.1453833  77.9921313
   8.6241673  47.0853833  73.8841313   8.4501673  46.4313833  74.4341313
   9.3371673  46.8143833  73.4611313   8.7041673  46.9483833  73.9031313
   5.0891673  37.6893833  76.5311313   5.6401673  37.0823833  76.8311313
   4.6641673  37.9523833  77.2461313   5.1081673  37.6383833  76.6801313
   7.0591673  39.5203833  73.0931313   7.1271673  38.6703833  73.2741313
   6.2361673  39.6063833  72.8151313   6.9471673  39.4073833  73.0791313
  10.1381673  48.4753833  69.5111313  10.7751673  48.3413833  70.0921313
   9.7971673  47.6813833  69.3941313  10.1821673  48.3383833  69.5791313
   6.2131673  44.7403833  71.8331313   5.9621673  44.6123833  72.6591313
   5.8961673  44.0453833  71.4121313   6.1291673  44.6193833  71.8931313
   3.0991673  42.9483833  71.2631313   3.8161673  42.6013833  70.9071313
   3.0651673  43.7483833  70.9151313   3.2001673  43.0153833  71.1591313
   4.5081673  31.5893833  55.5018903   4.2631673  32.0773833  54.8218903
   5.3711673  31.5163833  55.4018903   4.5991673  31.6503833  55.3868903
   4.3171673  38.5053833  60.1728903   3.7931673  39.1013833  60.5358903
   4.7141673  38.1373833  60.8568903   4.2981673  38.5393833  60.3278903
  10.4611673  45.9463833  53.1438903  11.1621673  45.4273833  53.1398903
   9.8741673  45.5013833  52.6748903  10.4781673  45.8033833  53.0738903
   6.9881673  39.5723833  56.8488903   7.0681673  39.5763833  55.9798903
   6.4041673  38.9403833  56.9978903   6.9131673  39.4793833  56.7428903
   1.7771673  43.9823833  58.7188903   2.1251673  43.1833833  58.7488903
   2.4421673  44.4863833  58.4638903   1.9271673  43.9383833  58.6858903
   1.8341673  43.4313833  54.9298903   2.1651673  42.7873833  55.4158903
   2.0741673  43.2203833  54.1188903   1.9181673  43.3053833  54.8818903
   3.8021673  37.5623833  66.2688903   2.9541673  37.4633833  66.0908903
   3.8311673  38.3073833  66.7228903   3.6811673  37.6583833  66.3098903
   8.3601673  30.5223833  65.3828903   8.2021673  31.2913833  65.0008903
   7.5881673  30.3023833  65.7268903   8.2221673  30.6033833  65.3778903
   5.8221673  35.1633833  49.8968903   5.3721673  35.8443833  50.2038903
   5.9361673  34.6593833  50.5998903   5.7731673  35.1893833  50.0458903
   5.9211673  47.5043833  52.0008903   6.6481673  47.9763833  52.1028903
   6.1501673  46.7103833  52.2808903   6.0631673  47.4573833  52.0578903
   4.0891673  47.8963833  53.9908903   4.3031673  48.4233833  54.6528903
   4.8561673  47.7223833  53.6118903   4.2341673  47.9483833  54.0328903
  11.2161673  35.1363833  56.1918903  10.8701673  35.8143833  56.6178903
  10.5801673  34.5383833  56.2078903  11.0711673  35.1483833  56.2568903
   6.5281673  47.9063833  62.2958903   7.2721673  48.3623833  62.2858903
   6.4071673  47.6923833  61.4588903   6.6201673  47.9423833  62.1708903
   2.7451673  31.8523833  67.0398903   2.9231673  31.0433833  66.7648903
   2.6021673  32.2933833  66.3008903   2.7501673  31.7983833  66.8898903
   3.3391673  36.7783833  55.8128903   3.6261673  36.5463833  55.0228903
   4.0711673  36.8573833  56.2818903   3.4891673  36.7553833  55.7658903
   4.0611673  37.1173833  50.9338903   4.3421673  37.9053833  51.1828903
   3.2851673  37.2823833  50.5708903   3.9881673  37.2583833  50.9168903
   8.1021673  49.0913833  52.4008903   8.7671673  48.9433833  51.8558903
   8.4621673  49.0083833  53.1908903   8.2541673  49.0573833  52.4368903
  10.8911673  33.4593833  61.5608903  11.6481673  33.5313833  61.1328903
  10.9541673  32.6863833  61.9598903  11.0121673  33.3563833  61.5558903
   5.7821673  45.0913833  65.9998903   5.7481673  45.4733833  66.7838903
   6.6361673  45.0493833  65.8288903   5.9031673  45.1413833  66.0908903
   2.9201673  45.2883833  50.7498903   2.7391673  45.8333833  51.4068903
   3.6861673  45.5783833  50.4488903   3.0061673  45.4123833  50.8028903
   6.4271673  33.1843833  51.8038903   6.9671673  32.5023833  51.8798903
   6.4891673  33.5823833  52.5778903   6.5161673  33.1423833  51.9298903
   3.6851673  35.5603833  53.1178903   3.1771673  34.8983833  52.8638903
   3.7371673  36.0643833  52.4078903   3.6181673  35.5373833  52.9758903
   4.2341673  48.2553833  63.4978903   5.0021673  48.1753833  63.0918903
   3.6511673  48.1343833  62.8598903   4.2611673  48.2253833  63.3438903
   3.6851673  32.5013833  53.0088903   3.2301673  32.0993833  52.3828903
   4.4581673  32.6563833  52.6338903   3.7321673  32.4653833  52.8608903
  10.5111673  48.8583833  56.3988903  10.0561673  49.5753833  56.5998903
   9.8971673  48.2873833  56.1568903  10.3531673  48.8803833  56.3928903
   2.2831673  34.8683833  57.5308903   2.3571673  35.4363833  56.8728903
   2.4041673  35.3603833  58.2408903   2.3111673  35.0253833  57.5388903
   7.5081673  44.7033833  55.9428903   8.2091673  44.2213833  56.1318903
   6.8481673  44.1343833  55.9878903   7.5141673  44.5483833  55.9768903
   6.0751673  35.0383833  63.4188903   5.9801673  35.3573833  64.2248903
   5.4821673  34.3993833  63.3808903   5.9731673  34.9903833  63.5328903
   6.7741673  41.7573833  61.6238903   6.2601673  41.3453833  62.1948903
   6.6481673  42.6013833  61.8048903   6.6801673  41.8213833  61.7348903
   7.3311673  30.9823833  56.2548903   7.3801673  30.6643833  57.0658903
   7.6541673  30.3383833  55.7618903   7.3861673  30.8403833  56.3018903
   9.7951673  35.2183833  64.5628903  10.5671673  34.9933833  64.8998903
   9.3201673  35.4353833  65.2628903   9.8391673  35.2173833  64.7158903
  10.0271673  42.1963833  51.7508903  10.1461673  41.9093833  52.5658903
  10.8341673  42.2173833  51.4208903  10.1631673  42.1573833  51.8228903
  12.2611673  46.7053833  66.0048903  11.5791673  47.0153833  65.5578903
  11.8921673  46.2473833  66.6498903  12.1051673  46.6833833  66.0338903
   7.9221673  38.7333833  51.3358903   7.7021673  39.4643833  50.9138903
   7.4741673  38.7843833  52.0828903   7.8231673  38.8483833  51.3838903
  12.1091673  33.5943833  50.7888903  11.4471673  33.0263833  50.8118903
  11.9161673  34.1063833  50.1088903  11.9831673  33.5863833  50.6918903
  12.4321673  37.9723833  63.3448903  12.6471673  37.1723833  63.0688903
  11.5821673  38.0323833  63.1558903  12.3381673  37.8633833  63.2758903
  10.1111673  33.1523833  53.0678903  10.8571673  32.7453833  53.2668903
  10.3741673  33.8673833  52.6428903  10.2601673  33.1983833  53.0348903
   4.0541673  45.6383833  57.6438903   3.5311673  46.2723833  57.3508903
   4.3641673  45.2743833  56.9148903   4.0221673  45.6783833  57.4928903
   6.5651673  35.4403833  58.1408903   6.9091673  35.5923833  58.9278903
   6.1121673  34.7023833  58.2538903   6.5491673  35.3533833  58.2738903
  10.0951673  47.0873833  64.0948903   9.4241673  47.6013833  64.3128903
  10.1581673  47.1873833  63.2308903  10.0051673  47.1783833  63.9998903
   7.8861673  36.7723833  60.6948903   7.2241673  37.1003833  61.1578903
   8.0731673  37.4063833  60.1258903   7.8161673  36.9143833  60.6788903
   2.0911673  47.8363833  61.6908903   1.8141673  47.1953833  61.1678903
   1.8831673  48.5623833  61.2528903   2.0201673  47.8493833  61.5488903
   4.5311673  32.6783833  64.1238903   4.6801673  31.8533833  63.8808903
   4.9101673  32.7333833  64.9078903   4.6091673  32.5643833  64.2038903
   6.0791673  34.7413833  54.2058903   6.5691673  35.4583833  54.1288903
   5.2891673  35.0023833  53.9428903   6.0351673  34.8853833  54.1558903
   7.3931673  42.6193833  66.1158903   7.8771673  43.3373833  66.2138903
   7.7871673  42.1923833  65.4648903   7.5231673  42.6623833  66.0338903
   2.6611673  36.2113833  59.9308903   3.1411673  36.9103833  60.1388903
   3.0341673  35.5643833  60.3818903   2.7871673  36.2193833  60.0278903
   4.8501673  39.3803833  52.2048903   4.8421673  40.1023833  51.7148903
   4.2111673  39.5153833  52.7818903   4.7551673  39.5073833  52.2178903
   9.8221673  43.2503833  56.1858903  10.1781673  42.9003833  56.9008903
   9.8141673  42.5893833  55.6158903   9.8741673  43.1003833  56.2068903
   5.8671673  46.3163833  60.0298903   5.2641673  46.0203833  59.4728903
   6.4121673  46.7683833  59.5208903   5.8581673  46.3393833  59.8718903
   5.8801673  43.1673833  59.4298903   5.0831673  43.3913833  59.7038903
   6.1381673  42.5733833  60.0148903   5.8001673  43.1123833  59.5568903
   2.0641673  47.4953833  52.2798903   2.6861673  47.6583833  52.8698903
   2.1001673  48.1863833  51.7478903   2.1611673  47.6213833  52.2888903
   9.1401673  41.1653833  64.2758903   9.1951673  41.2903833  63.4138903
   9.8931673  41.4853833  64.5778903   9.2591673  41.2303833  64.1928903
   5.3311673  46.5143833  68.5528903   5.4951673  46.7973833  69.3618903
   5.5941673  47.1753833  68.0478903   5.3941673  46.6543833  68.5978903
  10.1721673  31.4633833  67.2628903   9.5351673  31.0633833  66.8208903
  10.1981673  31.0323833  68.0208903  10.0821673  31.3413833  67.3088903
   4.8711673  40.9713833  63.8758903   4.7161673  41.5813833  64.4798903
   5.4051673  40.4133833  64.2818903   4.9271673  40.9793833  64.0248903
   3.2551673  39.3713833  54.5338903   3.3141673  40.0213833  55.1128903
   3.0661673  38.6753833  55.0248903   3.2361673  39.3643833  54.6918903
   8.4811673  43.7003833  60.4028903   8.0021673  43.9983833  59.7368903
   8.1251673  42.9243833  60.5808903   8.3581673  43.6293833  60.3308903
   2.4781673  41.4183833  58.9648903   1.6311673  41.2243833  59.0458903
   2.8021673  41.2533833  59.7578903   2.4001673  41.3653833  59.0938903
  12.1731673  47.8663833  52.3428903  12.8671673  47.3993833  52.0948903
  11.6341673  47.2683833  52.6798903  12.1961673  47.7083833  52.3558903
   9.4121673  40.6423833  61.5218903   9.4051673  39.8663833  61.9198903
   8.5711673  40.8763833  61.5148903   9.2871673  40.5623833  61.5798903
  10.6681673  40.7133833  58.9588903  10.3821673  41.1143833  59.6788903
  11.5281673  40.6513833  59.0858903  10.7531673  40.7633833  59.0838903
   8.3301673  34.6373833  67.4988903   7.8051673  35.0963833  68.0228903
   7.9691673  33.8423833  67.4928903   8.1991673  34.5873833  67.5748903
  11.7991673  46.3463833  59.4878903  12.0891673  46.6033833  58.7068903
  12.4941673  46.4423833  60.0068903  11.9451673  46.3983833  59.4488903
   6.8221673  38.2063833  67.5748903   6.8951673  38.3103833  68.4378903
   6.1881673  38.7643833  67.3538903   6.7391673  38.3043833  67.6698903
   9.0901673  38.5253833  65.9398903   9.4091673  39.3113833  66.1428903
   8.7201673  38.2553833  66.6828903   9.0831673  38.6013833  66.0798903
   8.4041673  44.9493833  51.4698903   8.7381673  44.1433833  51.5048903
   7.6491673  44.8773833  51.8998903   8.3421673  44.8193833  51.5388903
   8.8861673  36.7833833  57.1288903   8.1411673  36.4603833  57.4468903
   8.8881673  37.6093833  57.4088903   8.7761673  36.8573833  57.2168903
  11.7881673  39.0673833  68.6748903  11.7361673  38.7263833  67.8738903
  12.5251673  39.5343833  68.6528903  11.8891673  39.0863833  68.5528903
  11.3261673  42.7433833  64.8808903  11.9541673  42.1943833  64.6248903
  11.2651673  43.3083833  64.2188903  11.4101673  42.7463833  64.7448903
   5.7781673  42.8243833  50.8728903   6.4621673  42.3103833  50.7038903
   5.3611673  42.8703833  50.1078903   5.8171673  42.7553833  50.7348903
   7.7981673  33.1133833  64.5898903   8.5421673  33.5653833  64.5268903
   7.2321673  33.5833833  64.1208903   7.8251673  33.2503833  64.5118903
   2.9761673  40.3973833  61.6678903   3.4521673  40.7713833  62.2958903
   2.1531673  40.5313833  61.9268903   2.9251673  40.4723833  61.7988903
   2.2401673  47.7903833  56.8958903   2.7861673  48.4693833  56.9498903
   1.8901673  47.8723833  56.1008903   2.2691673  47.9033833  56.7858903
   9.0831673  31.0933833  62.2598903   8.8031673  31.9183833  62.2158903
   9.7991673  31.1463833  62.7558903   9.1481673  31.2233833  62.3268903
   4.7321673  42.6523833  67.2738903   5.4891673  42.9383833  66.9478903
   4.1851673  42.7043833  66.5958903   4.7631673  42.7023833  67.1248903
   8.6411673  45.2023833  65.7778903   8.9871673  45.4723833  66.5318903
   8.9351673  45.7843833  65.1978903   8.7361673  45.3283833  65.8038903
  10.5041673  37.3483833  51.1168903  10.8821673  38.0253833  50.7168903
   9.6621673  37.5723833  51.1478903  10.4351673  37.4813833  51.0618903
   5.9631673  35.9633833  65.9418903   5.3151673  36.4333833  66.2898903
   6.5281673  35.8743833  66.6008903   5.9511673  36.0193833  66.0908903
   5.6511673  37.5003833  62.2398903   5.9531673  37.9203833  62.9428903
   5.6871673  36.6603833  62.4718903   5.7011673  37.4383833  62.3778903
   3.0761673  47.6673833  66.1648903   3.5541673  47.0673833  65.7488903
   2.7251673  47.2243833  66.8298903   3.0951673  47.5133833  66.2018903
   8.1991673  36.9473833  54.4918903   8.4061673  36.7463833  55.3158903
   8.9551673  37.2153833  54.1498903   8.3411673  36.9573833  54.5628903
   9.2211673  33.0303833  55.9658903   8.5071673  32.5593833  56.1368903
   9.0591673  33.3713833  55.1798903   9.0921673  33.0113833  55.8748903
   9.6641673  40.9743833  54.3458903  10.1401673  40.2453833  54.2978903
   8.8431673  40.6883833  54.2698903   9.6131673  40.8243833  54.3268903
   3.1351673  42.8863833  65.1848903   2.3401673  42.8223833  65.5358903
   3.2061673  43.7333833  64.9898903   3.0281673  43.0013833  65.2078903
   5.8801673  42.1413833  56.7008903   5.9561673  42.4823833  57.4998903
   6.0491673  41.2943833  56.8218903   5.9161673  42.0663833  56.8368903
   3.4021673  41.4153833  56.2658903   3.1041673  41.1003833  57.0228903
   4.0971673  41.8883833  56.5008903   3.4611673  41.4383833  56.4128903
   3.6241673  45.5333833  64.2928903   4.3111673  45.4193833  64.8178903
   3.7581673  46.3243833  63.9488903   3.7451673  45.6333833  64.3198903
  11.8001673  38.1423833  66.1038903  10.9451673  38.0203833  66.2298903
  11.9531673  37.7473833  65.3408903  11.6961673  38.0653833  66.0098903
   6.3131673  38.8073833  64.6798903   6.0581673  38.0883833  65.1018903
   7.1341673  38.9233833  64.9498903   6.3971673  38.7183833  64.7818903
   4.2471673  39.9973833  67.8668903   4.5701673  40.6833833  67.4348903
   3.5431673  40.3203833  68.2688903   4.1901673  40.1463833  67.8618903
   7.3311673  48.3713833  58.7958903   6.8801673  49.0143833  59.1748903
   8.0391673  48.2923833  59.3008903   7.3691673  48.4543833  58.9268903
   4.0321673  43.4613833  61.7258903   3.3381673  43.8633833  62.0688903
   4.7091673  43.8943833  62.0648903   4.0291673  43.5843833  61.8268903
   9.4091673  46.0543833  68.3058903  10.1851673  45.6643833  68.3888903
   8.9401673  45.7183833  68.9608903   9.4541673  45.9473833  68.4148903
  10.4341673  38.0873833  53.7878903  10.5371673  38.0293833  52.9238903
  11.1751673  37.7553833  54.1058903  10.5591673  38.0303833  53.7068903
   4.3541673  45.0523833  54.8948903   4.1491673  45.8853833  54.7358903
   3.5791673  44.6703833  55.0168903   4.2091673  45.1193833  54.8898903
   9.5361673  38.2333833  63.1438903   9.5341673  37.3703833  63.2678903
   9.6031673  38.5573833  63.9508903   9.5461673  38.1533833  63.2808903
   5.4151673  33.0333833  66.9258903   5.5071673  33.7453833  67.4198903
   4.7781673  32.5883833  67.3228903   5.3341673  33.0723833  67.0578903
   4.4091673  33.2233833  57.7798903   3.7091673  33.7413833  57.7238903
   4.4471673  32.8433833  56.9958903   4.3111673  33.2443833  57.6558903
   8.0071673  33.7393833  60.5798903   8.8621673  33.8383833  60.7248903
   7.6381673  34.2923833  61.1448903   8.0791673  33.8363833  60.6848903
   8.3111673  39.0193833  59.0708903   8.9771673  39.5603833  59.2308903
   7.9661673  39.3303833  58.3318903   8.3581673  39.1453833  58.9858903
   8.6241673  47.0853833  54.8778903   8.4501673  46.4313833  55.4278903
   9.3371673  46.8143833  54.4548903   8.7041673  46.9483833  54.8968903
  11.4821673  31.5773833  63.7358903  11.4301673  31.5333833  64.6058903
  12.1691673  31.0743833  63.5458903  11.5761673  31.4973833  63.8358903
   3.5671673  33.6903833  60.7808903   2.8301673  33.2363833  60.8938903
   4.1381673  33.2883833  61.3038903   3.5421673  33.5633833  60.8748903
   6.2991673  44.5383833  62.5688903   6.5051673  44.8393833  63.3608903
   6.2381673  45.2603833  62.0838903   6.3201673  44.6893833  62.6138903
   5.8331673  48.7523833  66.8148903   5.0801673  48.7343833  66.3738903
   6.0011673  49.6043833  66.8988903   5.7471673  48.8753833  66.7618903
  11.1111673  43.1773833  62.0268903  11.0791673  42.3153833  61.8918903
  10.4181673  43.4793833  61.5928903  11.0041673  43.0943833  61.9428903
   9.2161673  46.4373833  60.8238903   9.7431673  46.3543833  60.1328903
   8.8251673  45.6593833  60.8778903   9.2361673  46.3103833  60.7298903
   5.7301673  31.8813833  60.0318903   6.4001673  32.4253833  60.1588903
   5.2271673  32.3053833  59.4588903   5.7551673  32.0243833  59.9658903
   5.0891673  37.6893833  57.5248903   5.6401673  37.0823833  57.8248903
   4.6641673  37.9523833  58.2398903   5.1081673  37.6383833  57.6738903
   7.0591673  39.5203833  54.0868903   7.1271673  38.6703833  54.2678903
   6.2361673  39.6063833  53.8088903   6.9471673  39.4073833  54.0728903
  10.1381673  48.4753833  50.5048903  10.7751673  48.3413833  51.0858903
   9.7971673  47.6813833  50.3878903  10.1821673  48.3383833  50.5728903
  10.3331673  40.8933833  67.2378903  10.9671673  40.7233833  67.8118903
  10.7501673  41.2963833  66.5858903  10.4881673  40.9283833  67.2268903
   6.2131673  44.7403833  52.8268903   5.9621673  44.6123833  53.6528903
   5.8961673  44.0453833  52.4058903   6.1291673  44.6193833  52.8868903
  10.9581673  35.4573833  67.9758903  10.7621673  36.1013833  68.5308903
  10.2361673  34.9673833  67.9678903  10.8231673  35.4803833  68.0568903
  10.8571673  36.3983833  60.9468903  10.0241673  36.6483833  60.8748903
  10.8011673  35.5583833  61.1758903  10.7261673  36.3113833  60.9698903
   7.7441673  41.0043833  68.5928903   8.6151673  40.9683833  68.5568903
   7.5251673  41.4243833  67.8608903   7.8411673  41.0603833  68.4798903
   3.0991673  42.9483833  52.2568903   3.8161673  42.6013833  51.9008903
   3.0651673  43.7483833  51.9088903   3.2001673  43.0153833  52.1528903
   4.5081673  31.5893833  36.4956493   4.2631673  32.0773833  35.8156493
   5.3711673  31.5163833  36.3956493   4.5991673  31.6503833  36.3806493
   4.3171673  38.5053833  41.1666493   3.7931673  39.1013833  41.5296493
   4.7141673  38.1373833  41.8506493   4.2981673  38.5393833  41.3216493
  10.4611673  45.9463833  34.1376493  11.1621673  45.4273833  34.1336493
   9.8741673  45.5013833  33.6686493  10.4781673  45.8033833  34.0676493
   6.9881673  39.5723833  37.8426493   7.0681673  39.5763833  36.9736493
   6.4041673  38.9403833  37.9916493   6.9131673  39.4793833  37.7366493
   1.7771673  43.9823833  39.7126493   2.1251673  43.1833833  39.7426493
   2.4421673  44.4863833  39.4576493   1.9271673  43.9383833  39.6796493
   1.8341673  43.4313833  35.9236493   2.1651673  42.7873833  36.4096493
   2.0741673  43.2203833  35.1126493   1.9181673  43.3053833  35.8756493
   3.8021673  37.5623833  47.2626493   2.9541673  37.4633833  47.0846493
   3.8311673  38.3073833  47.7166493   3.6811673  37.6583833  47.3036493
   8.3601673  30.5223833  46.3766493   8.2021673  31.2913833  45.9946493
   7.5881673  30.3023833  46.7206493   8.2221673  30.6033833  46.3716493
   5.8221673  35.1633833  30.8906493   5.3721673  35.8443833  31.1976493
   5.9361673  34.6593833  31.5936493   5.7731673  35.1893833  31.0396493
   5.9211673  47.5043833  32.9946493   6.6481673  47.9763833  33.0966493
   6.1501673  46.7103833  33.2746493   6.0631673  47.4573833  33.0516493
   4.0891673  47.8963833  34.9846493   4.3031673  48.4233833  35.6466493
   4.8561673  47.7223833  34.6056493   4.2341673  47.9483833  35.0266493
  11.2161673  35.1363833  37.1856493  10.8701673  35.8143833  37.6116493
  10.5801673  34.5383833  37.2016493  11.0711673  35.1483833  37.2506493
   6.5281673  47.9063833  43.2896493   7.2721673  48.3623833  43.2796493
   6.4071673  47.6923833  42.4526493   6.6201673  47.9423833  43.1646493
   2.7451673  31.8523833  48.0336493   2.9231673  31.0433833  47.7586493
   2.6021673  32.2933833  47.2946493   2.7501673  31.7983833  47.8836493
   3.3391673  36.7783833  36.8066493   3.6261673  36.5463833  36.0166493
   4.0711673  36.8573833  37.2756493   3.4891673  36.7553833  36.7596493
   4.0611673  37.1173833  31.9276493   4.3421673  37.9053833  32.1766493
   3.2851673  37.2823833  31.5646493   3.9881673  37.2583833  31.9106493
   8.1021673  49.0913833  33.3946493   8.7671673  48.9433833  32.8496493
   8.4621673  49.0083833  34.1846493   8.2541673  49.0573833  33.4306493
  10.8911673  33.4593833  42.5546493  11.6481673  33.5313833  42.1266493
  10.9541673  32.6863833  42.9536493  11.0121673  33.3563833  42.5496493
   5.7821673  45.0913833  46.9936493   5.7481673  45.4733833  47.7776493
   6.6361673  45.0493833  46.8226493   5.9031673  45.1413833  47.0846493
   2.9201673  45.2883833  31.7436493   2.7391673  45.8333833  32.4006493
   3.6861673  45.5783833  31.4426493   3.0061673  45.4123833  31.7966493
   6.4271673  33.1843833  32.7976493   6.9671673  32.5023833  32.8736493
   6.4891673  33.5823833  33.5716493   6.5161673  33.1423833  32.9236493
   3.6851673  35.5603833  34.1116493   3.1771673  34.8983833  33.8576493
   3.7371673  36.0643833  33.4016493   3.6181673  35.5373833  33.9696493
   4.2341673  48.2553833  44.4916493   5.0021673  48.1753833  44.0856493
   3.6511673  48.1343833  43.8536493   4.2611673  48.2253833  44.3376493
   3.6851673  32.5013833  34.0026493   3.2301673  32.0993833  33.3766493
   4.4581673  32.6563833  33.6276493   3.7321673  32.4653833  33.8546493
  10.5111673  48.8583833  37.3926493  10.0561673  49.5753833  37.5936493
   9.8971673  48.2873833  37.1506493  10.3531673  48.8803833  37.3866493
   2.2831673  34.8683833  38.5246493   2.3571673  35.4363833  37.8666493
   2.4041673  35.3603833  39.2346493   2.3111673  35.0253833  38.5326493
   7.5081673  44.7033833  36.9366493   8.2091673  44.2213833  37.1256493
   6.8481673  44.1343833  36.9816493   7.5141673  44.5483833  36.9706493
   6.0751673  35.0383833  44.4126493   5.9801673  35.3573833  45.2186493
   5.4821673  34.3993833  44.3746493   5.9731673  34.9903833  44.5266493
   6.7741673  41.7573833  42.6176493   6.2601673  41.3453833  43.1886493
   6.6481673  42.6013833  42.7986493   6.6801673  41.8213833  42.7286493
   7.3311673  30.9823833  37.2486493   7.3801673  30.6643833  38.0596493
   7.6541673  30.3383833  36.7556493   7.3861673  30.8403833  37.2956493
   9.7951673  35.2183833  45.5566493  10.5671673  34.9933833  45.8936493
   9.3201673  35.4353833  46.2566493   9.8391673  35.2173833  45.7096493
  10.0271673  42.1963833  32.7446493  10.1461673  41.9093833  33.5596493
  10.8341673  42.2173833  32.4146493  10.1631673  42.1573833  32.8166493
  12.2611673  46.7053833  46.9986493  11.5791673  47.0153833  46.5516493
  11.8921673  46.2473833  47.6436493  12.1051673  46.6833833  47.0276493
   7.9221673  38.7333833  32.3296493   7.7021673  39.4643833  31.9076493
   7.4741673  38.7843833  33.0766493   7.8231673  38.8483833  32.3776493
  12.1091673  33.5943833  31.7826493  11.4471673  33.0263833  31.8056493
  11.9161673  34.1063833  31.1026493  11.9831673  33.5863833  31.6856493
  12.4321673  37.9723833  44.3386493  12.6471673  37.1723833  44.0626493
  11.5821673  38.0323833  44.1496493  12.3381673  37.8633833  44.2696493
  10.1111673  33.1523833  34.0616493  10.8571673  32.7453833  34.2606493
  10.3741673  33.8673833  33.6366493  10.2601673  33.1983833  34.0286493
   4.0541673  45.6383833  38.6376493   3.5311673  46.2723833  38.3446493
   4.3641673  45.2743833  37.9086493   4.0221673  45.6783833  38.4866493
   6.5651673  35.4403833  39.1346493   6.9091673  35.5923833  39.9216493
   6.1121673  34.7023833  39.2476493   6.5491673  35.3533833  39.2676493
  10.0951673  47.0873833  45.0886493   9.4241673  47.6013833  45.3066493
  10.1581673  47.1873833  44.2246493  10.0051673  47.1783833  44.9936493
   7.8861673  36.7723833  41.6886493   7.2241673  37.1003833  42.1516493
   8.0731673  37.4063833  41.1196493   7.8161673  36.9143833  41.6726493
   2.0911673  47.8363833  42.6846493   1.8141673  47.1953833  42.1616493
   1.8831673  48.5623833  42.2466493   2.0201673  47.8493833  42.5426493
   4.5311673  32.6783833  45.1176493   4.6801673  31.8533833  44.8746493
   4.9101673  32.7333833  45.9016493   4.6091673  32.5643833  45.1976493
   6.0791673  34.7413833  35.1996493   6.5691673  35.4583833  35.1226493
   5.2891673  35.0023833  34.9366493   6.0351673  34.8853833  35.1496493
   7.3931673  42.6193833  47.1096493   7.8771673  43.3373833  47.2076493
   7.7871673  42.1923833  46.4586493   7.5231673  42.6623833  47.0276493
   2.6611673  36.2113833  40.9246493   3.1411673  36.9103833  41.1326493
   3.0341673  35.5643833  41.3756493   2.7871673  36.2193833  41.0216493
   4.8501673  39.3803833  33.1986493   4.8421673  40.1023833  32.7086493
   4.2111673  39.5153833  33.7756493   4.7551673  39.5073833  33.2116493
   9.8221673  43.2503833  37.1796493  10.1781673  42.9003833  37.8946493
   9.8141673  42.5893833  36.6096493   9.8741673  43.1003833  37.2006493
   5.8671673  46.3163833  41.0236493   5.2641673  46.0203833  40.4666493
   6.4121673  46.7683833  40.5146493   5.8581673  46.3393833  40.8656493
   5.8801673  43.1673833  40.4236493   5.0831673  43.3913833  40.6976493
   6.1381673  42.5733833  41.0086493   5.8001673  43.1123833  40.5506493
   2.0641673  47.4953833  33.2736493   2.6861673  47.6583833  33.8636493
   2.1001673  48.1863833  32.7416493   2.1611673  47.6213833  33.2826493
   9.1401673  41.1653833  45.2696493   9.1951673  41.2903833  44.4076493
   9.8931673  41.4853833  45.5716493   9.2591673  41.2303833  45.1866493
   5.3311673  46.5143833  49.5466493   5.4951673  46.7973833  50.3556493
   5.5941673  47.1753833  49.0416493   5.3941673  46.6543833  49.5916493
  10.1721673  31.4633833  48.2566493   9.5351673  31.0633833  47.8146493
  10.1981673  31.0323833  49.0146493  10.0821673  31.3413833  48.3026493
   4.8711673  40.9713833  44.8696493   4.7161673  41.5813833  45.4736493
   5.4051673  40.4133833  45.2756493   4.9271673  40.9793833  45.0186493
   3.2551673  39.3713833  35.5276493   3.3141673  40.0213833  36.1066493
   3.0661673  38.6753833  36.0186493   3.2361673  39.3643833  35.6856493
   8.4811673  43.7003833  41.3966493   8.0021673  43.9983833  40.7306493
   8.1251673  42.9243833  41.5746493   8.3581673  43.6293833  41.3246493
   2.4781673  41.4183833  39.9586493   1.6311673  41.2243833  40.0396493
   2.8021673  41.2533833  40.7516493   2.4001673  41.3653833  40.0876493
  12.1731673  47.8663833  33.3366493  12.8671673  47.3993833  33.0886493
  11.6341673  47.2683833  33.6736493  12.1961673  47.7083833  33.3496493
   9.4121673  40.6423833  42.5156493   9.4051673  39.8663833  42.9136493
   8.5711673  40.8763833  42.5086493   9.2871673  40.5623833  42.5736493
  10.6681673  40.7133833  39.9526493  10.3821673  41.1143833  40.6726493
  11.5281673  40.6513833  40.0796493  10.7531673  40.7633833  40.0776493
   8.3301673  34.6373833  48.4926493   7.8051673  35.0963833  49.0166493
   7.9691673  33.8423833  48.4866493   8.1991673  34.5873833  48.5686493
  11.7991673  46.3463833  40.4816493  12.0891673  46.6033833  39.7006493
  12.4941673  46.4423833  41.0006493  11.9451673  46.3983833  40.4426493
   6.8221673  38.2063833  48.5686493   6.8951673  38.3103833  49.4316493
   6.1881673  38.7643833  48.3476493   6.7391673  38.3043833  48.6636493
   9.0901673  38.5253833  46.9336493   9.4091673  39.3113833  47.1366493
   8.7201673  38.2553833  47.6766493   9.0831673  38.6013833  47.0736493
   8.4041673  44.9493833  32.4636493   8.7381673  44.1433833  32.4986493
   7.6491673  44.8773833  32.8936493   8.3421673  44.8193833  32.5326493
   8.8861673  36.7833833  38.1226493   8.1411673  36.4603833  38.4406493
   8.8881673  37.6093833  38.4026493   8.7761673  36.8573833  38.2106493
  11.7881673  39.0673833  49.6686493  11.7361673  38.7263833  48.8676493
  12.5251673  39.5343833  49.6466493  11.8891673  39.0863833  49.5466493
  11.3261673  42.7433833  45.8746493  11.9541673  42.1943833  45.6186493
  11.2651673  43.3083833  45.2126493  11.4101673  42.7463833  45.7386493
   5.7781673  42.8243833  31.8666493   6.4621673  42.3103833  31.6976493
   5.3611673  42.8703833  31.1016493   5.8171673  42.7553833  31.7286493
   7.7981673  33.1133833  45.5836493   8.5421673  33.5653833  45.5206493
   7.2321673  33.5833833  45.1146493   7.8251673  33.2503833  45.5056493
   2.9761673  40.3973833  42.6616493   3.4521673  40.7713833  43.2896493
   2.1531673  40.5313833  42.9206493   2.9251673  40.4723833  42.7926493
   2.2401673  47.7903833  37.8896493   2.7861673  48.4693833  37.9436493
   1.8901673  47.8723833  37.0946493   2.2691673  47.9033833  37.7796493
   9.0831673  31.0933833  43.2536493   8.8031673  31.9183833  43.2096493
   9.7991673  31.1463833  43.7496493   9.1481673  31.2233833  43.3206493
   4.7321673  42.6523833  48.2676493   5.4891673  42.9383833  47.9416493
   4.1851673  42.7043833  47.5896493   4.7631673  42.7023833  48.1186493
   8.6411673  45.2023833  46.7716493   8.9871673  45.4723833  47.5256493
   8.9351673  45.7843833  46.1916493   8.7361673  45.3283833  46.7976493
  10.5041673  37.3483833  32.1106493  10.8821673  38.0253833  31.7106493
   9.6621673  37.5723833  32.1416493  10.4351673  37.4813833  32.0556493
   5.9631673  35.9633833  46.9356493   5.3151673  36.4333833  47.2836493
   6.5281673  35.8743833  47.5946493   5.9511673  36.0193833  47.0846493
   5.6511673  37.5003833  43.2336493   5.9531673  37.9203833  43.9366493
   5.6871673  36.6603833  43.4656493   5.7011673  37.4383833  43.3716493
   3.0761673  47.6673833  47.1586493   3.5541673  47.0673833  46.7426493
   2.7251673  47.2243833  47.8236493   3.0951673  47.5133833  47.1956493
   8.1991673  36.9473833  35.4856493   8.4061673  36.7463833  36.3096493
   8.9551673  37.2153833  35.1436493   8.3411673  36.9573833  35.5566493
   9.2211673  33.0303833  36.9596493   8.5071673  32.5593833  37.1306493
   9.0591673  33.3713833  36.1736493   9.0921673  33.0113833  36.8686493
   9.6641673  40.9743833  35.3396493  10.1401673  40.2453833  35.2916493
   8.8431673  40.6883833  35.2636493   9.6131673  40.8243833  35.3206493
   3.1351673  42.8863833  46.1786493   2.3401673  42.8223833  46.5296493
   3.2061673  43.7333833  45.9836493   3.0281673  43.0013833  46.2016493
   5.8801673  42.1413833  37.6946493   5.9561673  42.4823833  38.4936493
   6.0491673  41.2943833  37.8156493   5.9161673  42.0663833  37.8306493
   3.4021673  41.4153833  37.2596493   3.1041673  41.1003833  38.0166493
   4.0971673  41.8883833  37.4946493   3.4611673  41.4383833  37.4066493
   3.6241673  45.5333833  45.2866493   4.3111673  45.4193833  45.8116493
   3.7581673  46.3243833  44.9426493   3.7451673  45.6333833  45.3136493
  11.8001673  38.1423833  47.0976493  10.9451673  38.0203833  47.2236493
  11.9531673  37.7473833  46.3346493  11.6961673  38.0653833  47.0036493
   6.3131673  38.8073833  45.6736493   6.0581673  38.0883833  46.0956493
   7.1341673  38.9233833  45.9436493   6.3971673  38.7183833  45.7756493
   4.2471673  39.9973833  48.8606493   4.5701673  40.6833833  48.4286493
   3.5431673  40.3203833  49.2626493   4.1901673  40.1463833  48.8556493
   7.3311673  48.3713833  39.7896493   6.8801673  49.0143833  40.1686493
   8.0391673  48.2923833  40.2946493   7.3691673  48.4543833  39.9206493
   4.0321673  43.4613833  42.7196493   3.3381673  43.8633833  43.0626493
   4.7091673  43.8943833  43.0586493   4.0291673  43.5843833  42.8206493
   9.4091673  46.0543833  49.2996493  10.1851673  45.6643833  49.3826493
   8.9401673  45.7183833  49.9546493   9.4541673  45.9473833  49.4086493
  10.4341673  38.0873833  34.7816493  10.5371673  38.0293833  33.9176493
  11.1751673  37.7553833  35.0996493  10.5591673  38.0303833  34.7006493
   4.3541673  45.0523833  35.8886493   4.1491673  45.8853833  35.7296493
   3.5791673  44.6703833  36.0106493   4.2091673  45.1193833  35.8836493
   9.5361673  38.2333833  44.1376493   9.5341673  37.3703833  44.2616493
   9.6031673  38.5573833  44.9446493   9.5461673  38.1533833  44.2746493
   5.4151673  33.0333833  47.9196493   5.5071673  33.7453833  48.4136493
   4.7781673  32.5883833  48.3166493   5.3341673  33.0723833  48.0516493
   4.4091673  33.2233833  38.7736493   3.7091673  33.7413833  38.7176493
   4.4471673  32.8433833  37.9896493   4.3111673  33.2443833  38.6496493
   8.0071673  33.7393833  41.5736493   8.8621673  33.8383833  41.7186493
   7.6381673  34.2923833  42.1386493   8.0791673  33.8363833  41.6786493
   8.3111673  39.0193833  40.0646493   8.9771673  39.5603833  40.2246493
   7.9661673  39.3303833  39.3256493   8.3581673  39.1453833  39.9796493
   8.6241673  47.0853833  35.8716493   8.4501673  46.4313833  36.4216493
   9.3371673  46.8143833  35.4486493   8.7041673  46.9483833  35.8906493
  11.4821673  31.5773833  44.7296493  11.4301673  31.5333833  45.5996493
  12.1691673  31.0743833  44.5396493  11.5761673  31.4973833  44.8296493
   3.5671673  33.6903833  41.7746493   2.8301673  33.2363833  41.8876493
   4.1381673  33.2883833  42.2976493   3.5421673  33.5633833  41.8686493
   6.2991673  44.5383833  43.5626493   6.5051673  44.8393833  44.3546493
   6.2381673  45.2603833  43.0776493   6.3201673  44.6893833  43.6076493
   5.8331673  48.7523833  47.8086493   5.0801673  48.7343833  47.3676493
   6.0011673  49.6043833  47.8926493   5.7471673  48.8753833  47.7556493
  11.1111673  43.1773833  43.0206493  11.0791673  42.3153833  42.8856493
  10.4181673  43.4793833  42.5866493  11.0041673  43.0943833  42.9366493
   9.2161673  46.4373833  41.8176493   9.7431673  46.3543833  41.1266493
   8.8251673  45.6593833  41.8716493   9.2361673  46.3103833  41.7236493
   5.7301673  31.8813833  41.0256493   6.4001673  32.4253833  41.1526493
   5.2271673  32.3053833  40.4526493   5.7551673  32.0243833  40.9596493
   5.0891673  37.6893833  38.5186493   5.6401673  37.0823833  38.8186493
   4.6641673  37.9523833  39.2336493   5.1081673  37.6383833  38.6676493
   7.0591673  39.5203833  35.0806493   7.1271673  38.6703833  35.2616493
   6.2361673  39.6063833  34.8026493   6.9471673  39.4073833  35.0666493
  10.1381673  48.4753833  31.4986493  10.7751673  48.3413833  32.0796493
   9.7971673  47.6813833  31.3816493  10.1821673  48.3383833  31.5666493
  10.3331673  40.8933833  48.2316493  10.9671673  40.7233833  48.8056493
  10.7501673  41.2963833  47.5796493  10.4881673  40.9283833  48.2206493
   6.2131673  44.7403833  33.8206493   5.9621673  44.6123833  34.6466493
   5.8961673  44.0453833  33.3996493   6.1291673  44.6193833  33.8806493
  10.9581673  35.4573833  48.9696493  10.7621673  36.1013833  49.5246493
  10.2361673  34.9673833  48.9616493  10.8231673  35.4803833  49.0506493
  10.8571673  36.3983833  41.9406493  10.0241673  36.6483833  41.8686493
  10.8011673  35.5583833  42.1696493  10.7261673  36.3113833  41.9636493
   7.7441673  41.0043833  49.5866493   8.6151673  40.9683833  49.5506493
   7.5251673  41.4243833  48.8546493   7.8411673  41.0603833  49.4736493
   3.0991673  42.9483833  33.2506493   3.8161673  42.6013833  32.8946493
   3.0651673  43.7483833  32.9026493   3.2001673  43.0153833  33.1466493
   4.5081673  31.5893833  17.4894083   4.2631673  32.0773833  16.8094083
   5.3711673  31.5163833  17.3894083   4.5991673  31.6503833  17.3744083
   4.3171673  38.5053833  22.1604083   3.7931673  39.1013833  22.5234083
   4.7141673  38.1373833  22.8444083   4.2981673  38.5393833  22.3154083
  10.4611673  45.9463833  15.1314083  11.1621673  45.4273833  15.1274083
   9.8741673  45.5013833  14.6624083  10.4781673  45.8033833  15.0614083
   6.9881673  39.5723833  18.8364083   7.0681673  39.5763833  17.9674083
   6.4041673  38.9403833  18.9854083   6.9131673  39.4793833  18.7304083
   1.7771673  43.9823833  20.7064083   2.1251673  43.1833833  20.7364083
   2.4421673  44.4863833  20.4514083   1.9271673  43.9383833  20.6734083
   1.8341673  43.4313833  16.9174083   2.1651673  42.7873833  17.4034083
   2.0741673  43.2203833  16.1064083   1.9181673  43.3053833  16.8694083
   3.8021673  37.5623833  28.2564083   2.9541673  37.4633833  28.0784083
   3.8311673  38.3073833  28.7104083   3.6811673  37.6583833  28.2974083
   8.3601673  30.5223833  27.3704083   8.2021673  31.2913833  26.9884083
   7.5881673  30.3023833  27.7144083   8.2221673  30.6033833  27.3654083
   5.8221673  35.1633833  11.8844083   5.3721673  35.8443833  12.1914083
   5.9361673  34.6593833  12.5874083   5.7731673  35.1893833  12.0334083
   5.9211673  47.5043833  13.9884083   6.6481673  47.9763833  14.0904083
   6.1501673  46.7103833  14.2684083   6.0631673  47.4573833  14.0454083
   4.0891673  47.8963833  15.9784083   4.3031673  48.4233833  16.6404083
   4.8561673  47.7223833  15.5994083   4.2341673  47.9483833  16.0204083
  11.2161673  35.1363833  18.1794083  10.8701673  35.8143833  18.6054083
  10.5801673  34.5383833  18.1954083  11.0711673  35.1483833  18.2444083
   6.5281673  47.9063833  24.2834083   7.2721673  48.3623833  24.2734083
   6.4071673  47.6923833  23.4464083   6.6201673  47.9423833  24.1584083
   2.7451673  31.8523833  29.0274083   2.9231673  31.0433833  28.7524083
   2.6021673  32.2933833  28.2884083   2.7501673  31.7983833  28.8774083
   3.3391673  36.7783833  17.8004083   3.6261673  36.5463833  17.0104083
   4.0711673  36.8573833  18.2694083   3.4891673  36.7553833  17.7534083
   4.0611673  37.1173833  12.9214083   4.3421673  37.9053833  13.1704083
   3.2851673  37.2823833  12.5584083   3.9881673  37.2583833  12.9044083
   8.1021673  49.0913833  14.3884083   8.7671673  48.9433833  13.8434083
   8.4621673  49.0083833  15.1784083   8.2541673  49.0573833  14.4244083
  10.8911673  33.4593833  23.5484083  11.6481673  33.5313833  23.1204083
  10.9541673  32.6863833  23.9474083  11.0121673  33.3563833  23.5434083
   5.7821673  45.0913833  27.9874083   5.7481673  45.4733833  28.7714083
   6.6361673  45.0493833  27.8164083   5.9031673  45.1413833  28.0784083
   2.9201673  45.2883833  12.7374083   2.7391673  45.8333833  13.3944083
   3.6861673  45.5783833  12.4364083   3.0061673  45.4123833  12.7904083
   6.4271673  33.1843833  13.7914083   6.9671673  32.5023833  13.8674083
   6.4891673  33.5823833  14.5654083   6.5161673  33.1423833  13.9174083
   3.6851673  35.5603833  15.1054083   3.1771673  34.8983833  14.8514083
   3.7371673  36.0643833  14.3954083   3.6181673  35.5373833  14.9634083
   4.2341673  48.2553833  25.4854083   5.0021673  48.1753833  25.0794083
   3.6511673  48.1343833  24.8474083   4.2611673  48.2253833  25.3314083
   3.6851673  32.5013833  14.9964083   3.2301673  32.0993833  14.3704083
   4.4581673  32.6563833  14.6214083   3.7321673  32.4653833  14.8484083
  10.5111673  48.8583833  18.3864083  10.0561673  49.5753833  18.5874083
   9.8971673  48.2873833  18.1444083  10.3531673  48.8803833  18.3804083
   2.2831673  34.8683833  19.5184083   2.3571673  35.4363833  18.8604083
   2.4041673  35.3603833  20.2284083   2.3111673  35.0253833  19.5264083
   7.5081673  44.7033833  17.9304083   8.2091673  44.2213833  18.1194083
   6.8481673  44.1343833  17.9754083   7.5141673  44.5483833  17.9644083
   6.0751673  35.0383833  25.4064083   5.9801673  35.3573833  26.2124083
   5.4821673  34.3993833  25.3684083   5.9731673  34.9903833  25.5204083
   6.7741673  41.7573833  23.6114083   6.2601673  41.3453833  24.1824083
   6.6481673  42.6013833  23.7924083   6.6801673  41.8213833  23.7224083
   7.3311673  30.9823833  18.2424083   7.3801673  30.6643833  19.0534083
   7.6541673  30.3383833  17.7494083   7.3861673  30.8403833  18.2894083
   9.7951673  35.2183833  26.5504083  10.5671673  34.9933833  26.8874083
   9.3201673  35.4353833  27.2504083   9.8391673  35.2173833  26.7034083
  10.0271673  42.1963833  13.7384083  10.1461673  41.9093833  14.5534083
  10.8341673  42.2173833  13.4084083  10.1631673  42.1573833  13.8104083
  12.2611673  46.7053833  27.9924083  11.5791673  47.0153833  27.5454083
  11.8921673  46.2473833  28.6374083  12.1051673  46.6833833  28.0214083
   7.9221673  38.7333833  13.3234083   7.7021673  39.4643833  12.9014083
   7.4741673  38.7843833  14.0704083   7.8231673  38.8483833  13.3714083
  12.1091673  33.5943833  12.7764083  11.4471673  33.0263833  12.7994083
  11.9161673  34.1063833  12.0964083  11.9831673  33.5863833  12.6794083
  12.4321673  37.9723833  25.3324083  12.6471673  37.1723833  25.0564083
  11.5821673  38.0323833  25.1434083  12.3381673  37.8633833  25.2634083
  10.1111673  33.1523833  15.0554083  10.8571673  32.7453833  15.2544083
  10.3741673  33.8673833  14.6304083  10.2601673  33.1983833  15.0224083
   4.0541673  45.6383833  19.6314083   3.5311673  46.2723833  19.3384083
   4.3641673  45.2743833  18.9024083   4.0221673  45.6783833  19.4804083
   6.5651673  35.4403833  20.1284083   6.9091673  35.5923833  20.9154083
   6.1121673  34.7023833  20.2414083   6.5491673  35.3533833  20.2614083
  10.0951673  47.0873833  26.0824083   9.4241673  47.6013833  26.3004083
  10.1581673  47.1873833  25.2184083  10.0051673  47.1783833  25.9874083
   7.8861673  36.7723833  22.6824083   7.2241673  37.1003833  23.1454083
   8.0731673  37.4063833  22.1134083   7.8161673  36.9143833  22.6664083
   2.0911673  47.8363833  23.6784083   1.8141673  47.1953833  23.1554083
   1.8831673  48.5623833  23.2404083   2.0201673  47.8493833  23.5364083
   4.5311673  32.6783833  26.1114083   4.6801673  31.8533833  25.8684083
   4.9101673  32.7333833  26.8954083   4.6091673  32.5643833  26.1914083
   6.0791673  34.7413833  16.1934083   6.5691673  35.4583833  16.1164083
   5.2891673  35.0023833  15.9304083   6.0351673  34.8853833  16.1434083
   7.3931673  42.6193833  28.1034083   7.8771673  43.3373833  28.2014083
   7.7871673  42.1923833  27.4524083   7.5231673  42.6623833  28.0214083
   2.6611673  36.2113833  21.9184083   3.1411673  36.9103833  22.1264083
   3.0341673  35.5643833  22.3694083   2.7871673  36.2193833  22.0154083
   4.8501673  39.3803833  14.1924083   4.8421673  40.1023833  13.7024083
   4.2111673  39.5153833  14.7694083   4.7551673  39.5073833  14.2054083
   9.8221673  43.2503833  18.1734083  10.1781673  42.9003833  18.8884083
   9.8141673  42.5893833  17.6034083   9.8741673  43.1003833  18.1944083
   5.8671673  46.3163833  22.0174083   5.2641673  46.0203833  21.4604083
   6.4121673  46.7683833  21.5084083   5.8581673  46.3393833  21.8594083
   5.8801673  43.1673833  21.4174083   5.0831673  43.3913833  21.6914083
   6.1381673  42.5733833  22.0024083   5.8001673  43.1123833  21.5444083
   2.0641673  47.4953833  14.2674083   2.6861673  47.6583833  14.8574083
   2.1001673  48.1863833  13.7354083   2.1611673  47.6213833  14.2764083
   9.1401673  41.1653833  26.2634083   9.1951673  41.2903833  25.4014083
   9.8931673  41.4853833  26.5654083   9.2591673  41.2303833  26.1804083
   5.3311673  46.5143833  30.5404083   5.4951673  46.7973833  31.3494083
   5.5941673  47.1753833  30.0354083   5.3941673  46.6543833  30.5854083
  10.1721673  31.4633833  29.2504083   9.5351673  31.0633833  28.8084083
  10.1981673  31.0323833  30.0084083  10.0821673  31.3413833  29.2964083
   4.8711673  40.9713833  25.8634083   4.7161673  41.5813833  26.4674083
   5.4051673  40.4133833  26.2694083   4.9271673  40.9793833  26.0124083
   3.2551673  39.3713833  16.5214083   3.3141673  40.0213833  17.1004083
   3.0661673  38.6753833  17.0124083   3.2361673  39.3643833  16.6794083
   8.4811673  43.7003833  22.3904083   8.0021673  43.9983833  21.7244083
   8.1251673  42.9243833  22.5684083   8.3581673  43.6293833  22.3184083
   2.4781673  41.4183833  20.9524083   1.6311673  41.2243833  21.0334083
   2.8021673  41.2533833  21.7454083   2.4001673  41.3653833  21.0814083
  12.1731673  47.8663833  14.3304083  12.8671673  47.3993833  14.0824083
  11.6341673  47.2683833  14.6674083  12.1961673  47.7083833  14.3434083
   9.4121673  40.6423833  23.5094083   9.4051673  39.8663833  23.9074083
   8.5711673  40.8763833  23.5024083   9.2871673  40.5623833  23.5674083
  10.6681673  40.7133833  20.9464083  10.3821673  41.1143833  21.6664083
  11.5281673  40.6513833  21.0734083  10.7531673  40.7633833  21.0714083
   8.3301673  34.6373833  29.4864083   7.8051673  35.0963833  30.0104083
   7.9691673  33.8423833  29.4804083   8.1991673  34.5873833  29.5624083
  11.7991673  46.3463833  21.4754083  12.0891673  46.6033833  20.6944083
  12.4941673  46.4423833  21.9944083  11.9451673  46.3983833  21.4364083
   6.8221673  38.2063833  29.5624083   6.8951673  38.3103833  30.4254083
   6.1881673  38.7643833  29.3414083   6.7391673  38.3043833  29.6574083
   9.0901673  38.5253833  27.9274083   9.4091673  39.3113833  28.1304083
   8.7201673  38.2553833  28.6704083   9.0831673  38.6013833  28.0674083
   8.4041673  44.9493833  13.4574083   8.7381673  44.1433833  13.4924083
   7.6491673  44.8773833  13.8874083   8.3421673  44.8193833  13.5264083
   8.8861673  36.7833833  19.1164083   8.1411673  36.4603833  19.4344083
   8.8881673  37.6093833  19.3964083   8.7761673  36.8573833  19.2044083
  11.7881673  39.0673833  30.6624083  11.7361673  38.7263833  29.8614083
  12.5251673  39.5343833  30.6404083  11.8891673  39.0863833  30.5404083
  11.3261673  42.7433833  26.8684083  11.9541673  42.1943833  26.6124083
  11.2651673  43.3083833  26.2064083  11.4101673  42.7463833  26.7324083
   5.7781673  42.8243833  12.8604083   6.4621673  42.3103833  12.6914083
   5.3611673  42.8703833  12.0954083   5.8171673  42.7553833  12.7224083
   7.7981673  33.1133833  26.5774083   8.5421673  33.5653833  26.5144083
   7.2321673  33.5833833  26.1084083   7.8251673  33.2503833  26.4994083
   2.9761673  40.3973833  23.6554083   3.4521673  40.7713833  24.2834083
   2.1531673  40.5313833  23.9144083   2.9251673  40.4723833  23.7864083
   2.2401673  47.7903833  18.8834083   2.7861673  48.4693833  18.9374083
   1.8901673  47.8723833  18.0884083   2.2691673  47.9033833  18.7734083
   9.0831673  31.0933833  24.2474083   8.8031673  31.9183833  24.2034083
   9.7991673  31.1463833  24.7434083   9.1481673  31.2233833  24.3144083
   4.7321673  42.6523833  29.2614083   5.4891673  42.9383833  28.9354083
   4.1851673  42.7043833  28.5834083   4.7631673  42.7023833  29.1124083
   8.6411673  45.2023833  27.7654083   8.9871673  45.4723833  28.5194083
   8.9351673  45.7843833  27.1854083   8.7361673  45.3283833  27.7914083
  10.5041673  37.3483833  13.1044083  10.8821673  38.0253833  12.7044083
   9.6621673  37.5723833  13.1354083  10.4351673  37.4813833  13.0494083
   5.9631673  35.9633833  27.9294083   5.3151673  36.4333833  28.2774083
   6.5281673  35.8743833  28.5884083   5.9511673  36.0193833  28.0784083
   5.6511673  37.5003833  24.2274083   5.9531673  37.9203833  24.9304083
   5.6871673  36.6603833  24.4594083   5.7011673  37.4383833  24.3654083
   3.0761673  47.6673833  28.1524083   3.5541673  47.0673833  27.7364083
   2.7251673  47.2243833  28.8174083   3.0951673  47.5133833  28.1894083
   8.1991673  36.9473833  16.4794083   8.4061673  36.7463833  17.3034083
   8.9551673  37.2153833  16.1374083   8.3411673  36.9573833  16.5504083
   9.2211673  33.0303833  17.9534083   8.5071673  32.5593833  18.1244083
   9.0591673  33.3713833  17.1674083   9.0921673  33.0113833  17.8624083
   9.6641673  40.9743833  16.3334083  10.1401673  40.2453833  16.2854083
   8.8431673  40.6883833  16.2574083   9.6131673  40.8243833  16.3144083
   3.1351673  42.8863833  27.1724083   2.3401673  42.8223833  27.5234083
   3.2061673  43.7333833  26.9774083   3.0281673  43.0013833  27.1954083
   5.8801673  42.1413833  18.6884083   5.9561673  42.4823833  19.4874083
   6.0491673  41.2943833  18.8094083   5.9161673  42.0663833  18.8244083
   3.4021673  41.4153833  18.2534083   3.1041673  41.1003833  19.0104083
   4.0971673  41.8883833  18.4884083   3.4611673  41.4383833  18.4004083
   3.6241673  45.5333833  26.2804083   4.3111673  45.4193833  26.8054083
   3.7581673  46.3243833  25.9364083   3.7451673  45.6333833  26.3074083
  11.8001673  38.1423833  28.0914083  10.9451673  38.0203833  28.2174083
  11.9531673  37.7473833  27.3284083  11.6961673  38.0653833  27.9974083
   6.3131673  38.8073833  26.6674083   6.0581673  38.0883833  27.0894083
   7.1341673  38.9233833  26.9374083   6.3971673  38.7183833  26.7694083
   4.2471673  39.9973833  29.8544083   4.5701673  40.6833833  29.4224083
   3.5431673  40.3203833  30.2564083   4.1901673  40.1463833  29.8494083
   7.3311673  48.3713833  20.7834083   6.8801673  49.0143833  21.1624083
   8.0391673  48.2923833  21.2884083   7.3691673  48.4543833  20.9144083
   4.0321673  43.4613833  23.7134083   3.3381673  43.8633833  24.0564083
   4.7091673  43.8943833  24.0524083   4.0291673  43.5843833  23.8144083
   9.4091673  46.0543833  30.2934083  10.1851673  45.6643833  30.3764083
   8.9401673  45.7183833  30.9484083   9.4541673  45.9473833  30.4024083
  10.4341673  38.0873833  15.7754083  10.5371673  38.0293833  14.9114083
  11.1751673  37.7553833  16.0934083  10.5591673  38.0303833  15.6944083
   4.3541673  45.0523833  16.8824083   4.1491673  45.8853833  16.7234083
   3.5791673  44.6703833  17.0044083   4.2091673  45.1193833  16.8774083
   9.5361673  38.2333833  25.1314083   9.5341673  37.3703833  25.2554083
   9.6031673  38.5573833  25.9384083   9.5461673  38.1533833  25.2684083
   5.4151673  33.0333833  28.9134083   5.5071673  33.7453833  29.4074083
   4.7781673  32.5883833  29.3104083   5.3341673  33.0723833  29.0454083
   4.4091673  33.2233833  19.7674083   3.7091673  33.7413833  19.7114083
   4.4471673  32.8433833  18.9834083   4.3111673  33.2443833  19.6434083
   8.0071673  33.7393833  22.5674083   8.8621673  33.8383833  22.7124083
   7.6381673  34.2923833  23.1324083   8.0791673  33.8363833  22.6724083
   8.3111673  39.0193833  21.0584083   8.9771673  39.5603833  21.2184083
   7.9661673  39.3303833  20.3194083   8.3581673  39.1453833  20.9734083
   8.6241673  47.0853833  16.8654083   8.4501673  46.4313833  17.4154083
   9.3371673  46.8143833  16.4424083   8.7041673  46.9483833  16.8844083
  11.4821673  31.5773833  25.7234083  11.4301673  31.5333833  26.5934083
  12.1691673  31.0743833  25.5334083  11.5761673  31.4973833  25.8234083
   3.5671673  33.6903833  22.7684083   2.8301673  33.2363833  22.8814083
   4.1381673  33.2883833  23.2914083   3.5421673  33.5633833  22.8624083
   6.2991673  44.5383833  24.5564083   6.5051673  44.8393833  25.3484083
   6.2381673  45.2603833  24.0714083   6.3201673  44.6893833  24.6014083
   5.8331673  48.7523833  28.8024083   5.0801673  48.7343833  28.3614083
   6.0011673  49.6043833  28.8864083   5.7471673  48.8753833  28.7494083
  11.1111673  43.1773833  24.0144083  11.0791673  42.3153833  23.8794083
  10.4181673  43.4793833  23.5804083  11.0041673  43.0943833  23.9304083
   9.2161673  46.4373833  22.8114083   9.7431673  46.3543833  22.1204083
   8.8251673  45.6593833  22.8654083   9.2361673  46.3103833  22.7174083
   5.7301673  31.8813833  22.0194083   6.4001673  32.4253833  22.1464083
   5.2271673  32.3053833  21.4464083   5.7551673  32.0243833  21.9534083
   5.0891673  37.6893833  19.5124083   5.6401673  37.0823833  19.8124083
   4.6641673  37.9523833  20.2274083   5.1081673  37.6383833  19.6614083
   7.0591673  39.5203833  16.0744083   7.1271673  38.6703833  16.2554083
   6.2361673  39.6063833  15.7964083   6.9471673  39.4073833  16.0604083
  10.1381673  48.4753833  12.4924083  10.7751673  48.3413833  13.0734083
   9.7971673  47.6813833  12.3754083  10.1821673  48.3383833  12.5604083
  10.3331673  40.8933833  29.2254083  10.9671673  40.7233833  29.7994083
  10.7501673  41.2963833  28.5734083  10.4881673  40.9283833  29.2144083
   6.2131673  44.7403833  14.8144083   5.9621673  44.6123833  15.6404083
   5.8961673  44.0453833  14.3934083   6.1291673  44.6193833  14.8744083
  10.9581673  35.4573833  29.9634083  10.7621673  36.1013833  30.5184083
  10.2361673  34.9673833  29.9554083  10.8231673  35.4803833  30.0444083
  10.8571673  36.3983833  22.9344083  10.0241673  36.6483833  22.8624083
  10.8011673  35.5583833  23.1634083  10.7261673  36.3113833  22.9574083
   7.7441673  41.0043833  30.5804083   8.6151673  40.9683833  30.5444083
   7.5251673  41.4243833  29.8484083   7.8411673  41.0603833  30.4674083
   3.0991673  42.9483833  14.2444083   3.8161673  42.6013833  13.8884083
   3.0651673  43.7483833  13.8964083   3.2001673  43.0153833  14.1404083
   4.3171673  38.5053833   3.1541673   3.7931673  39.1013833   3.5171673
   4.7141673  38.1373833   3.8381673   4.2981673  38.5393833   3.3091673
   3.8021673  37.5623833   9.2501673   2.9541673  37.4633833   9.0721673
   3.8311673  38.3073833   9.7041673   3.6811673  37.6583833   9.2911673
   8.3601673  30.5223833   8.3641673   8.2021673  31.2913833   7.9821673
   7.5881673  30.3023833   8.7081673   8.2221673  30.6033833   8.3591673
   6.5281673  47.9063833   5.2771673   7.2721673  48.3623833   5.2671673
   6.4071673  47.6923833   4.4401673   6.6201673  47.9423833   5.1521673
   2.7451673  31.8523833  10.0211673   2.9231673  31.0433833   9.7461673
   2.6021673  32.2933833   9.2821673   2.7501673  31.7983833   9.8711673
  10.8911673  33.4593833   4.5421673  11.6481673  33.5313833   4.1141673
  10.9541673  32.6863833   4.9411673  11.0121673  33.3563833   4.5371673
   5.7821673  45.0913833   8.9811673   5.7481673  45.4733833   9.7651673
   6.6361673  45.0493833   8.8101673   5.9031673  45.1413833   9.0721673
   4.2341673  48.2553833   6.4791673   5.0021673  48.1753833   6.0731673
   3.6511673  48.1343833   5.8411673   4.2611673  48.2253833   6.3251673
   6.0751673  35.0383833   6.4001673   5.9801673  35.3573833   7.2061673
   5.4821673  34.3993833   6.3621673   5.9731673  34.9903833   6.5141673
   6.7741673  41.7573833   4.6051673   6.2601673  41.3453833   5.1761673
   6.6481673  42.6013833   4.7861673   6.6801673  41.8213833   4.7161673
   9.7951673  35.2183833   7.5441673  10.5671673  34.9933833   7.8811673
   9.3201673  35.4353833   8.2441673   9.8391673  35.2173833   7.6971673
  12.2611673  46.7053833   8.9861673  11.5791673  47.0153833   8.5391673
  11.8921673  46.2473833   9.6311673  12.1051673  46.6833833   9.0151673
  12.4321673  37.9723833   6.3261673  12.6471673  37.1723833   6.0501673
  11.5821673  38.0323833   6.1371673  12.3381673  37.8633833   6.2571673
  10.0951673  47.0873833   7.0761673   9.4241673  47.6013833   7.2941673
  10.1581673  47.1873833   6.2121673  10.0051673  47.1783833   6.9811673
   7.8861673  36.7723833   3.6761673   7.2241673  37.1003833   4.1391673
   8.0731673  37.4063833   3.1071673   7.8161673  36.9143833   3.6601673
   2.0911673  47.8363833   4.6721673   1.8141673  47.1953833   4.1491673
   1.8831673  48.5623833   4.2341673   2.0201673  47.8493833   4.5301673
   4.5311673  32.6783833   7.1051673   4.6801673  31.8533833   6.8621673
   4.9101673  32.7333833   7.8891673   4.6091673  32.5643833   7.1851673
   7.3931673  42.6193833   9.0971673   7.8771673  43.3373833   9.1951673
   7.7871673  42.1923833   8.4461673   7.5231673  42.6623833   9.0151673
   2.6611673  36.2113833   2.9121673   3.1411673  36.9103833   3.1201673
   3.0341673  35.5643833   3.3631673   2.7871673  36.2193833   3.0091673
   5.8671673  46.3163833   3.0111673   5.2641673  46.0203833   2.4541673
   6.4121673  46.7683833   2.5021673   5.8581673  46.3393833   2.8531673
   5.8801673  43.1673833   2.4111673   5.0831673  43.3913833   2.6851673
   6.1381673  42.5733833   2.9961673   5.8001673  43.1123833   2.5381673
   9.1401673  41.1653833   7.2571673   9.1951673  41.2903833   6.3951673
   9.8931673  41.4853833   7.5591673   9.2591673  41.2303833   7.1741673
   5.3311673  46.5143833  11.5341673   5.4951673  46.7973833  12.3431673
   5.5941673  47.1753833  11.0291673   5.3941673  46.6543833  11.5791673
  10.1721673  31.4633833  10.2441673   9.5351673  31.0633833   9.8021673
  10.1981673  31.0323833  11.0021673  10.0821673  31.3413833  10.2901673
   4.8711673  40.9713833   6.8571673   4.7161673  41.5813833   7.4611673
   5.4051673  40.4133833   7.2631673   4.9271673  40.9793833   7.0061673
   8.4811673  43.7003833   3.3841673   8.0021673  43.9983833   2.7181673
   8.1251673  42.9243833   3.5621673   8.3581673  43.6293833   3.3121673
   2.4781673  41.4183833   1.9461673   1.6311673  41.2243833   2.0271673
   2.8021673  41.2533833   2.7391673   2.4001673  41.3653833   2.0751673
   9.4121673  40.6423833   4.5031673   9.4051673  39.8663833   4.9011673
   8.5711673  40.8763833   4.4961673   9.2871673  40.5623833   4.5611673
  10.6681673  40.7133833   1.9401673  10.3821673  41.1143833   2.6601673
  11.5281673  40.6513833   2.0671673  10.7531673  40.7633833   2.0651673
   8.3301673  34.6373833  10.4801673   7.8051673  35.0963833  11.0041673
   7.9691673  33.8423833  10.4741673   8.1991673  34.5873833  10.5561673
  11.7991673  46.3463833   2.4691673  12.0891673  46.6033833   1.6881673
  12.4941673  46.4423833   2.9881673  11.9451673  46.3983833   2.4301673
   6.8221673  38.2063833  10.5561673   6.8951673  38.3103833  11.4191673
   6.1881673  38.7643833  10.3351673   6.7391673  38.3043833  10.6511673
   9.0901673  38.5253833   8.9211673   9.4091673  39.3113833   9.1241673
   8.7201673  38.2553833   9.6641673   9.0831673  38.6013833   9.0611673
  11.7881673  39.0673833  11.6561673  11.7361673  38.7263833  10.8551673
  12.5251673  39.5343833  11.6341673  11.8891673  39.0863833  11.5341673
  11.3261673  42.7433833   7.8621673  11.9541673  42.1943833   7.6061673
  11.2651673  43.3083833   7.2001673  11.4101673  42.7463833   7.7261673
   7.7981673  33.1133833   7.5711673   8.5421673  33.5653833   7.5081673
   7.2321673  33.5833833   7.1021673   7.8251673  33.2503833   7.4931673
   2.9761673  40.3973833   4.6491673   3.4521673  40.7713833   5.2771673
   2.1531673  40.5313833   4.9081673   2.9251673  40.4723833   4.7801673
   9.0831673  31.0933833   5.2411673   8.8031673  31.9183833   5.1971673
   9.7991673  31.1463833   5.7371673   9.1481673  31.2233833   5.3081673
   4.7321673  42.6523833  10.2551673   5.4891673  42.9383833   9.9291673
   4.1851673  42.7043833   9.5771673   4.7631673  42.7023833  10.1061673
   8.6411673  45.2023833   8.7591673   8.9871673  45.4723833   9.5131673
   8.9351673  45.7843833   8.1791673   8.7361673  45.3283833   8.7851673
   5.9631673  35.9633833   8.9231673   5.3151673  36.4333833   9.2711673
   6.5281673  35.8743833   9.5821673   5.9511673  36.0193833   9.0721673
   5.6511673  37.5003833   5.2211673   5.9531673  37.9203833   5.9241673
   5.6871673  36.6603833   5.4531673   5.7011673  37.4383833   5.3591673
   3.0761673  47.6673833   9.1461673   3.5541673  47.0673833   8.7301673
   2.7251673  47.2243833   9.8111673   3.0951673  47.5133833   9.1831673
   3.1351673  42.8863833   8.1661673   2.3401673  42.8223833   8.5171673
   3.2061673  43.7333833   7.9711673   3.0281673  43.0013833   8.1891673
   3.6241673  45.5333833   7.2741673   4.3111673  45.4193833   7.7991673
   3.7581673  46.3243833   6.9301673   3.7451673  45.6333833   7.3011673
  11.8001673  38.1423833   9.0851673  10.9451673  38.0203833   9.2111673
  11.9531673  37.7473833   8.3221673  11.6961673  38.0653833   8.9911673
   6.3131673  38.8073833   7.6611673   6.0581673  38.0883833   8.0831673
   7.1341673  38.9233833   7.9311673   6.3971673  38.7183833   7.7631673
   4.2471673  39.9973833  10.8481673   4.5701673  40.6833833  10.4161673
   3.5431673  40.3203833  11.2501673   4.1901673  40.1463833  10.8431673
   7.3311673  48.3713833   1.7771673   6.8801673  49.0143833   2.1561673
   8.0391673  48.2923833   2.2821673   7.3691673  48.4543833   1.9081673
   4.0321673  43.4613833   4.7071673   3.3381673  43.8633833   5.0501673
   4.7091673  43.8943833   5.0461673   4.0291673  43.5843833   4.8081673
   9.4091673  46.0543833  11.2871673  10.1851673  45.6643833  11.3701673
   8.9401673  45.7183833  11.9421673   9.4541673  45.9473833  11.3961673
   9.5361673  38.2333833   6.1251673   9.5341673  37.3703833   6.2491673
   9.6031673  38.5573833   6.9321673   9.5461673  38.1533833   6.2621673
   5.4151673  33.0333833   9.9071673   5.5071673  33.7453833  10.4011673
   4.7781673  32.5883833  10.3041673   5.3341673  33.0723833  10.0391673
   8.0071673  33.7393833   3.5611673   8.8621673  33.8383833   3.7061673
   7.6381673  34.2923833   4.1261673   8.0791673  33.8363833   3.6661673
  11.4821673  31.5773833   6.7171673  11.4301673  31.5333833   7.5871673
  12.1691673  31.0743833   6.5271673  11.5761673  31.4973833   6.8171673
   3.5671673  33.6903833   3.7621673   2.8301673  33.2363833   3.8751673
   4.1381673  33.2883833   4.2851673   3.5421673  33.5633833   3.8561673
   6.2991673  44.5383833   5.5501673   6.5051673  44.8393833   6.3421673
   6.2381673  45.2603833   5.0651673   6.3201673  44.6893833   5.5951673
   5.8331673  48.7523833   9.7961673   5.0801673  48.7343833   9.3551673
   6.0011673  49.6043833   9.8801673   5.7471673  48.8753833   9.7431673
  11.1111673  43.1773833   5.0081673  11.0791673  42.3153833   4.8731673
  10.4181673  43.4793833   4.5741673  11.0041673  43.0943833   4.9241673
   9.2161673  46.4373833   3.8051673   9.7431673  46.3543833   3.1141673
   8.8251673  45.6593833   3.8591673   9.2361673  46.3103833   3.7111673
   5.7301673  31.8813833   3.0131673   6.4001673  32.4253833   3.1401673
   5.2271673  32.3053833   2.4401673   5.7551673  32.0243833   2.9471673
  10.3331673  40.8933833  10.2191673  10.9671673  40.7233833  10.7931673
  10.7501673  41.2963833   9.5671673  10.4881673  40.9283833  10.2081673
  10.9581673  35.4573833  10.9571673  10.7621673  36.1013833  11.5121673
  10.2361673  34.9673833  10.9491673  10.8231673  35.4803833  11.0381673
  10.8571673  36.3983833   3.9281673  10.0241673  36.6483833   3.8561673
  10.8011673  35.5583833   4.1571673  10.7261673  36.3113833   3.9511673
   7.7441673  41.0043833  11.5741673   8.6151673  40.9683833  11.5381673
   7.5251673  41.4243833  10.8421673   7.8411673  41.0603833  11.4611673
   4.5081673  13.1112753  74.5081313   4.2631673  13.5992753  73.8281313
   5.3711673  13.0382753  74.4081313   4.5991673  13.1722753  74.3931313
  10.4611673  27.4682753  72.1501313  11.1621673  26.9492753  72.1461313
   9.8741673  27.0232753  71.6811313  10.4781673  27.3252753  72.0801313
   6.9881673  21.0942753  75.8551313   7.0681673  21.0982753  74.9861313
   6.4041673  20.4622753  76.0041313   6.9131673  21.0012753  75.7491313
   1.7771673  25.5042753  77.7251313   2.1251673  24.7052753  77.7551313
   2.4421673  26.0082753  77.4701313   1.9271673  25.4602753  77.6921313
   1.8341673  24.9532753  73.9361313   2.1651673  24.3092753  74.4221313
   2.0741673  24.7422753  73.1251313   1.9181673  24.8272753  73.8881313
   5.8221673  16.6852753  68.9031313   5.3721673  17.3662753  69.2101313
   5.9361673  16.1812753  69.6061313   5.7731673  16.7112753  69.0521313
   5.9211673  29.0262753  71.0071313   6.6481673  29.4982753  71.1091313
   6.1501673  28.2322753  71.2871313   6.0631673  28.9792753  71.0641313
   4.0891673  29.4182753  72.9971313   4.3031673  29.9452753  73.6591313
   4.8561673  29.2442753  72.6181313   4.2341673  29.4702753  73.0391313
  11.2161673  16.6582753  75.1981313  10.8701673  17.3362753  75.6241313
  10.5801673  16.0602753  75.2141313  11.0711673  16.6702753  75.2631313
   3.3391673  18.3002753  74.8191313   3.6261673  18.0682753  74.0291313
   4.0711673  18.3792753  75.2881313   3.4891673  18.2772753  74.7721313
   4.0611673  18.6392753  69.9401313   4.3421673  19.4272753  70.1891313
   3.2851673  18.8042753  69.5771313   3.9881673  18.7802753  69.9231313
   8.1021673  30.6132753  71.4071313   8.7671673  30.4652753  70.8621313
   8.4621673  30.5302753  72.1971313   8.2541673  30.5792753  71.4431313
   2.9201673  26.8102753  69.7561313   2.7391673  27.3552753  70.4131313
   3.6861673  27.1002753  69.4551313   3.0061673  26.9342753  69.8091313
   6.4271673  14.7062753  70.8101313   6.9671673  14.0242753  70.8861313
   6.4891673  15.1042753  71.5841313   6.5161673  14.6642753  70.9361313
   3.6851673  17.0822753  72.1241313   3.1771673  16.4202753  71.8701313
   3.7371673  17.5862753  71.4141313   3.6181673  17.0592753  71.9821313
   3.6851673  14.0232753  72.0151313   3.2301673  13.6212753  71.3891313
   4.4581673  14.1782753  71.6401313   3.7321673  13.9872753  71.8671313
  10.5111673  30.3802753  75.4051313  10.0561673  31.0972753  75.6061313
   9.8971673  29.8092753  75.1631313  10.3531673  30.4022753  75.3991313
   2.2831673  16.3902753  76.5371313   2.3571673  16.9582753  75.8791313
   2.4041673  16.8822753  77.2471313   2.3111673  16.5472753  76.5451313
   7.5081673  26.2252753  74.9491313   8.2091673  25.7432753  75.1381313
   6.8481673  25.6562753  74.9941313   7.5141673  26.0702753  74.9831313
   7.3311673  12.5042753  75.2611313   7.3801673  12.1862753  76.0721313
   7.6541673  11.8602753  74.7681313   7.3861673  12.3622753  75.3081313
  10.0271673  23.7182753  70.7571313  10.1461673  23.4312753  71.5721313
  10.8341673  23.7392753  70.4271313  10.1631673  23.6792753  70.8291313
   7.9221673  20.2552753  70.3421313   7.7021673  20.9862753  69.9201313
   7.4741673  20.3062753  71.0891313   7.8231673  20.3702753  70.3901313
  12.1091673  15.1162753  69.7951313  11.4471673  14.5482753  69.8181313
  11.9161673  15.6282753  69.1151313  11.9831673  15.1082753  69.6981313
  10.1111673  14.6742753  72.0741313  10.8571673  14.2672753  72.2731313
  10.3741673  15.3892753  71.6491313  10.2601673  14.7202753  72.0411313
   4.0541673  27.1602753  76.6501313   3.5311673  27.7942753  76.3571313
   4.3641673  26.7962753  75.9211313   4.0221673  27.2002753  76.4991313
   6.5651673  16.9622753  77.1471313   6.9091673  17.1142753  77.9341313
   6.1121673  16.2242753  77.2601313   6.5491673  16.8752753  77.2801313
   6.0791673  16.2632753  73.2121313   6.5691673  16.9802753  73.1351313
   5.2891673  16.5242753  72.9491313   6.0351673  16.4072753  73.1621313
   4.8501673  20.9022753  71.2111313   4.8421673  21.6242753  70.7211313
   4.2111673  21.0372753  71.7881313   4.7551673  21.0292753  71.2241313
   9.8221673  24.7722753  75.1921313  10.1781673  24.4222753  75.9071313
   9.8141673  24.1112753  74.6221313   9.8741673  24.6222753  75.2131313
   5.8801673  24.6892753  78.4361313   5.0831673  24.9132753  78.7101313
   6.1381673  24.0952753  79.0211313   5.8001673  24.6342753  78.5631313
   2.0641673  29.0172753  71.2861313   2.6861673  29.1802753  71.8761313
   2.1001673  29.7082753  70.7541313   2.1611673  29.1432753  71.2951313
   3.2551673  20.8932753  73.5401313   3.3141673  21.5432753  74.1191313
   3.0661673  20.1972753  74.0311313   3.2361673  20.8862753  73.6981313
   2.4781673  22.9402753  77.9711313   1.6311673  22.7462753  78.0521313
   2.8021673  22.7752753  78.7641313   2.4001673  22.8872753  78.1001313
  12.1731673  29.3882753  71.3491313  12.8671673  28.9212753  71.1011313
  11.6341673  28.7902753  71.6861313  12.1961673  29.2302753  71.3621313
  10.6681673  22.2352753  77.9651313  10.3821673  22.6362753  78.6851313
  11.5281673  22.1732753  78.0921313  10.7531673  22.2852753  78.0901313
  11.7991673  27.8682753  78.4941313  12.0891673  28.1252753  77.7131313
  12.4941673  27.9642753  79.0131313  11.9451673  27.9202753  78.4551313
   8.4041673  26.4712753  70.4761313   8.7381673  25.6652753  70.5111313
   7.6491673  26.3992753  70.9061313   8.3421673  26.3412753  70.5451313
   8.8861673  18.3052753  76.1351313   8.1411673  17.9822753  76.4531313
   8.8881673  19.1312753  76.4151313   8.7761673  18.3792753  76.2231313
   5.7781673  24.3462753  69.8791313   6.4621673  23.8322753  69.7101313
   5.3611673  24.3922753  69.1141313   5.8171673  24.2772753  69.7411313
   2.2401673  29.3122753  75.9021313   2.7861673  29.9912753  75.9561313
   1.8901673  29.3942753  75.1071313   2.2691673  29.4252753  75.7921313
  10.5041673  18.8702753  70.1231313  10.8821673  19.5472753  69.7231313
   9.6621673  19.0942753  70.1541313  10.4351673  19.0032753  70.0681313
   8.1991673  18.4692753  73.4981313   8.4061673  18.2682753  74.3221313
   8.9551673  18.7372753  73.1561313   8.3411673  18.4792753  73.5691313
   9.2211673  14.5522753  74.9721313   8.5071673  14.0812753  75.1431313
   9.0591673  14.8932753  74.1861313   9.0921673  14.5332753  74.8811313
   9.6641673  22.4962753  73.3521313  10.1401673  21.7672753  73.3041313
   8.8431673  22.2102753  73.2761313   9.6131673  22.3462753  73.3331313
   5.8801673  23.6632753  75.7071313   5.9561673  24.0042753  76.5061313
   6.0491673  22.8162753  75.8281313   5.9161673  23.5882753  75.8431313
   3.4021673  22.9372753  75.2721313   3.1041673  22.6222753  76.0291313
   4.0971673  23.4102753  75.5071313   3.4611673  22.9602753  75.4191313
   7.3311673  29.8932753  77.8021313   6.8801673  30.5362753  78.1811313
   8.0391673  29.8142753  78.3071313   7.3691673  29.9762753  77.9331313
  10.4341673  19.6092753  72.7941313  10.5371673  19.5512753  71.9301313
  11.1751673  19.2772753  73.1121313  10.5591673  19.5522753  72.7131313
   4.3541673  26.5742753  73.9011313   4.1491673  27.4072753  73.7421313
   3.5791673  26.1922753  74.0231313   4.2091673  26.6412753  73.8961313
   4.4091673  14.7452753  76.7861313   3.7091673  15.2632753  76.7301313
   4.4471673  14.3652753  76.0021313   4.3111673  14.7662753  76.6621313
   8.3111673  20.5412753  78.0771313   8.9771673  21.0822753  78.2371313
   7.9661673  20.8522753  77.3381313   8.3581673  20.6672753  77.9921313
   8.6241673  28.6072753  73.8841313   8.4501673  27.9532753  74.4341313
   9.3371673  28.3362753  73.4611313   8.7041673  28.4702753  73.9031313
   5.0891673  19.2112753  76.5311313   5.6401673  18.6042753  76.8311313
   4.6641673  19.4742753  77.2461313   5.1081673  19.1602753  76.6801313
   7.0591673  21.0422753  73.0931313   7.1271673  20.1922753  73.2741313
   6.2361673  21.1282753  72.8151313   6.9471673  20.9292753  73.0791313
  10.1381673  29.9972753  69.5111313  10.7751673  29.8632753  70.0921313
   9.7971673  29.2032753  69.3941313  10.1821673  29.8602753  69.5791313
   6.2131673  26.2622753  71.8331313   5.9621673  26.1342753  72.6591313
   5.8961673  25.5672753  71.4121313   6.1291673  26.1412753  71.8931313
   3.0991673  24.4702753  71.2631313   3.8161673  24.1232753  70.9071313
   3.0651673  25.2702753  70.9151313   3.2001673  24.5372753  71.1591313
   4.5081673  13.1112753  55.5018903   4.2631673  13.5992753  54.8218903
   5.3711673  13.0382753  55.4018903   4.5991673  13.1722753  55.3868903
   4.3171673  20.0272753  60.1728903   3.7931673  20.6232753  60.5358903
   4.7141673  19.6592753  60.8568903   4.2981673  20.0612753  60.3278903
  10.4611673  27.4682753  53.1438903  11.1621673  26.9492753  53.1398903
   9.8741673  27.0232753  52.6748903  10.4781673  27.3252753  53.0738903
   6.9881673  21.0942753  56.8488903   7.0681673  21.0982753  55.9798903
   6.4041673  20.4622753  56.9978903   6.9131673  21.0012753  56.7428903
   1.7771673  25.5042753  58.7188903   2.1251673  24.7052753  58.7488903
   2.4421673  26.0082753  58.4638903   1.9271673  25.4602753  58.6858903
   1.8341673  24.9532753  54.9298903   2.1651673  24.3092753  55.4158903
   2.0741673  24.7422753  54.1188903   1.9181673  24.8272753  54.8818903
   3.8021673  19.0842753  66.2688903   2.9541673  18.9852753  66.0908903
   3.8311673  19.8292753  66.7228903   3.6811673  19.1802753  66.3098903
   8.3601673  12.0442753  65.3828903   8.2021673  12.8132753  65.0008903
   7.5881673  11.8242753  65.7268903   8.2221673  12.1252753  65.3778903
   5.8221673  16.6852753  49.8968903   5.3721673  17.3662753  50.2038903
   5.9361673  16.1812753  50.5998903   5.7731673  16.7112753  50.0458903
   5.9211673  29.0262753  52.0008903   6.6481673  29.4982753  52.1028903
   6.1501673  28.2322753  52.2808903   6.0631673  28.9792753  52.0578903
   4.0891673  29.4182753  53.9908903   4.3031673  29.9452753  54.6528903
   4.8561673  29.2442753  53.6118903   4.2341673  29.4702753  54.0328903
  11.2161673  16.6582753  56.1918903  10.8701673  17.3362753  56.6178903
  10.5801673  16.0602753  56.2078903  11.0711673  16.6702753  56.2568903
   6.5281673  29.4282753  62.2958903   7.2721673  29.8842753  62.2858903
   6.4071673  29.2142753  61.4588903   6.6201673  29.4642753  62.1708903
   2.7451673  13.3742753  67.0398903   2.9231673  12.5652753  66.7648903
   2.6021673  13.8152753  66.3008903   2.7501673  13.3202753  66.8898903
   3.3391673  18.3002753  55.8128903   3.6261673  18.0682753  55.0228903
   4.0711673  18.3792753  56.2818903   3.4891673  18.2772753  55.7658903
   4.0611673  18.6392753  50.9338903   4.3421673  19.4272753  51.1828903
   3.2851673  18.8042753  50.5708903   3.9881673  18.7802753  50.9168903
   8.1021673  30.6132753  52.4008903   8.7671673  30.4652753  51.8558903
   8.4621673  30.5302753  53.1908903   8.2541673  30.5792753  52.4368903
  10.8911673  14.9812753  61.5608903  11.6481673  15.0532753  61.1328903
  10.9541673  14.2082753  61.9598903  11.0121673  14.8782753  61.5558903
   5.7821673  26.6132753  65.9998903   5.7481673  26.9952753  66.7838903
   6.6361673  26.5712753  65.8288903   5.9031673  26.6632753  66.0908903
   2.9201673  26.8102753  50.7498903   2.7391673  27.3552753  51.4068903
   3.6861673  27.1002753  50.4488903   3.0061673  26.9342753  50.8028903
   6.4271673  14.7062753  51.8038903   6.9671673  14.0242753  51.8798903
   6.4891673  15.1042753  52.5778903   6.5161673  14.6642753  51.9298903
   3.6851673  17.0822753  53.1178903   3.1771673  16.4202753  52.8638903
   3.7371673  17.5862753  52.4078903   3.6181673  17.0592753  52.9758903
   4.2341673  29.7772753  63.4978903   5.0021673  29.6972753  63.0918903
   3.6511673  29.6562753  62.8598903   4.2611673  29.7472753  63.3438903
   3.6851673  14.0232753  53.0088903   3.2301673  13.6212753  52.3828903
   4.4581673  14.1782753  52.6338903   3.7321673  13.9872753  52.8608903
  10.5111673  30.3802753  56.3988903  10.0561673  31.0972753  56.5998903
   9.8971673  29.8092753  56.1568903  10.3531673  30.4022753  56.3928903
   2.2831673  16.3902753  57.5308903   2.3571673  16.9582753  56.8728903
   2.4041673  16.8822753  58.2408903   2.3111673  16.5472753  57.5388903
   7.5081673  26.2252753  55.9428903   8.2091673  25.7432753  56.1318903
   6.8481673  25.6562753  55.9878903   7.5141673  26.0702753  55.9768903
   6.0751673  16.5602753  63.4188903   5.9801673  16.8792753  64.2248903
   5.4821673  15.9212753  63.3808903   5.9731673  16.5122753  63.5328903
   6.7741673  23.2792753  61.6238903   6.2601673  22.8672753  62.1948903
   6.6481673  24.1232753  61.8048903   6.6801673  23.3432753  61.7348903
   7.3311673  12.5042753  56.2548903   7.3801673  12.1862753  57.0658903
   7.6541673  11.8602753  55.7618903   7.3861673  12.3622753  56.3018903
   9.7951673  16.7402753  64.5628903  10.5671673  16.5152753  64.8998903
   9.3201673  16.9572753  65.2628903   9.8391673  16.7392753  64.7158903
  10.0271673  23.7182753  51.7508903  10.1461673  23.4312753  52.5658903
  10.8341673  23.7392753  51.4208903  10.1631673  23.6792753  51.8228903
  12.2611673  28.2272753  66.0048903  11.5791673  28.5372753  65.5578903
  11.8921673  27.7692753  66.6498903  12.1051673  28.2052753  66.0338903
   7.9221673  20.2552753  51.3358903   7.7021673  20.9862753  50.9138903
   7.4741673  20.3062753  52.0828903   7.8231673  20.3702753  51.3838903
  12.1091673  15.1162753  50.7888903  11.4471673  14.5482753  50.8118903
  11.9161673  15.6282753  50.1088903  11.9831673  15.1082753  50.6918903
  12.4321673  19.4942753  63.3448903  12.6471673  18.6942753  63.0688903
  11.5821673  19.5542753  63.1558903  12.3381673  19.3852753  63.2758903
  10.1111673  14.6742753  53.0678903  10.8571673  14.2672753  53.2668903
  10.3741673  15.3892753  52.6428903  10.2601673  14.7202753  53.0348903
   4.0541673  27.1602753  57.6438903   3.5311673  27.7942753  57.3508903
   4.3641673  26.7962753  56.9148903   4.0221673  27.2002753  57.4928903
   6.5651673  16.9622753  58.1408903   6.9091673  17.1142753  58.9278903
   6.1121673  16.2242753  58.2538903   6.5491673  16.8752753  58.2738903
  10.0951673  28.6092753  64.0948903   9.4241673  29.1232753  64.3128903
  10.1581673  28.7092753  63.2308903  10.0051673  28.7002753  63.9998903
   7.8861673  18.2942753  60.6948903   7.2241673  18.6222753  61.1578903
   8.0731673  18.9282753  60.1258903   7.8161673  18.4362753  60.6788903
   2.0911673  29.3582753  61.6908903   1.8141673  28.7172753  61.1678903
   1.8831673  30.0842753  61.2528903   2.0201673  29.3712753  61.5488903
   4.5311673  14.2002753  64.1238903   4.6801673  13.3752753  63.8808903
   4.9101673  14.2552753  64.9078903   4.6091673  14.0862753  64.2038903
   6.0791673  16.2632753  54.2058903   6.5691673  16.9802753  54.1288903
   5.2891673  16.5242753  53.9428903   6.0351673  16.4072753  54.1558903
   7.3931673  24.1412753  66.1158903   7.8771673  24.8592753  66.2138903
   7.7871673  23.7142753  65.4648903   7.5231673  24.1842753  66.0338903
   2.6611673  17.7332753  59.9308903   3.1411673  18.4322753  60.1388903
   3.0341673  17.0862753  60.3818903   2.7871673  17.7412753  60.0278903
   4.8501673  20.9022753  52.2048903   4.8421673  21.6242753  51.7148903
   4.2111673  21.0372753  52.7818903   4.7551673  21.0292753  52.2178903
   9.8221673  24.7722753  56.1858903  10.1781673  24.4222753  56.9008903
   9.8141673  24.1112753  55.6158903   9.8741673  24.6222753  56.2068903
   5.8671673  27.8382753  60.0298903   5.2641673  27.5422753  59.4728903
   6.4121673  28.2902753  59.5208903   5.8581673  27.8612753  59.8718903
   5.8801673  24.6892753  59.4298903   5.0831673  24.9132753  59.7038903
   6.1381673  24.0952753  60.0148903   5.8001673  24.6342753  59.5568903
   2.0641673  29.0172753  52.2798903   2.6861673  29.1802753  52.8698903
   2.1001673  29.7082753  51.7478903   2.1611673  29.1432753  52.2888903
   9.1401673  22.6872753  64.2758903   9.1951673  22.8122753  63.4138903
   9.8931673  23.0072753  64.5778903   9.2591673  22.7522753  64.1928903
   5.3311673  28.0362753  68.5528903   5.4951673  28.3192753  69.3618903
   5.5941673  28.6972753  68.0478903   5.3941673  28.1762753  68.5978903
  10.1721673  12.9852753  67.2628903   9.5351673  12.5852753  66.8208903
  10.1981673  12.5542753  68.0208903  10.0821673  12.8632753  67.3088903
   4.8711673  22.4932753  63.8758903   4.7161673  23.1032753  64.4798903
   5.4051673  21.9352753  64.2818903   4.9271673  22.5012753  64.0248903
   3.2551673  20.8932753  54.5338903   3.3141673  21.5432753  55.1128903
   3.0661673  20.1972753  55.0248903   3.2361673  20.8862753  54.6918903
   8.4811673  25.2222753  60.4028903   8.0021673  25.5202753  59.7368903
   8.1251673  24.4462753  60.5808903   8.3581673  25.1512753  60.3308903
   2.4781673  22.9402753  58.9648903   1.6311673  22.7462753  59.0458903
   2.8021673  22.7752753  59.7578903   2.4001673  22.8872753  59.0938903
  12.1731673  29.3882753  52.3428903  12.8671673  28.9212753  52.0948903
  11.6341673  28.7902753  52.6798903  12.1961673  29.2302753  52.3558903
   9.4121673  22.1642753  61.5218903   9.4051673  21.3882753  61.9198903
   8.5711673  22.3982753  61.5148903   9.2871673  22.0842753  61.5798903
  10.6681673  22.2352753  58.9588903  10.3821673  22.6362753  59.6788903
  11.5281673  22.1732753  59.0858903  10.7531673  22.2852753  59.0838903
   8.3301673  16.1592753  67.4988903   7.8051673  16.6182753  68.0228903
   7.9691673  15.3642753  67.4928903   8.1991673  16.1092753  67.5748903
  11.7991673  27.8682753  59.4878903  12.0891673  28.1252753  58.7068903
  12.4941673  27.9642753  60.0068903  11.9451673  27.9202753  59.4488903
   6.8221673  19.7282753  67.5748903   6.8951673  19.8322753  68.4378903
   6.1881673  20.2862753  67.3538903   6.7391673  19.8262753  67.6698903
   9.0901673  20.0472753  65.9398903   9.4091673  20.8332753  66.1428903
   8.7201673  19.7772753  66.6828903   9.0831673  20.1232753  66.0798903
   8.4041673  26.4712753  51.4698903   8.7381673  25.6652753  51.5048903
   7.6491673  26.3992753  51.8998903   8.3421673  26.3412753  51.5388903
   8.8861673  18.3052753  57.1288903   8.1411673  17.9822753  57.4468903
   8.8881673  19.1312753  57.4088903   8.7761673  18.3792753  57.2168903
  11.7881673  20.5892753  68.6748903  11.7361673  20.2482753  67.8738903
  12.5251673  21.0562753  68.6528903  11.8891673  20.6082753  68.5528903
  11.3261673  24.2652753  64.8808903  11.9541673  23.7162753  64.6248903
  11.2651673  24.8302753  64.2188903  11.4101673  24.2682753  64.7448903
   5.7781673  24.3462753  50.8728903   6.4621673  23.8322753  50.7038903
   5.3611673  24.3922753  50.1078903   5.8171673  24.2772753  50.7348903
   7.7981673  14.6352753  64.5898903   8.5421673  15.0872753  64.5268903
   7.2321673  15.1052753  64.1208903   7.8251673  14.7722753  64.5118903
   2.9761673  21.9192753  61.6678903   3.4521673  22.2932753  62.2958903
   2.1531673  22.0532753  61.9268903   2.9251673  21.9942753  61.7988903
   2.2401673  29.3122753  56.8958903   2.7861673  29.9912753  56.9498903
   1.8901673  29.3942753  56.1008903   2.2691673  29.4252753  56.7858903
   9.0831673  12.6152753  62.2598903   8.8031673  13.4402753  62.2158903
   9.7991673  12.6682753  62.7558903   9.1481673  12.7452753  62.3268903
   4.7321673  24.1742753  67.2738903   5.4891673  24.4602753  66.9478903
   4.1851673  24.2262753  66.5958903   4.7631673  24.2242753  67.1248903
   8.6411673  26.7242753  65.7778903   8.9871673  26.9942753  66.5318903
   8.9351673  27.3062753  65.1978903   8.7361673  26.8502753  65.8038903
  10.5041673  18.8702753  51.1168903  10.8821673  19.5472753  50.7168903
   9.6621673  19.0942753  51.1478903  10.4351673  19.0032753  51.0618903
   5.9631673  17.4852753  65.9418903   5.3151673  17.9552753  66.2898903
   6.5281673  17.3962753  66.6008903   5.9511673  17.5412753  66.0908903
   5.6511673  19.0222753  62.2398903   5.9531673  19.4422753  62.9428903
   5.6871673  18.1822753  62.4718903   5.7011673  18.9602753  62.3778903
   3.0761673  29.1892753  66.1648903   3.5541673  28.5892753  65.7488903
   2.7251673  28.7462753  66.8298903   3.0951673  29.0352753  66.2018903
   8.1991673  18.4692753  54.4918903   8.4061673  18.2682753  55.3158903
   8.9551673  18.7372753  54.1498903   8.3411673  18.4792753  54.5628903
   9.2211673  14.5522753  55.9658903   8.5071673  14.0812753  56.1368903
   9.0591673  14.8932753  55.1798903   9.0921673  14.5332753  55.8748903
   9.6641673  22.4962753  54.3458903  10.1401673  21.7672753  54.2978903
   8.8431673  22.2102753  54.2698903   9.6131673  22.3462753  54.3268903
   3.1351673  24.4082753  65.1848903   2.3401673  24.3442753  65.5358903
   3.2061673  25.2552753  64.9898903   3.0281673  24.5232753  65.2078903
   5.8801673  23.6632753  56.7008903   5.9561673  24.0042753  57.4998903
   6.0491673  22.8162753  56.8218903   5.9161673  23.5882753  56.8368903
   3.4021673  22.9372753  56.2658903   3.1041673  22.6222753  57.0228903
   4.0971673  23.4102753  56.5008903   3.4611673  22.9602753  56.4128903
   3.6241673  27.0552753  64.2928903   4.3111673  26.9412753  64.8178903
   3.7581673  27.8462753  63.9488903   3.7451673  27.1552753  64.3198903
  11.8001673  19.6642753  66.1038903  10.9451673  19.5422753  66.2298903
  11.9531673  19.2692753  65.3408903  11.6961673  19.5872753  66.0098903
   6.3131673  20.3292753  64.6798903   6.0581673  19.6102753  65.1018903
   7.1341673  20.4452753  64.9498903   6.3971673  20.2402753  64.7818903
   4.2471673  21.5192753  67.8668903   4.5701673  22.2052753  67.4348903
   3.5431673  21.8422753  68.2688903   4.1901673  21.6682753  67.8618903
   7.3311673  29.8932753  58.7958903   6.8801673  30.5362753  59.1748903
   8.0391673  29.8142753  59.3008903   7.3691673  29.9762753  58.9268903
   4.0321673  24.9832753  61.7258903   3.3381673  25.3852753  62.0688903
   4.7091673  25.4162753  62.0648903   4.0291673  25.1062753  61.8268903
   9.4091673  27.5762753  68.3058903  10.1851673  27.1862753  68.3888903
   8.9401673  27.2402753  68.9608903   9.4541673  27.4692753  68.4148903
  10.4341673  19.6092753  53.7878903  10.5371673  19.5512753  52.9238903
  11.1751673  19.2772753  54.1058903  10.5591673  19.5522753  53.7068903
   4.3541673  26.5742753  54.8948903   4.1491673  27.4072753  54.7358903
   3.5791673  26.1922753  55.0168903   4.2091673  26.6412753  54.8898903
   9.5361673  19.7552753  63.1438903   9.5341673  18.8922753  63.2678903
   9.6031673  20.0792753  63.9508903   9.5461673  19.6752753  63.2808903
   5.4151673  14.5552753  66.9258903   5.5071673  15.2672753  67.4198903
   4.7781673  14.1102753  67.3228903   5.3341673  14.5942753  67.0578903
   4.4091673  14.7452753  57.7798903   3.7091673  15.2632753  57.7238903
   4.4471673  14.3652753  56.9958903   4.3111673  14.7662753  57.6558903
   8.0071673  15.2612753  60.5798903   8.8621673  15.3602753  60.7248903
   7.6381673  15.8142753  61.1448903   8.0791673  15.3582753  60.6848903
   8.3111673  20.5412753  59.0708903   8.9771673  21.0822753  59.2308903
   7.9661673  20.8522753  58.3318903   8.3581673  20.6672753  58.9858903
   8.6241673  28.6072753  54.8778903   8.4501673  27.9532753  55.4278903
   9.3371673  28.3362753  54.4548903   8.7041673  28.4702753  54.8968903
  11.4821673  13.0992753  63.7358903  11.4301673  13.0552753  64.6058903
  12.1691673  12.5962753  63.5458903  11.5761673  13.0192753  63.8358903
   3.5671673  15.2122753  60.7808903   2.8301673  14.7582753  60.8938903
   4.1381673  14.8102753  61.3038903   3.5421673  15.0852753  60.8748903
   6.2991673  26.0602753  62.5688903   6.5051673  26.3612753  63.3608903
   6.2381673  26.7822753  62.0838903   6.3201673  26.2112753  62.6138903
   5.8331673  30.2742753  66.8148903   5.0801673  30.2562753  66.3738903
   6.0011673  31.1262753  66.8988903   5.7471673  30.3972753  66.7618903
  11.1111673  24.6992753  62.0268903  11.0791673  23.8372753  61.8918903
  10.4181673  25.0012753  61.5928903  11.0041673  24.6162753  61.9428903
   9.2161673  27.9592753  60.8238903   9.7431673  27.8762753  60.1328903
   8.8251673  27.1812753  60.8778903   9.2361673  27.8322753  60.7298903
   5.7301673  13.4032753  60.0318903   6.4001673  13.9472753  60.1588903
   5.2271673  13.8272753  59.4588903   5.7551673  13.5462753  59.9658903
   5.0891673  19.2112753  57.5248903   5.6401673  18.6042753  57.8248903
   4.6641673  19.4742753  58.2398903   5.1081673  19.1602753  57.6738903
   7.0591673  21.0422753  54.0868903   7.1271673  20.1922753  54.2678903
   6.2361673  21.1282753  53.8088903   6.9471673  20.9292753  54.0728903
  10.1381673  29.9972753  50.5048903  10.7751673  29.8632753  51.0858903
   9.7971673  29.2032753  50.3878903  10.1821673  29.8602753  50.5728903
  10.3331673  22.4152753  67.2378903  10.9671673  22.2452753  67.8118903
  10.7501673  22.8182753  66.5858903  10.4881673  22.4502753  67.2268903
   6.2131673  26.2622753  52.8268903   5.9621673  26.1342753  53.6528903
   5.8961673  25.5672753  52.4058903   6.1291673  26.1412753  52.8868903
  10.9581673  16.9792753  67.9758903  10.7621673  17.6232753  68.5308903
  10.2361673  16.4892753  67.9678903  10.8231673  17.0022753  68.0568903
  10.8571673  17.9202753  60.9468903  10.0241673  18.1702753  60.8748903
  10.8011673  17.0802753  61.1758903  10.7261673  17.8332753  60.9698903
   7.7441673  22.5262753  68.5928903   8.6151673  22.4902753  68.5568903
   7.5251673  22.9462753  67.8608903   7.8411673  22.5822753  68.4798903
   3.0991673  24.4702753  52.2568903   3.8161673  24.1232753  51.9008903
   3.0651673  25.2702753  51.9088903   3.2001673  24.5372753  52.1528903
   4.5081673  13.1112753  36.4956493   4.2631673  13.5992753  35.8156493
   5.3711673  13.0382753  36.3956493   4.5991673  13.1722753  36.3806493
   4.3171673  20.0272753  41.1666493   3.7931673  20.6232753  41.5296493
   4.7141673  19.6592753  41.8506493   4.2981673  20.0612753  41.3216493
  10.4611673  27.4682753  34.1376493  11.1621673  26.9492753  34.1336493
   9.8741673  27.0232753  33.6686493  10.4781673  27.3252753  34.0676493
   6.9881673  21.0942753  37.8426493   7.0681673  21.0982753  36.9736493
   6.4041673  20.4622753  37.9916493   6.9131673  21.0012753  37.7366493
   1.7771673  25.5042753  39.7126493   2.1251673  24.7052753  39.7426493
   2.4421673  26.0082753  39.4576493   1.9271673  25.4602753  39.6796493
   1.8341673  24.9532753  35.9236493   2.1651673  24.3092753  36.4096493
   2.0741673  24.7422753  35.1126493   1.9181673  24.8272753  35.8756493
   3.8021673  19.0842753  47.2626493   2.9541673  18.9852753  47.0846493
   3.8311673  19.8292753  47.7166493   3.6811673  19.1802753  47.3036493
   8.3601673  12.0442753  46.3766493   8.2021673  12.8132753  45.9946493
   7.5881673  11.8242753  46.7206493   8.2221673  12.1252753  46.3716493
   5.8221673  16.6852753  30.8906493   5.3721673  17.3662753  31.1976493
   5.9361673  16.1812753  31.5936493   5.7731673  16.7112753  31.0396493
   5.9211673  29.0262753  32.9946493   6.6481673  29.4982753  33.0966493
   6.1501673  28.2322753  33.2746493   6.0631673  28.9792753  33.0516493
   4.0891673  29.4182753  34.9846493   4.3031673  29.9452753  35.6466493
   4.8561673  29.2442753  34.6056493   4.2341673  29.4702753  35.0266493
  11.2161673  16.6582753  37.1856493  10.8701673  17.3362753  37.6116493
  10.5801673  16.0602753  37.2016493  11.0711673  16.6702753  37.2506493
   6.5281673  29.4282753  43.2896493   7.2721673  29.8842753  43.2796493
   6.4071673  29.2142753  42.4526493   6.6201673  29.4642753  43.1646493
   2.7451673  13.3742753  48.0336493   2.9231673  12.5652753  47.7586493
   2.6021673  13.8152753  47.2946493   2.7501673  13.3202753  47.8836493
   3.3391673  18.3002753  36.8066493   3.6261673  18.0682753  36.0166493
   4.0711673  18.3792753  37.2756493   3.4891673  18.2772753  36.7596493
   4.0611673  18.6392753  31.9276493   4.3421673  19.4272753  32.1766493
   3.2851673  18.8042753  31.5646493   3.9881673  18.7802753  31.9106493
   8.1021673  30.6132753  33.3946493   8.7671673  30.4652753  32.8496493
   8.4621673  30.5302753  34.1846493   8.2541673  30.5792753  33.4306493
  10.8911673  14.9812753  42.5546493  11.6481673  15.0532753  42.1266493
  10.9541673  14.2082753  42.9536493  11.0121673  14.8782753  42.5496493
   5.7821673  26.6132753  46.9936493   5.7481673  26.9952753  47.7776493
   6.6361673  26.5712753  46.8226493   5.9031673  26.6632753  47.0846493
   2.9201673  26.8102753  31.7436493   2.7391673  27.3552753  32.4006493
   3.6861673  27.1002753  31.4426493   3.0061673  26.9342753  31.7966493
   6.4271673  14.7062753  32.7976493   6.9671673  14.0242753  32.8736493
   6.4891673  15.1042753  33.5716493   6.5161673  14.6642753  32.9236493
   3.6851673  17.0822753  34.1116493   3.1771673  16.4202753  33.8576493
   3.7371673  17.5862753  33.4016493   3.6181673  17.0592753  33.9696493
   4.2341673  29.7772753  44.4916493   5.0021673  29.6972753  44.0856493
   3.6511673  29.6562753  43.8536493   4.2611673  29.7472753  44.3376493
   3.6851673  14.0232753  34.0026493   3.2301673  13.6212753  33.3766493
   4.4581673  14.1782753  33.6276493   3.7321673  13.9872753  33.8546493
  10.5111673  30.3802753  37.3926493  10.0561673  31.0972753  37.5936493
   9.8971673  29.8092753  37.1506493  10.3531673  30.4022753  37.3866493
   2.2831673  16.3902753  38.5246493   2.3571673  16.9582753  37.8666493
   2.4041673  16.8822753  39.2346493   2.3111673  16.5472753  38.5326493
   7.5081673  26.2252753  36.9366493   8.2091673  25.7432753  37.1256493
   6.8481673  25.6562753  36.9816493   7.5141673  26.0702753  36.9706493
   6.0751673  16.5602753  44.4126493   5.9801673  16.8792753  45.2186493
   5.4821673  15.9212753  44.3746493   5.9731673  16.5122753  44.5266493
   6.7741673  23.2792753  42.6176493   6.2601673  22.8672753  43.1886493
   6.6481673  24.1232753  42.7986493   6.6801673  23.3432753  42.7286493
   7.3311673  12.5042753  37.2486493   7.3801673  12.1862753  38.0596493
   7.6541673  11.8602753  36.7556493   7.3861673  12.3622753  37.2956493
   9.7951673  16.7402753  45.5566493  10.5671673  16.5152753  45.8936493
   9.3201673  16.9572753  46.2566493   9.8391673  16.7392753  45.7096493
  10.0271673  23.7182753  32.7446493  10.1461673  23.4312753  33.5596493
  10.8341673  23.7392753  32.4146493  10.1631673  23.6792753  32.8166493
  12.2611673  28.2272753  46.9986493  11.5791673  28.5372753  46.5516493
  11.8921673  27.7692753  47.6436493  12.1051673  28.2052753  47.0276493
   7.9221673  20.2552753  32.3296493   7.7021673  20.9862753  31.9076493
   7.4741673  20.3062753  33.0766493   7.8231673  20.3702753  32.3776493
  12.1091673  15.1162753  31.7826493  11.4471673  14.5482753  31.8056493
  11.9161673  15.6282753  31.1026493  11.9831673  15.1082753  31.6856493
  12.4321673  19.4942753  44.3386493  12.6471673  18.6942753  44.0626493
  11.5821673  19.5542753  44.1496493  12.3381673  19.3852753  44.2696493
  10.1111673  14.6742753  34.0616493  10.8571673  14.2672753  34.2606493
  10.3741673  15.3892753  33.6366493  10.2601673  14.7202753  34.0286493
   4.0541673  27.1602753  38.6376493   3.5311673  27.7942753  38.3446493
   4.3641673  26.7962753  37.9086493   4.0221673  27.2002753  38.4866493
   6.5651673  16.9622753  39.1346493   6.9091673  17.1142753  39.9216493
   6.1121673  16.2242753  39.2476493   6.5491673  16.8752753  39.2676493
  10.0951673  28.6092753  45.0886493   9.4241673  29.1232753  45.3066493
  10.1581673  28.7092753  44.2246493  10.0051673  28.7002753  44.9936493
   7.8861673  18.2942753  41.6886493   7.2241673  18.6222753  42.1516493
   8.0731673  18.9282753  41.1196493   7.8161673  18.4362753  41.6726493
   2.0911673  29.3582753  42.6846493   1.8141673  28.7172753  42.1616493
   1.8831673  30.0842753  42.2466493   2.0201673  29.3712753  42.5426493
   4.5311673  14.2002753  45.1176493   4.6801673  13.3752753  44.8746493
   4.9101673  14.2552753  45.9016493   4.6091673  14.0862753  45.1976493
   6.0791673  16.2632753  35.1996493   6.5691673  16.9802753  35.1226493
   5.2891673  16.5242753  34.9366493   6.0351673  16.4072753  35.1496493
   7.3931673  24.1412753  47.1096493   7.8771673  24.8592753  47.2076493
   7.7871673  23.7142753  46.4586493   7.5231673  24.1842753  47.0276493
   2.6611673  17.7332753  40.9246493   3.1411673  18.4322753  41.1326493
   3.0341673  17.0862753  41.3756493   2.7871673  17.7412753  41.0216493
   4.8501673  20.9022753  33.1986493   4.8421673  21.6242753  32.7086493
   4.2111673  21.0372753  33.7756493   4.7551673  21.0292753  33.2116493
   9.8221673  24.7722753  37.1796493  10.1781673  24.4222753  37.8946493
   9.8141673  24.1112753  36.6096493   9.8741673  24.6222753  37.2006493
   5.8671673  27.8382753  41.0236493   5.2641673  27.5422753  40.4666493
   6.4121673  28.2902753  40.5146493   5.8581673  27.8612753  40.8656493
   5.8801673  24.6892753  40.4236493   5.0831673  24.9132753  40.6976493
   6.1381673  24.0952753  41.0086493   5.8001673  24.6342753  40.5506493
   2.0641673  29.0172753  33.2736493   2.6861673  29.1802753  33.8636493
   2.1001673  29.7082753  32.7416493   2.1611673  29.1432753  33.2826493
   9.1401673  22.6872753  45.2696493   9.1951673  22.8122753  44.4076493
   9.8931673  23.0072753  45.5716493   9.2591673  22.7522753  45.1866493
   5.3311673  28.0362753  49.5466493   5.4951673  28.3192753  50.3556493
   5.5941673  28.6972753  49.0416493   5.3941673  28.1762753  49.5916493
  10.1721673  12.9852753  48.2566493   9.5351673  12.5852753  47.8146493
  10.1981673  12.5542753  49.0146493  10.0821673  12.8632753  48.3026493
   4.8711673  22.4932753  44.8696493   4.7161673  23.1032753  45.4736493
   5.4051673  21.9352753  45.2756493   4.9271673  22.5012753  45.0186493
   3.2551673  20.8932753  35.5276493   3.3141673  21.5432753  36.1066493
   3.0661673  20.1972753  36.0186493   3.2361673  20.8862753  35.6856493
   8.4811673  25.2222753  41.3966493   8.0021673  25.5202753  40.7306493
   8.1251673  24.4462753  41.5746493   8.3581673  25.1512753  41.3246493
   2.4781673  22.9402753  39.9586493   1.6311673  22.7462753  40.0396493
   2.8021673  22.7752753  40.7516493   2.4001673  22.8872753  40.0876493
  12.1731673  29.3882753  33.3366493  12.8671673  28.9212753  33.0886493
  11.6341673  28.7902753  33.6736493  12.1961673  29.2302753  33.3496493
   9.4121673  22.1642753  42.5156493   9.4051673  21.3882753  42.9136493
   8.5711673  22.3982753  42.5086493   9.2871673  22.0842753  42.5736493
  10.6681673  22.2352753  39.9526493  10.3821673  22.6362753  40.6726493
  11.5281673  22.1732753  40.0796493  10.7531673  22.2852753  40.0776493
   8.3301673  16.1592753  48.4926493   7.8051673  16.6182753  49.0166493
   7.9691673  15.3642753  48.4866493   8.1991673  16.1092753  48.5686493
  11.7991673  27.8682753  40.4816493  12.0891673  28.1252753  39.7006493
  12.4941673  27.9642753  41.0006493  11.9451673  27.9202753  40.4426493
   6.8221673  19.7282753  48.5686493   6.8951673  19.8322753  49.4316493
   6.1881673  20.2862753  48.3476493   6.7391673  19.8262753  48.6636493
   9.0901673  20.0472753  46.9336493   9.4091673  20.8332753  47.1366493
   8.7201673  19.7772753  47.6766493   9.0831673  20.1232753  47.0736493
   8.4041673  26.4712753  32.4636493   8.7381673  25.6652753  32.4986493
   7.6491673  26.3992753  32.8936493   8.3421673  26.3412753  32.5326493
   8.8861673  18.3052753  38.1226493   8.1411673  17.9822753  38.4406493
   8.8881673  19.1312753  38.4026493   8.7761673  18.3792753  38.2106493
  11.7881673  20.5892753  49.6686493  11.7361673  20.2482753  48.8676493
  12.5251673  21.0562753  49.6466493  11.8891673  20.6082753  49.5466493
  11.3261673  24.2652753  45.8746493  11.9541673  23.7162753  45.6186493
  11.2651673  24.8302753  45.2126493  11.4101673  24.2682753  45.7386493
   5.7781673  24.3462753  31.8666493   6.4621673  23.8322753  31.6976493
   5.3611673  24.3922753  31.1016493   5.8171673  24.2772753  31.7286493
   7.7981673  14.6352753  45.5836493   8.5421673  15.0872753  45.5206493
   7.2321673  15.1052753  45.1146493   7.8251673  14.7722753  45.5056493
   2.9761673  21.9192753  42.6616493   3.4521673  22.2932753  43.2896493
   2.1531673  22.0532753  42.9206493   2.9251673  21.9942753  42.7926493
   2.2401673  29.3122753  37.8896493   2.7861673  29.9912753  37.9436493
   1.8901673  29.3942753  37.0946493   2.2691673  29.4252753  37.7796493
   9.0831673  12.6152753  43.2536493   8.8031673  13.4402753  43.2096493
   9.7991673  12.6682753  43.7496493   9.1481673  12.7452753  43.3206493
   4.7321673  24.1742753  48.2676493   5.4891673  24.4602753  47.9416493
   4.1851673  24.2262753  47.5896493   4.7631673  24.2242753  48.1186493
   8.6411673  26.7242753  46.7716493   8.9871673  26.9942753  47.5256493
   8.9351673  27.3062753  46.1916493   8.7361673  26.8502753  46.7976493
  10.5041673  18.8702753  32.1106493  10.8821673  19.5472753  31.7106493
   9.6621673  19.0942753  32.1416493  10.4351673  19.0032753  32.0556493
   5.9631673  17.4852753  46.9356493   5.3151673  17.9552753  47.2836493
   6.5281673  17.3962753  47.5946493   5.9511673  17.5412753  47.0846493
   5.6511673  19.0222753  43.2336493   5.9531673  19.4422753  43.9366493
   5.6871673  18.1822753  43.4656493   5.7011673  18.9602753  43.3716493
   3.0761673  29.1892753  47.1586493   3.5541673  28.5892753  46.7426493
   2.7251673  28.7462753  47.8236493   3.0951673  29.0352753  47.1956493
   8.1991673  18.4692753  35.4856493   8.4061673  18.2682753  36.3096493
   8.9551673  18.7372753  35.1436493   8.3411673  18.4792753  35.5566493
   9.2211673  14.5522753  36.9596493   8.5071673  14.0812753  37.1306493
   9.0591673  14.8932753  36.1736493   9.0921673  14.5332753  36.8686493
   9.6641673  22.4962753  35.3396493  10.1401673  21.7672753  35.2916493
   8.8431673  22.2102753  35.2636493   9.6131673  22.3462753  35.3206493
   3.1351673  24.4082753  46.1786493   2.3401673  24.3442753  46.5296493
   3.2061673  25.2552753  45.9836493   3.0281673  24.5232753  46.2016493
   5.8801673  23.6632753  37.6946493   5.9561673  24.0042753  38.4936493
   6.0491673  22.8162753  37.8156493   5.9161673  23.5882753  37.8306493
   3.4021673  22.9372753  37.2596493   3.1041673  22.6222753  38.0166493
   4.0971673  23.4102753  37.4946493   3.4611673  22.9602753  37.4066493
   3.6241673  27.0552753  45.2866493   4.3111673  26.9412753  45.8116493
   3.7581673  27.8462753  44.9426493   3.7451673  27.1552753  45.3136493
  11.8001673  19.6642753  47.0976493  10.9451673  19.5422753  47.2236493
  11.9531673  19.2692753  46.3346493  11.6961673  19.5872753  47.0036493
   6.3131673  20.3292753  45.6736493   6.0581673  19.6102753  46.0956493
   7.1341673  20.4452753  45.9436493   6.3971673  20.2402753  45.7756493
   4.2471673  21.5192753  48.8606493   4.5701673  22.2052753  48.4286493
   3.5431673  21.8422753  49.2626493   4.1901673  21.6682753  48.8556493
   7.3311673  29.8932753  39.7896493   6.8801673  30.5362753  40.1686493
   8.0391673  29.8142753  40.2946493   7.3691673  29.9762753  39.9206493
   4.0321673  24.9832753  42.7196493   3.3381673  25.3852753  43.0626493
   4.7091673  25.4162753  43.0586493   4.0291673  25.1062753  42.8206493
   9.4091673  27.5762753  49.2996493  10.1851673  27.1862753  49.3826493
   8.9401673  27.2402753  49.9546493   9.4541673  27.4692753  49.4086493
  10.4341673  19.6092753  34.7816493  10.5371673  19.5512753  33.9176493
  11.1751673  19.2772753  35.0996493  10.5591673  19.5522753  34.7006493
   4.3541673  26.5742753  35.8886493   4.1491673  27.4072753  35.7296493
   3.5791673  26.1922753  36.0106493   4.2091673  26.6412753  35.8836493
   9.5361673  19.7552753  44.1376493   9.5341673  18.8922753  44.2616493
   9.6031673  20.0792753  44.9446493   9.5461673  19.6752753  44.2746493
   5.4151673  14.5552753  47.9196493   5.5071673  15.2672753  48.4136493
   4.7781673  14.1102753  48.3166493   5.3341673  14.5942753  48.0516493
   4.4091673  14.7452753  38.7736493   3.7091673  15.2632753  38.7176493
   4.4471673  14.3652753  37.9896493   4.3111673  14.7662753  38.6496493
   8.0071673  15.2612753  41.5736493   8.8621673  15.3602753  41.7186493
   7.6381673  15.8142753  42.1386493   8.0791673  15.3582753  41.6786493
   8.3111673  20.5412753  40.0646493   8.9771673  21.0822753  40.2246493
   7.9661673  20.8522753  39.3256493   8.3581673  20.6672753  39.9796493
   8.6241673  28.6072753  35.8716493   8.4501673  27.9532753  36.4216493
   9.3371673  28.3362753  35.4486493   8.7041673  28.4702753  35.8906493
  11.4821673  13.0992753  44.7296493  11.4301673  13.0552753  45.5996493
  12.1691673  12.5962753  44.5396493  11.5761673  13.0192753  44.8296493
   3.5671673  15.2122753  41.7746493   2.8301673  14.7582753  41.8876493
   4.1381673  14.8102753  42.2976493   3.5421673  15.0852753  41.8686493
   6.2991673  26.0602753  43.5626493   6.5051673  26.3612753  44.3546493
   6.2381673  26.7822753  43.0776493   6.3201673  26.2112753  43.6076493
   5.8331673  30.2742753  47.8086493   5.0801673  30.2562753  47.3676493
   6.0011673  31.1262753  47.8926493   5.7471673  30.3972753  47.7556493
  11.1111673  24.6992753  43.0206493  11.0791673  23.8372753  42.8856493
  10.4181673  25.0012753  42.5866493  11.0041673  24.6162753  42.9366493
   9.2161673  27.9592753  41.8176493   9.7431673  27.8762753  41.1266493
   8.8251673  27.1812753  41.8716493   9.2361673  27.8322753  41.7236493
   5.7301673  13.4032753  41.0256493   6.4001673  13.9472753  41.1526493
   5.2271673  13.8272753  40.4526493   5.7551673  13.5462753  40.9596493
   5.0891673  19.2112753  38.5186493   5.6401673  18.6042753  38.8186493
   4.6641673  19.4742753  39.2336493   5.1081673  19.1602753  38.6676493
   7.0591673  21.0422753  35.0806493   7.1271673  20.1922753  35.2616493
   6.2361673  21.1282753  34.8026493   6.9471673  20.9292753  35.0666493
  10.1381673  29.9972753  31.4986493  10.7751673  29.8632753  32.0796493
   9.7971673  29.2032753  31.3816493  10.1821673  29.8602753  31.5666493
  10.3331673  22.4152753  48.2316493  10.9671673  22.2452753  48.8056493
  10.7501673  22.8182753  47.5796493  10.4881673  22.4502753  48.2206493
   6.2131673  26.2622753  33.8206493   5.9621673  26.1342753  34.6466493
   5.8961673  25.5672753  33.3996493   6.1291673  26.1412753  33.8806493
  10.9581673  16.9792753  48.9696493  10.7621673  17.6232753  49.5246493
  10.2361673  16.4892753  48.9616493  10.8231673  17.0022753  49.0506493
  10.8571673  17.9202753  41.9406493  10.0241673  18.1702753  41.8686493
  10.8011673  17.0802753  42.1696493  10.7261673  17.8332753  41.9636493
   7.7441673  22.5262753  49.5866493   8.6151673  22.4902753  49.5506493
   7.5251673  22.9462753  48.8546493   7.8411673  22.5822753  49.4736493
   3.0991673  24.4702753  33.2506493   3.8161673  24.1232753  32.8946493
   3.0651673  25.2702753  32.9026493   3.2001673  24.5372753  33.1466493
   4.5081673  13.1112753  17.4894083   4.2631673  13.5992753  16.8094083
   5.3711673  13.0382753  17.3894083   4.5991673  13.1722753  17.3744083
   4.3171673  20.0272753  22.1604083   3.7931673  20.6232753  22.5234083
   4.7141673  19.6592753  22.8444083   4.2981673  20.0612753  22.3154083
  10.4611673  27.4682753  15.1314083  11.1621673  26.9492753  15.1274083
   9.8741673  27.0232753  14.6624083  10.4781673  27.3252753  15.0614083
   6.9881673  21.0942753  18.8364083   7.0681673  21.0982753  17.9674083
   6.4041673  20.4622753  18.9854083   6.9131673  21.0012753  18.7304083
   1.7771673  25.5042753  20.7064083   2.1251673  24.7052753  20.7364083
   2.4421673  26.0082753  20.4514083   1.9271673  25.4602753  20.6734083
   1.8341673  24.9532753  16.9174083   2.1651673  24.3092753  17.4034083
   2.0741673  24.7422753  16.1064083   1.9181673  24.8272753  16.8694083
   3.8021673  19.0842753  28.2564083   2.9541673  18.9852753  28.0784083
   3.8311673  19.8292753  28.7104083   3.6811673  19.1802753  28.2974083
   8.3601673  12.0442753  27.3704083   8.2021673  12.8132753  26.9884083
   7.5881673  11.8242753  27.7144083   8.2221673  12.1252753  27.3654083
   5.8221673  16.6852753  11.8844083   5.3721673  17.3662753  12.1914083
   5.9361673  16.1812753  12.5874083   5.7731673  16.7112753  12.0334083
   5.9211673  29.0262753  13.9884083   6.6481673  29.4982753  14.0904083
   6.1501673  28.2322753  14.2684083   6.0631673  28.9792753  14.0454083
   4.0891673  29.4182753  15.9784083   4.3031673  29.9452753  16.6404083
   4.8561673  29.2442753  15.5994083   4.2341673  29.4702753  16.0204083
  11.2161673  16.6582753  18.1794083  10.8701673  17.3362753  18.6054083
  10.5801673  16.0602753  18.1954083  11.0711673  16.6702753  18.2444083
   6.5281673  29.4282753  24.2834083   7.2721673  29.8842753  24.2734083
   6.4071673  29.2142753  23.4464083   6.6201673  29.4642753  24.1584083
   2.7451673  13.3742753  29.0274083   2.9231673  12.5652753  28.7524083
   2.6021673  13.8152753  28.2884083   2.7501673  13.3202753  28.8774083
   3.3391673  18.3002753  17.8004083   3.6261673  18.0682753  17.0104083
   4.0711673  18.3792753  18.2694083   3.4891673  18.2772753  17.7534083
   4.0611673  18.6392753  12.9214083   4.3421673  19.4272753  13.1704083
   3.2851673  18.8042753  12.5584083   3.9881673  18.7802753  12.9044083
   8.1021673  30.6132753  14.3884083   8.7671673  30.4652753  13.8434083
   8.4621673  30.5302753  15.1784083   8.2541673  30.5792753  14.4244083
  10.8911673  14.9812753  23.5484083  11.6481673  15.0532753  23.1204083
  10.9541673  14.2082753  23.9474083  11.0121673  14.8782753  23.5434083
   5.7821673  26.6132753  27.9874083   5.7481673  26.9952753  28.7714083
   6.6361673  26.5712753  27.8164083   5.9031673  26.6632753  28.0784083
   2.9201673  26.8102753  12.7374083   2.7391673  27.3552753  13.3944083
   3.6861673  27.1002753  12.4364083   3.0061673  26.9342753  12.7904083
   6.4271673  14.7062753  13.7914083   6.9671673  14.0242753  13.8674083
   6.4891673  15.1042753  14.5654083   6.5161673  14.6642753  13.9174083
   3.6851673  17.0822753  15.1054083   3.1771673  16.4202753  14.8514083
   3.7371673  17.5862753  14.3954083   3.6181673  17.0592753  14.9634083
   4.2341673  29.7772753  25.4854083   5.0021673  29.6972753  25.0794083
   3.6511673  29.6562753  24.8474083   4.2611673  29.7472753  25.3314083
   3.6851673  14.0232753  14.9964083   3.2301673  13.6212753  14.3704083
   4.4581673  14.1782753  14.6214083   3.7321673  13.9872753  14.8484083
  10.5111673  30.3802753  18.3864083  10.0561673  31.0972753  18.5874083
   9.8971673  29.8092753  18.1444083  10.3531673  30.4022753  18.3804083
   2.2831673  16.3902753  19.5184083   2.3571673  16.9582753  18.8604083
   2.4041673  16.8822753  20.2284083   2.3111673  16.5472753  19.5264083
   7.5081673  26.2252753  17.9304083   8.2091673  25.7432753  18.1194083
   6.8481673  25.6562753  17.9754083   7.5141673  26.0702753  17.9644083
   6.0751673  16.5602753  25.4064083   5.9801673  16.8792753  26.2124083
   5.4821673  15.9212753  25.3684083   5.9731673  16.5122753  25.5204083
   6.7741673  23.2792753  23.6114083   6.2601673  22.8672753  24.1824083
   6.6481673  24.1232753  23.7924083   6.6801673  23.3432753  23.7224083
   7.3311673  12.5042753  18.2424083   7.3801673  12.1862753  19.0534083
   7.6541673  11.8602753  17.7494083   7.3861673  12.3622753  18.2894083
   9.7951673  16.7402753  26.5504083  10.5671673  16.5152753  26.8874083
   9.3201673  16.9572753  27.2504083   9.8391673  16.7392753  26.7034083
  10.0271673  23.7182753  13.7384083  10.1461673  23.4312753  14.5534083
  10.8341673  23.7392753  13.4084083  10.1631673  23.6792753  13.8104083
  12.2611673  28.2272753  27.9924083  11.5791673  28.5372753  27.5454083
  11.8921673  27.7692753  28.6374083  12.1051673  28.2052753  28.0214083
   7.9221673  20.2552753  13.3234083   7.7021673  20.9862753  12.9014083
   7.4741673  20.3062753  14.0704083   7.8231673  20.3702753  13.3714083
  12.1091673  15.1162753  12.7764083  11.4471673  14.5482753  12.7994083
  11.9161673  15.6282753  12.0964083  11.9831673  15.1082753  12.6794083
  12.4321673  19.4942753  25.3324083  12.6471673  18.6942753  25.0564083
  11.5821673  19.5542753  25.1434083  12.3381673  19.3852753  25.2634083
  10.1111673  14.6742753  15.0554083  10.8571673  14.2672753  15.2544083
  10.3741673  15.3892753  14.6304083  10.2601673  14.7202753  15.0224083
   4.0541673  27.1602753  19.6314083   3.5311673  27.7942753  19.3384083
   4.3641673  26.7962753  18.9024083   4.0221673  27.2002753  19.4804083
   6.5651673  16.9622753  20.1284083   6.9091673  17.1142753  20.9154083
   6.1121673  16.2242753  20.2414083   6.5491673  16.8752753  20.2614083
  10.0951673  28.6092753  26.0824083   9.4241673  29.1232753  26.3004083
  10.1581673  28.7092753  25.2184083  10.0051673  28.7002753  25.9874083
   7.8861673  18.2942753  22.6824083   7.2241673  18.6222753  23.1454083
   8.0731673  18.9282753  22.1134083   7.8161673  18.4362753  22.6664083
   2.0911673  29.3582753  23.6784083   1.8141673  28.7172753  23.1554083
   1.8831673  30.0842753  23.2404083   2.0201673  29.3712753  23.5364083
   4.5311673  14.2002753  26.1114083   4.6801673  13.3752753  25.8684083
   4.9101673  14.2552753  26.8954083   4.6091673  14.0862753  26.1914083
   6.0791673  16.2632753  16.1934083   6.5691673  16.9802753  16.1164083
   5.2891673  16.5242753  15.9304083   6.0351673  16.4072753  16.1434083
   7.3931673  24.1412753  28.1034083   7.8771673  24.8592753  28.2014083
   7.7871673  23.7142753  27.4524083   7.5231673  24.1842753  28.0214083
   2.6611673  17.7332753  21.9184083   3.1411673  18.4322753  22.1264083
   3.0341673  17.0862753  22.3694083   2.7871673  17.7412753  22.0154083
   4.8501673  20.9022753  14.1924083   4.8421673  21.6242753  13.7024083
   4.2111673  21.0372753  14.7694083   4.7551673  21.0292753  14.2054083
   9.8221673  24.7722753  18.1734083  10.1781673  24.4222753  18.8884083
   9.8141673  24.1112753  17.6034083   9.8741673  24.6222753  18.1944083
   5.8671673  27.8382753  22.0174083   5.2641673  27.5422753  21.4604083
   6.4121673  28.2902753  21.5084083   5.8581673  27.8612753  21.8594083
   5.8801673  24.6892753  21.4174083   5.0831673  24.9132753  21.6914083
   6.1381673  24.0952753  22.0024083   5.8001673  24.6342753  21.5444083
   2.0641673  29.0172753  14.2674083   2.6861673  29.1802753  14.8574083
   2.1001673  29.7082753  13.7354083   2.1611673  29.1432753  14.2764083
   9.1401673  22.6872753  26.2634083   9.1951673  22.8122753  25.4014083
   9.8931673  23.0072753  26.5654083   9.2591673  22.7522753  26.1804083
   5.3311673  28.0362753  30.5404083   5.4951673  28.3192753  31.3494083
   5.5941673  28.6972753  30.0354083   5.3941673  28.1762753  30.5854083
  10.1721673  12.9852753  29.2504083   9.5351673  12.5852753  28.8084083
  10.1981673  12.5542753  30.0084083  10.0821673  12.8632753  29.2964083
   4.8711673  22.4932753  25.8634083   4.7161673  23.1032753  26.4674083
   5.4051673  21.9352753  26.2694083   4.9271673  22.5012753  26.0124083
   3.2551673  20.8932753  16.5214083   3.3141673  21.5432753  17.1004083
   3.0661673  20.1972753  17.0124083   3.2361673  20.8862753  16.6794083
   8.4811673  25.2222753  22.3904083   8.0021673  25.5202753  21.7244083
   8.1251673  24.4462753  22.5684083   8.3581673  25.1512753  22.3184083
   2.4781673  22.9402753  20.9524083   1.6311673  22.7462753  21.0334083
   2.8021673  22.7752753  21.7454083   2.4001673  22.8872753  21.0814083
  12.1731673  29.3882753  14.3304083  12.8671673  28.9212753  14.0824083
  11.6341673  28.7902753  14.6674083  12.1961673  29.2302753  14.3434083
   9.4121673  22.1642753  23.5094083   9.4051673  21.3882753  23.9074083
   8.5711673  22.3982753  23.5024083   9.2871673  22.0842753  23.5674083
  10.6681673  22.2352753  20.9464083  10.3821673  22.6362753  21.6664083
  11.5281673  22.1732753  21.0734083  10.7531673  22.2852753  21.0714083
   8.3301673  16.1592753  29.4864083   7.8051673  16.6182753  30.0104083
   7.9691673  15.3642753  29.4804083   8.1991673  16.1092753  29.5624083
  11.7991673  27.8682753  21.4754083  12.0891673  28.1252753  20.6944083
  12.4941673  27.9642753  21.9944083  11.9451673  27.9202753  21.4364083
   6.8221673  19.7282753  29.5624083   6.8951673  19.8322753  30.4254083
   6.1881673  20.2862753  29.3414083   6.7391673  19.8262753  29.6574083
   9.0901673  20.0472753  27.9274083   9.4091673  20.8332753  28.1304083
   8.7201673  19.7772753  28.6704083   9.0831673  20.1232753  28.0674083
   8.4041673  26.4712753  13.4574083   8.7381673  25.6652753  13.4924083
   7.6491673  26.3992753  13.8874083   8.3421673  26.3412753  13.5264083
   8.8861673  18.3052753  19.1164083   8.1411673  17.9822753  19.4344083
   8.8881673  19.1312753  19.3964083   8.7761673  18.3792753  19.2044083
  11.7881673  20.5892753  30.6624083  11.7361673  20.2482753  29.8614083
  12.5251673  21.0562753  30.6404083  11.8891673  20.6082753  30.5404083
  11.3261673  24.2652753  26.8684083  11.9541673  23.7162753  26.6124083
  11.2651673  24.8302753  26.2064083  11.4101673  24.2682753  26.7324083
   5.7781673  24.3462753  12.8604083   6.4621673  23.8322753  12.6914083
   5.3611673  24.3922753  12.0954083   5.8171673  24.2772753  12.7224083
   7.7981673  14.6352753  26.5774083   8.5421673  15.0872753  26.5144083
   7.2321673  15.1052753  26.1084083   7.8251673  14.7722753  26.4994083
   2.9761673  21.9192753  23.6554083   3.4521673  22.2932753  24.2834083
   2.1531673  22.0532753  23.9144083   2.9251673  21.9942753  23.7864083
   2.2401673  29.3122753  18.8834083   2.7861673  29.9912753  18.9374083
   1.8901673  29.3942753  18.0884083   2.2691673  29.4252753  18.7734083
   9.0831673  12.6152753  24.2474083   8.8031673  13.4402753  24.2034083
   9.7991673  12.6682753  24.7434083   9.1481673  12.7452753  24.3144083
   4.7321673  24.1742753  29.2614083   5.4891673  24.4602753  28.9354083
   4.1851673  24.2262753  28.5834083   4.7631673  24.2242753  29.1124083
   8.6411673  26.7242753  27.7654083   8.9871673  26.9942753  28.5194083
   8.9351673  27.3062753  27.1854083   8.7361673  26.8502753  27.7914083
  10.5041673  18.8702753  13.1044083  10.8821673  19.5472753  12.7044083
   9.6621673  19.0942753  13.1354083  10.4351673  19.0032753  13.0494083
   5.9631673  17.4852753  27.9294083   5.3151673  17.9552753  28.2774083
   6.5281673  17.3962753  28.5884083   5.9511673  17.5412753  28.0784083
   5.6511673  19.0222753  24.2274083   5.9531673  19.4422753  24.9304083
   5.6871673  18.1822753  24.4594083   5.7011673  18.9602753  24.3654083
   3.0761673  29.1892753  28.1524083   3.5541673  28.5892753  27.7364083
   2.7251673  28.7462753  28.8174083   3.0951673  29.0352753  28.1894083
   8.1991673  18.4692753  16.4794083   8.4061673  18.2682753  17.3034083
   8.9551673  18.7372753  16.1374083   8.3411673  18.4792753  16.5504083
   9.2211673  14.5522753  17.9534083   8.5071673  14.0812753  18.1244083
   9.0591673  14.8932753  17.1674083   9.0921673  14.5332753  17.8624083
   9.6641673  22.4962753  16.3334083  10.1401673  21.7672753  16.2854083
   8.8431673  22.2102753  16.2574083   9.6131673  22.3462753  16.3144083
   3.1351673  24.4082753  27.1724083   2.3401673  24.3442753  27.5234083
   3.2061673  25.2552753  26.9774083   3.0281673  24.5232753  27.1954083
   5.8801673  23.6632753  18.6884083   5.9561673  24.0042753  19.4874083
   6.0491673  22.8162753  18.8094083   5.9161673  23.5882753  18.8244083
   3.4021673  22.9372753  18.2534083   3.1041673  22.6222753  19.0104083
   4.0971673  23.4102753  18.4884083   3.4611673  22.9602753  18.4004083
   3.6241673  27.0552753  26.2804083   4.3111673  26.9412753  26.8054083
   3.7581673  27.8462753  25.9364083   3.7451673  27.1552753  26.3074083
  11.8001673  19.6642753  28.0914083  10.9451673  19.5422753  28.2174083
  11.9531673  19.2692753  27.3284083  11.6961673  19.5872753  27.9974083
   6.3131673  20.3292753  26.6674083   6.0581673  19.6102753  27.0894083
   7.1341673  20.4452753  26.9374083   6.3971673  20.2402753  26.7694083
   4.2471673  21.5192753  29.8544083   4.5701673  22.2052753  29.4224083
   3.5431673  21.8422753  30.2564083   4.1901673  21.6682753  29.8494083
   7.3311673  29.8932753  20.7834083   6.8801673  30.5362753  21.1624083
   8.0391673  29.8142753  21.2884083   7.3691673  29.9762753  20.9144083
   4.0321673  24.9832753  23.7134083   3.3381673  25.3852753  24.0564083
   4.7091673  25.4162753  24.0524083   4.0291673  25.1062753  23.8144083
   9.4091673  27.5762753  30.2934083  10.1851673  27.1862753  30.3764083
   8.9401673  27.2402753  30.9484083   9.4541673  27.4692753  30.4024083
  10.4341673  19.6092753  15.7754083  10.5371673  19.5512753  14.9114083
  11.1751673  19.2772753  16.0934083  10.5591673  19.5522753  15.6944083
   4.3541673  26.5742753  16.8824083   4.1491673  27.4072753  16.7234083
   3.5791673  26.1922753  17.0044083   4.2091673  26.6412753  16.8774083
   9.5361673  19.7552753  25.1314083   9.5341673  18.8922753  25.2554083
   9.6031673  20.0792753  25.9384083   9.5461673  19.6752753  25.2684083
   5.4151673  14.5552753  28.9134083   5.5071673  15.2672753  29.4074083
   4.7781673  14.1102753  29.3104083   5.3341673  14.5942753  29.0454083
   4.4091673  14.7452753  19.7674083   3.7091673  15.2632753  19.7114083
   4.4471673  14.3652753  18.9834083   4.3111673  14.7662753  19.6434083
   8.0071673  15.2612753  22.5674083   8.8621673  15.3602753  22.7124083
   7.6381673  15.8142753  23.1324083   8.0791673  15.3582753  22.6724083
   8.3111673  20.5412753  21.0584083   8.9771673  21.0822753  21.2184083
   7.9661673  20.8522753  20.3194083   8.3581673  20.6672753  20.9734083
   8.6241673  28.6072753  16.8654083   8.4501673  27.9532753  17.4154083
   9.3371673  28.3362753  16.4424083   8.7041673  28.4702753  16.8844083
  11.4821673  13.0992753  25.7234083  11.4301673  13.0552753  26.5934083
  12.1691673  12.5962753  25.5334083  11.5761673  13.0192753  25.8234083
   3.5671673  15.2122753  22.7684083   2.8301673  14.7582753  22.8814083
   4.1381673  14.8102753  23.2914083   3.5421673  15.0852753  22.8624083
   6.2991673  26.0602753  24.5564083   6.5051673  26.3612753  25.3484083
   6.2381673  26.7822753  24.0714083   6.3201673  26.2112753  24.6014083
   5.8331673  30.2742753  28.8024083   5.0801673  30.2562753  28.3614083
   6.0011673  31.1262753  28.8864083   5.7471673  30.3972753  28.7494083
  11.1111673  24.6992753  24.0144083  11.0791673  23.8372753  23.8794083
  10.4181673  25.0012753  23.5804083  11.0041673  24.6162753  23.9304083
   9.2161673  27.9592753  22.8114083   9.7431673  27.8762753  22.1204083
   8.8251673  27.1812753  22.8654083   9.2361673  27.8322753  22.7174083
   5.7301673  13.4032753  22.0194083   6.4001673  13.9472753  22.1464083
   5.2271673  13.8272753  21.4464083   5.7551673  13.5462753  21.9534083
   5.0891673  19.2112753  19.5124083   5.6401673  18.6042753  19.8124083
   4.6641673  19.4742753  20.2274083   5.1081673  19.1602753  19.6614083
   7.0591673  21.0422753  16.0744083   7.1271673  20.1922753  16.2554083
   6.2361673  21.1282753  15.7964083   6.9471673  20.9292753  16.0604083
  10.1381673  29.9972753  12.4924083  10.7751673  29.8632753  13.0734083
   9.7971673  29.2032753  12.3754083  10.1821673  29.8602753  12.5604083
  10.3331673  22.4152753  29.2254083  10.9671673  22.2452753  29.7994083
  10.7501673  22.8182753  28.5734083  10.4881673  22.4502753  29.2144083
   6.2131673  26.2622753  14.8144083   5.9621673  26.1342753  15.6404083
   5.8961673  25.5672753  14.3934083   6.1291673  26.1412753  14.8744083
  10.9581673  16.9792753  29.9634083  10.7621673  17.6232753  30.5184083
  10.2361673  16.4892753  29.9554083  10.8231673  17.0022753  30.0444083
  10.8571673  17.9202753  22.9344083  10.0241673  18.1702753  22.8624083
  10.8011673  17.0802753  23.1634083  10.7261673  17.8332753  22.9574083
   7.7441673  22.5262753  30.5804083   8.6151673  22.4902753  30.5444083
   7.5251673  22.9462753  29.8484083   7.8411673  22.5822753  30.4674083
   3.0991673  24.4702753  14.2444083   3.8161673  24.1232753  13.8884083
   3.0651673  25.2702753  13.8964083   3.2001673  24.5372753  14.1404083
   4.3171673  20.0272753   3.1541673   3.7931673  20.6232753   3.5171673
   4.7141673  19.6592753   3.8381673   4.2981673  20.0612753   3.3091673
   3.8021673  19.0842753   9.2501673   2.9541673  18.9852753   9.0721673
   3.8311673  19.8292753   9.7041673   3.6811673  19.1802753   9.2911673
   8.3601673  12.0442753   8.3641673   8.2021673  12.8132753   7.9821673
   7.5881673  11.8242753   8.7081673   8.2221673  12.1252753   8.3591673
   6.5281673  29.4282753   5.2771673   7.2721673  29.8842753   5.2671673
   6.4071673  29.2142753   4.4401673   6.6201673  29.4642753   5.1521673
   2.7451673  13.3742753  10.0211673   2.9231673  12.5652753   9.7461673
   2.6021673  13.8152753   9.2821673   2.7501673  13.3202753   9.8711673
  10.8911673  14.9812753   4.5421673  11.6481673  15.0532753   4.1141673
  10.9541673  14.2082753   4.9411673  11.0121673  14.8782753   4.5371673
   5.7821673  26.6132753   8.9811673   5.7481673  26.9952753   9.7651673
   6.6361673  26.5712753   8.8101673   5.9031673  26.6632753   9.0721673
   4.2341673  29.7772753   6.4791673   5.0021673  29.6972753   6.0731673
   3.6511673  29.6562753   5.8411673   4.2611673  29.7472753   6.3251673
   6.0751673  16.5602753   6.4001673   5.9801673  16.8792753   7.2061673
   5.4821673  15.9212753   6.3621673   5.9731673  16.5122753   6.5141673
   6.7741673  23.2792753   4.6051673   6.2601673  22.8672753   5.1761673
   6.6481673  24.1232753   4.7861673   6.6801673  23.3432753   4.7161673
   9.7951673  16.7402753   7.5441673  10.5671673  16.5152753   7.8811673
   9.3201673  16.9572753   8.2441673   9.8391673  16.7392753   7.6971673
  12.2611673  28.2272753   8.9861673  11.5791673  28.5372753   8.5391673
  11.8921673  27.7692753   9.6311673  12.1051673  28.2052753   9.0151673
  12.4321673  19.4942753   6.3261673  12.6471673  18.6942753   6.0501673
  11.5821673  19.5542753   6.1371673  12.3381673  19.3852753   6.2571673
  10.0951673  28.6092753   7.0761673   9.4241673  29.1232753   7.2941673
  10.1581673  28.7092753   6.2121673  10.0051673  28.7002753   6.9811673
   7.8861673  18.2942753   3.6761673   7.2241673  18.6222753   4.1391673
   8.0731673  18.9282753   3.1071673   7.8161673  18.4362753   3.6601673
   2.0911673  29.3582753   4.6721673   1.8141673  28.7172753   4.1491673
   1.8831673  30.0842753   4.2341673   2.0201673  29.3712753   4.5301673
   4.5311673  14.2002753   7.1051673   4.6801673  13.3752753   6.8621673
   4.9101673  14.2552753   7.8891673   4.6091673  14.0862753   7.1851673
   7.3931673  24.1412753   9.0971673   7.8771673  24.8592753   9.1951673
   7.7871673  23.7142753   8.4461673   7.5231673  24.1842753   9.0151673
   2.6611673  17.7332753   2.9121673   3.1411673  18.4322753   3.1201673
   3.0341673  17.0862753   3.3631673   2.7871673  17.7412753   3.0091673
   5.8671673  27.8382753   3.0111673   5.2641673  27.5422753   2.4541673
   6.4121673  28.2902753   2.5021673   5.8581673  27.8612753   2.8531673
   5.8801673  24.6892753   2.4111673   5.0831673  24.9132753   2.6851673
   6.1381673  24.0952753   2.9961673   5.8001673  24.6342753   2.5381673
   9.1401673  22.6872753   7.2571673   9.1951673  22.8122753   6.3951673
   9.8931673  23.0072753   7.5591673   9.2591673  22.7522753   7.1741673
   5.3311673  28.0362753  11.5341673   5.4951673  28.3192753  12.3431673
   5.5941673  28.6972753  11.0291673   5.3941673  28.1762753  11.5791673
  10.1721673  12.9852753  10.2441673   9.5351673  12.5852753   9.8021673
  10.1981673  12.5542753  11.0021673  10.0821673  12.8632753  10.2901673
   4.8711673  22.4932753   6.8571673   4.7161673  23.1032753   7.4611673
   5.4051673  21.9352753   7.2631673   4.9271673  22.5012753   7.0061673
   8.4811673  25.2222753   3.3841673   8.0021673  25.5202753   2.7181673
   8.1251673  24.4462753   3.5621673   8.3581673  25.1512753   3.3121673
   2.4781673  22.9402753   1.9461673   1.6311673  22.7462753   2.0271673
   2.8021673  22.7752753   2.7391673   2.4001673  22.8872753   2.0751673
   9.4121673  22.1642753   4.5031673   9.4051673  21.3882753   4.9011673
   8.5711673  22.3982753   4.4961673   9.2871673  22.0842753   4.5611673
  10.6681673  22.2352753   1.9401673  10.3821673  22.6362753   2.6601673
  11.5281673  22.1732753   2.0671673  10.7531673  22.2852753   2.0651673
   8.3301673  16.1592753  10.4801673   7.8051673  16.6182753  11.0041673
   7.9691673  15.3642753  10.4741673   8.1991673  16.1092753  10.5561673
  11.7991673  27.8682753   2.4691673  12.0891673  28.1252753   1.6881673
  12.4941673  27.9642753   2.9881673  11.9451673  27.9202753   2.4301673
   6.8221673  19.7282753  10.5561673   6.8951673  19.8322753  11.4191673
   6.1881673  20.2862753  10.3351673   6.7391673  19.8262753  10.6511673
   9.0901673  20.0472753   8.9211673   9.4091673  20.8332753   9.1241673
   8.7201673  19.7772753   9.6641673   9.0831673  20.1232753   9.0611673
  11.7881673  20.5892753  11.6561673  11.7361673  20.2482753  10.8551673
  12.5251673  21.0562753  11.6341673  11.8891673  20.6082753  11.5341673
  11.3261673  24.2652753   7.8621673  11.9541673  23.7162753   7.6061673
  11.2651673  24.8302753   7.2001673  11.4101673  24.2682753   7.7261673
   7.7981673  14.6352753   7.5711673   8.5421673  15.0872753   7.5081673
   7.2321673  15.1052753   7.1021673   7.8251673  14.7722753   7.4931673
   2.9761673  21.9192753   4.6491673   3.4521673  22.2932753   5.2771673
   2.1531673  22.0532753   4.9081673   2.9251673  21.9942753   4.7801673
   9.0831673  12.6152753   5.2411673   8.8031673  13.4402753   5.1971673
   9.7991673  12.6682753   5.7371673   9.1481673  12.7452753   5.3081673
   4.7321673  24.1742753  10.2551673   5.4891673  24.4602753   9.9291673
   4.1851673  24.2262753   9.5771673   4.7631673  24.2242753  10.1061673
   8.6411673  26.7242753   8.7591673   8.9871673  26.9942753   9.5131673
   8.9351673  27.3062753   8.1791673   8.7361673  26.8502753   8.7851673
   5.9631673  17.4852753   8.9231673   5.3151673  17.9552753   9.2711673
   6.5281673  17.3962753   9.5821673   5.9511673  17.5412753   9.0721673
   5.6511673  19.0222753   5.2211673   5.9531673  19.4422753   5.9241673
   5.6871673  18.1822753   5.4531673   5.7011673  18.9602753   5.3591673
   3.0761673  29.1892753   9.1461673   3.5541673  28.5892753   8.7301673
   2.7251673  28.7462753   9.8111673   3.0951673  29.0352753   9.1831673
   3.1351673  24.4082753   8.1661673   2.3401673  24.3442753   8.5171673
   3.2061673  25.2552753   7.9711673   3.0281673  24.5232753   8.1891673
   3.6241673  27.0552753   7.2741673   4.3111673  26.9412753   7.7991673
   3.7581673  27.8462753   6.9301673   3.7451673  27.1552753   7.3011673
  11.8001673  19.6642753   9.0851673  10.9451673  19.5422753   9.2111673
  11.9531673  19.2692753   8.3221673  11.6961673  19.5872753   8.9911673
   6.3131673  20.3292753   7.6611673   6.0581673  19.6102753   8.0831673
   7.1341673  20.4452753   7.9311673   6.3971673  20.2402753   7.7631673
   4.2471673  21.5192753  10.8481673   4.5701673  22.2052753  10.4161673
   3.5431673  21.8422753  11.2501673   4.1901673  21.6682753  10.8431673
   7.3311673  29.8932753   1.7771673   6.8801673  30.5362753   2.1561673
   8.0391673  29.8142753   2.2821673   7.3691673  29.9762753   1.9081673
   4.0321673  24.9832753   4.7071673   3.3381673  25.3852753   5.0501673
   4.7091673  25.4162753   5.0461673   4.0291673  25.1062753   4.8081673
   9.4091673  27.5762753  11.2871673  10.1851673  27.1862753  11.3701673
   8.9401673  27.2402753  11.9421673   9.4541673  27.4692753  11.3961673
   9.5361673  19.7552753   6.1251673   9.5341673  18.8922753   6.2491673
   9.6031673  20.0792753   6.9321673   9.5461673  19.6752753   6.2621673
   5.4151673  14.5552753   9.9071673   5.5071673  15.2672753  10.4011673
   4.7781673  14.1102753  10.3041673   5.3341673  14.5942753  10.0391673
   8.0071673  15.2612753   3.5611673   8.8621673  15.3602753   3.7061673
   7.6381673  15.8142753   4.1261673   8.0791673  15.3582753   3.6661673
  11.4821673  13.0992753   6.7171673  11.4301673  13.0552753   7.5871673
  12.1691673  12.5962753   6.5271673  11.5761673  13.0192753   6.8171673
   3.5671673  15.2122753   3.7621673   2.8301673  14.7582753   3.8751673
   4.1381673  14.8102753   4.2851673   3.5421673  15.0852753   3.8561673
   6.2991673  26.0602753   5.5501673   6.5051673  26.3612753   6.3421673
   6.2381673  26.7822753   5.0651673   6.3201673  26.2112753   5.5951673
   5.8331673  30.2742753   9.7961673   5.0801673  30.2562753   9.3551673
   6.0011673  31.1262753   9.8801673   5.7471673  30.3972753   9.7431673
  11.1111673  24.6992753   5.0081673  11.0791673  23.8372753   4.8731673
  10.4181673  25.0012753   4.5741673  11.0041673  24.6162753   4.9241673
   9.2161673  27.9592753   3.8051673   9.7431673  27.8762753   3.1141673
   8.8251673  27.1812753   3.8591673   9.2361673  27.8322753   3.7111673
   5.7301673  13.4032753   3.0131673   6.4001673  13.9472753   3.1401673
   5.2271673  13.8272753   2.4401673   5.7551673  13.5462753   2.9471673
  10.3331673  22.4152753  10.2191673  10.9671673  22.2452753  10.7931673
  10.7501673  22.8182753   9.5671673  10.4881673  22.4502753  10.2081673
  10.9581673  16.9792753  10.9571673  10.7621673  17.6232753  11.5121673
  10.2361673  16.4892753  10.9491673  10.8231673  17.0022753  11.0381673
  10.8571673  17.9202753   3.9281673  10.0241673  18.1702753   3.8561673
  10.8011673  17.0802753   4.1571673  10.7261673  17.8332753   3.9511673
   7.7441673  22.5262753  11.5741673   8.6151673  22.4902753  11.5381673
   7.5251673  22.9462753  10.8421673   7.8411673  22.5822753  11.4611673
  10.4611673   8.9901673  72.1501313  11.1621673   8.4711673  72.1461313
   9.8741673   8.5451673  71.6811313  10.4781673   8.8471673  72.0801313
   6.9881673   2.6161673  75.8551313   7.0681673   2.6201673  74.9861313
   6.4041673   1.9841673  76.0041313   6.9131673   2.5231673  75.7491313
   1.7771673   7.0261673  77.7251313   2.1251673   6.2271673  77.7551313
   2.4421673   7.5301673  77.4701313   1.9271673   6.9821673  77.6921313
   1.8341673   6.4751673  73.9361313   2.1651673   5.8311673  74.4221313
   2.0741673   6.2641673  73.1251313   1.9181673   6.3491673  73.8881313
   5.9211673  10.5481673  71.0071313   6.6481673  11.0201673  71.1091313
   6.1501673   9.7541673  71.2871313   6.0631673  10.5011673  71.0641313
   4.0891673  10.9401673  72.9971313   4.3031673  11.4671673  73.6591313
   4.8561673  10.7661673  72.6181313   4.2341673  10.9921673  73.0391313
   8.1021673  12.1351673  71.4071313   8.7671673  11.9871673  70.8621313
   8.4621673  12.0521673  72.1971313   8.2541673  12.1011673  71.4431313
   2.9201673   8.3321673  69.7561313   2.7391673   8.8771673  70.4131313
   3.6861673   8.6221673  69.4551313   3.0061673   8.4561673  69.8091313
  10.5111673  11.9021673  75.4051313  10.0561673  12.6191673  75.6061313
   9.8971673  11.3311673  75.1631313  10.3531673  11.9241673  75.3991313
   7.5081673   7.7471673  74.9491313   8.2091673   7.2651673  75.1381313
   6.8481673   7.1781673  74.9941313   7.5141673   7.5921673  74.9831313
  10.0271673   5.2401673  70.7571313  10.1461673   4.9531673  71.5721313
  10.8341673   5.2611673  70.4271313  10.1631673   5.2011673  70.8291313
   7.9221673   1.7771673  70.3421313   7.7021673   2.5081673  69.9201313
   7.4741673   1.8281673  71.0891313   7.8231673   1.8921673  70.3901313
   4.0541673   8.6821673  76.6501313   3.5311673   9.3161673  76.3571313
   4.3641673   8.3181673  75.9211313   4.0221673   8.7221673  76.4991313
   4.8501673   2.4241673  71.2111313   4.8421673   3.1461673  70.7211313
   4.2111673   2.5591673  71.7881313   4.7551673   2.5511673  71.2241313
   9.8221673   6.2941673  75.1921313  10.1781673   5.9441673  75.9071313
   9.8141673   5.6331673  74.6221313   9.8741673   6.1441673  75.2131313
   5.8801673   6.2111673  78.4361313   5.0831673   6.4351673  78.7101313
   6.1381673   5.6171673  79.0211313   5.8001673   6.1561673  78.5631313
   2.0641673  10.5391673  71.2861313   2.6861673  10.7021673  71.8761313
   2.1001673  11.2301673  70.7541313   2.1611673  10.6651673  71.2951313
   3.2551673   2.4151673  73.5401313   3.3141673   3.0651673  74.1191313
   3.0661673   1.7191673  74.0311313   3.2361673   2.4081673  73.6981313
   2.4781673   4.4621673  77.9711313   1.6311673   4.2681673  78.0521313
   2.8021673   4.2971673  78.7641313   2.4001673   4.4091673  78.1001313
  12.1731673  10.9101673  71.3491313  12.8671673  10.4431673  71.1011313
  11.6341673  10.3121673  71.6861313  12.1961673  10.7521673  71.3621313
  10.6681673   3.7571673  77.9651313  10.3821673   4.1581673  78.6851313
  11.5281673   3.6951673  78.0921313  10.7531673   3.8071673  78.0901313
  11.7991673   9.3901673  78.4941313  12.0891673   9.6471673  77.7131313
  12.4941673   9.4861673  79.0131313  11.9451673   9.4421673  78.4551313
   8.4041673   7.9931673  70.4761313   8.7381673   7.1871673  70.5111313
   7.6491673   7.9211673  70.9061313   8.3421673   7.8631673  70.5451313
   5.7781673   5.8681673  69.8791313   6.4621673   5.3541673  69.7101313
   5.3611673   5.9141673  69.1141313   5.8171673   5.7991673  69.7411313
   2.2401673  10.8341673  75.9021313   2.7861673  11.5131673  75.9561313
   1.8901673  10.9161673  75.1071313   2.2691673  10.9471673  75.7921313
   9.6641673   4.0181673  73.3521313  10.1401673   3.2891673  73.3041313
   8.8431673   3.7321673  73.2761313   9.6131673   3.8681673  73.3331313
   5.8801673   5.1851673  75.7071313   5.9561673   5.5261673  76.5061313
   6.0491673   4.3381673  75.8281313   5.9161673   5.1101673  75.8431313
   3.4021673   4.4591673  75.2721313   3.1041673   4.1441673  76.0291313
   4.0971673   4.9321673  75.5071313   3.4611673   4.4821673  75.4191313
   7.3311673  11.4151673  77.8021313   6.8801673  12.0581673  78.1811313
   8.0391673  11.3361673  78.3071313   7.3691673  11.4981673  77.9331313
   4.3541673   8.0961673  73.9011313   4.1491673   8.9291673  73.7421313
   3.5791673   7.7141673  74.0231313   4.2091673   8.1631673  73.8961313
   8.3111673   2.0631673  78.0771313   8.9771673   2.6041673  78.2371313
   7.9661673   2.3741673  77.3381313   8.3581673   2.1891673  77.9921313
   8.6241673  10.1291673  73.8841313   8.4501673   9.4751673  74.4341313
   9.3371673   9.8581673  73.4611313   8.7041673   9.9921673  73.9031313
   7.0591673   2.5641673  73.0931313   7.1271673   1.7141673  73.2741313
   6.2361673   2.6501673  72.8151313   6.9471673   2.4511673  73.0791313
  10.1381673  11.5191673  69.5111313  10.7751673  11.3851673  70.0921313
   9.7971673  10.7251673  69.3941313  10.1821673  11.3821673  69.5791313
   6.2131673   7.7841673  71.8331313   5.9621673   7.6561673  72.6591313
   5.8961673   7.0891673  71.4121313   6.1291673   7.6631673  71.8931313
   3.0991673   5.9921673  71.2631313   3.8161673   5.6451673  70.9071313
   3.0651673   6.7921673  70.9151313   3.2001673   6.0591673  71.1591313
  10.4611673   8.9901673  53.1438903  11.1621673   8.4711673  53.1398903
   9.8741673   8.5451673  52.6748903  10.4781673   8.8471673  53.0738903
   6.9881673   2.6161673  56.8488903   7.0681673   2.6201673  55.9798903
   6.4041673   1.9841673  56.9978903   6.9131673   2.5231673  56.7428903
   1.7771673   7.0261673  58.7188903   2.1251673   6.2271673  58.7488903
   2.4421673   7.5301673  58.4638903   1.9271673   6.9821673  58.6858903
   1.8341673   6.4751673  54.9298903   2.1651673   5.8311673  55.4158903
   2.0741673   6.2641673  54.1188903   1.9181673   6.3491673  54.8818903
   5.9211673  10.5481673  52.0008903   6.6481673  11.0201673  52.1028903
   6.1501673   9.7541673  52.2808903   6.0631673  10.5011673  52.0578903
   4.0891673  10.9401673  53.9908903   4.3031673  11.4671673  54.6528903
   4.8561673  10.7661673  53.6118903   4.2341673  10.9921673  54.0328903
   6.5281673  10.9501673  62.2958903   7.2721673  11.4061673  62.2858903
   6.4071673  10.7361673  61.4588903   6.6201673  10.9861673  62.1708903
   8.1021673  12.1351673  52.4008903   8.7671673  11.9871673  51.8558903
   8.4621673  12.0521673  53.1908903   8.2541673  12.1011673  52.4368903
   5.7821673   8.1351673  65.9998903   5.7481673   8.5171673  66.7838903
   6.6361673   8.0931673  65.8288903   5.9031673   8.1851673  66.0908903
   2.9201673   8.3321673  50.7498903   2.7391673   8.8771673  51.4068903
   3.6861673   8.6221673  50.4488903   3.0061673   8.4561673  50.8028903
   4.2341673  11.2991673  63.4978903   5.0021673  11.2191673  63.0918903
   3.6511673  11.1781673  62.8598903   4.2611673  11.2691673  63.3438903
  10.5111673  11.9021673  56.3988903  10.0561673  12.6191673  56.5998903
   9.8971673  11.3311673  56.1568903  10.3531673  11.9241673  56.3928903
   7.5081673   7.7471673  55.9428903   8.2091673   7.2651673  56.1318903
   6.8481673   7.1781673  55.9878903   7.5141673   7.5921673  55.9768903
   6.7741673   4.8011673  61.6238903   6.2601673   4.3891673  62.1948903
   6.6481673   5.6451673  61.8048903   6.6801673   4.8651673  61.7348903
  10.0271673   5.2401673  51.7508903  10.1461673   4.9531673  52.5658903
  10.8341673   5.2611673  51.4208903  10.1631673   5.2011673  51.8228903
  12.2611673   9.7491673  66.0048903  11.5791673  10.0591673  65.5578903
  11.8921673   9.2911673  66.6498903  12.1051673   9.7271673  66.0338903
   7.9221673   1.7771673  51.3358903   7.7021673   2.5081673  50.9138903
   7.4741673   1.8281673  52.0828903   7.8231673   1.8921673  51.3838903
   4.0541673   8.6821673  57.6438903   3.5311673   9.3161673  57.3508903
   4.3641673   8.3181673  56.9148903   4.0221673   8.7221673  57.4928903
  10.0951673  10.1311673  64.0948903   9.4241673  10.6451673  64.3128903
  10.1581673  10.2311673  63.2308903  10.0051673  10.2221673  63.9998903
   2.0911673  10.8801673  61.6908903   1.8141673  10.2391673  61.1678903
   1.8831673  11.6061673  61.2528903   2.0201673  10.8931673  61.5488903
   7.3931673   5.6631673  66.1158903   7.8771673   6.3811673  66.2138903
   7.7871673   5.2361673  65.4648903   7.5231673   5.7061673  66.0338903
   4.8501673   2.4241673  52.2048903   4.8421673   3.1461673  51.7148903
   4.2111673   2.5591673  52.7818903   4.7551673   2.5511673  52.2178903
   9.8221673   6.2941673  56.1858903  10.1781673   5.9441673  56.9008903
   9.8141673   5.6331673  55.6158903   9.8741673   6.1441673  56.2068903
   5.8671673   9.3601673  60.0298903   5.2641673   9.0641673  59.4728903
   6.4121673   9.8121673  59.5208903   5.8581673   9.3831673  59.8718903
   5.8801673   6.2111673  59.4298903   5.0831673   6.4351673  59.7038903
   6.1381673   5.6171673  60.0148903   5.8001673   6.1561673  59.5568903
   2.0641673  10.5391673  52.2798903   2.6861673  10.7021673  52.8698903
   2.1001673  11.2301673  51.7478903   2.1611673  10.6651673  52.2888903
   9.1401673   4.2091673  64.2758903   9.1951673   4.3341673  63.4138903
   9.8931673   4.5291673  64.5778903   9.2591673   4.2741673  64.1928903
   5.3311673   9.5581673  68.5528903   5.4951673   9.8411673  69.3618903
   5.5941673  10.2191673  68.0478903   5.3941673   9.6981673  68.5978903
   4.8711673   4.0151673  63.8758903   4.7161673   4.6251673  64.4798903
   5.4051673   3.4571673  64.2818903   4.9271673   4.0231673  64.0248903
   3.2551673   2.4151673  54.5338903   3.3141673   3.0651673  55.1128903
   3.0661673   1.7191673  55.0248903   3.2361673   2.4081673  54.6918903
   8.4811673   6.7441673  60.4028903   8.0021673   7.0421673  59.7368903
   8.1251673   5.9681673  60.5808903   8.3581673   6.6731673  60.3308903
   2.4781673   4.4621673  58.9648903   1.6311673   4.2681673  59.0458903
   2.8021673   4.2971673  59.7578903   2.4001673   4.4091673  59.0938903
  12.1731673  10.9101673  52.3428903  12.8671673  10.4431673  52.0948903
  11.6341673  10.3121673  52.6798903  12.1961673  10.7521673  52.3558903
   9.4121673   3.6861673  61.5218903   9.4051673   2.9101673  61.9198903
   8.5711673   3.9201673  61.5148903   9.2871673   3.6061673  61.5798903
  10.6681673   3.7571673  58.9588903  10.3821673   4.1581673  59.6788903
  11.5281673   3.6951673  59.0858903  10.7531673   3.8071673  59.0838903
  11.7991673   9.3901673  59.4878903  12.0891673   9.6471673  58.7068903
  12.4941673   9.4861673  60.0068903  11.9451673   9.4421673  59.4488903
   8.4041673   7.9931673  51.4698903   8.7381673   7.1871673  51.5048903
   7.6491673   7.9211673  51.8998903   8.3421673   7.8631673  51.5388903
  11.7881673   2.1111673  68.6748903  11.7361673   1.7701673  67.8738903
  12.5251673   2.5781673  68.6528903  11.8891673   2.1301673  68.5528903
  11.3261673   5.7871673  64.8808903  11.9541673   5.2381673  64.6248903
  11.2651673   6.3521673  64.2188903  11.4101673   5.7901673  64.7448903
   5.7781673   5.8681673  50.8728903   6.4621673   5.3541673  50.7038903
   5.3611673   5.9141673  50.1078903   5.8171673   5.7991673  50.7348903
   2.9761673   3.4411673  61.6678903   3.4521673   3.8151673  62.2958903
   2.1531673   3.5751673  61.9268903   2.9251673   3.5161673  61.7988903
   2.2401673  10.8341673  56.8958903   2.7861673  11.5131673  56.9498903
   1.8901673  10.9161673  56.1008903   2.2691673  10.9471673  56.7858903
   4.7321673   5.6961673  67.2738903   5.4891673   5.9821673  66.9478903
   4.1851673   5.7481673  66.5958903   4.7631673   5.7461673  67.1248903
   8.6411673   8.2461673  65.7778903   8.9871673   8.5161673  66.5318903
   8.9351673   8.8281673  65.1978903   8.7361673   8.3721673  65.8038903
   3.0761673  10.7111673  66.1648903   3.5541673  10.1111673  65.7488903
   2.7251673  10.2681673  66.8298903   3.0951673  10.5571673  66.2018903
   9.6641673   4.0181673  54.3458903  10.1401673   3.2891673  54.2978903
   8.8431673   3.7321673  54.2698903   9.6131673   3.8681673  54.3268903
   3.1351673   5.9301673  65.1848903   2.3401673   5.8661673  65.5358903
   3.2061673   6.7771673  64.9898903   3.0281673   6.0451673  65.2078903
   5.8801673   5.1851673  56.7008903   5.9561673   5.5261673  57.4998903
   6.0491673   4.3381673  56.8218903   5.9161673   5.1101673  56.8368903
   3.4021673   4.4591673  56.2658903   3.1041673   4.1441673  57.0228903
   4.0971673   4.9321673  56.5008903   3.4611673   4.4821673  56.4128903
   3.6241673   8.5771673  64.2928903   4.3111673   8.4631673  64.8178903
   3.7581673   9.3681673  63.9488903   3.7451673   8.6771673  64.3198903
   4.2471673   3.0411673  67.8668903   4.5701673   3.7271673  67.4348903
   3.5431673   3.3641673  68.2688903   4.1901673   3.1901673  67.8618903
   7.3311673  11.4151673  58.7958903   6.8801673  12.0581673  59.1748903
   8.0391673  11.3361673  59.3008903   7.3691673  11.4981673  58.9268903
   4.0321673   6.5051673  61.7258903   3.3381673   6.9071673  62.0688903
   4.7091673   6.9381673  62.0648903   4.0291673   6.6281673  61.8268903
   9.4091673   9.0981673  68.3058903  10.1851673   8.7081673  68.3888903
   8.9401673   8.7621673  68.9608903   9.4541673   8.9911673  68.4148903
   4.3541673   8.0961673  54.8948903   4.1491673   8.9291673  54.7358903
   3.5791673   7.7141673  55.0168903   4.2091673   8.1631673  54.8898903
   8.3111673   2.0631673  59.0708903   8.9771673   2.6041673  59.2308903
   7.9661673   2.3741673  58.3318903   8.3581673   2.1891673  58.9858903
   8.6241673  10.1291673  54.8778903   8.4501673   9.4751673  55.4278903
   9.3371673   9.8581673  54.4548903   8.7041673   9.9921673  54.8968903
   6.2991673   7.5821673  62.5688903   6.5051673   7.8831673  63.3608903
   6.2381673   8.3041673  62.0838903   6.3201673   7.7331673  62.6138903
   5.8331673  11.7961673  66.8148903   5.0801673  11.7781673  66.3738903
   6.0011673  12.6481673  66.8988903   5.7471673  11.9191673  66.7618903
  11.1111673   6.2211673  62.0268903  11.0791673   5.3591673  61.8918903
  10.4181673   6.5231673  61.5928903  11.0041673   6.1381673  61.9428903
   9.2161673   9.4811673  60.8238903   9.7431673   9.3981673  60.1328903
   8.8251673   8.7031673  60.8778903   9.2361673   9.3541673  60.7298903
   7.0591673   2.5641673  54.0868903   7.1271673   1.7141673  54.2678903
   6.2361673   2.6501673  53.8088903   6.9471673   2.4511673  54.0728903
  10.1381673  11.5191673  50.5048903  10.7751673  11.3851673  51.0858903
   9.7971673  10.7251673  50.3878903  10.1821673  11.3821673  50.5728903
  10.3331673   3.9371673  67.2378903  10.9671673   3.7671673  67.8118903
  10.7501673   4.3401673  66.5858903  10.4881673   3.9721673  67.2268903
   6.2131673   7.7841673  52.8268903   5.9621673   7.6561673  53.6528903
   5.8961673   7.0891673  52.4058903   6.1291673   7.6631673  52.8868903
   7.7441673   4.0481673  68.5928903   8.6151673   4.0121673  68.5568903
   7.5251673   4.4681673  67.8608903   7.8411673   4.1041673  68.4798903
   3.0991673   5.9921673  52.2568903   3.8161673   5.6451673  51.9008903
   3.0651673   6.7921673  51.9088903   3.2001673   6.0591673  52.1528903
  10.4611673   8.9901673  34.1376493  11.1621673   8.4711673  34.1336493
   9.8741673   8.5451673  33.6686493  10.4781673   8.8471673  34.0676493
   6.9881673   2.6161673  37.8426493   7.0681673   2.6201673  36.9736493
   6.4041673   1.9841673  37.9916493   6.9131673   2.5231673  37.7366493
   1.7771673   7.0261673  39.7126493   2.1251673   6.2271673  39.7426493
   2.4421673   7.5301673  39.4576493   1.9271673   6.9821673  39.6796493
   1.8341673   6.4751673  35.9236493   2.1651673   5.8311673  36.4096493
   2.0741673   6.2641673  35.1126493   1.9181673   6.3491673  35.8756493
   5.9211673  10.5481673  32.9946493   6.6481673  11.0201673  33.0966493
   6.1501673   9.7541673  33.2746493   6.0631673  10.5011673  33.0516493
   4.0891673  10.9401673  34.9846493   4.3031673  11.4671673  35.6466493
   4.8561673  10.7661673  34.6056493   4.2341673  10.9921673  35.0266493
   6.5281673  10.9501673  43.2896493   7.2721673  11.4061673  43.2796493
   6.4071673  10.7361673  42.4526493   6.6201673  10.9861673  43.1646493
   8.1021673  12.1351673  33.3946493   8.7671673  11.9871673  32.8496493
   8.4621673  12.0521673  34.1846493   8.2541673  12.1011673  33.4306493
   5.7821673   8.1351673  46.9936493   5.7481673   8.5171673  47.7776493
   6.6361673   8.0931673  46.8226493   5.9031673   8.1851673  47.0846493
   2.9201673   8.3321673  31.7436493   2.7391673   8.8771673  32.4006493
   3.6861673   8.6221673  31.4426493   3.0061673   8.4561673  31.7966493
   4.2341673  11.2991673  44.4916493   5.0021673  11.2191673  44.0856493
   3.6511673  11.1781673  43.8536493   4.2611673  11.2691673  44.3376493
  10.5111673  11.9021673  37.3926493  10.0561673  12.6191673  37.5936493
   9.8971673  11.3311673  37.1506493  10.3531673  11.9241673  37.3866493
   7.5081673   7.7471673  36.9366493   8.2091673   7.2651673  37.1256493
   6.8481673   7.1781673  36.9816493   7.5141673   7.5921673  36.9706493
   6.7741673   4.8011673  42.6176493   6.2601673   4.3891673  43.1886493
   6.6481673   5.6451673  42.7986493   6.6801673   4.8651673  42.7286493
  10.0271673   5.2401673  32.7446493  10.1461673   4.9531673  33.5596493
  10.8341673   5.2611673  32.4146493  10.1631673   5.2011673  32.8166493
  12.2611673   9.7491673  46.9986493  11.5791673  10.0591673  46.5516493
  11.8921673   9.2911673  47.6436493  12.1051673   9.7271673  47.0276493
   7.9221673   1.7771673  32.3296493   7.7021673   2.5081673  31.9076493
   7.4741673   1.8281673  33.0766493   7.8231673   1.8921673  32.3776493
   4.0541673   8.6821673  38.6376493   3.5311673   9.3161673  38.3446493
   4.3641673   8.3181673  37.9086493   4.0221673   8.7221673  38.4866493
  10.0951673  10.1311673  45.0886493   9.4241673  10.6451673  45.3066493
  10.1581673  10.2311673  44.2246493  10.0051673  10.2221673  44.9936493
   2.0911673  10.8801673  42.6846493   1.8141673  10.2391673  42.1616493
   1.8831673  11.6061673  42.2466493   2.0201673  10.8931673  42.5426493
   7.3931673   5.6631673  47.1096493   7.8771673   6.3811673  47.2076493
   7.7871673   5.2361673  46.4586493   7.5231673   5.7061673  47.0276493
   4.8501673   2.4241673  33.1986493   4.8421673   3.1461673  32.7086493
   4.2111673   2.5591673  33.7756493   4.7551673   2.5511673  33.2116493
   9.8221673   6.2941673  37.1796493  10.1781673   5.9441673  37.8946493
   9.8141673   5.6331673  36.6096493   9.8741673   6.1441673  37.2006493
   5.8671673   9.3601673  41.0236493   5.2641673   9.0641673  40.4666493
   6.4121673   9.8121673  40.5146493   5.8581673   9.3831673  40.8656493
   5.8801673   6.2111673  40.4236493   5.0831673   6.4351673  40.6976493
   6.1381673   5.6171673  41.0086493   5.8001673   6.1561673  40.5506493
   2.0641673  10.5391673  33.2736493   2.6861673  10.7021673  33.8636493
   2.1001673  11.2301673  32.7416493   2.1611673  10.6651673  33.2826493
   9.1401673   4.2091673  45.2696493   9.1951673   4.3341673  44.4076493
   9.8931673   4.5291673  45.5716493   9.2591673   4.2741673  45.1866493
   5.3311673   9.5581673  49.5466493   5.4951673   9.8411673  50.3556493
   5.5941673  10.2191673  49.0416493   5.3941673   9.6981673  49.5916493
   4.8711673   4.0151673  44.8696493   4.7161673   4.6251673  45.4736493
   5.4051673   3.4571673  45.2756493   4.9271673   4.0231673  45.0186493
   3.2551673   2.4151673  35.5276493   3.3141673   3.0651673  36.1066493
   3.0661673   1.7191673  36.0186493   3.2361673   2.4081673  35.6856493
   8.4811673   6.7441673  41.3966493   8.0021673   7.0421673  40.7306493
   8.1251673   5.9681673  41.5746493   8.3581673   6.6731673  41.3246493
   2.4781673   4.4621673  39.9586493   1.6311673   4.2681673  40.0396493
   2.8021673   4.2971673  40.7516493   2.4001673   4.4091673  40.0876493
  12.1731673  10.9101673  33.3366493  12.8671673  10.4431673  33.0886493
  11.6341673  10.3121673  33.6736493  12.1961673  10.7521673  33.3496493
   9.4121673   3.6861673  42.5156493   9.4051673   2.9101673  42.9136493
   8.5711673   3.9201673  42.5086493   9.2871673   3.6061673  42.5736493
  10.6681673   3.7571673  39.9526493  10.3821673   4.1581673  40.6726493
  11.5281673   3.6951673  40.0796493  10.7531673   3.8071673  40.0776493
  11.7991673   9.3901673  40.4816493  12.0891673   9.6471673  39.7006493
  12.4941673   9.4861673  41.0006493  11.9451673   9.4421673  40.4426493
   8.4041673   7.9931673  32.4636493   8.7381673   7.1871673  32.4986493
   7.6491673   7.9211673  32.8936493   8.3421673   7.8631673  32.5326493
  11.7881673   2.1111673  49.6686493  11.7361673   1.7701673  48.8676493
  12.5251673   2.5781673  49.6466493  11.8891673   2.1301673  49.5466493
  11.3261673   5.7871673  45.8746493  11.9541673   5.2381673  45.6186493
  11.2651673   6.3521673  45.2126493  11.4101673   5.7901673  45.7386493
   5.7781673   5.8681673  31.8666493   6.4621673   5.3541673  31.6976493
   5.3611673   5.9141673  31.1016493   5.8171673   5.7991673  31.7286493
   2.9761673   3.4411673  42.6616493   3.4521673   3.8151673  43.2896493
   2.1531673   3.5751673  42.9206493   2.9251673   3.5161673  42.7926493
   2.2401673  10.8341673  37.8896493   2.7861673  11.5131673  37.9436493
   1.8901673  10.9161673  37.0946493   2.2691673  10.9471673  37.7796493
   4.7321673   5.6961673  48.2676493   5.4891673   5.9821673  47.9416493
   4.1851673   5.7481673  47.5896493   4.7631673   5.7461673  48.1186493
   8.6411673   8.2461673  46.7716493   8.9871673   8.5161673  47.5256493
   8.9351673   8.8281673  46.1916493   8.7361673   8.3721673  46.7976493
   3.0761673  10.7111673  47.1586493   3.5541673  10.1111673  46.7426493
   2.7251673  10.2681673  47.8236493   3.0951673  10.5571673  47.1956493
   9.6641673   4.0181673  35.3396493  10.1401673   3.2891673  35.2916493
   8.8431673   3.7321673  35.2636493   9.6131673   3.8681673  35.3206493
   3.1351673   5.9301673  46.1786493   2.3401673   5.8661673  46.5296493
   3.2061673   6.7771673  45.9836493   3.0281673   6.0451673  46.2016493
   5.8801673   5.1851673  37.6946493   5.9561673   5.5261673  38.4936493
   6.0491673   4.3381673  37.8156493   5.9161673   5.1101673  37.8306493
   3.4021673   4.4591673  37.2596493   3.1041673   4.1441673  38.0166493
   4.0971673   4.9321673  37.4946493   3.4611673   4.4821673  37.4066493
   3.6241673   8.5771673  45.2866493   4.3111673   8.4631673  45.8116493
   3.7581673   9.3681673  44.9426493   3.7451673   8.6771673  45.3136493
   4.2471673   3.0411673  48.8606493   4.5701673   3.7271673  48.4286493
   3.5431673   3.3641673  49.2626493   4.1901673   3.1901673  48.8556493
   7.3311673  11.4151673  39.7896493   6.8801673  12.0581673  40.1686493
   8.0391673  11.3361673  40.2946493   7.3691673  11.4981673  39.9206493
   4.0321673   6.5051673  42.7196493   3.3381673   6.9071673  43.0626493
   4.7091673   6.9381673  43.0586493   4.0291673   6.6281673  42.8206493
   9.4091673   9.0981673  49.2996493  10.1851673   8.7081673  49.3826493
   8.9401673   8.7621673  49.9546493   9.4541673   8.9911673  49.4086493
   4.3541673   8.0961673  35.8886493   4.1491673   8.9291673  35.7296493
   3.5791673   7.7141673  36.0106493   4.2091673   8.1631673  35.8836493
   8.3111673   2.0631673  40.0646493   8.9771673   2.6041673  40.2246493
   7.9661673   2.3741673  39.3256493   8.3581673   2.1891673  39.9796493
   8.6241673  10.1291673  35.8716493   8.4501673   9.4751673  36.4216493
   9.3371673   9.8581673  35.4486493   8.7041673   9.9921673  35.8906493
   6.2991673   7.5821673  43.5626493   6.5051673   7.8831673  44.3546493
   6.2381673   8.3041673  43.0776493   6.3201673   7.7331673  43.6076493
   5.8331673  11.7961673  47.8086493   5.0801673  11.7781673  47.3676493
   6.0011673  12.6481673  47.8926493   5.7471673  11.9191673  47.7556493
  11.1111673   6.2211673  43.0206493  11.0791673   5.3591673  42.8856493
  10.4181673   6.5231673  42.5866493  11.0041673   6.1381673  42.9366493
   9.2161673   9.4811673  41.8176493   9.7431673   9.3981673  41.1266493
   8.8251673   8.7031673  41.8716493   9.2361673   9.3541673  41.7236493
   7.0591673   2.5641673  35.0806493   7.1271673   1.7141673  35.2616493
   6.2361673   2.6501673  34.8026493   6.9471673   2.4511673  35.0666493
  10.1381673  11.5191673  31.4986493  10.7751673  11.3851673  32.0796493
   9.7971673  10.7251673  31.3816493  10.1821673  11.3821673  31.5666493
  10.3331673   3.9371673  48.2316493  10.9671673   3.7671673  48.8056493
  10.7501673   4.3401673  47.5796493  10.4881673   3.9721673  48.2206493
   6.2131673   7.7841673  33.8206493   5.9621673   7.6561673  34.6466493
   5.8961673   7.0891673  33.3996493   6.1291673   7.6631673  33.8806493
   7.7441673   4.0481673  49.5866493   8.6151673   4.0121673  49.5506493
   7.5251673   4.4681673  48.8546493   7.8411673   4.1041673  49.4736493
   3.0991673   5.9921673  33.2506493   3.8161673   5.6451673  32.8946493
   3.0651673   6.7921673  32.9026493   3.2001673   6.0591673  33.1466493
  10.4611673   8.9901673  15.1314083  11.1621673   8.4711673  15.1274083
   9.8741673   8.5451673  14.6624083  10.4781673   8.8471673  15.0614083
   6.9881673   2.6161673  18.8364083   7.0681673   2.6201673  17.9674083
   6.4041673   1.9841673  18.9854083   6.9131673   2.5231673  18.7304083
   1.7771673   7.0261673  20.7064083   2.1251673   6.2271673  20.7364083
   2.4421673   7.5301673  20.4514083   1.9271673   6.9821673  20.6734083
   1.8341673   6.4751673  16.9174083   2.1651673   5.8311673  17.4034083
   2.0741673   6.2641673  16.1064083   1.9181673   6.3491673  16.8694083
   5.9211673  10.5481673  13.9884083   6.6481673  11.0201673  14.0904083
   6.1501673   9.7541673  14.2684083   6.0631673  10.5011673  14.0454083
   4.0891673  10.9401673  15.9784083   4.3031673  11.4671673  16.6404083
   4.8561673  10.7661673  15.5994083   4.2341673  10.9921673  16.0204083
   6.5281673  10.9501673  24.2834083   7.2721673  11.4061673  24.2734083
   6.4071673  10.7361673  23.4464083   6.6201673  10.9861673  24.1584083
   8.1021673  12.1351673  14.3884083   8.7671673  11.9871673  13.8434083
   8.4621673  12.0521673  15.1784083   8.2541673  12.1011673  14.4244083
   5.7821673   8.1351673  27.9874083   5.7481673   8.5171673  28.7714083
   6.6361673   8.0931673  27.8164083   5.9031673   8.1851673  28.0784083
   2.9201673   8.3321673  12.7374083   2.7391673   8.8771673  13.3944083
   3.6861673   8.6221673  12.4364083   3.0061673   8.4561673  12.7904083
   4.2341673  11.2991673  25.4854083   5.0021673  11.2191673  25.0794083
   3.6511673  11.1781673  24.8474083   4.2611673  11.2691673  25.3314083
  10.5111673  11.9021673  18.3864083  10.0561673  12.6191673  18.5874083
   9.8971673  11.3311673  18.1444083  10.3531673  11.9241673  18.3804083
   7.5081673   7.7471673  17.9304083   8.2091673   7.2651673  18.1194083
   6.8481673   7.1781673  17.9754083   7.5141673   7.5921673  17.9644083
   6.7741673   4.8011673  23.6114083   6.2601673   4.3891673  24.1824083
   6.6481673   5.6451673  23.7924083   6.6801673   4.8651673  23.7224083
  10.0271673   5.2401673  13.7384083  10.1461673   4.9531673  14.5534083
  10.8341673   5.2611673  13.4084083  10.1631673   5.2011673  13.8104083
  12.2611673   9.7491673  27.9924083  11.5791673  10.0591673  27.5454083
  11.8921673   9.2911673  28.6374083  12.1051673   9.7271673  28.0214083
   7.9221673   1.7771673  13.3234083   7.7021673   2.5081673  12.9014083
   7.4741673   1.8281673  14.0704083   7.8231673   1.8921673  13.3714083
   4.0541673   8.6821673  19.6314083   3.5311673   9.3161673  19.3384083
   4.3641673   8.3181673  18.9024083   4.0221673   8.7221673  19.4804083
  10.0951673  10.1311673  26.0824083   9.4241673  10.6451673  26.3004083
  10.1581673  10.2311673  25.2184083  10.0051673  10.2221673  25.9874083
   2.0911673  10.8801673  23.6784083   1.8141673  10.2391673  23.1554083
   1.8831673  11.6061673  23.2404083   2.0201673  10.8931673  23.5364083
   7.3931673   5.6631673  28.1034083   7.8771673   6.3811673  28.2014083
   7.7871673   5.2361673  27.4524083   7.5231673   5.7061673  28.0214083
   4.8501673   2.4241673  14.1924083   4.8421673   3.1461673  13.7024083
   4.2111673   2.5591673  14.7694083   4.7551673   2.5511673  14.2054083
   9.8221673   6.2941673  18.1734083  10.1781673   5.9441673  18.8884083
   9.8141673   5.6331673  17.6034083   9.8741673   6.1441673  18.1944083
   5.8671673   9.3601673  22.0174083   5.2641673   9.0641673  21.4604083
   6.4121673   9.8121673  21.5084083   5.8581673   9.3831673  21.8594083
   5.8801673   6.2111673  21.4174083   5.0831673   6.4351673  21.6914083
   6.1381673   5.6171673  22.0024083   5.8001673   6.1561673  21.5444083
   2.0641673  10.5391673  14.2674083   2.6861673  10.7021673  14.8574083
   2.1001673  11.2301673  13.7354083   2.1611673  10.6651673  14.2764083
   9.1401673   4.2091673  26.2634083   9.1951673   4.3341673  25.4014083
   9.8931673   4.5291673  26.5654083   9.2591673   4.2741673  26.1804083
   5.3311673   9.5581673  30.5404083   5.4951673   9.8411673  31.3494083
   5.5941673  10.2191673  30.0354083   5.3941673   9.6981673  30.5854083
   4.8711673   4.0151673  25.8634083   4.7161673   4.6251673  26.4674083
   5.4051673   3.4571673  26.2694083   4.9271673   4.0231673  26.0124083
   3.2551673   2.4151673  16.5214083   3.3141673   3.0651673  17.1004083
   3.0661673   1.7191673  17.0124083   3.2361673   2.4081673  16.6794083
   8.4811673   6.7441673  22.3904083   8.0021673   7.0421673  21.7244083
   8.1251673   5.9681673  22.5684083   8.3581673   6.6731673  22.3184083
   2.4781673   4.4621673  20.9524083   1.6311673   4.2681673  21.0334083
   2.8021673   4.2971673  21.7454083   2.4001673   4.4091673  21.0814083
  12.1731673  10.9101673  14.3304083  12.8671673  10.4431673  14.0824083
  11.6341673  10.3121673  14.6674083  12.1961673  10.7521673  14.3434083
   9.4121673   3.6861673  23.5094083   9.4051673   2.9101673  23.9074083
   8.5711673   3.9201673  23.5024083   9.2871673   3.6061673  23.5674083
  10.6681673   3.7571673  20.9464083  10.3821673   4.1581673  21.6664083
  11.5281673   3.6951673  21.0734083  10.7531673   3.8071673  21.0714083
  11.7991673   9.3901673  21.4754083  12.0891673   9.6471673  20.6944083
  12.4941673   9.4861673  21.9944083  11.9451673   9.4421673  21.4364083
   8.4041673   7.9931673  13.4574083   8.7381673   7.1871673  13.4924083
   7.6491673   7.9211673  13.8874083   8.3421673   7.8631673  13.5264083
  11.7881673   2.1111673  30.6624083  11.7361673   1.7701673  29.8614083
  12.5251673   2.5781673  30.6404083  11.8891673   2.1301673  30.5404083
  11.3261673   5.7871673  26.8684083  11.9541673   5.2381673  26.6124083
  11.2651673   6.3521673  26.2064083  11.4101673   5.7901673  26.7324083
   5.7781673   5.8681673  12.8604083   6.4621673   5.3541673  12.6914083
   5.3611673   5.9141673  12.0954083   5.8171673   5.7991673  12.7224083
   2.9761673   3.4411673  23.6554083   3.4521673   3.8151673  24.2834083
   2.1531673   3.5751673  23.9144083   2.9251673   3.5161673  23.7864083
   2.2401673  10.8341673  18.8834083   2.7861673  11.5131673  18.9374083
   1.8901673  10.9161673  18.0884083   2.2691673  10.9471673  18.7734083
   4.7321673   5.6961673  29.2614083   5.4891673   5.9821673  28.9354083
   4.1851673   5.7481673  28.5834083   4.7631673   5.7461673  29.1124083
   8.6411673   8.2461673  27.7654083   8.9871673   8.5161673  28.5194083
   8.9351673   8.8281673  27.1854083   8.7361673   8.3721673  27.7914083
   3.0761673  10.7111673  28.1524083   3.5541673  10.1111673  27.7364083
   2.7251673  10.2681673  28.8174083   3.0951673  10.5571673  28.1894083
   9.6641673   4.0181673  16.3334083  10.1401673   3.2891673  16.2854083
   8.8431673   3.7321673  16.2574083   9.6131673   3.8681673  16.3144083
   3.1351673   5.9301673  27.1724083   2.3401673   5.8661673  27.5234083
   3.2061673   6.7771673  26.9774083   3.0281673   6.0451673  27.1954083
   5.8801673   5.1851673  18.6884083   5.9561673   5.5261673  19.4874083
   6.0491673   4.3381673  18.8094083   5.9161673   5.1101673  18.8244083
   3.4021673   4.4591673  18.2534083   3.1041673   4.1441673  19.0104083
   4.0971673   4.9321673  18.4884083   3.4611673   4.4821673  18.4004083
   3.6241673   8.5771673  26.2804083   4.3111673   8.4631673  26.8054083
   3.7581673   9.3681673  25.9364083   3.7451673   8.6771673  26.3074083
   4.2471673   3.0411673  29.8544083   4.5701673   3.7271673  29.4224083
   3.5431673   3.3641673  30.2564083   4.1901673   3.1901673  29.8494083
   7.3311673  11.4151673  20.7834083   6.8801673  12.0581673  21.1624083
   8.0391673  11.3361673  21.2884083   7.3691673  11.4981673  20.9144083
   4.0321673   6.5051673  23.7134083   3.3381673   6.9071673  24.0564083
   4.7091673   6.9381673  24.0524083   4.0291673   6.6281673  23.8144083
   9.4091673   9.0981673  30.2934083  10.1851673   8.7081673  30.3764083
   8.9401673   8.7621673  30.9484083   9.4541673   8.9911673  30.4024083
   4.3541673   8.0961673  16.8824083   4.1491673   8.9291673  16.7234083
   3.5791673   7.7141673  17.0044083   4.2091673   8.1631673  16.8774083
   8.3111673   2.0631673  21.0584083   8.9771673   2.6041673  21.2184083
   7.9661673   2.3741673  20.3194083   8.3581673   2.1891673  20.9734083
   8.6241673  10.1291673  16.8654083   8.4501673   9.4751673  17.4154083
   9.3371673   9.8581673  16.4424083   8.7041673   9.9921673  16.8844083
   6.2991673   7.5821673  24.5564083   6.5051673   7.8831673  25.3484083
   6.2381673   8.3041673  24.0714083   6.3201673   7.7331673  24.6014083
   5.8331673  11.7961673  28.8024083   5.0801673  11.7781673  28.3614083
   6.0011673  12.6481673  28.8864083   5.7471673  11.9191673  28.7494083
  11.1111673   6.2211673  24.0144083  11.0791673   5.3591673  23.8794083
  10.4181673   6.5231673  23.5804083  11.0041673   6.1381673  23.9304083
   9.2161673   9.4811673  22.8114083   9.7431673   9.3981673  22.1204083
   8.8251673   8.7031673  22.8654083   9.2361673   9.3541673  22.7174083
   7.0591673   2.5641673  16.0744083   7.1271673   1.7141673  16.2554083
   6.2361673   2.6501673  15.7964083   6.9471673   2.4511673  16.0604083
  10.1381673  11.5191673  12.4924083  10.7751673  11.3851673  13.0734083
   9.7971673  10.7251673  12.3754083  10.1821673  11.3821673  12.5604083
  10.3331673   3.9371673  29.2254083  10.9671673   3.7671673  29.7994083
  10.7501673   4.3401673  28.5734083  10.4881673   3.9721673  29.2144083
   6.2131673   7.7841673  14.8144083   5.9621673   7.6561673  15.6404083
   5.8961673   7.0891673  14.3934083   6.1291673   7.6631673  14.8744083
   7.7441673   4.0481673  30.5804083   8.6151673   4.0121673  30.5444083
   7.5251673   4.4681673  29.8484083   7.8411673   4.1041673  30.4674083
   3.0991673   5.9921673  14.2444083   3.8161673   5.6451673  13.8884083
   3.0651673   6.7921673  13.8964083   3.2001673   6.0591673  14.1404083
   6.5281673  10.9501673   5.2771673   7.2721673  11.4061673   5.2671673
   6.4071673  10.7361673   4.4401673   6.6201673  10.9861673   5.1521673
   5.7821673   8.1351673   8.9811673   5.7481673   8.5171673   9.7651673
   6.6361673   8.0931673   8.8101673   5.9031673   8.1851673   9.0721673
   4.2341673  11.2991673   6.4791673   5.0021673  11.2191673   6.0731673
   3.6511673  11.1781673   5.8411673   4.2611673  11.2691673   6.3251673
   6.7741673   4.8011673   4.6051673   6.2601673   4.3891673   5.1761673
   6.6481673   5.6451673   4.7861673   6.6801673   4.8651673   4.7161673
  12.2611673   9.7491673   8.9861673  11.5791673  10.0591673   8.5391673
  11.8921673   9.2911673   9.6311673  12.1051673   9.7271673   9.0151673
  10.0951673  10.1311673   7.0761673   9.4241673  10.6451673   7.2941673
  10.1581673  10.2311673   6.2121673  10.0051673  10.2221673   6.9811673
   2.0911673  10.8801673   4.6721673   1.8141673  10.2391673   4.1491673
   1.8831673  11.6061673   4.2341673   2.0201673  10.8931673   4.5301673
   7.3931673   5.6631673   9.0971673   7.8771673   6.3811673   9.1951673
   7.7871673   5.2361673   8.4461673   7.5231673   5.7061673   9.0151673
   5.8671673   9.3601673   3.0111673   5.2641673   9.0641673   2.4541673
   6.4121673   9.8121673   2.5021673   5.8581673   9.3831673   2.8531673
   5.8801673   6.2111673   2.4111673   5.0831673   6.4351673   2.6851673
   6.1381673   5.6171673   2.9961673   5.8001673   6.1561673   2.5381673
   9.1401673   4.2091673   7.2571673   9.1951673   4.3341673   6.3951673
   9.8931673   4.5291673   7.5591673   9.2591673   4.2741673   7.1741673
   5.3311673   9.5581673  11.5341673   5.4951673   9.8411673  12.3431673
   5.5941673  10.2191673  11.0291673   5.3941673   9.6981673  11.5791673
   4.8711673   4.0151673   6.8571673   4.7161673   4.6251673   7.4611673
   5.4051673   3.4571673   7.2631673   4.9271673   4.0231673   7.0061673
   8.4811673   6.7441673   3.3841673   8.0021673   7.0421673   2.7181673
   8.1251673   5.9681673   3.5621673   8.3581673   6.6731673   3.3121673
   2.4781673   4.4621673   1.9461673   1.6311673   4.2681673   2.0271673
   2.8021673   4.2971673   2.7391673   2.4001673   4.4091673   2.0751673
   9.4121673   3.6861673   4.5031673   9.4051673   2.9101673   4.9011673
   8.5711673   3.9201673   4.4961673   9.2871673   3.6061673   4.5611673
  10.6681673   3.7571673   1.9401673  10.3821673   4.1581673   2.6601673
  11.5281673   3.6951673   2.0671673  10.7531673   3.8071673   2.0651673
  11.7991673   9.3901673   2.4691673  12.0891673   9.6471673   1.6881673
  12.4941673   9.4861673   2.9881673  11.9451673   9.4421673   2.4301673
  11.7881673   2.1111673  11.6561673  11.7361673   1.7701673  10.8551673
  12.5251673   2.5781673  11.6341673  11.8891673   2.1301673  11.5341673
  11.3261673   5.7871673   7.8621673  11.9541673   5.2381673   7.6061673
  11.2651673   6.3521673   7.2001673  11.4101673   5.7901673   7.7261673
   2.9761673   3.4411673   4.6491673   3.4521673   3.8151673   5.2771673
   2.1531673   3.5751673   4.9081673   2.9251673   3.5161673   4.7801673
   4.7321673   5.6961673  10.2551673   5.4891673   5.9821673   9.9291673
   4.1851673   5.7481673   9.5771673   4.7631673   5.7461673  10.1061673
   8.6411673   8.2461673   8.7591673   8.9871673   8.5161673   9.5131673
   8.9351673   8.8281673   8.1791673   8.7361673   8.3721673   8.7851673
   3.0761673  10.7111673   9.1461673   3.5541673  10.1111673   8.7301673
   2.7251673  10.2681673   9.8111673   3.0951673  10.5571673   9.1831673
   3.1351673   5.9301673   8.1661673   2.3401673   5.8661673   8.5171673
   3.2061673   6.7771673   7.9711673   3.0281673   6.0451673   8.1891673
   3.6241673   8.5771673   7.2741673   4.3111673   8.4631673   7.7991673
   3.7581673   9.3681673   6.9301673   3.7451673   8.6771673   7.3011673
   4.2471673   3.0411673  10.8481673   4.5701673   3.7271673  10.4161673
   3.5431673   3.3641673  11.2501673   4.1901673   3.1901673  10.8431673
   7.3311673  11.4151673   1.7771673   6.8801673  12.0581673   2.1561673
   8.0391673  11.3361673   2.2821673   7.3691673  11.4981673   1.9081673
   4.0321673   6.5051673   4.7071673   3.3381673   6.9071673   5.0501673
   4.7091673   6.9381673   5.0461673   4.0291673   6.6281673   4.8081673
   9.4091673   9.0981673  11.2871673  10.1851673   8.7081673  11.3701673
   8.9401673   8.7621673  11.9421673   9.4541673   8.9911673  11.3961673
   6.2991673   7.5821673   5.5501673   6.5051673   7.8831673   6.3421673
   6.2381673   8.3041673   5.0651673   6.3201673   7.7331673   5.5951673
   5.8331673  11.7961673   9.7961673   5.0801673  11.7781673   9.3551673
   6.0011673  12.6481673   9.8801673   5.7471673  11.9191673   9.7431673
  11.1111673   6.2211673   5.0081673  11.0791673   5.3591673   4.8731673
  10.4181673   6.5231673   4.5741673  11.0041673   6.1381673   4.9241673
   9.2161673   9.4811673   3.8051673   9.7431673   9.3981673   3.1141673
   8.8251673   8.7031673   3.8591673   9.2361673   9.3541673   3.7111673
  10.3331673   3.9371673  10.2191673  10.9671673   3.7671673  10.7931673
  10.7501673   4.3401673   9.5671673  10.4881673   3.9721673  10.2081673
   7.7441673   4.0481673  11.5741673   8.6151673   4.0121673  11.5381673
   7.5251673   4.4681673  10.8421673   7.8411673   4.1041673  11.4611673
  80.9217105  80.4337665  80.5572985  90.0000000  90.0000000  90.0000000
