GROningen MAchine for Chemical Simulation
 1062
    1C5    HO5'    1   3.411   5.495   3.660
    1C5     O5'    2   3.461   5.441   3.627
    1C5     C5'    3   3.592   5.417   3.682
    1C5     H5'    4   3.665   5.440   3.623
    1C5    H5''    5   3.594   5.321   3.699
    1C5     C4'    6   3.608   5.492   3.812
    1C5     H4'    7   3.635   5.583   3.795
    1C5     O4'    8   3.482   5.493   3.881
    1C5     C1'    9   3.502   5.476   4.021
    1C5     H1'   10   3.461   5.549   4.070
    1C5      N1   11   3.438   5.349   4.061
    1C5      C6   12   3.392   5.261   3.966
    1C5      H6   13   3.403   5.282   3.876
    1C5      C5   14   3.333   5.145   3.999
    1C5      H5   15   3.301   5.087   3.934
    1C5      C4   16   3.320   5.115   4.137
    1C5      N4   17   3.262   5.000   4.175
    1C5     H41   18   3.234   4.945   4.115
    1C5     H42   19   3.253   4.981   4.258
    1C5      N3   20   3.364   5.200   4.231
    1C5      C2   21   3.424   5.317   4.196
    1C5      O2   22   3.468   5.398   4.277
    1C5     C3'   23   3.706   5.431   3.912
    1C5     H3'   24   3.699   5.334   3.910
    1C5     C2'   25   3.652   5.479   4.046
    1C5     H2'   26   3.678   5.419   4.117
    1C5     O2'   27   3.691   5.612   4.073
    1C5    HO2'   28   3.766   5.626   4.040
    1C5     O3'   29   3.841   5.468   3.884
    2U        P   30   3.960   5.364   3.904
    2U      OP1   31   4.086   5.433   3.865
    2U      OP2   32   3.924   5.233   3.846
    2U      O5'   33   3.967   5.341   4.063
    2U      C5'   34   3.988   5.450   4.151
    2U      H5'   35   3.926   5.521   4.129
    2U     H5''   36   4.079   5.483   4.139
    2U      C4'   37   3.969   5.411   4.297
    2U      H4'   38   4.000   5.484   4.352
    2U      O4'   39   3.828   5.388   4.327
    2U      C1'   40   3.815   5.282   4.419
    2U      H1'   41   3.762   5.311   4.495
    2U       N1   42   3.747   5.168   4.355
    2U       C6   43   3.739   5.155   4.217
    2U       H6   44   3.780   5.220   4.164
    2U       C5   45   3.676   5.053   4.157
    2U       H5   46   3.672   5.049   4.064
    2U       C4   47   3.616   4.950   4.237
    2U       O4   48   3.554   4.851   4.197
    2U       N3   49   3.628   4.969   4.375
    2U       H3   50   3.592   4.909   4.425
    2U       C2   51   3.692   5.073   4.438
    2U       O2   52   3.699   5.078   4.561
    2U      C3'   53   4.035   5.282   4.341
    2U      H3'   54   4.021   5.213   4.274
    2U      C2'   55   3.956   5.247   4.465
    2U      H2'   56   3.966   5.154   4.490
    2U      O2'   57   3.989   5.335   4.570
    2U     HO2'   58   4.072   5.335   4.581
    2U      O3'   59   4.175   5.296   4.362
    3G        P   60   4.274   5.172   4.338
    3G      OP1   61   4.411   5.224   4.358
    3G      OP2   62   4.240   5.100   4.212
    3G      O5'   63   4.244   5.071   4.457
    3G      C5'   64   4.272   5.108   4.592
    3G      H5'   65   4.228   5.192   4.611
    3G     H5''   66   4.367   5.119   4.602
    3G      C4'   67   4.223   5.004   4.689
    3G      H4'   68   4.253   5.029   4.777
    3G      O4'   69   4.077   4.997   4.686
    3G      C1'   70   4.035   4.864   4.712
    3G      H1'   71   3.976   4.865   4.789
    3G       N9   72   3.962   4.810   4.598
    3G       C8   73   3.967   4.856   4.468
    3G       H8   74   4.018   4.929   4.440
    3G       N7   75   3.892   4.787   4.389
    3G       C5   76   3.836   4.688   4.469
    3G       C6   77   3.748   4.582   4.436
    3G       O6   78   3.698   4.553   4.327
    3G       N1   79   3.717   4.504   4.545
    3G       H1   80   3.663   4.438   4.533
    3G       C2   81   3.767   4.524   4.671
    3G       N2   82   3.726   4.434   4.761
    3G      H21   83   3.672   4.372   4.738
    3G      H22   84   3.755   4.439   4.842
    3G       N3   85   3.850   4.621   4.703
    3G       C4   86   3.882   4.699   4.598
    3G      C3'   87   4.265   4.860   4.663
    3G      H3'   88   4.255   4.842   4.568
    3G      C2'   89   4.161   4.783   4.744
    3G      H2'   90   4.154   4.691   4.716
    3G      O2'   91   4.185   4.797   4.883
    3G     HO2'   92   4.255   4.754   4.903
    3G      O3'   93   4.398   4.827   4.700
    4G        P   94   4.480   4.720   4.611
    4G      OP1   95   4.617   4.722   4.667
    4G      OP2   96   4.453   4.739   4.466
    4G      O5'   97   4.412   4.579   4.642
    4G      C5'   98   4.423   4.523   4.771
    4G      H5'   99   4.410   4.594   4.837
    4G     H5''  100   4.511   4.485   4.782
    4G      C4'  101   4.321   4.416   4.796
    4G      H4'  102   4.324   4.394   4.890
    4G      O4'  103   4.187   4.462   4.762
    4G      C1'  104   4.110   4.352   4.717
    4G      H1'  105   4.030   4.345   4.772
    4G       N9  106   4.071   4.373   4.576
    4G       C8  107   4.115   4.466   4.485
    4G       H8  108   4.179   4.530   4.504
    4G       N7  109   4.056   4.454   4.368
    4G       C5  110   3.970   4.347   4.386
    4G       C6  111   3.879   4.285   4.296
    4G       O6  112   3.855   4.313   4.178
    4G       N1  113   3.813   4.179   4.356
    4G       H1  114   3.756   4.135   4.308
    4G       C2  115   3.829   4.139   4.486
    4G       N2  116   3.754   4.035   4.523
    4G      H21  117   3.699   3.999   4.467
    4G      H22  118   3.761   4.003   4.603
    4G       N3  119   3.913   4.195   4.571
    4G       C4  120   3.977   4.298   4.513
    4G      C3'  121   4.335   4.288   4.714
    4G      H3'  122   4.351   4.310   4.621
    4G      C2'  123   4.197   4.227   4.731
    4G      H2'  124   4.176   4.160   4.665
    4G      O2'  125   4.183   4.178   4.864
    4G     HO2'  126   4.144   4.236   4.911
    4G      O3'  127   4.441   4.204   4.757
    5G        P  128   4.508   4.102   4.654
    5G      OP1  129   4.620   4.038   4.723
    5G      OP2  130   4.527   4.170   4.522
    5G      O5'  131   4.398   3.989   4.633
    5G      C5'  132   4.351   3.913   4.742
    5G      H5'  133   4.314   3.973   4.809
    5G     H5''  134   4.425   3.864   4.782
    5G      C4'  135   4.244   3.816   4.698
    5G      H4'  136   4.217   3.763   4.775
    5G      O4'  137   4.130   3.889   4.647
    5G      C1'  138   4.068   3.816   4.543
    5G      H1'  139   3.976   3.798   4.566
    5G       N9  140   4.074   3.896   4.419
    5G       C8  141   4.161   3.998   4.391
    5G       H8  142   4.225   4.029   4.451
    5G       N7  143   4.144   4.047   4.270
    5G       C5  144   4.038   3.977   4.218
    5G       C6  145   3.974   3.988   4.092
    5G       O6  146   3.997   4.068   3.999
    5G       N1  147   3.873   3.894   4.079
    5G       H1  148   3.828   3.894   4.005
    5G       C2  149   3.838   3.803   4.174
    5G       N2  150   3.738   3.721   4.140
    5G      H21  151   3.701   3.729   4.063
    5G      H22  152   3.711   3.661   4.195
    5G       N3  153   3.896   3.792   4.293
    5G       C4  154   3.995   3.882   4.307
    5G      C3'  155   4.281   3.723   4.584
    5G      H3'  156   4.330   3.772   4.516
    5G      C2'  157   4.145   3.684   4.529
    5G      H2'  158   4.152   3.654   4.436
    5G      O2'  159   4.081   3.586   4.608
    5G     HO2'  160   4.132   3.521   4.618
    5G      O3'  161   4.360   3.613   4.626
    6U        P  162   4.438   3.525   4.518
    6U      OP1  163   4.579   3.505   4.557
    6U      OP2  164   4.409   3.585   4.383
    6U      O5'  165   4.365   3.384   4.529
    6U      C5'  166   4.354   3.319   4.655
    6U      H5'  167   4.330   3.384   4.722
    6U     H5''  168   4.439   3.279   4.678
    6U      C4'  169   4.249   3.211   4.651
    6U      H4'  170   4.244   3.168   4.738
    6U      O4'  171   4.119   3.270   4.622
    6U      C1'  172   4.043   3.181   4.542
    6U      H1'  173   3.960   3.161   4.588
    6U       N1  174   4.010   3.247   4.413
    6U       C6  175   4.078   3.357   4.367
    6U       H6  176   4.148   3.390   4.418
    6U       C5  177   4.048   3.419   4.251
    6U       H5  178   4.098   3.493   4.224
    6U       C4  179   3.941   3.371   4.171
    6U       O4  180   3.904   3.418   4.061
    6U       N3  181   3.877   3.260   4.223
    6U       H3  182   3.812   3.228   4.177
    6U       C2  183   3.905   3.195   4.341
    6U       O2  184   3.841   3.097   4.376
    6U      C3'  185   4.266   3.106   4.543
    6U      H3'  186   4.295   3.148   4.461
    6U      C2'  187   4.125   3.054   4.524
    6U      H2'  188   4.114   3.015   4.436
    6U      O2'  189   4.088   2.962   4.626
    6U     HO2'  190   4.136   2.894   4.620
    6U      O3'  191   4.361   3.006   4.578
    7C        P  192   4.465   2.952   4.468
    7C      OP1  193   4.530   2.832   4.524
    7C      OP2  194   4.550   3.063   4.419
    7C      O5'  195   4.371   2.920   4.343
    7C      C5'  196   4.276   2.816   4.348
    7C      H5'  197   4.218   2.828   4.424
    7C     H5''  198   4.322   2.731   4.356
    7C      C4'  199   4.194   2.817   4.222
    7C      H4'  200   4.130   2.744   4.223
    7C      O4'  201   4.122   2.943   4.213
    7C      C1'  202   4.115   2.986   4.078
    7C      H1'  203   4.021   2.997   4.056
    7C       N1  204   4.186   3.115   4.062
    7C       C6  205   4.286   3.156   4.146
    7C       H6  206   4.308   3.103   4.219
    7C       C5  207   4.353   3.270   4.124
    7C       H5  208   4.420   3.298   4.182
    7C       C4  209   4.316   3.346   4.009
    7C       N4  210   4.377   3.461   3.981
    7C      H41  211   4.440   3.490   4.033
    7C      H42  212   4.354   3.507   3.912
    7C       N3  213   4.220   3.307   3.926
    7C       C2  214   4.155   3.192   3.949
    7C       O2  215   4.066   3.153   3.874
    7C      C3'  216   4.276   2.812   4.093
    7C      H3'  217   4.354   2.868   4.102
    7C      C2'  218   4.181   2.877   3.992
    7C      H2'  219   4.229   2.915   3.917
    7C      O2'  220   4.082   2.787   3.946
    7C     HO2'  221   4.119   2.726   3.902
    7C      O3'  222   4.320   2.681   4.059
    8G        P  223   4.475   2.654   4.026
    8G      OP1  224   4.495   2.508   4.007
    8G      OP2  225   4.562   2.731   4.118
    8G      O5'  226   4.496   2.727   3.885
    8G      C5'  227   4.413   2.699   3.775
    8G      H5'  228   4.320   2.704   3.803
    8G     H5''  229   4.431   2.609   3.743
    8G      C4'  230   4.437   2.797   3.663
    8G      H4'  231   4.388   2.768   3.585
    8G      O4'  232   4.388   2.929   3.702
    8G      C1'  233   4.467   3.029   3.640
    8G      H1'  234   4.407   3.080   3.584
    8G       N9  235   4.530   3.118   3.741
    8G       C8  236   4.574   3.095   3.870
    8G       H8  237   4.559   3.015   3.915
    8G       N7  238   4.638   3.196   3.923
    8G       C5  239   4.641   3.290   3.823
    8G       C6  240   4.696   3.419   3.821
    8G       O6  241   4.755   3.476   3.914
    8G       N1  242   4.677   3.482   3.697
    8G       H1  243   4.710   3.560   3.687
    8G       C2  244   4.611   3.428   3.591
    8G       N2  245   4.603   3.504   3.480
    8G      H21  246   4.637   3.583   3.479
    8G      H22  247   4.564   3.474   3.409
    8G       N3  248   4.558   3.306   3.591
    8G       C4  249   4.576   3.244   3.710
    8G      C3'  250   4.583   2.820   3.627
    8G      H3'  251   4.636   2.826   3.708
    8G      C2'  252   4.578   2.957   3.559
    8G      H2'  253   4.661   3.006   3.568
    8G      O2'  254   4.542   2.943   3.422
    8G     HO2'  255   4.601   2.898   3.383
    8G      O3'  256   4.637   2.717   3.545
    9C        P  257   4.781   2.650   3.578
    9C      OP1  258   4.814   2.550   3.475
    9C      OP2  259   4.790   2.612   3.721
    9C      O5'  260   4.882   2.771   3.559
    9C      C5'  261   5.019   2.756   3.589
    9C      H5'  262   5.045   2.663   3.576
    9C     H5''  263   5.034   2.779   3.682
    9C      C4'  264   5.103   2.844   3.502
    9C      H4'  265   5.194   2.846   3.536
    9C      O4'  266   5.105   2.790   3.367
    9C      C1'  267   5.104   2.896   3.273
    9C      H1'  268   5.181   2.888   3.215
    9C       N1  269   4.981   2.886   3.192
    9C       C6  270   4.876   2.804   3.224
    9C       H6  271   4.879   2.752   3.302
    9C       C5  272   4.768   2.797   3.144
    9C       H5  273   4.696   2.742   3.164
    9C       C4  274   4.769   2.878   3.026
    9C       N4  275   4.667   2.877   2.939
    9C      H41  276   4.598   2.828   2.955
    9C      H42  277   4.670   2.926   2.869
    9C       N3  278   4.871   2.958   2.994
    9C       C2  279   4.979   2.962   3.075
    9C       O2  280   5.076   3.035   3.051
    9C      C3'  281   5.053   2.986   3.484
    9C      H3'  282   4.956   2.985   3.475
    9C      C2'  283   5.114   3.027   3.351
    9C      H2'  284   5.064   3.099   3.309
    9C      O2'  285   5.251   3.060   3.364
    9C     HO2'  286   5.258   3.136   3.401
    9C      O3'  287   5.088   3.071   3.592
   10A        P  288   4.986   3.181   3.646
   10A      OP1  289   5.058   3.254   3.754
   10A      OP2  290   4.854   3.119   3.679
   10A      O5'  291   4.968   3.280   3.523
   10A      C5'  292   5.072   3.369   3.485
   10A      H5'  293   5.156   3.320   3.483
   10A     H5''  294   5.079   3.440   3.551
   10A      C4'  295   5.047   3.428   3.349
   10A      H4'  296   5.127   3.472   3.318
   10A      O4'  297   5.012   3.323   3.256
   10A      C1'  298   4.915   3.368   3.165
   10A      H1'  299   4.948   3.361   3.074
   10A       N9  300   4.796   3.282   3.178
   10A       C8  301   4.756   3.206   3.286
   10A       H8  302   4.804   3.202   3.365
   10A       N7  303   4.646   3.139   3.265
   10A       C5  304   4.611   3.172   3.135
   10A       C6  305   4.504   3.133   3.053
   10A       N6  306   4.409   3.048   3.092
   10A      H61  307   4.345   3.028   3.038
   10A      H62  308   4.411   3.014   3.171
   10A       N1  309   4.499   3.185   2.928
   10A       C2  310   4.595   3.270   2.889
   10A       H2  311   4.586   3.304   2.803
   10A       N3  312   4.702   3.313   2.956
   10A       C4  313   4.703   3.260   3.081
   10A      C3'  314   4.931   3.526   3.341
   10A      H3'  315   4.859   3.494   3.397
   10A      C2'  316   4.889   3.516   3.195
   10A      H2'  317   4.795   3.538   3.184
   10A      O2'  318   4.974   3.595   3.113
   10A     HO2'  319   4.963   3.676   3.133
   10A      O3'  320   4.970   3.656   3.378
   11G        P  321   4.901   3.732   3.500
   11G      OP1  322   4.980   3.857   3.516
   11G      OP2  323   4.886   3.646   3.622
   11G      O5'  324   4.754   3.760   3.448
   11G      C5'  325   4.732   3.830   3.325
   11G      H5'  326   4.715   3.766   3.254
   11G     H5''  327   4.811   3.881   3.303
   11G      C4'  328   4.614   3.922   3.339
   11G      H4'  329   4.599   3.970   3.256
   11G      O4'  330   4.498   3.841   3.370
   11G      C1'  331   4.441   3.882   3.491
   11G      H1'  332   4.367   3.944   3.474
   11G       N9  333   4.389   3.763   3.559
   11G       C8  334   4.433   3.709   3.678
   11G       H8  335   4.503   3.745   3.728
   11G       N7  336   4.366   3.602   3.714
   11G       C5  337   4.273   3.584   3.614
   11G       C6  338   4.176   3.482   3.598
   11G       O6  339   4.153   3.387   3.674
   11G       N1  340   4.104   3.498   3.481
   11G       H1  341   4.043   3.440   3.463
   11G       C2  342   4.123   3.599   3.390
   11G       N2  343   4.042   3.595   3.284
   11G      H21  344   3.983   3.533   3.278
   11G      H22  345   4.049   3.654   3.222
   11G       N3  346   4.215   3.694   3.401
   11G       C4  347   4.286   3.681   3.516
   11G      C3'  348   4.625   4.025   3.452
   11G      H3'  349   4.718   4.042   3.475
   11G      C2'  350   4.551   3.957   3.567
   11G      H2'  351   4.609   3.894   3.610
   11G      O2'  352   4.497   4.046   3.663
   11G     HO2'  353   4.431   4.010   3.700
   11G      O3'  354   4.560   4.147   3.415
   12U        P  355   4.619   4.240   3.296
   12U      OP1  356   4.537   4.213   3.173
   12U      OP2  357   4.767   4.233   3.297
   12U      O5'  358   4.583   4.388   3.343
   12U      C5'  359   4.635   4.441   3.465
   12U      H5'  360   4.703   4.381   3.499
   12U     H5''  361   4.563   4.448   3.530
   12U      C4'  362   4.695   4.578   3.443
   12U      H4'  363   4.716   4.616   3.529
   12U      O4'  364   4.818   4.564   3.366
   12U      C1'  365   4.812   4.651   3.255
   12U      H1'  366   4.849   4.737   3.281
   12U       N1  367   4.895   4.602   3.145
   12U       C6  368   4.892   4.473   3.100
   12U       H6  369   4.836   4.412   3.143
   12U       C5  370   4.966   4.431   2.997
   12U       H5  371   4.962   4.343   2.969
   12U       C4  372   5.051   4.525   2.930
   12U       O4  373   5.125   4.500   2.835
   12U       N3  374   5.050   4.653   2.980
   12U       H3  375   5.100   4.711   2.941
   12U       C2  376   4.974   4.699   3.086
   12U       O2  377   4.979   4.815   3.124
   12U      C3'  378   4.608   4.677   3.364
   12U      H3'  379   4.514   4.653   3.371
   12U      C2'  380   4.663   4.663   3.223
   12U      H2'  381   4.631   4.582   3.181
   12U      O2'  382   4.636   4.771   3.137
   12U     HO2'  383   4.707   4.812   3.121
   12U      O3'  384   4.634   4.810   3.407
   13A        P  385   4.569   4.869   3.542
   13A      OP1  386   4.600   5.015   3.545
   13A      OP2  387   4.610   4.780   3.654
   13A      O5'  388   4.413   4.848   3.517
   13A      C5'  389   4.320   4.867   3.623
   13A      H5'  390   4.315   4.961   3.644
   13A     H5''  391   4.351   4.818   3.701
   13A      C4'  392   4.183   4.817   3.585
   13A      H4'  393   4.120   4.844   3.653
   13A      O4'  394   4.143   4.874   3.458
   13A      C1'  395   4.052   4.786   3.393
   13A      H1'  396   3.964   4.825   3.394
   13A       N9  397   4.091   4.770   3.251
   13A       C8  398   4.032   4.839   3.147
   13A       H8  399   3.963   4.900   3.159
   13A       N7  400   4.082   4.811   3.029
   13A       C5  401   4.181   4.717   3.056
   13A       C6  402   4.272   4.649   2.972
   13A       N6  403   4.273   4.667   2.839
   13A      H61  404   4.329   4.623   2.791
   13A      H62  405   4.218   4.721   2.803
   13A       N1  406   4.360   4.561   3.028
   13A       C2  407   4.355   4.545   3.162
   13A       H2  408   4.416   4.484   3.197
   13A       N3  409   4.275   4.605   3.252
   13A       C4  410   4.189   4.691   3.193
   13A      C3'  411   4.170   4.666   3.564
   13A      H3'  412   4.248   4.634   3.516
   13A      C2'  413   4.047   4.655   3.473
   13A      H2'  414   4.055   4.578   3.415
   13A      O2'  415   3.927   4.653   3.549
   13A     HO2'  416   3.907   4.732   3.570
   13A      O3'  417   4.156   4.596   3.687
   14A        P  418   4.252   4.473   3.728
   14A      OP1  419   4.209   4.443   3.868
   14A      OP2  420   4.395   4.499   3.699
   14A      O5'  421   4.203   4.350   3.640
   14A      C5'  422   4.231   4.343   3.501
   14A      H5'  423   4.323   4.316   3.488
   14A     H5''  424   4.218   4.431   3.461
   14A      C4'  425   4.139   4.244   3.434
   14A      H4'  426   4.139   4.260   3.338
   14A      O4'  427   4.186   4.110   3.460
   14A      C1'  428   4.077   4.022   3.473
   14A      H1'  429   4.080   3.955   3.403
   14A       N9  430   4.087   3.952   3.602
   14A       C8  431   4.176   3.974   3.704
   14A       H8  432   4.238   4.044   3.704
   14A       N7  433   4.166   3.889   3.804
   14A       C5  434   4.065   3.804   3.763
   14A       C6  435   4.005   3.692   3.822
   14A       N6  436   4.039   3.642   3.941
   14A      H61  437   3.998   3.573   3.972
   14A      H62  438   4.101   3.680   3.987
   14A       N1  439   3.907   3.628   3.754
   14A       C2  440   3.872   3.677   3.633
   14A       H2  441   3.805   3.630   3.590
   14A       N3  442   3.920   3.782   3.569
   14A       C4  443   4.018   3.841   3.638
   14A      C3'  444   3.995   4.244   3.484
   14A      H3'  445   3.993   4.254   3.580
   14A      C2'  446   3.949   4.103   3.451
   14A      H2'  447   3.877   4.077   3.510
   14A      O2'  448   3.914   4.087   3.313
   14A     HO2'  449   3.848   4.137   3.296
   14A      O3'  450   3.919   4.347   3.424
   15C        P  451   3.772   4.386   3.475
   15C      OP1  452   3.756   4.530   3.448
   15C      OP2  453   3.746   4.334   3.613
   15C      O5'  454   3.677   4.305   3.376
   15C      C5'  455   3.551   4.359   3.337
   15C      H5'  456   3.566   4.445   3.295
   15C     H5''  457   3.496   4.371   3.416
   15C      C4'  458   3.479   4.270   3.240
   15C      H4'  459   3.389   4.304   3.230
   15C      O4'  460   3.542   4.273   3.108
   15C      C1'  461   3.552   4.142   3.058
   15C      H1'  462   3.469   4.118   3.013
   15C       N1  463   3.657   4.133   2.954
   15C       C6  464   3.781   4.080   2.980
   15C       H6  465   3.801   4.051   3.066
   15C       C5  466   3.874   4.070   2.884
   15C       H5  467   3.958   4.035   2.903
   15C       C4  468   3.840   4.113   2.752
   15C       N4  469   3.930   4.105   2.652
   15C      H41  470   4.009   4.073   2.667
   15C      H42  471   3.910   4.132   2.573
   15C       N3  472   3.719   4.163   2.724
   15C       C2  473   3.625   4.174   2.822
   15C       O2  474   3.513   4.222   2.796
   15C      C3'  475   3.471   4.121   3.279
   15C      H3'  476   3.498   4.106   3.371
   15C      C2'  477   3.570   4.055   3.182
   15C      H2'  478   3.660   4.065   3.216
   15C      O2'  479   3.546   3.918   3.157
   15C     HO2'  480   3.562   3.874   3.227
   15C      O3'  481   3.339   4.075   3.255
   16C        P  482   3.226   4.093   3.368
   16C      OP1  483   3.097   4.062   3.303
   16C      OP2  484   3.246   4.220   3.440
   16C      O5'  485   3.257   3.973   3.468
   16C      C5'  486   3.225   3.839   3.431
   16C      H5'  487   3.271   3.817   3.349
   16C     H5''  488   3.129   3.833   3.416
   16C      C4'  489   3.265   3.741   3.538
   16C      H4'  490   3.220   3.657   3.521
   16C      O4'  491   3.409   3.718   3.534
   16C      C1'  492   3.458   3.703   3.666
   16C      H1'  493   3.508   3.620   3.673
   16C       N1  494   3.548   3.816   3.695
   16C       C6  495   3.555   3.924   3.614
   16C       H6  496   3.502   3.928   3.538
   16C       C5  497   3.638   4.026   3.642
   16C       H5  498   3.642   4.101   3.587
   16C       C4  499   3.719   4.015   3.759
   16C       N4  500   3.805   4.111   3.789
   16C      H41  501   3.810   4.181   3.740
   16C      H42  502   3.855   4.103   3.858
   16C       N3  503   3.713   3.909   3.836
   16C       C2  504   3.628   3.808   3.810
   16C       O2  505   3.618   3.708   3.882
   16C      C3'  506   3.239   3.784   3.682
   16C      H3'  507   3.261   3.878   3.693
   16C      C2'  508   3.338   3.700   3.759
   16C      H2'  509   3.357   3.738   3.846
   16C      O2'  510   3.295   3.565   3.769
   16C     HO2'  511   3.337   3.519   3.712
   16C      O3'  512   3.104   3.765   3.720
   17C        P  513   3.036   3.860   3.830
   17C      OP1  514   2.895   3.820   3.831
   17C      OP2  515   3.074   4.003   3.815
   17C      O5'  516   3.109   3.818   3.965
   17C      C5'  517   3.086   3.690   4.023
   17C      H5'  518   3.114   3.622   3.960
   17C     H5''  519   2.991   3.680   4.041
   17C      C4'  520   3.164   3.676   4.151
   17C      H4'  521   3.143   3.590   4.191
   17C      O4'  522   3.306   3.684   4.122
   17C      C1'  523   3.373   3.749   4.228
   17C      H1'  524   3.443   3.692   4.262
   17C       N1  525   3.435   3.873   4.176
   17C       C6  526   3.397   3.926   4.056
   17C       H6  527   3.330   3.885   4.006
   17C       C5  528   3.456   4.037   4.010
   17C       H5  529   3.432   4.074   3.929
   17C       C4  530   3.557   4.096   4.091
   17C       N4  531   3.619   4.208   4.048
   17C      H41  532   3.596   4.243   3.973
   17C      H42  533   3.681   4.244   4.095
   17C       N3  534   3.595   4.044   4.208
   17C       C2  535   3.534   3.933   4.253
   17C       O2  536   3.562   3.881   4.361
   17C      C3'  537   3.142   3.785   4.255
   17C      H3'  538   3.139   3.871   4.212
   17C      C2'  539   3.270   3.775   4.337
   17C      H2'  540   3.288   3.857   4.387
   17C      O2'  541   3.267   3.661   4.422
   17C     HO2'  542   3.306   3.598   4.383
   17C      O3'  543   3.023   3.769   4.331
   18C        P  544   2.949   3.897   4.394
   18C      OP1  545   2.820   3.851   4.448
   18C      OP2  546   2.960   4.015   4.307
   18C      O5'  547   3.043   3.937   4.517
   18C      C5'  548   3.068   3.847   4.623
   18C      H5'  549   3.101   3.763   4.586
   18C     H5''  550   2.986   3.830   4.671
   18C      C4'  551   3.171   3.902   4.720
   18C      H4'  552   3.173   3.843   4.797
   18C      O4'  553   3.302   3.906   4.657
   18C      C1'  554   3.374   4.017   4.705
   18C      H1'  555   3.459   3.988   4.741
   18C       N1  556   3.398   4.112   4.595
   18C       C6  557   3.326   4.102   4.479
   18C       H6  558   3.262   4.036   4.471
   18C       C5  559   3.347   4.188   4.378
   18C       H5  560   3.299   4.182   4.299
   18C       C4  561   3.447   4.288   4.395
   18C       N4  562   3.473   4.374   4.297
   18C      H41  563   3.429   4.370   4.224
   18C      H42  564   3.534   4.434   4.308
   18C       N3  565   3.519   4.298   4.508
   18C       C2  566   3.495   4.212   4.609
   18C       O2  567   3.557   4.221   4.716
   18C      C3'  568   3.151   4.044   4.769
   18C      H3'  569   3.124   4.099   4.693
   18C      C2'  570   3.290   4.079   4.816
   18C      H2'  571   3.303   4.175   4.824
   18C      O2'  572   3.319   4.009   4.936
   18C     HO2'  573   3.279   4.046   4.999
   18C      O3'  574   3.053   4.058   4.871
   19A        P  575   2.960   4.189   4.876
   19A      OP1  576   2.845   4.151   4.960
   19A      OP2  577   2.933   4.245   4.742
   19A      O5'  578   3.051   4.306   4.935
   19A      C5'  579   3.096   4.307   5.068
   19A      H5'  580   3.113   4.216   5.097
   19A     H5''  581   3.027   4.345   5.125
   19A      C4'  582   3.223   4.388   5.083
   19A      H4'  583   3.264   4.360   5.167
   19A      O4'  584   3.312   4.361   4.972
   19A      C1'  585   3.390   4.476   4.946
   19A      H1'  586   3.485   4.458   4.956
   19A       N9  587   3.366   4.517   4.807
   19A       C8  588   3.281   4.453   4.720
   19A       H8  589   3.227   4.382   4.746
   19A       N7  590   3.282   4.501   4.598
   19A       C5  591   3.377   4.602   4.606
   19A       C6  592   3.424   4.692   4.509
   19A       N6  593   3.381   4.693   4.382
   19A      H61  594   3.414   4.749   4.326
   19A      H62  595   3.321   4.637   4.357
   19A       N1  596   3.517   4.781   4.546
   19A       C2  597   3.559   4.782   4.675
   19A       H2  598   3.622   4.847   4.696
   19A       N3  599   3.523   4.702   4.776
   19A       C4  600   3.429   4.614   4.734
   19A      C3'  601   3.212   4.539   5.086
   19A      H3'  602   3.149   4.567   5.017
   19A      C2'  603   3.354   4.580   5.052
   19A      H2'  604   3.362   4.670   5.017
   19A      O2'  605   3.437   4.557   5.166
   19A     HO2'  606   3.473   4.481   5.159
   19A      O3'  607   3.173   4.592   5.212
   20G        P  608   3.097   4.734   5.221
   20G      OP1  609   3.066   4.749   5.367
   20G      OP2  610   2.996   4.745   5.115
   20G      O5'  611   3.208   4.844   5.190
   20G      C5'  612   3.327   4.850   5.266
   20G      H5'  613   3.377   4.768   5.254
   20G     H5''  614   3.305   4.861   5.360
   20G      C4'  615   3.413   4.967   5.222
   20G      H4'  616   3.496   4.965   5.272
   20G      O4'  617   3.440   4.952   5.079
   20G      C1'  618   3.382   5.062   5.009
   20G      H1'  619   3.451   5.128   4.990
   20G       N9  620   3.325   5.012   4.884
   20G       C8  621   3.245   4.901   4.866
   20G       H8  622   3.218   4.845   4.935
   20G       N7  623   3.212   4.882   4.740
   20G       C5  624   3.276   4.986   4.675
   20G       C6  625   3.277   5.018   4.537
   20G       O6  626   3.222   4.957   4.446
   20G       N1  627   3.353   5.131   4.510
   20G       H1  628   3.358   5.157   4.428
   20G       C2  629   3.420   5.205   4.604
   20G       N2  630   3.487   5.312   4.557
   20G      H21  631   3.487   5.329   4.473
   20G      H22  632   3.530   5.363   4.612
   20G       N3  633   3.420   5.177   4.733
   20G       C4  634   3.347   5.066   4.760
   20G      C3'  635   3.349   5.104   5.238
   20G      H3'  636   3.287   5.106   5.312
   20G      C2'  637   3.280   5.123   5.105
   20G      H2'  638   3.198   5.071   5.103
   20G      O2'  639   3.250   5.257   5.071
   20G     HO2'  640   3.308   5.286   5.018
   20G      O3'  641   3.452   5.203   5.254
   21U        P  642   3.477   5.283   5.392
   21U      OP1  643   3.456   5.185   5.500
   21U      OP2  644   3.402   5.410   5.391
   21U      O5'  645   3.630   5.323   5.382
   21U      C5'  646   3.732   5.223   5.379
   21U      H5'  647   3.708   5.154   5.316
   21U     H5''  648   3.741   5.183   5.467
   21U      C4'  649   3.865   5.282   5.339
   21U      H4'  650   3.937   5.223   5.365
   21U      O4'  651   3.866   5.298   5.194
   21U      C1'  652   3.890   5.433   5.161
   21U      H1'  653   3.984   5.448   5.144
   21U       N1  654   3.813   5.462   5.039
   21U       C6  655   3.681   5.428   5.032
   21U       H6  656   3.641   5.388   5.106
   21U       C5  657   3.606   5.448   4.923
   21U       H5  658   3.516   5.425   4.923
   21U       C4  659   3.667   5.506   4.807
   21U       O4  660   3.611   5.529   4.700
   21U       N3  661   3.800   5.537   4.821
   21U       H3  662   3.839   5.572   4.752
   21U       C2  663   3.879   5.517   4.932
   21U       O2  664   3.998   5.547   4.935
   21U      C3'  665   3.891   5.421   5.397
   21U      H3'  666   3.838   5.436   5.476
   21U      C2'  667   3.849   5.514   5.283
   21U      H2'  668   3.753   5.526   5.284
   21U      O2'  669   3.914   5.640   5.286
   21U     HO2'  670   3.899   5.677   5.360
   21U      O3'  671   4.030   5.437   5.426
   22U        P  672   4.075   5.455   5.579
   22U      OP1  673   3.971   5.540   5.641
   22U      OP2  674   4.219   5.482   5.588
   22U      O5'  675   4.051   5.310   5.639
   22U      C5'  676   4.152   5.209   5.631
   22U      H5'  677   4.233   5.242   5.674
   22U     H5''  678   4.171   5.190   5.538
   22U      C4'  679   4.108   5.083   5.701
   22U      H4'  680   4.179   5.018   5.697
   22U      O4'  681   4.078   5.113   5.841
   22U      C1'  682   3.943   5.080   5.870
   22U      H1'  683   3.934   4.992   5.910
   22U       N1  684   3.900   5.181   5.964
   22U       C6  685   3.918   5.312   5.931
   22U       H6  686   3.950   5.332   5.846
   22U       C5  687   3.891   5.413   6.015
   22U       H5  688   3.903   5.501   5.988
   22U       C4  689   3.845   5.382   6.148
   22U       O4  690   3.818   5.462   6.236
   22U       N3  691   3.831   5.248   6.175
   22U       H3  692   3.803   5.228   6.254
   22U       C2  693   3.857   5.144   6.093
   22U       O2  694   3.840   5.030   6.131
   22U      C3'  695   3.980   5.020   5.644
   22U      H3'  696   3.964   5.048   5.552
   22U      C2'  697   3.871   5.074   5.736
   22U      H2'  698   3.847   5.164   5.707
   22U      O2'  699   3.758   4.991   5.745
   22U     HO2'  700   3.721   4.987   5.670
   22U      O3'  701   3.989   4.877   5.653
   23A        P  702   4.047   4.793   5.529
   23A      OP1  703   4.065   4.652   5.569
   23A      OP2  704   4.157   4.871   5.474
   23A      O5'  705   3.937   4.810   5.415
   23A      C5'  706   3.804   4.760   5.431
   23A      H5'  707   3.754   4.820   5.488
   23A     H5''  708   3.808   4.673   5.473
   23A      C4'  709   3.732   4.747   5.298
   23A      H4'  710   3.643   4.712   5.313
   23A      O4'  711   3.718   4.877   5.238
   23A      C1'  712   3.741   4.870   5.099
   23A      H1'  713   3.666   4.905   5.049
   23A       N9  714   3.860   4.953   5.070
   23A       C8  715   3.984   4.954   5.130
   23A       H8  716   4.008   4.895   5.199
   23A       N7  717   4.066   5.045   5.082
   23A       C5  718   3.992   5.106   4.983
   23A       C6  719   4.020   5.210   4.894
   23A       N6  720   4.137   5.274   4.887
   23A      H61  721   4.148   5.338   4.830
   23A      H62  722   4.201   5.252   4.940
   23A       N1  723   3.925   5.250   4.810
   23A       C2  724   3.806   5.187   4.813
   23A       H2  725   3.742   5.219   4.753
   23A       N3  726   3.766   5.087   4.890
   23A       C4  727   3.865   5.051   4.975
   23A      C3'  728   3.800   4.661   5.193
   23A      H3'  729   3.897   4.669   5.200
   23A      C2'  730   3.756   4.723   5.061
   23A      H2'  731   3.822   4.712   4.991
   23A      O2'  732   3.629   4.672   5.024
   23A     HO2'  733   3.570   4.728   5.046
   23A      O3'  734   3.758   4.526   5.206
   24A        P  735   3.848   4.403   5.165
   24A      OP1  736   3.989   4.445   5.183
   24A      OP2  737   3.805   4.354   5.027
   24A      O5'  738   3.805   4.292   5.267
   24A      C5'  739   3.834   4.314   5.406
   24A      H5'  740   3.809   4.404   5.429
   24A     H5''  741   3.929   4.302   5.421
   24A      C4'  742   3.758   4.218   5.492
   24A      H4'  743   3.785   4.234   5.584
   24A      O4'  744   3.616   4.240   5.481
   24A      C1'  745   3.548   4.119   5.507
   24A      H1'  746   3.495   4.131   5.588
   24A       N9  747   3.457   4.087   5.398
   24A       C8  748   3.460   4.130   5.267
   24A       H8  749   3.524   4.188   5.233
   24A       N7  750   3.361   4.081   5.196
   24A       C5  751   3.293   3.999   5.284
   24A       C6  752   3.180   3.918   5.270
   24A       N6  753   3.115   3.908   5.155
   24A      H61  754   3.044   3.859   5.149
   24A      H62  755   3.143   3.951   5.086
   24A       N1  756   3.134   3.849   5.377
   24A       C2  757   3.202   3.862   5.493
   24A       H2  758   3.169   3.813   5.564
   24A       N3  759   3.311   3.935   5.519
   24A       C4  760   3.351   4.002   5.410
   24A      C3'  761   3.772   4.072   5.459
   24A      H3'  762   3.763   4.058   5.363
   24A      C2'  763   3.652   4.011   5.529
   24A      H2'  764   3.627   3.927   5.489
   24A      O2'  765   3.676   4.000   5.669
   24A     HO2'  766   3.642   3.929   5.696
   24A      O3'  767   3.896   4.021   5.501
   25C        P  768   3.966   3.907   5.415
   25C      OP1  769   4.100   3.897   5.476
   25C      OP2  770   3.951   3.932   5.269
   25C      O5'  771   3.880   3.778   5.447
   25C      C5'  772   3.855   3.743   5.582
   25C      H5'  773   3.815   3.819   5.628
   25C     H5''  774   3.939   3.721   5.625
   25C      C4'  775   3.762   3.626   5.593
   25C      H4'  776   3.768   3.589   5.682
   25C      O4'  777   3.625   3.667   5.570
   25C      C1'  778   3.554   3.563   5.506
   25C      H1'  779   3.479   3.538   5.561
   25C       N1  780   3.506   3.611   5.374
   25C       C6  781   3.574   3.705   5.301
   25C       H6  782   3.653   3.740   5.334
   25C       C5  783   3.527   3.745   5.181
   25C       H5  784   3.573   3.808   5.130
   25C       C4  785   3.405   3.687   5.134
   25C       N4  786   3.351   3.721   5.017
   25C      H41  787   3.390   3.779   4.966
   25C      H42  788   3.277   3.685   4.991
   25C       N3  789   3.338   3.597   5.206
   25C       C2  790   3.387   3.557   5.325
   25C       O2  791   3.327   3.473   5.392
   25C      C3'  792   3.785   3.517   5.490
   25C      H3'  793   3.801   3.557   5.403
   25C      C2'  794   3.651   3.445   5.489
   25C      H2'  795   3.635   3.398   5.406
   25C      O2'  796   3.639   3.359   5.601
   25C     HO2'  797   3.697   3.299   5.595
   25C      O3'  798   3.894   3.432   5.522
   26A        P  799   3.959   3.340   5.408
   26A      OP1  800   4.050   3.244   5.477
   26A      OP2  801   4.010   3.425   5.299
   26A      O5'  802   3.834   3.257   5.356
   26A      C5'  803   3.820   3.222   5.220
   26A      H5'  804   3.865   3.137   5.204
   26A     H5''  805   3.860   3.290   5.165
   26A      C4'  806   3.674   3.208   5.186
   26A      H4'  807   3.627   3.163   5.257
   26A      O4'  808   3.617   3.340   5.168
   26A      C1'  809   3.522   3.338   5.065
   26A      H1'  810   3.434   3.363   5.098
   26A       N9  811   3.563   3.437   4.964
   26A       C8  812   3.676   3.515   4.969
   26A       H8  813   3.738   3.509   5.038
   26A       N7  814   3.687   3.599   4.869
   26A       C5  815   3.574   3.574   4.794
   26A       C6  816   3.529   3.631   4.675
   26A       N6  817   3.598   3.728   4.616
   26A      H61  818   3.569   3.764   4.543
   26A      H62  819   3.672   3.756   4.650
   26A       N1  820   3.413   3.586   4.623
   26A       C2  821   3.347   3.490   4.689
   26A       H2  822   3.267   3.462   4.651
   26A       N3  823   3.380   3.426   4.803
   26A       C4  824   3.496   3.475   4.850
   26A      C3'  825   3.643   3.135   5.056
   26A      H3'  826   3.710   3.158   4.989
   26A      C2'  827   3.511   3.195   5.013
   26A      H2'  828   3.501   3.192   4.916
   26A      O2'  829   3.402   3.133   5.079
   26A     HO2'  830   3.413   3.050   5.078
   26A      O3'  831   3.639   2.995   5.075
   27A        P  832   3.702   2.893   4.968
   27A      OP1  833   3.675   2.757   5.019
   27A      OP2  834   3.841   2.935   4.936
   27A      O5'  835   3.611   2.915   4.839
   27A      C5'  836   3.474   2.881   4.840
   27A      H5'  837   3.430   2.927   4.914
   27A     H5''  838   3.465   2.785   4.853
   27A      C4'  839   3.408   2.920   4.711
   27A      H4'  840   3.317   2.886   4.709
   27A      O4'  841   3.403   3.065   4.701
   27A      C1'  842   3.423   3.105   4.567
   27A      H1'  843   3.347   3.154   4.533
   27A       N9  844   3.540   3.194   4.563
   27A       C8  845   3.648   3.198   4.648
   27A       H8  846   3.660   3.137   4.718
   27A       N7  847   3.733   3.294   4.622
   27A       C5  848   3.676   3.360   4.515
   27A       C6  849   3.716   3.472   4.440
   27A       N6  850   3.827   3.541   4.461
   27A      H61  851   3.846   3.608   4.411
   27A      H62  852   3.880   3.518   4.526
   27A       N1  853   3.637   3.512   4.337
   27A       C2  854   3.525   3.442   4.313
   27A       H2  855   3.474   3.473   4.242
   27A       N3  856   3.476   3.336   4.377
   27A       C4  857   3.557   3.300   4.478
   27A      C3'  858   3.479   2.875   4.584
   27A      H3'  859   3.575   2.884   4.596
   27A      C2'  860   3.434   2.979   4.482
   27A      H2'  861   3.500   2.987   4.411
   27A      O2'  862   3.304   2.950   4.432
   27A     HO2'  863   3.248   2.990   4.479
   27A      O3'  864   3.448   2.740   4.550
   28A        P  865   3.548   2.655   4.458
   28A      OP1  866   3.515   2.511   4.474
   28A      OP2  867   3.687   2.700   4.484
   28A      O5'  868   3.504   2.695   4.310
   28A      C5'  869   3.368   2.681   4.271
   28A      H5'  870   3.315   2.746   4.320
   28A     H5''  871   3.338   2.592   4.293
   28A      C4'  872   3.349   2.704   4.123
   28A      H4'  873   3.260   2.672   4.099
   28A      O4'  874   3.357   2.847   4.095
   28A      C1'  875   3.456   2.869   3.996
   28A      H1'  876   3.415   2.868   3.908
   28A       N9  877   3.515   3.001   4.015
   28A       C8  878   3.625   3.034   4.088
   28A       H8  879   3.674   2.972   4.138
   28A       N7  880   3.655   3.161   4.082
   28A       C5  881   3.559   3.215   3.999
   28A       C6  882   3.537   3.346   3.952
   28A       N6  883   3.614   3.449   3.985
   28A      H61  884   3.597   3.527   3.953
   28A      H62  885   3.681   3.438   4.038
   28A       N1  886   3.432   3.368   3.868
   28A       C2  887   3.356   3.262   3.836
   28A       H2  888   3.285   3.280   3.780
   28A       N3  889   3.368   3.134   3.873
   28A       C4  890   3.472   3.117   3.956
   28A      C3'  891   3.452   2.638   4.031
   28A      H3'  892   3.491   2.559   4.073
   28A      C2'  893   3.551   2.750   4.009
   28A      H2'  894   3.608   2.763   4.087
   28A      O2'  895   3.634   2.733   3.897
   28A     HO2'  896   3.686   2.798   3.891
   28A      O3'  897   3.390   2.608   3.906
   29A        P  898   3.418   2.472   3.826
   29A      OP1  899   3.306   2.383   3.864
   29A      OP2  900   3.559   2.425   3.834
   29A      O5'  901   3.398   2.515   3.674
   29A      C5'  902   3.489   2.603   3.610
   29A      H5'  903   3.542   2.553   3.547
   29A     H5''  904   3.548   2.642   3.677
   29A      C4'  905   3.418   2.715   3.538
   29A      H4'  906   3.333   2.682   3.505
   29A      O4'  907   3.394   2.825   3.629
   29A      C1'  908   3.409   2.948   3.561
   29A      H1'  909   3.329   3.002   3.572
   29A       N9  910   3.524   3.019   3.620
   29A       C8  911   3.624   2.963   3.695
   29A       H8  912   3.627   2.872   3.716
   29A       N7  913   3.715   3.048   3.735
   29A       C5  914   3.673   3.168   3.682
   29A       C6  915   3.727   3.297   3.689
   29A       N6  916   3.839   3.329   3.754
   29A      H61  917   3.867   3.411   3.754
   29A      H62  918   3.883   3.269   3.796
   29A       N1  919   3.662   3.395   3.625
   29A       C2  920   3.549   3.365   3.559
   29A       H2  921   3.507   3.436   3.515
   29A       N3  922   3.488   3.247   3.547
   29A       C4  923   3.556   3.151   3.610
   29A      C3'  924   3.494   2.778   3.423
   29A      H3'  925   3.587   2.787   3.447
   29A      C2'  926   3.431   2.916   3.414
   29A      H2'  927   3.491   2.980   3.371
   29A      O2'  928   3.305   2.912   3.350
   29A     HO2'  929   3.312   2.870   3.277
   29A      O3'  930   3.486   2.703   3.303
   30C        P  931   3.612   2.696   3.204
   30C      OP1  932   3.573   2.611   3.088
   30C      OP2  933   3.736   2.665   3.280
   30C      O5'  934   3.625   2.844   3.150
   30C      C5'  935   3.522   2.904   3.072
   30C      H5'  936   3.438   2.897   3.119
   30C     H5''  937   3.515   2.857   2.987
   30C      C4'  938   3.554   3.048   3.046
   30C      H4'  939   3.484   3.088   2.992
   30C      O4'  940   3.562   3.118   3.174
   30C      C1'  941   3.663   3.216   3.168
   30C      H1'  942   3.624   3.304   3.185
   30C       N1  943   3.763   3.188   3.273
   30C       C6  944   3.775   3.063   3.326
   30C       H6  945   3.721   2.994   3.295
   30C       C5  946   3.865   3.039   3.424
   30C       H5  947   3.875   2.954   3.461
   30C       C4  948   3.945   3.149   3.469
   30C       N4  949   4.036   3.134   3.564
   30C      H41  950   4.048   3.057   3.600
   30C      H42  951   4.083   3.201   3.589
   30C       N3  952   3.933   3.271   3.418
   30C       C2  953   3.843   3.293   3.319
   30C       O2  954   3.830   3.405   3.269
   30C      C3'  955   3.688   3.075   2.981
   30C      H3'  956   3.753   3.012   3.018
   30C      C2'  957   3.722   3.215   3.027
   30C      H2'  958   3.818   3.231   3.027
   30C      O2'  959   3.653   3.312   2.949
   30C     HO2'  960   3.671   3.300   2.868
   30C      O3'  961   3.686   3.062   2.840
   31A        P  962   3.816   3.012   2.763
   31A      OP1  963   3.773   2.986   2.624
   31A      OP2  964   3.884   2.908   2.843
   31A      O5'  965   3.913   3.138   2.760
   31A      C5'  966   3.883   3.253   2.679
   31A      H5'  967   3.818   3.308   2.726
   31A     H5''  968   3.845   3.223   2.595
   31A      C4'  969   4.007   3.334   2.651
   31A      H4'  970   3.988   3.406   2.589
   31A      O4'  971   4.051   3.392   2.778
   31A      C1'  972   4.178   3.342   2.812
   31A      H1'  973   4.242   3.411   2.789
   31A       N9  974   4.185   3.312   2.956
   31A       C8  975   4.119   3.213   3.024
   31A       H8  976   4.058   3.157   2.983
   31A       N7  977   4.149   3.203   3.152
   31A       C5  978   4.245   3.301   3.169
   31A       C6  979   4.319   3.338   3.281
   31A       N6  980   4.305   3.280   3.401
   31A      H61  981   4.353   3.307   3.467
   31A      H62  982   4.250   3.215   3.411
   31A       N1  983   4.407   3.439   3.265
   31A       C2  984   4.418   3.496   3.144
   31A       H2  985   4.480   3.566   3.139
   31A       N3  986   4.355   3.468   3.030
   31A       C4  987   4.269   3.368   3.049
   31A      C3'  988   4.125   3.252   2.598
   31A      H3'  989   4.092   3.173   2.551
   31A      C2'  990   4.198   3.216   2.727
   31A      H2'  991   4.153   3.142   2.771
   31A      O2'  992   4.334   3.181   2.710
   31A     HO2'  993   4.382   3.244   2.738
   31A      O3'  994   4.209   3.327   2.511
   32A        P  995   4.252   3.265   2.367
   32A      OP1  996   4.131   3.246   2.284
   32A      OP2  997   4.350   3.156   2.381
   32A      O5'  998   4.338   3.381   2.302
   32A      C5'  999   4.277   3.492   2.239
   32A      H5' 1000   4.206   3.526   2.295
   32A     H5'' 1001   4.240   3.465   2.153
   32A      C4' 1002   4.379   3.601   2.216
   32A      H4' 1003   4.345   3.665   2.152
   32A      O4' 1004   4.406   3.669   2.341
   32A      C1' 1005   4.543   3.706   2.348
   32A      H1' 1006   4.552   3.802   2.358
   32A       N9 1007   4.602   3.640   2.466
   32A       C8 1008   4.555   3.529   2.532
   32A       H8 1009   4.479   3.482   2.505
   32A       N7 1010   4.626   3.495   2.636
   32A       C5 1011   4.728   3.590   2.641
   32A       C6 1012   4.837   3.608   2.728
   32A       N6 1013   4.863   3.532   2.835
   32A      H61 1014   4.931   3.549   2.885
   32A      H62 1015   4.812   3.465   2.854
   32A       N1 1016   4.920   3.712   2.703
   32A       C2 1017   4.893   3.792   2.598
   32A       H2 1018   4.953   3.862   2.586
   32A       N3 1019   4.794   3.784   2.509
   32A       C4 1020   4.714   3.680   2.536
   32A      C3' 1021   4.516   3.552   2.170
   32A      H3' 1022   4.539   3.471   2.218
   32A      C2' 1023   4.608   3.665   2.216
   32A      H2' 1024   4.699   3.634   2.228
   32A      O2' 1025   4.600   3.775   2.127
   32A     HO2' 1026   4.635   3.754   2.053
   32A      O3' 1027   4.524   3.527   2.031
   33G3       P 1028   4.571   3.384   1.977
   33G3     OP1 1029   4.588   3.395   1.828
   33G3     OP2 1030   4.476   3.286   2.035
   33G3     O5' 1031   4.714   3.361   2.042
   33G3     C5' 1032   4.820   3.453   2.019
   33G3     H5' 1033   4.783   3.543   2.015
   33G3    H5'' 1034   4.863   3.432   1.935
   33G3     C4' 1035   4.923   3.448   2.130
   33G3     H4' 1036   4.988   3.518   2.114
   33G3     O4' 1037   4.861   3.470   2.259
   33G3     C1' 1038   4.928   3.396   2.358
   33G3     H1' 1039   4.959   3.456   2.427
   33G3      N9 1040   4.835   3.296   2.415
   33G3      C8 1041   4.723   3.239   2.359
   33G3      H8 1042   4.691   3.262   2.275
   33G3      N7 1043   4.667   3.151   2.436
   33G3      C5 1044   4.746   3.149   2.549
   33G3      C6 1045   4.735   3.073   2.667
   33G3      O6 1046   4.649   2.990   2.695
   33G3      N1 1047   4.837   3.102   2.757
   33G3      H1 1048   4.838   3.059   2.832
   33G3      C2 1049   4.937   3.192   2.733
   33G3      N2 1050   5.028   3.208   2.830
   33G3     H21 1051   5.022   3.162   2.902
   33G3     H22 1052   5.092   3.264   2.819
   33G3      N3 1053   4.949   3.265   2.623
   33G3      C4 1054   4.851   3.237   2.537
   33G3     C3' 1055   4.996   3.316   2.147
   33G3     H3' 1056   4.933   3.242   2.141
   33G3     C2' 1057   5.047   3.327   2.290
   33G3     H2' 1058   5.066   3.240   2.329
   33G3     O2' 1059   5.160   3.412   2.296
   33G3    HO2' 1060   5.225   3.375   2.258
   33G3     O3' 1061   5.098   3.294   2.050
   33G3    HO3' 1062   5.177   3.284   2.074
   8.09217   8.04338   8.05573
