GROningen MAchine for Chemical Simulation
 1948
    1U5    HO5'    1   9.098   7.209   8.461
    1U5     O5'    2   9.147   7.228   8.381
    1U5     C5'    3   9.247   7.329   8.383
    1U5     H5'    4   9.324   7.303   8.455
    1U5    H5''    5   9.202   7.424   8.411
    1U5     C4'    6   9.310   7.342   8.246
    1U5     H4'    7   9.396   7.409   8.252
    1U5     O4'    8   9.366   7.215   8.206
    1U5     C1'    9   9.350   7.196   8.067
    1U5     H1'   10   9.443   7.169   8.017
    1U5      N1   11   9.265   7.078   8.046
    1U5      C6   12   9.179   7.035   8.144
    1U5      H6   13   9.170   7.094   8.234
    1U5      C5   14   9.102   6.928   8.129
    1U5      H5   15   9.033   6.897   8.208
    1U5      C4   16   9.106   6.853   8.008
    1U5      O4   17   9.039   6.754   7.981
    1U5      N3   18   9.194   6.901   7.913
    1U5      H3   19   9.199   6.846   7.819
    1U5      C2   20   9.275   7.011   7.924
    1U5      O2   21   9.350   7.046   7.834
    1U5     C3'   22   9.215   7.377   8.133
    1U5     H3'   23   9.108   7.379   8.111
    1U5     C2'   24   9.291   7.326   8.012
    1U5     H2'   25   9.212   7.332   7.937
    1U5     O2'   26   9.395   7.415   7.978
    1U5    HO2'   27   9.428   7.388   7.892
    1U5     O3'   28   9.201   7.518   8.126
    2U        P   29   9.064   7.583   8.072
    2U      OP1   30   9.078   7.728   8.101
    2U      OP2   31   8.948   7.508   8.127
    2U      O5'   32   9.069   7.561   7.914
    2U      C5'   33   9.159   7.635   7.833
    2U      H5'   34   9.258   7.636   7.879
    2U     H5''   35   9.122   7.737   7.824
    2U      C4'   36   9.169   7.572   7.696
    2U      H4'   37   9.246   7.623   7.638
    2U      O4'   38   9.216   7.435   7.709
    2U      C1'   39   9.154   7.354   7.611
    2U      H1'   40   9.226   7.296   7.552
    2U       N1   41   9.076   7.249   7.679
    2U       C6   42   9.038   7.262   7.810
    2U       H6   43   9.061   7.353   7.862
    2U       C5   44   8.970   7.167   7.875
    2U       H5   45   8.943   7.178   7.980
    2U       C4   46   8.932   7.047   7.806
    2U       O4   47   8.871   6.951   7.855
    2U       N3   48   8.972   7.042   7.675
    2U       H3   49   8.944   6.952   7.620
    2U       C2   50   9.043   7.137   7.606
    2U       O2   51   9.074   7.122   7.490
    2U      C3'   52   9.037   7.558   7.622
    2U      H3'   53   8.931   7.555   7.646
    2U      C2'   54   9.069   7.446   7.523
    2U      H2'   55   8.969   7.424   7.487
    2U      O2'   56   9.149   7.492   7.416
    2U     HO2'   57   9.150   7.422   7.350
    2U      O3'   58   9.001   7.678   7.555
    3C        P   59   8.847   7.708   7.525
    3C      OP1   60   8.843   7.846   7.468
    3C      OP2   61   8.764   7.675   7.643
    3C      O5'   62   8.810   7.605   7.409
    3C      C5'   63   8.869   7.616   7.281
    3C      H5'   64   8.977   7.624   7.288
    3C     H5''   65   8.830   7.706   7.233
    3C      C4'   66   8.833   7.496   7.197
    3C      H4'   67   8.886   7.501   7.102
    3C      O4'   68   8.885   7.377   7.261
    3C      C1'   69   8.799   7.267   7.232
    3C      H1'   70   8.860   7.184   7.197
    3C       N1   71   8.742   7.217   7.358
    3C       C6   72   8.741   7.294   7.471
    3C       H6   73   8.785   7.393   7.469
    3C       C5   74   8.686   7.250   7.584
    3C       H5   75   8.686   7.314   7.673
    3C       C4   76   8.629   7.119   7.583
    3C       N4   77   8.573   7.069   7.692
    3C      H41   78   8.534   6.976   7.687
    3C      H42   79   8.569   7.123   7.777
    3C       N3   80   8.631   7.042   7.474
    3C       C2   81   8.687   7.088   7.360
    3C       O2   82   8.691   7.019   7.258
    3C      C3'   83   8.686   7.466   7.183
    3C      H3'   84   8.593   7.485   7.236
    3C      C2'   85   8.690   7.320   7.140
    3C      H2'   86   8.583   7.298   7.147
    3C      O2'   87   8.733   7.300   7.007
    3C     HO2'   88   8.715   7.209   6.985
    3C      O3'   89   8.626   7.550   7.085
    4C        P   90   8.471   7.589   7.097
    4C      OP1   91   8.449   7.698   6.999
    4C      OP2   92   8.428   7.608   7.237
    4C      O5'   93   8.396   7.462   7.041
    4C      C5'   94   8.419   7.418   6.910
    4C      H5'   95   8.526   7.405   6.890
    4C     H5''   96   8.378   7.492   6.841
    4C      C4'   97   8.350   7.287   6.889
    4C      H4'   98   8.366   7.250   6.787
    4C      O4'   99   8.410   7.187   6.974
    4C      C1'  100   8.310   7.094   7.014
    4C      H1'  101   8.341   6.993   6.988
    4C       N1  102   8.304   7.091   7.162
    4C       C6  103   8.363   7.189   7.236
    4C       H6  104   8.413   7.272   7.188
    4C       C5  105   8.360   7.185   7.370
    4C       H5  106   8.409   7.264   7.427
    4C       C4  107   8.292   7.075   7.431
    4C       N4  108   8.287   7.065   7.564
    4C      H41  109   8.238   6.986   7.603
    4C      H42  110   8.330   7.136   7.622
    4C       N3  111   8.234   6.979   7.359
    4C       C2  112   8.238   6.985   7.224
    4C       O2  113   8.185   6.898   7.153
    4C      C3'  114   8.204   7.287   6.931
    4C      H3'  115   8.135   7.343   6.993
    4C      C2'  116   8.179   7.138   6.949
    4C      H2'  117   8.083   7.142   6.999
    4C      O2'  118   8.164   7.074   6.824
    4C     HO2'  119   8.131   6.985   6.841
    4C      O3'  120   8.124   7.340   6.827
    5C        P  121   7.988   7.417   6.864
    5C      OP1  122   7.943   7.486   6.740
    5C      OP2  123   8.012   7.495   6.986
    5C      O5'  124   7.885   7.302   6.900
    5C      C5'  125   7.833   7.219   6.798
    5C      H5'  126   7.910   7.187   6.728
    5C     H5''  127   7.759   7.278   6.745
    5C      C4'  128   7.767   7.099   6.857
    5C      H4'  129   7.746   7.024   6.780
    5C      O4'  130   7.861   7.033   6.947
    5C      C1'  131   7.789   6.964   7.048
    5C      H1'  132   7.819   6.859   7.047
    5C       N1  133   7.834   7.011   7.180
    5C       C6  134   7.906   7.127   7.195
    5C       H6  135   7.931   7.187   7.108
    5C       C5  136   7.947   7.168   7.316
    5C       H5  137   8.005   7.260   7.325
    5C       C4  138   7.913   7.086   7.428
    5C       N4  139   7.953   7.120   7.551
    5C      H41  140   7.927   7.060   7.627
    5C      H42  141   8.008   7.204   7.565
    5C       N3  142   7.842   6.974   7.415
    5C       C2  143   7.800   6.934   7.292
    5C       O2  144   7.733   6.832   7.275
    5C      C3'  145   7.650   7.124   6.951
    5C      H3'  146   7.620   7.203   7.019
    5C      C2'  147   7.642   6.990   7.022
    5C      H2'  148   7.566   7.011   7.097
    5C      O2'  149   7.594   6.890   6.934
    5C     HO2'  150   7.577   6.812   6.988
    5C      O3'  151   7.530   7.156   6.883
    6G        P  152   7.427   7.258   6.952
    6G      OP1  153   7.311   7.277   6.861
    6G      OP2  154   7.503   7.376   6.999
    6G      O5'  155   7.381   7.182   7.084
    6G      C5'  156   7.289   7.074   7.082
    6G      H5'  157   7.322   6.992   7.018
    6G     H5''  158   7.194   7.113   7.044
    6G      C4'  159   7.269   7.023   7.222
    6G      H4'  160   7.216   6.927   7.226
    6G      O4'  161   7.401   6.993   7.277
    6G      C1'  162   7.406   7.030   7.414
    6G      H1'  163   7.446   6.948   7.473
    6G       N9  164   7.505   7.136   7.431
    6G       C8  165   7.560   7.216   7.334
    6G       H8  166   7.531   7.206   7.231
    6G       N7  167   7.649   7.300   7.382
    6G       C5  168   7.651   7.274   7.518
    6G       C6  169   7.727   7.334   7.620
    6G       O6  170   7.813   7.422   7.611
    6G       N1  171   7.697   7.279   7.745
    6G       H1  172   7.746   7.315   7.825
    6G       C2  173   7.606   7.179   7.767
    6G       N2  174   7.591   7.141   7.894
    6G      H21  175   7.640   7.177   7.975
    6G      H22  176   7.524   7.067   7.912
    6G       N3  177   7.534   7.122   7.672
    6G       C4  178   7.562   7.174   7.550
    6G      C3'  179   7.214   7.126   7.319
    6G      H3'  180   7.199   7.234   7.324
    6G      C2'  181   7.266   7.077   7.453
    6G      H2'  182   7.244   7.166   7.512
    6G      O2'  183   7.193   6.968   7.503
    6G     HO2'  184   7.219   6.956   7.595
    6G      O3'  185   7.073   7.127   7.318
    7A        P  186   6.994   7.261   7.279
    7A      OP1  187   7.045   7.309   7.148
    7A      OP2  188   6.991   7.352   7.396
    7A      O5'  189   6.849   7.204   7.249
    7A      C5'  190   6.834   7.103   7.150
    7A      H5'  191   6.910   7.026   7.163
    7A     H5''  192   6.845   7.149   7.052
    7A      C4'  193   6.699   7.040   7.161
    7A      H4'  194   6.690   6.956   7.093
    7A      O4'  195   6.684   6.982   7.293
    7A      C1'  196   6.549   6.992   7.333
    7A      H1'  197   6.498   6.898   7.353
    7A       N9  198   6.545   7.060   7.463
    7A       C8  199   6.647   7.124   7.529
    7A       H8  200   6.742   7.140   7.480
    7A       N7  201   6.614   7.166   7.649
    7A       C5  202   6.481   7.128   7.662
    7A       C6  203   6.389   7.142   7.767
    7A       N6  204   6.418   7.195   7.886
    7A      H61  205   6.346   7.201   7.957
    7A      H62  206   6.511   7.228   7.905
    7A       N1  207   6.264   7.096   7.746
    7A       C2  208   6.235   7.039   7.629
    7A       H2  209   6.135   7.001   7.611
    7A       N3  210   6.313   7.018   7.524
    7A       C4  211   6.437   7.066   7.547
    7A      C3'  212   6.583   7.137   7.150
    7A      H3'  213   6.565   7.244   7.162
    7A      C2'  214   6.472   7.059   7.219
    7A      H2'  215   6.397   7.138   7.229
    7A      O2'  216   6.422   6.956   7.137
    7A     HO2'  217   6.342   6.922   7.180
    7A      O3'  218   6.558   7.163   7.013
    8A        P  219   6.531   7.314   6.964
    8A      OP1  220   6.518   7.314   6.816
    8A      OP2  221   6.632   7.403   7.028
    8A      O5'  222   6.389   7.344   7.029
    8A      C5'  223   6.276   7.264   6.995
    8A      H5'  224   6.303   7.159   6.999
    8A     H5''  225   6.243   7.290   6.895
    8A      C4'  226   6.164   7.290   7.093
    8A      H4'  227   6.074   7.237   7.060
    8A      O4'  228   6.195   7.230   7.221
    8A      C1'  229   6.149   7.315   7.326
    8A      H1'  230   6.094   7.260   7.403
    8A       N9  231   6.266   7.366   7.399
    8A       C8  232   6.390   7.397   7.349
    8A       H8  233   6.409   7.390   7.243
    8A       N7  234   6.473   7.441   7.440
    8A       C5  235   6.399   7.438   7.557
    8A       C6  236   6.431   7.471   7.690
    8A       N6  237   6.552   7.515   7.728
    8A      H61  238   6.568   7.537   7.826
    8A      H62  239   6.626   7.525   7.661
    8A       N1  240   6.334   7.457   7.782
    8A       C2  241   6.214   7.412   7.744
    8A       H2  242   6.134   7.401   7.816
    8A       N3  243   6.172   7.377   7.623
    8A       C4  244   6.271   7.392   7.533
    8A      C3'  245   6.139   7.436   7.124
    8A      H3'  246   6.192   7.531   7.116
    8A      C2'  247   6.071   7.428   7.260
    8A      H2'  248   6.081   7.534   7.286
    8A      O2'  249   5.934   7.394   7.254
    8A     HO2'  250   5.897   7.412   7.341
    8A      O3'  251   6.061   7.498   7.024
    9A        P  252   6.063   7.658   7.011
    9A      OP1  253   6.018   7.691   6.873
    9A      OP2  254   6.193   7.712   7.060
    9A      O5'  255   5.949   7.703   7.113
    9A      C5'  256   5.965   7.822   7.187
    9A      H5'  257   5.930   7.908   7.132
    9A     H5''  258   6.071   7.832   7.208
    9A      C4'  259   5.889   7.813   7.317
    9A      H4'  260   5.783   7.791   7.304
    9A      O4'  261   5.939   7.705   7.401
    9A      C1'  262   5.944   7.747   7.537
    9A      H1'  263   5.902   7.672   7.603
    9A       N9  264   6.084   7.753   7.578
    9A       C8  265   6.196   7.745   7.500
    9A       H8  266   6.187   7.734   7.393
    9A       N7  267   6.308   7.759   7.567
    9A       C5  268   6.267   7.775   7.698
    9A       C6  269   6.337   7.795   7.818
    9A       N6  270   6.470   7.802   7.825
    9A      H61  271   6.515   7.816   7.915
    9A      H62  272   6.526   7.792   7.742
    9A       N1  273   6.266   7.808   7.931
    9A       C2  274   6.133   7.801   7.924
    9A       H2  275   6.074   7.811   8.014
    9A       N3  276   6.055   7.783   7.818
    9A       C4  277   6.129   7.771   7.707
    9A      C3'  278   5.914   7.936   7.401
    9A      H3'  279   5.983   8.021   7.405
    9A      C2'  280   5.884   7.888   7.541
    9A      H2'  281   5.930   7.972   7.593
    9A      O2'  282   5.747   7.882   7.574
    9A     HO2'  283   5.741   7.872   7.669
    9A      O3'  284   5.833   8.040   7.352
   10G        P  285   5.894   8.187   7.339
   10G      OP1  286   5.788   8.265   7.270
   10G      OP2  287   6.029   8.179   7.278
   10G      O5'  288   5.896   8.233   7.492
   10G      C5'  289   5.773   8.229   7.565
   10G      H5'  290   5.732   8.129   7.550
   10G     H5''  291   5.703   8.304   7.527
   10G      C4'  292   5.793   8.252   7.713
   10G      H4'  293   5.692   8.259   7.755
   10G      O4'  294   5.850   8.135   7.777
   10G      C1'  295   5.930   8.177   7.887
   10G      H1'  296   5.910   8.106   7.968
   10G       N9  297   6.070   8.152   7.854
   10G       C8  298   6.124   8.133   7.729
   10G       H8  299   6.062   8.128   7.641
   10G       N7  300   6.254   8.123   7.732
   10G       C5  301   6.286   8.134   7.867
   10G       C6  302   6.412   8.131   7.932
   10G       O6  303   6.524   8.118   7.883
   10G       N1  304   6.398   8.146   8.070
   10G       H1  305   6.481   8.145   8.125
   10G       C2  306   6.278   8.161   8.136
   10G       N2  307   6.285   8.174   8.269
   10G      H21  308   6.368   8.173   8.326
   10G      H22  309   6.197   8.185   8.317
   10G       N3  310   6.162   8.164   8.076
   10G       C4  311   6.173   8.150   7.943
   10G      C3'  312   5.883   8.366   7.756
   10G      H3'  313   5.965   8.427   7.717
   10G      C2'  314   5.913   8.328   7.901
   10G      H2'  315   5.996   8.397   7.913
   10G      O2'  316   5.811   8.360   7.993
   10G     HO2'  317   5.850   8.352   8.081
   10G      O3'  318   5.820   8.492   7.746
   11G        P  319   5.909   8.622   7.717
   11G      OP1  320   5.817   8.737   7.704
   11G      OP2  321   6.002   8.590   7.607
   11G      O5'  322   5.992   8.640   7.851
   11G      C5'  323   5.926   8.669   7.973
   11G      H5'  324   5.847   8.597   7.992
   11G     H5''  325   5.883   8.769   7.965
   11G      C4'  326   6.024   8.667   8.088
   11G      H4'  327   5.970   8.680   8.181
   11G      O4'  328   6.082   8.535   8.097
   11G      C1'  329   6.213   8.546   8.152
   11G      H1'  330   6.221   8.471   8.231
   11G       N9  331   6.310   8.501   8.053
   11G       C8  332   6.290   8.475   7.919
   11G       H8  333   6.191   8.480   7.875
   11G       N7  334   6.400   8.444   7.856
   11G       C5  335   6.498   8.449   7.955
   11G       C6  336   6.638   8.426   7.947
   11G       O6  337   6.706   8.394   7.848
   11G       N1  338   6.700   8.443   8.071
   11G       H1  339   6.799   8.429   8.076
   11G       C2  340   6.635   8.477   8.187
   11G       N2  341   6.711   8.488   8.296
   11G      H21  342   6.811   8.474   8.303
   11G      H22  343   6.664   8.512   8.382
   11G       N3  344   6.505   8.497   8.196
   11G       C4  345   6.443   8.483   8.076
   11G      C3'  346   6.146   8.756   8.075
   11G      H3'  347   6.206   8.803   7.997
   11G      C2'  348   6.237   8.694   8.179
   11G      H2'  349   6.329   8.747   8.153
   11G      O2'  350   6.200   8.726   8.311
   11G     HO2'  351   6.273   8.698   8.368
   11G      O3'  352   6.118   8.892   8.104
   12A        P  353   6.204   9.008   8.033
   12A      OP1  354   6.142   9.137   8.073
   12A      OP2  355   6.224   8.978   7.888
   12A      O5'  356   6.346   8.998   8.103
   12A      C5'  357   6.360   9.026   8.241
   12A      H5'  358   6.298   8.961   8.303
   12A     H5''  359   6.331   9.130   8.257
   12A      C4'  360   6.504   9.009   8.282
   12A      H4'  361   6.518   9.029   8.388
   12A      O4'  362   6.542   8.870   8.266
   12A      C1'  363   6.676   8.861   8.220
   12A      H1'  364   6.733   8.787   8.276
   12A       N9  365   6.676   8.807   8.084
   12A       C8  366   6.572   8.800   7.994
   12A       H8  367   6.475   8.840   8.019
   12A       N7  368   6.607   8.749   7.878
   12A       C5  369   6.742   8.719   7.893
   12A       C6  370   6.837   8.663   7.807
   12A       N6  371   6.811   8.625   7.682
   12A      H61  372   6.884   8.586   7.624
   12A      H62  373   6.718   8.636   7.644
   12A       N1  374   6.963   8.648   7.854
   12A       C2  375   6.990   8.686   7.979
   12A       H2  376   7.089   8.674   8.019
   12A       N3  377   6.909   8.739   8.070
   12A       C4  378   6.785   8.754   8.020
   12A      C3'  379   6.604   9.081   8.192
   12A      H3'  380   6.606   9.119   8.090
   12A      C2'  381   6.731   9.004   8.221
   12A      H2'  382   6.795   9.046   8.144
   12A      O2'  383   6.784   9.033   8.349
   12A     HO2'  384   6.872   8.994   8.353
   12A      O3'  385   6.614   9.220   8.222
   13U        P  386   6.634   9.324   8.101
   13U      OP1  387   6.615   9.461   8.155
   13U      OP2  388   6.551   9.278   7.987
   13U      O5'  389   6.786   9.306   8.061
   13U      C5'  390   6.888   9.308   8.161
   13U      H5'  391   6.857   9.251   8.248
   13U     H5''  392   6.905   9.412   8.189
   13U      C4'  393   7.015   9.250   8.106
   13U      H4'  394   7.094   9.255   8.181
   13U      O4'  395   6.998   9.108   8.080
   13U      C1'  396   7.072   9.071   7.964
   13U      H1'  397   7.130   8.980   7.980
   13U       N1  398   6.977   9.031   7.859
   13U       C6  399   6.843   9.066   7.866
   13U       H6  400   6.810   9.126   7.949
   13U       C5  401   6.755   9.034   7.771
   13U       H5  402   6.650   9.061   7.779
   13U       C4  403   6.799   8.959   7.657
   13U       O4  404   6.728   8.921   7.564
   13U       N3  405   6.933   8.927   7.656
   13U       H3  406   6.968   8.870   7.571
   13U       C2  407   7.025   8.959   7.752
   13U       O2  408   7.142   8.925   7.743
   13U      C3'  409   7.057   9.304   7.970
   13U      H3'  410   7.008   9.350   7.884
   13U      C2'  411   7.151   9.195   7.923
   13U      H2'  412   7.167   9.228   7.820
   13U      O2'  413   7.274   9.198   7.993
   13U     HO2'  414   7.334   9.138   7.947
   13U      O3'  415   7.116   9.433   7.980
   14G        P  416   7.093   9.539   7.862
   14G      OP1  417   7.092   9.674   7.925
   14G      OP2  418   6.976   9.496   7.780
   14G      O5'  419   7.224   9.523   7.773
   14G      C5'  420   7.215   9.501   7.634
   14G      H5'  421   7.197   9.595   7.582
   14G     H5''  422   7.132   9.433   7.617
   14G      C4'  423   7.342   9.439   7.580
   14G      H4'  424   7.433   9.479   7.624
   14G      O4'  425   7.347   9.296   7.611
   14G      C1'  426   7.354   9.221   7.490
   14G      H1'  427   7.410   9.129   7.506
   14G       N9  428   7.218   9.176   7.462
   14G       C8  429   7.108   9.204   7.538
   14G       H8  430   7.116   9.264   7.627
   14G       N7  431   6.998   9.150   7.492
   14G       C5  432   7.039   9.083   7.377
   14G       C6  433   6.964   9.005   7.286
   14G       O6  434   6.843   8.980   7.288
   14G       N1  435   7.044   8.954   7.185
   14G       H1  436   7.000   8.898   7.115
   14G       C2  437   7.180   8.975   7.173
   14G       N2  438   7.239   8.917   7.068
   14G      H21  439   7.195   8.859   6.998
   14G      H22  440   7.339   8.931   7.060
   14G       N3  441   7.251   9.048   7.257
   14G       C4  442   7.175   9.098   7.357
   14G      C3'  443   7.341   9.447   7.429
   14G      H3'  444   7.274   9.482   7.350
   14G      C2'  445   7.407   9.317   7.384
   14G      H2'  446   7.369   9.320   7.282
   14G      O2'  447   7.548   9.321   7.382
   14G     HO2'  448   7.578   9.244   7.332
   14G      O3'  449   7.405   9.565   7.386
   15G        P  450   7.328   9.662   7.286
   15G      OP1  451   7.399   9.792   7.284
   15G      OP2  452   7.185   9.658   7.324
   15G      O5'  453   7.347   9.591   7.145
   15G      C5'  454   7.478   9.561   7.097
   15G      H5'  455   7.535   9.510   7.175
   15G     H5''  456   7.528   9.654   7.070
   15G      C4'  457   7.471   9.472   6.976
   15G      H4'  458   7.571   9.455   6.937
   15G      O4'  459   7.424   9.340   7.014
   15G      C1'  460   7.344   9.285   6.909
   15G      H1'  461   7.379   9.185   6.884
   15G       N9  462   7.210   9.263   6.961
   15G       C8  463   7.160   9.304   7.083
   15G       H8  464   7.222   9.360   7.151
   15G       N7  465   7.036   9.268   7.103
   15G       C5  466   7.001   9.200   6.987
   15G       C6  467   6.879   9.137   6.951
   15G       O6  468   6.774   9.130   7.016
   15G       N1  469   6.887   9.078   6.825
   15G       H1  470   6.806   9.031   6.791
   15G       C2  471   6.999   9.080   6.745
   15G       N2  472   6.987   9.017   6.627
   15G      H21  473   6.906   8.967   6.593
   15G      H22  474   7.069   9.017   6.568
   15G       N3  475   7.113   9.139   6.777
   15G       C4  476   7.107   9.196   6.899
   15G      C3'  477   7.372   9.516   6.869
   15G      H3'  478   7.282   9.577   6.863
   15G      C2'  479   7.349   9.385   6.793
   15G      H2'  480   7.264   9.416   6.733
   15G      O2'  481   7.457   9.351   6.709
   15G     HO2'  482   7.428   9.279   6.653
   15G      O3'  483   7.425   9.620   6.788
   16C        P  484   7.325   9.732   6.729
   16C      OP1  485   7.408   9.837   6.663
   16C      OP2  486   7.230   9.770   6.837
   16C      O5'  487   7.246   9.654   6.614
   16C      C5'  488   7.316   9.599   6.504
   16C      H5'  489   7.395   9.533   6.543
   16C     H5''  490   7.361   9.679   6.446
   16C      C4'  491   7.224   9.519   6.416
   16C      H4'  492   7.283   9.481   6.333
   16C      O4'  493   7.177   9.399   6.484
   16C      C1'  494   7.048   9.364   6.435
   16C      H1'  495   7.048   9.258   6.409
   16C       N1  496   6.953   9.372   6.547
   16C       C6  497   6.983   9.445   6.659
   16C       H6  498   7.079   9.495   6.666
   16C       C5  499   6.897   9.456   6.761
   16C       H5  500   6.925   9.515   6.848
   16C       C4  501   6.773   9.387   6.749
   16C       N4  502   6.683   9.395   6.848
   16C      H41  503   6.596   9.345   6.836
   16C      H42  504   6.703   9.448   6.931
   16C       N3  505   6.741   9.315   6.641
   16C       C2  506   6.829   9.305   6.538
   16C       O2  507   6.803   9.239   6.436
   16C      C3'  508   7.095   9.585   6.373
   16C      H3'  509   7.026   9.660   6.411
   16C      C2'  510   7.017   9.464   6.324
   16C      H2'  511   6.920   9.509   6.305
   16C      O2'  512   7.070   9.413   6.203
   16C     HO2'  513   7.007   9.348   6.170
   16C      O3'  514   7.118   9.682   6.271
   17G        P  515   7.032   9.819   6.270
   17G      OP1  516   7.086   9.903   6.159
   17G      OP2  517   7.025   9.876   6.408
   17G      O5'  518   6.887   9.771   6.227
   17G      C5'  519   6.870   9.702   6.105
   17G      H5'  520   6.949   9.629   6.090
   17G     H5''  521   6.873   9.776   6.025
   17G      C4'  522   6.737   9.632   6.102
   17G      H4'  523   6.731   9.575   6.009
   17G      O4'  524   6.729   9.531   6.206
   17G      C1'  525   6.592   9.504   6.233
   17G      H1'  526   6.576   9.397   6.220
   17G       N9  527   6.563   9.526   6.374
   17G       C8  528   6.640   9.589   6.469
   17G       H8  529   6.738   9.627   6.445
   17G       N7  530   6.581   9.595   6.586
   17G       C5  531   6.459   9.532   6.566
   17G       C6  532   6.352   9.507   6.657
   17G       O6  533   6.344   9.536   6.776
   17G       N1  534   6.247   9.441   6.595
   17G       H1  535   6.166   9.419   6.650
   17G       C2  536   6.244   9.403   6.463
   17G       N2  537   6.133   9.341   6.421
   17G      H21  538   6.052   9.318   6.477
   17G      H22  539   6.131   9.312   6.325
   17G       N3  540   6.343   9.425   6.378
   17G       C4  541   6.446   9.489   6.436
   17G      C3'  542   6.614   9.715   6.133
   17G      H3'  543   6.587   9.800   6.195
   17G      C2'  544   6.511   9.604   6.151
   17G      H2'  545   6.429   9.665   6.189
   17G      O2'  546   6.471   9.543   6.029
   17G     HO2'  547   6.394   9.489   6.049
   17G      O3'  548   6.582   9.806   6.030
   18G        P  549   6.554   9.960   6.068
   18G      OP1  550   6.578  10.037   5.943
   18G      OP2  551   6.627   9.995   6.191
   18G      O5'  552   6.398   9.961   6.100
   18G      C5'  553   6.306   9.911   6.005
   18G      H5'  554   6.352   9.834   5.943
   18G     H5''  555   6.274   9.994   5.943
   18G      C4'  556   6.186   9.852   6.074
   18G      H4'  557   6.124   9.801   6.001
   18G      O4'  558   6.227   9.747   6.167
   18G      C1'  559   6.134   9.741   6.276
   18G      H1'  560   6.108   9.636   6.291
   18G       N9  561   6.204   9.778   6.399
   18G       C8  562   6.332   9.826   6.410
   18G       H8  563   6.394   9.837   6.322
   18G       N7  564   6.365   9.855   6.532
   18G       C5  565   6.253   9.823   6.608
   18G       C6  566   6.231   9.835   6.749
   18G       O6  567   6.307   9.878   6.836
   18G       N1  568   6.104   9.790   6.783
   18G       H1  569   6.079   9.794   6.880
   18G       C2  570   6.010   9.742   6.696
   18G       N2  571   5.894   9.703   6.750
   18G      H21  572   5.869   9.706   6.848
   18G      H22  573   5.824   9.667   6.687
   18G       N3  574   6.029   9.731   6.565
   18G       C4  575   6.153   9.774   6.528
   18G      C3'  576   6.110   9.945   6.167
   18G      H3'  577   6.133  10.029   6.232
   18G      C2'  578   6.026   9.844   6.243
   18G      H2'  579   5.978   9.909   6.317
   18G      O2'  580   5.926   9.786   6.161
   18G     HO2'  581   5.868   9.735   6.218
   18G      O3'  582   6.036  10.046   6.100
   19A        P  583   6.073  10.201   6.127
   19A      OP1  584   6.018  10.281   6.014
   19A      OP2  585   6.219  10.205   6.157
   19A      O5'  586   5.994  10.238   6.262
   19A      C5'  587   6.050  10.331   6.356
   19A      H5'  588   6.097  10.414   6.303
   19A     H5''  589   6.124  10.279   6.416
   19A      C4'  590   5.941  10.385   6.447
   19A      H4'  591   5.970  10.483   6.486
   19A      O4'  592   5.826  10.411   6.362
   19A      C1'  593   5.707  10.377   6.431
   19A      H1'  594   5.632  10.455   6.436
   19A       N9  595   5.639  10.271   6.355
   19A       C8  596   5.686  10.207   6.243
   19A       H8  597   5.786  10.225   6.207
   19A       N7  598   5.600  10.121   6.191
   19A       C5  599   5.491  10.129   6.276
   19A       C6  600   5.365  10.064   6.276
   19A       N6  601   5.328   9.975   6.183
   19A      H61  602   5.236   9.931   6.189
   19A      H62  603   5.390   9.951   6.108
   19A       N1  604   5.279  10.093   6.376
   19A       C2  605   5.316  10.183   6.468
   19A       H2  606   5.249  10.207   6.549
   19A       N3  607   5.430  10.251   6.479
   19A       C4  608   5.514  10.220   6.379
   19A      C3'  609   5.889  10.291   6.554
   19A      H3'  610   5.894  10.184   6.576
   19A      C2'  611   5.746  10.340   6.574
   19A      H2'  612   5.709  10.254   6.629
   19A      O2'  613   5.739  10.455   6.657
   19A     HO2'  614   5.647  10.468   6.680
   19A      O3'  615   5.963  10.299   6.676
   20A        P  616   6.010  10.163   6.750
   20A      OP1  617   6.063  10.197   6.885
   20A      OP2  618   6.096  10.091   6.651
   20A      O5'  619   5.875  10.080   6.771
   20A      C5'  620   5.787  10.110   6.879
   20A      H5'  621   5.785  10.218   6.894
   20A     H5''  622   5.826  10.062   6.969
   20A      C4'  623   5.647  10.061   6.852
   20A      H4'  624   5.577  10.128   6.901
   20A      O4'  625   5.617  10.075   6.711
   20A      C1'  626   5.518   9.979   6.673
   20A      H1'  627   5.424  10.022   6.641
   20A       N9  628   5.565   9.909   6.554
   20A       C8  629   5.691   9.910   6.501
   20A       H8  630   5.771   9.960   6.553
   20A       N7  631   5.703   9.842   6.390
   20A       C5  632   5.576   9.791   6.368
   20A       C6  633   5.522   9.711   6.266
   20A       N6  634   5.594   9.667   6.162
   20A      H61  635   5.551   9.610   6.091
   20A      H62  636   5.692   9.691   6.154
   20A       N1  637   5.391   9.677   6.273
   20A       C2  638   5.320   9.721   6.378
   20A       H2  639   5.215   9.695   6.387
   20A       N3  640   5.359   9.797   6.481
   20A       C4  641   5.490   9.830   6.470
   20A      C3'  642   5.618   9.914   6.879
   20A      H3'  643   5.674   9.821   6.890
   20A      C2'  644   5.493   9.888   6.794
   20A      H2'  645   5.501   9.780   6.794
   20A      O2'  646   5.372   9.927   6.856
   20A     HO2'  647   5.301   9.888   6.805
   20A      O3'  648   5.591   9.890   7.017
   21A        P  649   5.645   9.755   7.086
   21A      OP1  650   5.632   9.769   7.234
   21A      OP2  651   5.778   9.726   7.025
   21A      O5'  652   5.546   9.641   7.035
   21A      C5'  653   5.408   9.638   7.070
   21A      H5'  654   5.364   9.738   7.063
   21A     H5''  655   5.399   9.602   7.173
   21A      C4'  656   5.333   9.545   6.978
   21A      H4'  657   5.227   9.544   7.001
   21A      O4'  658   5.340   9.597   6.842
   21A      C1'  659   5.358   9.491   6.750
   21A      H1'  660   5.289   9.494   6.665
   21A       N9  661   5.489   9.508   6.686
   21A       C8  662   5.598   9.572   6.739
   21A       H8  663   5.596   9.610   6.840
   21A       N7  664   5.702   9.575   6.658
   21A       C5  665   5.658   9.508   6.545
   21A       C6  666   5.722   9.476   6.423
   21A       N6  667   5.848   9.510   6.394
   21A      H61  668   5.887   9.484   6.304
   21A      H62  669   5.903   9.561   6.460
   21A       N1  670   5.651   9.407   6.331
   21A       C2  671   5.524   9.373   6.361
   21A       H2  672   5.465   9.318   6.289
   21A       N3  673   5.454   9.396   6.472
   21A       C4  674   5.527   9.465   6.561
   21A      C3'  675   5.393   9.405   6.966
   21A      H3'  676   5.488   9.356   6.987
   21A      C2'  677   5.342   9.362   6.829
   21A      H2'  678   5.403   9.272   6.816
   21A      O2'  679   5.205   9.325   6.832
   21A     HO2'  680   5.186   9.283   6.748
   21A      O3'  681   5.348   9.318   7.071
   22C        P  682   5.456   9.248   7.167
   22C      OP1  683   5.384   9.154   7.257
   22C      OP2  684   5.539   9.356   7.226
   22C      O5'  685   5.547   9.162   7.069
   22C      C5'  686   5.490   9.062   6.986
   22C      H5'  687   5.383   9.077   6.974
   22C     H5''  688   5.508   8.965   7.034
   22C      C4'  689   5.556   9.062   6.850
   22C      H4'  690   5.483   9.033   6.774
   22C      O4'  691   5.591   9.199   6.816
   22C      C1'  692   5.703   9.199   6.729
   22C      H1'  693   5.678   9.257   6.640
   22C       N1  694   5.813   9.276   6.791
   22C       C6  695   5.808   9.315   6.922
   22C       H6  696   5.722   9.290   6.982
   22C       C5  697   5.909   9.383   6.977
   22C       H5  698   5.903   9.412   7.082
   22C       C4  699   6.022   9.413   6.894
   22C       N4  700   6.126   9.480   6.944
   22C      H41  701   6.203   9.500   6.883
   22C      H42  702   6.126   9.510   7.041
   22C       N3  703   6.027   9.376   6.766
   22C       C2  704   5.925   9.307   6.711
   22C       O2  705   5.926   9.271   6.592
   22C      C3'  706   5.689   8.991   6.837
   22C      H3'  707   5.772   8.960   6.901
   22C      C2'  708   5.744   9.053   6.710
   22C      H2'  709   5.846   9.015   6.717
   22C      O2'  710   5.683   9.004   6.592
   22C     HO2'  711   5.736   9.034   6.518
   22C      O3'  712   5.674   8.850   6.821
   23G        P  713   5.797   8.753   6.855
   23G      OP1  714   5.739   8.616   6.867
   23G      OP2  715   5.872   8.811   6.969
   23G      O5'  716   5.889   8.758   6.724
   23G      C5'  717   5.838   8.714   6.598
   23G      H5'  718   5.743   8.764   6.582
   23G     H5''  719   5.822   8.606   6.599
   23G      C4'  720   5.932   8.749   6.484
   23G      H4'  721   5.881   8.722   6.392
   23G      O4'  722   5.951   8.894   6.474
   23G      C1'  723   6.082   8.922   6.428
   23G      H1'  724   6.079   8.997   6.348
   23G       N9  725   6.153   8.990   6.535
   23G       C8  726   6.107   9.007   6.664
   23G       H8  727   6.012   8.968   6.694
   23G       N7  728   6.190   9.075   6.739
   23G       C5  729   6.298   9.103   6.656
   23G       C6  730   6.417   9.174   6.682
   23G       O6  731   6.454   9.226   6.788
   23G       N1  732   6.499   9.180   6.570
   23G       H1  733   6.586   9.229   6.579
   23G       C2  734   6.470   9.125   6.448
   23G       N2  735   6.562   9.144   6.352
   23G      H21  736   6.649   9.194   6.360
   23G      H22  737   6.542   9.104   6.261
   23G       N3  738   6.359   9.058   6.422
   23G       C4  739   6.277   9.051   6.530
   23G      C3'  740   6.074   8.696   6.491
   23G      H3'  741   6.145   8.663   6.567
   23G      C2'  742   6.146   8.788   6.393
   23G      H2'  743   6.249   8.760   6.417
   23G      O2'  744   6.120   8.757   6.257
   23G     HO2'  745   6.182   8.807   6.204
   23G      O3'  746   6.083   8.560   6.451
   24C        P  747   6.179   8.461   6.534
   24C      OP1  748   6.156   8.323   6.485
   24C      OP2  749   6.159   8.493   6.678
   24C      O5'  750   6.327   8.506   6.494
   24C      C5'  751   6.374   8.498   6.360
   24C      H5'  752   6.297   8.532   6.290
   24C     H5''  753   6.398   8.394   6.339
   24C      C4'  754   6.498   8.583   6.342
   24C      H4'  755   6.521   8.594   6.236
   24C      O4'  756   6.468   8.719   6.386
   24C      C1'  757   6.586   8.779   6.438
   24C      H1'  758   6.603   8.874   6.387
   24C       N1  759   6.562   8.819   6.578
   24C       C6  760   6.450   8.779   6.646
   24C       H6  761   6.377   8.716   6.597
   24C       C5  762   6.429   8.817   6.772
   24C       H5  763   6.339   8.784   6.824
   24C       C4  764   6.527   8.901   6.834
   24C       N4  765   6.511   8.944   6.959
   24C      H41  766   6.582   9.003   6.998
   24C      H42  767   6.428   8.917   7.011
   24C       N3  768   6.638   8.940   6.769
   24C       C2  769   6.658   8.900   6.641
   24C       O2  770   6.759   8.932   6.578
   24C      C3'  771   6.618   8.547   6.427
   24C      H3'  772   6.636   8.495   6.521
   24C      C2'  773   6.698   8.676   6.425
   24C      H2'  774   6.769   8.651   6.504
   24C      O2'  775   6.768   8.698   6.304
   24C     HO2'  776   6.829   8.771   6.320
   24C      O3'  777   6.691   8.436   6.377
   25C        P  778   6.727   8.314   6.476
   25C      OP1  779   6.741   8.192   6.393
   25C      OP2  780   6.628   8.319   6.587
   25C      O5'  781   6.870   8.351   6.536
   25C      C5'  782   6.974   8.399   6.452
   25C      H5'  783   6.930   8.448   6.365
   25C     H5''  784   7.036   8.315   6.419
   25C      C4'  785   7.062   8.499   6.525
   25C      H4'  786   7.132   8.539   6.452
   25C      O4'  787   6.985   8.614   6.569
   25C      C1'  788   7.051   8.675   6.678
   25C      H1'  789   7.079   8.777   6.651
   25C       N1  790   6.956   8.694   6.789
   25C       C6  791   6.830   8.642   6.785
   25C       H6  792   6.798   8.586   6.698
   25C       C5  793   6.744   8.660   6.886
   25C       H5  794   6.644   8.617   6.880
   25C       C4  795   6.790   8.735   6.999
   25C       N4  796   6.710   8.755   7.104
   25C      H41  797   6.746   8.809   7.181
   25C      H42  798   6.616   8.718   7.104
   25C       N3  799   6.913   8.786   7.004
   25C       C2  800   6.999   8.767   6.901
   25C       O2  801   7.114   8.812   6.902
   25C      C3'  802   7.128   8.453   6.654
   25C      H3'  803   7.111   8.380   6.733
   25C      C2'  804   7.170   8.586   6.715
   25C      H2'  805   7.193   8.549   6.815
   25C      O2'  806   7.286   8.640   6.657
   25C     HO2'  807   7.315   8.712   6.714
   25C      O3'  808   7.239   8.369   6.626
   26A        P  809   7.263   8.236   6.714
   26A      OP1  810   7.348   8.146   6.632
   26A      OP2  811   7.132   8.187   6.765
   26A      O5'  812   7.348   8.288   6.839
   26A      C5'  813   7.472   8.355   6.819
   26A      H5'  814   7.462   8.428   6.739
   26A     H5''  815   7.548   8.281   6.792
   26A      C4'  816   7.514   8.425   6.946
   26A      H4'  817   7.611   8.473   6.930
   26A      O4'  818   7.424   8.534   6.975
   26A      C1'  819   7.425   8.560   7.114
   26A      H1'  820   7.470   8.656   7.140
   26A       N9  821   7.288   8.573   7.162
   26A       C8  822   7.172   8.536   7.098
   26A       H8  823   7.177   8.485   7.003
   26A       N7  824   7.063   8.562   7.166
   26A       C5  825   7.110   8.620   7.283
   26A       C6  826   7.044   8.671   7.397
   26A       N6  827   6.911   8.669   7.413
   26A      H61  828   6.869   8.707   7.497
   26A      H62  829   6.852   8.631   7.340
   26A       N1  830   7.120   8.723   7.496
   26A       C2  831   7.253   8.723   7.481
   26A       H2  832   7.316   8.764   7.558
   26A       N3  833   7.327   8.679   7.379
   26A       C4  834   7.248   8.628   7.282
   26A      C3'  835   7.508   8.341   7.072
   26A      H3'  836   7.461   8.250   7.108
   26A      C2'  837   7.505   8.447   7.181
   26A      H2'  838   7.467   8.383   7.261
   26A      O2'  839   7.634   8.494   7.215
   26A     HO2'  840   7.625   8.543   7.297
   26A      O3'  841   7.624   8.258   7.082
   27G        P  842   7.607   8.100   7.106
   27G      OP1  843   7.724   8.034   7.042
   27G      OP2  844   7.470   8.056   7.071
   27G      O5'  845   7.624   8.084   7.264
   27G      C5'  846   7.753   8.082   7.322
   27G      H5'  847   7.827   8.133   7.260
   27G     H5''  848   7.781   7.977   7.332
   27G      C4'  849   7.749   8.146   7.457
   27G      H4'  850   7.848   8.177   7.489
   27G      O4'  851   7.674   8.270   7.442
   27G      C1'  852   7.602   8.297   7.562
   27G      H1'  853   7.623   8.399   7.593
   27G       N9  854   7.458   8.298   7.533
   27G       C8  855   7.387   8.230   7.438
   27G       H8  856   7.436   8.162   7.369
   27G       N7  857   7.259   8.256   7.441
   27G       C5  858   7.246   8.347   7.545
   27G       C6  859   7.130   8.412   7.598
   27G       O6  860   7.013   8.404   7.561
   27G       N1  861   7.163   8.495   7.705
   27G       H1  862   7.089   8.545   7.749
   27G       C2  863   7.290   8.513   7.754
   27G       N2  864   7.304   8.596   7.859
   27G      H21  865   7.230   8.648   7.905
   27G      H22  866   7.397   8.610   7.894
   27G       N3  867   7.397   8.454   7.706
   27G       C4  868   7.368   8.373   7.603
   27G      C3'  869   7.669   8.074   7.565
   27G      H3'  870   7.582   8.008   7.558
   27G      C2'  871   7.639   8.187   7.661
   27G      H2'  872   7.569   8.135   7.727
   27G      O2'  873   7.750   8.232   7.737
   27G     HO2'  874   7.716   8.290   7.805
   27G      O3'  875   7.727   7.954   7.619
   28A        P  876   7.879   7.951   7.674
   28A      OP1  877   7.930   8.086   7.706
   28A      OP2  878   7.952   7.866   7.577
   28A      O5'  879   7.869   7.867   7.810
   28A      C5'  880   7.814   7.920   7.932
   28A      H5'  881   7.734   7.989   7.904
   28A     H5''  882   7.887   7.973   7.992
   28A      C4'  883   7.756   7.806   8.012
   28A      H4'  884   7.724   7.842   8.110
   28A      O4'  885   7.635   7.759   7.951
   28A      C1'  886   7.643   7.620   7.932
   28A      H1'  887   7.589   7.561   8.005
   28A       N9  888   7.574   7.590   7.808
   28A       C8  889   7.600   7.640   7.683
   28A       H8  890   7.684   7.705   7.667
   28A       N7  891   7.517   7.597   7.591
   28A       C5  892   7.433   7.511   7.660
   28A       C6  893   7.324   7.434   7.620
   28A       N6  894   7.279   7.431   7.494
   28A      H61  895   7.200   7.374   7.470
   28A      H62  896   7.325   7.486   7.422
   28A       N1  897   7.261   7.360   7.713
   28A       C2  898   7.305   7.365   7.840
   28A       H2  899   7.257   7.307   7.917
   28A       N3  900   7.407   7.434   7.890
   28A       C4  901   7.468   7.505   7.794
   28A      C3'  902   7.852   7.689   8.025
   28A      H3'  903   7.956   7.664   8.047
   28A      C2'  904   7.789   7.576   7.943
   28A      H2'  905   7.862   7.591   7.863
   28A      O2'  906   7.801   7.446   7.994
   28A     HO2'  907   7.785   7.385   7.921
   28A      O3'  908   7.847   7.653   8.163
   29U        P  909   7.979   7.608   8.243
   29U      OP1  910   7.983   7.699   8.360
   29U      OP2  911   8.093   7.602   8.148
   29U      O5'  912   7.942   7.463   8.297
   29U      C5'  913   7.810   7.437   8.341
   29U      H5'  914   7.758   7.369   8.273
   29U     H5''  915   7.759   7.534   8.342
   29U      C4'  916   7.809   7.380   8.480
   29U      H4'  917   7.814   7.271   8.475
   29U      O4'  918   7.927   7.419   8.557
   29U      C1'  919   7.894   7.418   8.696
   29U      H1'  920   7.966   7.358   8.752
   29U       N1  921   7.913   7.553   8.753
   29U       C6  922   7.911   7.667   8.675
   29U       H6  923   7.894   7.657   8.569
   29U       C5  924   7.925   7.791   8.726
   29U       H5  925   7.922   7.879   8.662
   29U       C4  926   7.943   7.808   8.868
   29U       O4  927   7.956   7.915   8.927
   29U       N3  928   7.945   7.689   8.939
   29U       H3  929   7.959   7.699   9.047
   29U       C2  930   7.931   7.562   8.890
   29U       O2  931   7.934   7.463   8.962
   29U      C3'  932   7.699   7.433   8.570
   29U      H3'  933   7.649   7.529   8.583
   29U      C2'  934   7.746   7.382   8.705
   29U      H2'  935   7.674   7.433   8.769
   29U      O2'  936   7.730   7.242   8.717
   29U     HO2'  937   7.745   7.220   8.809
   29U      O3'  938   7.566   7.393   8.539
   30G        P  939   7.449   7.502   8.553
   30G      OP1  940   7.498   7.598   8.656
   30G      OP2  941   7.318   7.435   8.572
   30G      O5'  942   7.448   7.575   8.412
   30G      C5'  943   7.512   7.701   8.393
   30G      H5'  944   7.619   7.682   8.401
   30G     H5''  945   7.482   7.775   8.466
   30G      C4'  946   7.482   7.752   8.254
   30G      H4'  947   7.574   7.742   8.197
   30G      O4'  948   7.388   7.668   8.186
   30G      C1'  949   7.329   7.747   8.088
   30G      H1'  950   7.399   7.755   8.005
   30G       N9  951   7.214   7.681   8.027
   30G       C8  952   7.120   7.602   8.087
   30G       H8  953   7.125   7.579   8.192
   30G       N7  954   7.029   7.560   8.003
   30G       C5  955   7.066   7.616   7.881
   30G       C6  956   7.005   7.607   7.754
   30G       O6  957   6.902   7.547   7.722
   30G       N1  958   7.076   7.678   7.658
   30G       H1  959   7.042   7.677   7.564
   30G       C2  960   7.190   7.749   7.681
   30G       N2  961   7.245   7.810   7.575
   30G      H21  962   7.212   7.808   7.480
   30G      H22  963   7.330   7.862   7.592
   30G       N3  964   7.247   7.760   7.800
   30G       C4  965   7.180   7.690   7.895
   30G      C3'  966   7.425   7.894   8.247
   30G      H3'  967   7.416   7.985   8.306
   30G      C2'  968   7.308   7.886   8.148
   30G      H2'  969   7.233   7.910   8.223
   30G      O2'  970   7.306   7.983   8.046
   30G     HO2'  971   7.218   7.982   8.008
   30G      O3'  972   7.522   7.973   8.180
   31C        P  973   7.612   8.076   8.259
   31C      OP1  974   7.695   8.139   8.153
   31C      OP2  975   7.677   8.003   8.371
   31C      O5'  976   7.507   8.183   8.314
   31C      C5'  977   7.530   8.253   8.436
   31C      H5'  978   7.608   8.327   8.420
   31C     H5''  979   7.561   8.182   8.512
   31C      C4'  980   7.404   8.323   8.481
   31C      H4'  981   7.426   8.375   8.574
   31C      O4'  982   7.369   8.430   8.388
   31C      C1'  983   7.228   8.449   8.391
   31C      H1'  984   7.209   8.556   8.404
   31C       N1  985   7.174   8.420   8.258
   31C       C6  986   7.255   8.380   8.156
   31C       H6  987   7.362   8.374   8.170
   31C       C5  988   7.204   8.348   8.036
   31C       H5  989   7.271   8.316   7.956
   31C       C4  990   7.063   8.358   8.020
   31C       N4  991   7.006   8.326   7.905
   31C      H41  992   6.905   8.334   7.898
   31C      H42  993   7.063   8.294   7.827
   31C       N3  994   6.983   8.399   8.119
   31C       C2  995   7.036   8.432   8.239
   31C       O2  996   6.965   8.472   8.334
   31C      C3'  997   7.277   8.240   8.486
   31C      H3'  998   7.236   8.150   8.441
   31C      C2'  999   7.170   8.349   8.490
   31C      H2' 1000   7.085   8.283   8.470
   31C      O2' 1001   7.154   8.410   8.616
   31C     HO2' 1002   7.072   8.460   8.612
   31C      O3' 1003   7.272   8.158   8.601
   32C        P 1004   7.184   8.025   8.598
   32C      OP1 1005   7.228   7.942   8.713
   32C      OP2 1006   7.187   7.967   8.461
   32C      O5' 1007   7.036   8.076   8.625
   32C      C5' 1008   6.999   8.133   8.751
   32C      H5' 1009   7.055   8.225   8.770
   32C     H5'' 1010   7.022   8.060   8.829
   32C      C4' 1011   6.852   8.163   8.753
   32C      H4' 1012   6.822   8.210   8.846
   32C      O4' 1013   6.824   8.262   8.651
   32C      C1' 1014   6.698   8.236   8.592
   32C      H1' 1015   6.639   8.327   8.594
   32C       N1 1016   6.718   8.211   8.449
   32C       C6 1017   6.843   8.192   8.398
   32C       H6 1018   6.930   8.198   8.462
   32C       C5 1019   6.861   8.164   8.268
   32C       H5 1020   6.962   8.149   8.229
   32C       C4 1021   6.745   8.157   8.186
   32C       N4 1022   6.756   8.129   8.056
   32C      H41 1023   6.671   8.124   8.002
   32C      H42 1024   6.846   8.112   8.015
   32C       N3 1025   6.623   8.177   8.235
   32C       C2 1026   6.606   8.205   8.366
   32C       O2 1027   6.494   8.226   8.415
   32C      C3' 1028   6.765   8.045   8.714
   32C      H3' 1029   6.774   7.946   8.669
   32C      C2' 1030   6.639   8.113   8.662
   32C      H2' 1031   6.600   8.027   8.608
   32C      O2' 1032   6.550   8.149   8.765
   32C     HO2' 1033   6.466   8.170   8.723
   32C      O3' 1034   6.733   7.963   8.825
   33U        P 1035   6.724   7.805   8.805
   33U      OP1 1036   6.779   7.736   8.924
   33U      OP2 1037   6.781   7.781   8.672
   33U      O5' 1038   6.568   7.774   8.792
   33U      C5' 1039   6.470   7.862   8.842
   33U      H5' 1040   6.504   7.965   8.836
   33U     H5'' 1041   6.450   7.836   8.946
   33U      C4' 1042   6.344   7.847   8.762
   33U      H4' 1043   6.258   7.881   8.821
   33U      O4' 1044   6.346   7.935   8.647
   33U      C1' 1045   6.273   7.875   8.541
   33U      H1' 1046   6.193   7.939   8.504
   33U       N1 1047   6.362   7.864   8.424
   33U       C6 1048   6.499   7.869   8.437
   33U       H6 1049   6.541   7.874   8.536
   33U       C5 1050   6.582   7.862   8.332
   33U       H5 1051   6.690   7.866   8.346
   33U       C4 1052   6.528   7.849   8.200
   33U       O4 1053   6.593   7.843   8.096
   33U       N3 1054   6.391   7.843   8.194
   33U       H3 1055   6.347   7.832   8.095
   33U       C2 1056   6.303   7.849   8.300
   33U       O2 1057   6.183   7.841   8.284
   33U      C3' 1058   6.325   7.710   8.700
   33U      H3' 1059   6.388   7.629   8.665
   33U      C2' 1060   6.221   7.742   8.594
   33U      H2' 1061   6.220   7.647   8.539
   33U      O2' 1062   6.094   7.764   8.650
   33U     HO2' 1063   6.031   7.767   8.578
   33U      O3' 1064   6.282   7.614   8.796
   34U        P 1065   6.344   7.465   8.791
   34U      OP1 1066   6.304   7.393   8.914
   34U      OP2 1067   6.489   7.473   8.754
   34U      O5' 1068   6.265   7.398   8.670
   34U      C5' 1069   6.126   7.377   8.681
   34U      H5' 1070   6.075   7.463   8.725
   34U     H5'' 1071   6.111   7.290   8.745
   34U      C4' 1072   6.067   7.348   8.546
   34U      H4' 1073   5.958   7.346   8.552
   34U      O4' 1074   6.096   7.459   8.457
   34U      C1' 1075   6.093   7.413   8.324
   34U      H1' 1076   6.015   7.462   8.267
   34U       N1 1077   6.215   7.457   8.256
   34U       C6 1078   6.329   7.491   8.325
   34U       H6 1079   6.328   7.486   8.433
   34U       C5 1080   6.442   7.526   8.263
   34U       H5 1081   6.532   7.548   8.320
   34U       C4 1082   6.447   7.530   8.120
   34U       O4 1083   6.546   7.555   8.051
   34U       N3 1084   6.328   7.497   8.058
   34U       H3 1085   6.328   7.500   7.949
   34U       C2 1086   6.212   7.460   8.119
   34U       O2 1087   6.112   7.430   8.056
   34U      C3' 1088   6.127   7.231   8.472
   34U      H3' 1089   6.216   7.168   8.471
   34U      C2' 1090   6.084   7.260   8.328
   34U      H2' 1091   6.155   7.193   8.280
   34U      O2' 1092   5.952   7.218   8.300
   34U     HO2' 1093   5.942   7.220   8.205
   34U      O3' 1094   6.070   7.110   8.517
   35G        P 1095   6.164   6.981   8.536
   35G      OP1 1096   6.078   6.860   8.548
   35G      OP2 1097   6.259   7.015   8.644
   35G      O5' 1098   6.245   6.972   8.399
   35G      C5' 1099   6.182   6.945   8.273
   35G      H5' 1100   6.109   7.022   8.249
   35G     H5'' 1101   6.133   6.847   8.275
   35G      C4' 1102   6.289   6.944   8.167
   35G      H4' 1103   6.250   6.938   8.065
   35G      O4' 1104   6.359   7.069   8.171
   35G      C1' 1105   6.496   7.042   8.172
   35G      H1' 1106   6.528   7.034   8.068
   35G       N9 1107   6.571   7.154   8.223
   35G       C8 1108   6.578   7.199   8.352
   35G       H8 1109   6.521   7.152   8.431
   35G       N7 1110   6.658   7.301   8.366
   35G       C5 1111   6.706   7.325   8.238
   35G       C6 1112   6.797   7.421   8.191
   35G       O6 1113   6.855   7.507   8.255
   35G       N1 1114   6.818   7.410   8.054
   35G       H1 1115   6.882   7.475   8.013
   35G       C2 1116   6.760   7.317   7.973
   35G       N2 1117   6.795   7.323   7.844
   35G      H21 1118   6.858   7.389   7.801
   35G      H22 1119   6.751   7.255   7.783
   35G       N3 1120   6.675   7.226   8.015
   35G       C4 1121   6.653   7.236   8.148
   35G      C3' 1122   6.392   6.834   8.195
   35G      H3' 1123   6.401   6.728   8.220
   35G      C2' 1124   6.515   6.909   8.243
   35G      H2' 1125   6.494   6.892   8.349
   35G      O2' 1126   6.641   6.853   8.212
   35G     HO2' 1127   6.706   6.897   8.268
   35G      O3' 1128   6.431   6.786   8.066
   36U        P 1129   6.393   6.640   8.015
   36U      OP1 1130   6.245   6.632   8.005
   36U      OP2 1131   6.465   6.545   8.103
   36U      O5' 1132   6.458   6.635   7.868
   36U      C5' 1133   6.401   6.703   7.754
   36U      H5' 1134   6.353   6.794   7.789
   36U     H5'' 1135   6.328   6.641   7.703
   36U      C4' 1136   6.512   6.740   7.656
   36U      H4' 1137   6.471   6.781   7.563
   36U      O4' 1138   6.591   6.847   7.710
   36U      C1' 1139   6.726   6.818   7.686
   36U      H1' 1140   6.759   6.850   7.587
   36U       N1 1141   6.809   6.899   7.775
   36U       C6 1142   6.790   6.898   7.911
   36U       H6 1143   6.718   6.830   7.953
   36U       C5 1144   6.861   6.975   7.993
   36U       H5 1145   6.840   6.977   8.100
   36U       C4 1146   6.963   7.061   7.940
   36U       O4 1147   7.030   7.142   8.004
   36U       N3 1148   6.979   7.055   7.803
   36U       H3 1149   7.057   7.118   7.761
   36U       C2 1150   6.907   6.978   7.716
   36U       O2 1151   6.929   6.979   7.596
   36U      C3' 1152   6.605   6.623   7.629
   36U      H3' 1153   6.603   6.514   7.621
   36U      C2' 1154   6.739   6.666   7.689
   36U      H2' 1155   6.726   6.606   7.779
   36U      O2' 1156   6.854   6.623   7.621
   36U     HO2' 1157   6.928   6.635   7.681
   36U      O3' 1158   6.636   6.609   7.488
   37A        P 1159   6.523   6.574   7.378
   37A      OP1 1160   6.445   6.695   7.345
   37A      OP2 1161   6.453   6.452   7.419
   37A      O5' 1162   6.611   6.544   7.249
   37A      C5' 1163   6.577   6.601   7.122
   37A      H5' 1164   6.532   6.699   7.140
   37A     H5'' 1165   6.506   6.537   7.070
   37A      C4' 1166   6.701   6.618   7.037
   37A      H4' 1167   6.669   6.646   6.936
   37A      O4' 1168   6.779   6.732   7.083
   37A      C1' 1169   6.917   6.702   7.074
   37A      H1' 1170   6.977   6.781   7.030
   37A       N9 1171   6.970   6.692   7.210
   37A       C8 1172   6.899   6.696   7.326
   37A       H8 1173   6.791   6.702   7.323
   37A       N7 1174   6.972   6.688   7.434
   37A       C5 1175   7.101   6.676   7.385
   37A       C6 1176   7.226   6.664   7.450
   37A       N6 1177   7.241   6.663   7.582
   37A      H61 1178   7.333   6.654   7.622
   37A      H62 1179   7.160   6.670   7.643
   37A       N1 1180   7.336   6.655   7.372
   37A       C2 1181   7.321   6.657   7.239
   37A       H2 1182   7.407   6.650   7.175
   37A       N3 1183   7.209   6.668   7.167
   37A       C4 1184   7.102   6.677   7.247
   37A      C3' 1185   6.798   6.502   7.037
   37A      H3' 1186   6.821   6.414   7.098
   37A      C2' 1187   6.928   6.570   6.996
   37A      H2' 1188   6.998   6.490   7.020
   37A      O2' 1189   6.931   6.596   6.858
   37A     HO2' 1190   7.021   6.622   6.836
   37A      O3' 1191   6.762   6.403   6.942
   38A        P 1192   6.766   6.248   6.982
   38A      OP1 1193   6.713   6.170   6.867
   38A      OP2 1194   6.704   6.233   7.116
   38A      O5' 1195   6.921   6.214   6.998
   38A      C5' 1196   7.010   6.225   6.888
   38A      H5' 1197   6.991   6.315   6.829
   38A     H5'' 1198   6.996   6.137   6.825
   38A      C4' 1199   7.151   6.227   6.939
   38A      H4' 1200   7.223   6.242   6.859
   38A      O4' 1201   7.167   6.344   7.025
   38A      C1' 1202   7.254   6.313   7.132
   38A      H1' 1203   7.333   6.387   7.141
   38A       N9 1204   7.181   6.327   7.259
   38A       C8 1205   7.046   6.330   7.282
   38A       H8 1206   6.976   6.321   7.200
   38A       N7 1207   7.014   6.337   7.409
   38A       C5 1208   7.137   6.341   7.474
   38A       C6 1209   7.173   6.349   7.610
   38A       N6 1210   7.085   6.353   7.711
   38A      H61 1211   7.118   6.358   7.806
   38A      H62 1212   6.986   6.351   7.692
   38A       N1 1213   7.304   6.351   7.640
   38A       C2 1214   7.393   6.346   7.540
   38A       H2 1215   7.499   6.348   7.561
   38A       N3 1216   7.372   6.338   7.409
   38A       C4 1217   7.240   6.336   7.382
   38A      C3' 1218   7.186   6.111   7.031
   38A      H3' 1219   7.136   6.035   7.089
   38A      C2' 1220   7.302   6.169   7.111
   38A      H2' 1221   7.304   6.093   7.189
   38A      O2' 1222   7.423   6.166   7.039
   38A     HO2' 1223   7.493   6.185   7.102
   38A      O3' 1224   7.226   5.997   6.958
   39C        P 1225   7.176   5.852   7.006
   39C      OP1 1226   7.211   5.758   6.898
   39C      OP2 1227   7.036   5.862   7.052
   39C      O5' 1228   7.268   5.816   7.131
   39C      C5' 1229   7.407   5.798   7.113
   39C      H5' 1230   7.446   5.869   7.041
   39C     H5'' 1231   7.423   5.697   7.076
   39C      C4' 1232   7.479   5.815   7.244
   39C      H4' 1233   7.587   5.816   7.227
   39C      O4' 1234   7.450   5.947   7.297
   39C      C1' 1235   7.450   5.942   7.439
   39C      H1' 1236   7.513   6.023   7.476
   39C       N1 1237   7.316   5.977   7.489
   39C       C6 1238   7.207   5.978   7.407
   39C       H6 1239   7.218   5.955   7.302
   39C       C5 1240   7.085   6.006   7.455
   39C       H5 1241   6.999   6.007   7.388
   39C       C4 1242   7.074   6.035   7.595
   39C       N4 1243   6.956   6.063   7.649
   39C      H41 1244   6.953   6.083   7.748
   39C      H42 1245   6.873   6.065   7.591
   39C       N3 1246   7.181   6.035   7.675
   39C       C2 1247   7.303   6.008   7.625
   39C       O2 1248   7.404   6.011   7.694
   39C      C3' 1249   7.436   5.723   7.356
   39C      H3' 1250   7.346   5.668   7.385
   39C      C2' 1251   7.489   5.800   7.477
   39C      H2' 1252   7.445   5.740   7.557
   39C      O2' 1253   7.630   5.795   7.485
   39C     HO2' 1254   7.654   5.830   7.571
   39C      O3' 1255   7.494   5.594   7.345
   40C        P 1256   7.418   5.467   7.408
   40C      OP1 1257   7.489   5.345   7.364
   40C      OP2 1258   7.273   5.482   7.381
   40C      O5' 1259   7.441   5.482   7.564
   40C      C5' 1260   7.571   5.477   7.620
   40C      H5' 1261   7.635   5.556   7.581
   40C     H5'' 1262   7.614   5.380   7.594
   40C      C4' 1263   7.563   5.489   7.770
   40C      H4' 1264   7.663   5.483   7.814
   40C      O4' 1265   7.514   5.620   7.808
   40C      C1' 1266   7.443   5.611   7.931
   40C      H1' 1267   7.485   5.682   8.002
   40C       N1 1268   7.305   5.661   7.910
   40C       C6 1269   7.252   5.670   7.785
   40C       H6 1270   7.311   5.641   7.699
   40C       C5 1271   7.127   5.715   7.766
   40C       H5 1272   7.087   5.721   7.665
   40C       C4 1273   7.053   5.751   7.881
   40C       N4 1274   6.928   5.794   7.869
   40C      H41 1275   6.878   5.819   7.953
   40C      H42 1276   6.885   5.802   7.778
   40C       N3 1277   7.104   5.743   8.004
   40C       C2 1278   7.230   5.698   8.022
   40C       O2 1279   7.280   5.691   8.135
   40C      C3' 1280   7.462   5.398   7.835
   40C      H3' 1281   7.369   5.348   7.807
   40C      C2' 1282   7.445   5.464   7.971
   40C      H2' 1283   7.359   5.408   8.008
   40C      O2' 1284   7.555   5.443   8.057
   40C     HO2' 1285   7.529   5.473   8.145
   40C      O3' 1286   7.508   5.264   7.844
   41G        P 1287   7.403   5.144   7.834
   41G      OP1 1288   7.486   5.021   7.827
   41G      OP2 1289   7.304   5.173   7.728
   41G      O5' 1290   7.327   5.148   7.974
   41G      C5' 1291   7.398   5.123   8.094
   41G      H5' 1292   7.487   5.187   8.101
   41G     H5'' 1293   7.429   5.018   8.095
   41G      C4' 1294   7.310   5.149   8.213
   41G      H4' 1295   7.366   5.130   8.305
   41G      O4' 1296   7.277   5.291   8.220
   41G      C1' 1297   7.151   5.307   8.282
   41G      H1' 1298   7.163   5.379   8.362
   41G       N9 1299   7.060   5.373   8.189
   41G       C8 1300   7.067   5.375   8.052
   41G       H8 1301   7.150   5.329   8.000
   41G       N7 1302   6.967   5.436   7.996
   41G       C5 1303   6.889   5.479   8.102
   41G       C6 1304   6.766   5.550   8.104
   41G       O6 1305   6.698   5.590   8.009
   41G       N1 1306   6.723   5.573   8.234
   41G       H1 1307   6.637   5.623   8.245
   41G       C2 1308   6.789   5.535   8.347
   41G       N2 1309   6.731   5.569   8.462
   41G      H21 1310   6.645   5.620   8.474
   41G      H22 1311   6.779   5.541   8.547
   41G       N3 1312   6.903   5.468   8.347
   41G       C4 1313   6.947   5.444   8.222
   41G      C3' 1314   7.173   5.084   8.211
   41G      H3' 1315   7.101   5.047   8.138
   41G      C2' 1316   7.101   5.166   8.316
   41G      H2' 1317   6.999   5.131   8.300
   41G      O2' 1318   7.142   5.130   8.447
   41G     HO2' 1319   7.081   5.172   8.508
   41G      O3' 1320   7.177   4.946   8.245
   42A        P 1321   7.089   4.841   8.161
   42A      OP1 1322   7.138   4.705   8.197
   42A      OP2 1323   7.086   4.881   8.018
   42A      O5' 1324   6.942   4.860   8.216
   42A      C5' 1325   6.831   4.812   8.142
   42A      H5' 1326   6.850   4.711   8.105
   42A     H5'' 1327   6.813   4.879   8.058
   42A      C4' 1328   6.709   4.809   8.230
   42A      H4' 1329   6.625   4.762   8.180
   42A      O4' 1330   6.736   4.724   8.344
   42A      C1' 1331   6.680   4.781   8.461
   42A      H1' 1332   6.612   4.716   8.517
   42A       N9 1333   6.789   4.802   8.556
   42A       C8 1334   6.923   4.798   8.527
   42A       H8 1335   6.956   4.788   8.424
   42A       N7 1336   7.000   4.813   8.631
   42A       C5 1337   6.912   4.830   8.736
   42A       C6 1338   6.932   4.850   8.874
   42A       N6 1339   7.053   4.855   8.929
   42A      H61 1340   7.062   4.869   9.029
   42A      H62 1341   7.135   4.845   8.872
   42A       N1 1342   6.823   4.864   8.952
   42A       C2 1343   6.702   4.859   8.895
   42A       H2 1344   6.613   4.870   8.955
   42A       N3 1345   6.670   4.841   8.766
   42A       C4 1346   6.781   4.827   8.691
   42A      C3' 1347   6.674   4.944   8.290
   42A      H3' 1348   6.720   5.041   8.303
   42A      C2' 1349   6.602   4.905   8.418
   42A      H2' 1350   6.603   5.001   8.469
   42A      O2' 1351   6.468   4.867   8.393
   42A     HO2' 1352   6.424   4.861   8.478
   42A      O3' 1353   6.590   5.015   8.200
   43A        P 1354   6.606   5.175   8.188
   43A      OP1 1355   6.522   5.220   8.074
   43A      OP2 1356   6.751   5.206   8.189
   43A      O5' 1357   6.537   5.228   8.320
   43A      C5' 1358   6.398   5.210   8.339
   43A      H5' 1359   6.372   5.108   8.310
   43A     H5'' 1360   6.343   5.280   8.275
   43A      C4' 1361   6.359   5.233   8.482
   43A      H4' 1362   6.254   5.206   8.495
   43A      O4' 1363   6.431   5.142   8.568
   43A      C1' 1364   6.458   5.205   8.692
   43A      H1' 1365   6.423   5.151   8.781
   43A       N9 1366   6.602   5.207   8.711
   43A       C8 1367   6.700   5.217   8.614
   43A       H8 1368   6.673   5.235   8.511
   43A       N7 1369   6.822   5.208   8.662
   43A       C5 1370   6.804   5.194   8.799
   43A       C6 1371   6.894   5.179   8.905
   43A       N6 1372   7.026   5.176   8.889
   43A      H61 1373   7.087   5.165   8.969
   43A      H62 1374   7.066   5.185   8.796
   43A       N1 1375   6.843   5.168   9.030
   43A       C2 1376   6.710   5.171   9.046
   43A       H2 1377   6.667   5.163   9.144
   43A       N3 1378   6.614   5.185   8.953
   43A       C4 1379   6.669   5.196   8.830
   43A      C3' 1380   6.392   5.370   8.538
   43A      H3' 1381   6.454   5.456   8.516
   43A      C2' 1382   6.392   5.343   8.688
   43A      H2' 1383   6.439   5.435   8.721
   43A      O2' 1384   6.262   5.334   8.742
   43A     HO2' 1385   6.271   5.335   8.837
   43A      O3' 1386   6.289   5.459   8.501
   44A        P 1387   6.323   5.612   8.473
   44A      OP1 1388   6.202   5.671   8.412
   44A      OP2 1389   6.454   5.623   8.403
   44A      O5' 1390   6.333   5.674   8.619
   44A      C5' 1391   6.224   5.662   8.710
   44A      H5' 1392   6.181   5.562   8.708
   44A     H5'' 1393   6.148   5.735   8.682
   44A      C4' 1394   6.271   5.692   8.850
   44A      H4' 1395   6.189   5.686   8.922
   44A      O4' 1396   6.363   5.589   8.892
   44A      C1' 1397   6.462   5.645   8.975
   44A      H1' 1398   6.468   5.596   9.072
   44A       N9 1399   6.592   5.616   8.916
   44A       C8 1400   6.633   5.630   8.786
   44A       H8 1401   6.565   5.671   8.712
   44A       N7 1402   6.758   5.597   8.765
   44A       C5 1403   6.802   5.558   8.891
   44A       C6 1404   6.926   5.512   8.937
   44A       N6 1405   7.033   5.497   8.858
   44A      H61 1406   7.120   5.464   8.897
   44A      H62 1407   7.027   5.519   8.759
   44A       N1 1408   6.938   5.483   9.068
   44A       C2 1409   6.830   5.499   9.147
   44A       H2 1410   6.837   5.476   9.252
   44A       N3 1411   6.709   5.541   9.115
   44A       C4 1412   6.702   5.569   8.984
   44A      C3' 1413   6.351   5.820   8.862
   44A      H3' 1414   6.404   5.890   8.797
   44A      C2' 1415   6.435   5.795   8.987
   44A      H2' 1416   6.509   5.873   8.972
   44A      O2' 1417   6.362   5.821   9.104
   44A     HO2' 1418   6.425   5.822   9.177
   44A      O3' 1419   6.265   5.931   8.879
   45G        P 1420   6.302   6.071   8.809
   45G      OP1 1421   6.204   6.167   8.865
   45G      OP2 1422   6.313   6.053   8.663
   45G      O5' 1423   6.446   6.104   8.866
   45G      C5' 1424   6.547   6.159   8.784
   45G      H5' 1425   6.558   6.266   8.803
   45G     H5'' 1426   6.521   6.143   8.680
   45G      C4' 1427   6.678   6.090   8.813
   45G      H4' 1428   6.695   6.084   8.921
   45G      O4' 1429   6.670   5.952   8.770
   45G      C1' 1430   6.792   5.914   8.706
   45G      H1' 1431   6.814   5.811   8.734
   45G       N9 1432   6.766   5.906   8.562
   45G       C8 1433   6.652   5.941   8.496
   45G       H8 1434   6.565   5.976   8.550
   45G       N7 1435   6.661   5.928   8.367
   45G       C5 1436   6.790   5.880   8.347
   45G       C6 1437   6.858   5.848   8.227
   45G       O6 1438   6.819   5.858   8.111
   45G       N1 1439   6.987   5.802   8.252
   45G       H1 1440   7.042   5.776   8.173
   45G       C2 1441   7.043   5.789   8.376
   45G       N2 1442   7.169   5.743   8.380
   45G      H21 1443   7.225   5.716   8.301
   45G      H22 1444   7.210   5.733   8.471
   45G       N3 1445   6.980   5.820   8.489
   45G       C4 1446   6.855   5.864   8.467
   45G      C3' 1447   6.797   6.145   8.738
   45G      H3' 1448   6.818   6.211   8.653
   45G      C2' 1449   6.891   6.026   8.733
   45G      H2' 1450   6.960   6.066   8.658
   45G      O2' 1451   6.961   6.003   8.853
   45G     HO2' 1452   7.030   5.940   8.833
   45G      O3' 1453   6.852   6.256   8.806
   46G        P 1454   6.912   6.378   8.721
   46G      OP1 1455   6.947   6.485   8.818
   46G      OP2 1456   6.819   6.407   8.609
   46G      O5' 1457   7.045   6.319   8.658
   46G      C5' 1458   7.147   6.263   8.739
   46G      H5' 1459   7.108   6.188   8.808
   46G     H5'' 1460   7.192   6.345   8.795
   46G      C4' 1461   7.252   6.199   8.651
   46G      H4' 1462   7.330   6.153   8.711
   46G      O4' 1463   7.192   6.089   8.577
   46G      C1' 1464   7.258   6.075   8.453
   46G      H1' 1465   7.288   5.970   8.443
   46G       N9 1466   7.161   6.093   8.346
   46G       C8 1467   7.031   6.137   8.353
   46G       H8 1468   6.985   6.160   8.449
   46G       N7 1469   6.973   6.146   8.237
   46G       C5 1470   7.071   6.106   8.147
   46G       C6 1471   7.069   6.096   8.005
   46G       O6 1472   6.977   6.123   7.928
   46G       N1 1473   7.191   6.050   7.955
   46G       H1 1474   7.199   6.040   7.856
   46G       C2 1475   7.300   6.016   8.031
   46G       N2 1476   7.408   5.970   7.965
   46G      H21 1477   7.418   5.957   7.866
   46G      H22 1478   7.488   5.944   8.022
   46G       N3 1479   7.303   6.025   8.163
   46G       C4 1480   7.187   6.070   8.213
   46G      C3' 1481   7.304   6.288   8.540
   46G      H3' 1482   7.275   6.376   8.483
   46G      C2' 1483   7.364   6.185   8.446
   46G      H2' 1484   7.378   6.250   8.360
   46G      O2' 1485   7.489   6.136   8.489
   46G     HO2' 1486   7.527   6.088   8.416
   46G      O3' 1487   7.402   6.379   8.587
   47G        P 1488   7.400   6.531   8.534
   47G      OP1 1489   7.533   6.588   8.563
   47G      OP2 1490   7.279   6.596   8.591
   47G      O5' 1491   7.382   6.518   8.376
   47G      C5' 1492   7.494   6.494   8.292
   47G      H5' 1493   7.557   6.416   8.336
   47G     H5'' 1494   7.552   6.586   8.283
   47G      C4' 1495   7.449   6.450   8.154
   47G      H4' 1496   7.368   6.378   8.162
   47G      O4' 1497   7.392   6.562   8.081
   47G      C1' 1498   7.436   6.560   7.946
   47G      H1' 1499   7.350   6.588   7.884
   47G       N9 1500   7.529   6.672   7.928
   47G       C8 1501   7.587   6.746   8.027
   47G       H8 1502   7.560   6.731   8.131
   47G       N7 1503   7.674   6.833   7.983
   47G       C5 1504   7.672   6.816   7.845
   47G       C6 1505   7.747   6.880   7.745
   47G       O6 1506   7.835   6.967   7.758
   47G       N1 1507   7.714   6.834   7.618
   47G       H1 1508   7.762   6.874   7.541
   47G       C2 1509   7.620   6.737   7.592
   47G       N2 1510   7.602   6.707   7.463
   47G      H21 1511   7.649   6.749   7.384
   47G      H22 1512   7.533   6.637   7.442
   47G       N3 1513   7.550   6.675   7.685
   47G       C4 1514   7.581   6.719   7.809
   47G      C3' 1515   7.563   6.401   8.065
   47G      H3' 1516   7.671   6.404   8.061
   47G      C2' 1517   7.506   6.425   7.926
   47G      H2' 1518   7.597   6.410   7.869
   47G      O2' 1519   7.411   6.328   7.889
   47G     HO2' 1520   7.394   6.339   7.795
   47G      O3' 1521   7.589   6.264   8.091
   48G        P 1522   7.739   6.208   8.078
   48G      OP1 1523   7.735   6.065   8.116
   48G      OP2 1524   7.833   6.300   8.146
   48G      O5' 1525   7.766   6.213   7.922
   48G      C5' 1526   7.683   6.142   7.832
   48G      H5' 1527   7.578   6.165   7.849
   48G     H5'' 1528   7.699   6.035   7.849
   48G      C4' 1529   7.720   6.176   7.691
   48G      H4' 1530   7.654   6.123   7.621
   48G      O4' 1531   7.693   6.316   7.666
   48G      C1' 1532   7.785   6.365   7.570
   48G      H1' 1533   7.730   6.413   7.489
   48G       N9 1534   7.861   6.474   7.629
   48G       C8 1535   7.874   6.505   7.762
   48G       H8 1536   7.824   6.447   7.838
   48G       N7 1537   7.950   6.609   7.782
   48G       C5 1538   7.989   6.649   7.655
   48G       C6 1539   8.072   6.756   7.613
   48G       O6 1540   8.131   6.840   7.683
   48G       N1 1541   8.084   6.760   7.475
   48G       H1 1542   8.140   6.833   7.435
   48G       C2 1543   8.025   6.672   7.388
   48G       N2 1544   8.049   6.692   7.258
   48G      H21 1545   8.105   6.766   7.217
   48G      H22 1546   8.005   6.628   7.194
   48G       N3 1547   7.949   6.571   7.426
   48G       C4 1548   7.935   6.566   7.559
   48G      C3' 1549   7.867   6.163   7.657
   48G      H3' 1550   7.963   6.161   7.707
   48G      C2' 1551   7.876   6.248   7.531
   48G      H2' 1552   7.984   6.254   7.522
   48G      O2' 1553   7.822   6.182   7.419
   48G     HO2' 1554   7.846   6.233   7.342
   48G      O3' 1555   7.899   6.027   7.630
   49G        P 1556   8.052   5.984   7.621
   49G      OP1 1557   8.052   5.847   7.563
   49G      OP2 1558   8.116   6.008   7.753
   49G      O5' 1559   8.116   6.085   7.516
   49G      C5' 1560   8.192   6.037   7.406
   49G      H5' 1561   8.140   5.956   7.355
   49G     H5'' 1562   8.287   6.001   7.444
   49G      C4' 1563   8.217   6.149   7.308
   49G      H4' 1564   8.161   6.131   7.216
   49G      O4' 1565   8.164   6.274   7.359
   49G      C1' 1566   8.240   6.382   7.308
   49G      H1' 1567   8.174   6.450   7.254
   49G       N9 1568   8.288   6.462   7.420
   49G       C8 1569   8.265   6.440   7.553
   49G       H8 1570   8.206   6.355   7.586
   49G       N7 1571   8.321   6.529   7.630
   49G       C5 1572   8.384   6.616   7.542
   49G       C6 1573   8.461   6.734   7.567
   49G       O6 1574   8.488   6.788   7.676
   49G       N1 1575   8.507   6.791   7.449
   49G       H1 1576   8.562   6.874   7.456
   49G       C2 1577   8.481   6.744   7.323
   49G       N2 1578   8.532   6.815   7.222
   49G      H21 1579   8.586   6.900   7.228
   49G      H22 1580   8.513   6.781   7.128
   49G       N3 1581   8.410   6.634   7.298
   49G       C4 1582   8.365   6.576   7.412
   49G      C3' 1583   8.363   6.183   7.284
   49G      H3' 1584   8.459   6.171   7.333
   49G      C2' 1585   8.353   6.323   7.224
   49G      H2' 1586   8.458   6.351   7.234
   49G      O2' 1587   8.317   6.322   7.088
   49G     HO2' 1588   8.331   6.410   7.054
   49G      O3' 1589   8.422   6.093   7.193
   50A        P 1590   8.578   6.057   7.206
   50A      OP1 1591   8.603   5.943   7.114
   50A      OP2 1592   8.610   6.045   7.351
   50A      O5' 1593   8.655   6.185   7.151
   50A      C5' 1594   8.647   6.221   7.015
   50A      H5' 1595   8.544   6.227   6.981
   50A     H5'' 1596   8.700   6.145   6.957
   50A      C4' 1597   8.713   6.355   6.994
   50A      H4' 1598   8.697   6.389   6.892
   50A      O4' 1599   8.648   6.455   7.077
   50A      C1' 1600   8.743   6.554   7.116
   50A      H1' 1601   8.715   6.655   7.089
   50A       N9 1602   8.747   6.559   7.263
   50A       C8 1603   8.697   6.468   7.352
   50A       H8 1604   8.654   6.376   7.317
   50A       N7 1605   8.713   6.503   7.478
   50A       C5 1606   8.779   6.625   7.471
   50A       C6 1607   8.823   6.714   7.569
   50A       N6 1608   8.804   6.696   7.700
   50A      H61 1609   8.839   6.764   7.766
   50A      H62 1610   8.756   6.614   7.733
   50A       N1 1611   8.887   6.826   7.529
   50A       C2 1612   8.903   6.847   7.397
   50A       H2 1613   8.954   6.935   7.362
   50A       N3 1614   8.863   6.772   7.294
   50A       C4 1615   8.802   6.660   7.338
   50A      C3' 1616   8.858   6.364   7.039
   50A      H3' 1617   8.923   6.313   7.110
   50A      C2' 1618   8.875   6.515   7.052
   50A      H2' 1619   8.972   6.514   7.102
   50A      O2' 1620   8.886   6.582   6.927
   50A     HO2' 1621   8.915   6.672   6.946
   50A      O3' 1622   8.946   6.305   6.945
   51A        P 1623   9.074   6.224   6.997
   51A      OP1 1624   9.125   6.144   6.882
   51A      OP2 1625   9.038   6.156   7.124
   51A      O5' 1626   9.180   6.340   7.025
   51A      C5' 1627   9.210   6.434   6.923
   51A      H5' 1628   9.120   6.459   6.868
   51A     H5'' 1629   9.282   6.388   6.856
   51A      C4' 1630   9.269   6.558   6.982
   51A      H4' 1631   9.283   6.632   6.903
   51A      O4' 1632   9.174   6.621   7.073
   51A      C1' 1633   9.245   6.690   7.175
   51A      H1' 1634   9.219   6.796   7.182
   51A       N9 1635   9.203   6.637   7.305
   51A       C8 1636   9.146   6.514   7.329
   51A       H8 1637   9.135   6.443   7.248
   51A       N7 1638   9.115   6.494   7.455
   51A       C5 1639   9.155   6.611   7.518
   51A       C6 1640   9.149   6.652   7.652
   51A       N6 1641   9.098   6.576   7.749
   51A      H61 1642   9.096   6.610   7.844
   51A      H62 1643   9.062   6.484   7.728
   51A       N1 1644   9.197   6.774   7.683
   51A       C2 1645   9.249   6.849   7.585
   51A       H2 1646   9.288   6.947   7.606
   51A       N3 1647   9.261   6.821   7.454
   51A       C4 1648   9.211   6.699   7.427
   51A      C3' 1649   9.390   6.538   7.070
   51A      H3' 1650   9.435   6.460   7.131
   51A      C2' 1651   9.393   6.670   7.145
   51A      H2' 1652   9.470   6.648   7.219
   51A      O2' 1653   9.437   6.775   7.062
   51A     HO2' 1654   9.453   6.851   7.118
   51A      O3' 1655   9.506   6.520   6.991
   52U3       P 1656   9.631   6.441   7.053
   52U3     OP1 1657   9.740   6.444   6.952
   52U3     OP2 1658   9.583   6.311   7.104
   52U3     O5' 1659   9.676   6.534   7.174
   52U3     C5' 1660   9.751   6.654   7.152
   52U3     H5' 1661   9.694   6.723   7.090
   52U3    H5'' 1662   9.844   6.628   7.101
   52U3     C4' 1663   9.784   6.720   7.283
   52U3     H4' 1664   9.821   6.822   7.266
   52U3     O4' 1665   9.660   6.738   7.355
   52U3     C1' 1666   9.683   6.727   7.494
   52U3     H1' 1667   9.655   6.817   7.549
   52U3      N1 1668   9.591   6.625   7.546
   52U3      C6 1669   9.554   6.517   7.470
   52U3      H6 1670   9.599   6.505   7.372
   52U3      C5 1671   9.469   6.424   7.513
   52U3      H5 1672   9.442   6.338   7.451
   52U3      C4 1673   9.413   6.434   7.645
   52U3      O4 1674   9.336   6.355   7.697
   52U3      N3 1675   9.454   6.544   7.716
   52U3      H3 1676   9.412   6.554   7.816
   52U3      C2 1677   9.540   6.642   7.674
   52U3      O2 1678   9.569   6.737   7.746
   52U3     C3' 1679   9.872   6.641   7.379
   52U3     H3' 1680   9.909   6.539   7.391
   52U3     C2' 1681   9.832   6.697   7.514
   52U3     H2' 1682   9.872   6.618   7.578
   52U3     O2' 1683   9.902   6.818   7.540
   52U3    HO2' 1684   9.888   6.839   7.633
   52U3     O3' 1685  10.011   6.670   7.358
   52U3    HO3' 1686  10.072   6.623   7.415
   53eem     C2 1687   7.329   6.924   8.112
   53eem     N3 1688   7.231   6.840   8.139
   53eem     C4 1689   7.161   6.782   8.041
   53eem    C1' 1690   6.991   6.638   8.156
   53eem    C2' 1691   7.090   6.578   8.256
   53eem    C3' 1692   7.005   6.586   8.383
   53eem    C4' 1693   6.948   6.727   8.366
   53eem    C5' 1694   7.061   6.825   8.395
   53eem      O 1695   7.431   6.974   8.718
   53eem      C 1696   7.361   7.068   8.674
   53eem    OXT 1697   7.271   7.128   8.738
   53eem     CA 1698   7.387   7.113   8.530
   53eem      N 1699   7.519   7.067   8.486
   53eem     CB 1700   7.280   7.053   8.439
   53eem     CG 1701   7.140   7.104   8.473
   53eem     SE 1702   7.009   7.003   8.386
   53eem     CE 1703   6.875   7.009   8.512
   53eem    O4' 1704   6.914   6.736   8.227
   53eem    O3' 1705   6.899   6.490   8.376
   53eem    O2' 1706   7.112   6.441   8.224
   53eem     N9 1707   7.059   6.696   8.038
   53eem     C8 1708   7.028   6.673   7.911
   53eem     N7 1709   7.109   6.743   7.831
   53eem     C5 1710   7.192   6.812   7.909
   53eem     N1 1711   7.362   6.954   7.987
   53eem     C6 1712   7.296   6.901   7.884
   53eem     N6 1713   7.326   6.935   7.759
   53eem      H 1714   7.381   6.966   8.197
   53eem     H3 1715   6.935   6.558   8.108
   53eem     H4 1716   7.179   6.637   8.269
   53eem     H5 1717   7.064   6.574   8.473
   53eem     H6 1718   6.861   6.752   8.426
   53eem     H7 1719   7.138   6.817   8.319
   53eem     H8 1720   7.104   6.806   8.493
   53eem    HXT 1721   7.235   7.201   8.690
   53eem     HA 1722   7.389   7.222   8.529
   53eem     H1 1723   7.542   6.973   8.508
   53eem     H2 1724   7.595   7.129   8.502
   53eem     H9 1725   7.285   6.945   8.447
   53eem    H10 1726   7.304   7.079   8.337
   53eem    H11 1727   7.127   7.205   8.435
   53eem    H12 1728   7.116   7.102   8.578
   53eem    H13 1729   6.789   6.958   8.471
   53eem    H14 1730   6.850   7.113   8.528
   53eem    H15 1731   6.906   6.963   8.605
   53eem    H16 1732   6.828   6.519   8.320
   53eem    H17 1733   7.053   6.386   8.275
   53eem    H18 1734   6.951   6.607   7.878
   53eem    H19 1735   7.281   6.891   7.682
   53eem    H20 1736   7.405   6.993   7.742
    1WAT      O 1737   0.782   6.323   2.926
    1WAT     H1 1738   0.720   6.381   2.908
    1WAT     H2 1739   0.807   6.295   2.848
    1WAT    EPW 1740   0.777   6.328   2.912
    2WAT      O 1741   1.213   5.987   3.625
    2WAT     H1 1742   1.289   6.015   3.593
    2WAT     H2 1743   1.159   5.992   3.558
    2WAT    EPW 1744   1.216   5.992   3.610
    3WAT      O 1745   1.604   6.242   3.476
    3WAT     H1 1746   1.639   6.269   3.551
    3WAT     H2 1747   1.634   6.300   3.418
    3WAT    EPW 1748   1.614   6.254   3.478
    4WAT      O 1749   1.790   5.456   2.010
    4WAT     H1 1750   1.828   5.524   1.970
    4WAT     H2 1751   1.706   5.479   2.013
    4WAT    EPW 1752   1.784   5.470   2.004
    5WAT      O 1753   0.942   5.801   1.918
    5WAT     H1 1754   0.861   5.783   1.889
    5WAT     H2 1755   0.938   5.886   1.937
    5WAT    EPW 1756   0.929   5.811   1.917
    6WAT      O 1757   0.535   5.408   2.933
    6WAT     H1 1758   0.579   5.397   2.858
    6WAT     H2 1759   0.589   5.376   2.993
    6WAT    EPW 1760   0.549   5.401   2.931
    7WAT      O 1761   1.336   5.318   3.492
    7WAT     H1 1762   1.272   5.365   3.527
    7WAT     H2 1763   1.393   5.309   3.558
    7WAT    EPW 1764   1.335   5.323   3.507
    8WAT      O 1765   1.305   5.471   3.122
    8WAT     H1 1766   1.335   5.513   3.192
    8WAT     H2 1767   1.309   5.387   3.145
    8WAT    EPW 1768   1.310   5.465   3.136
    9WAT      O 1769   1.048   6.488   3.514
    9WAT     H1 1770   1.095   6.428   3.473
    9WAT     H2 1771   1.013   6.444   3.581
    9WAT    EPW 1772   1.050   6.473   3.518
   10WAT      O 1773   1.560   5.416   2.347
   10WAT     H1 1774   1.581   5.396   2.430
   10WAT     H2 1775   1.636   5.443   2.313
   10WAT    EPW 1776   1.574   5.417   2.354
   11WAT      O 1777   0.889   4.906   2.938
   11WAT     H1 1778   0.807   4.891   2.961
   11WAT     H2 1779   0.885   4.910   2.851
   11WAT    EPW 1780   0.877   4.904   2.928
   12WAT      O 1781   1.662   5.024   2.495
   12WAT     H1 1782   1.591   4.977   2.512
   12WAT     H2 1783   1.646   5.059   2.416
   12WAT    EPW 1784   1.649   5.023   2.485
   13WAT      O 1785   1.706   5.819   2.333
   13WAT     H1 1786   1.754   5.746   2.328
   13WAT     H2 1787   1.624   5.790   2.325
   13WAT    EPW 1788   1.701   5.804   2.331
   14WAT      O 1789   1.054   6.010   3.416
   14WAT     H1 1790   0.974   6.004   3.452
   14WAT     H2 1791   1.061   6.095   3.397
   14WAT    EPW 1792   1.043   6.022   3.419
   15WAT      O 1793   0.637   6.631   2.948
   15WAT     H1 1794   0.638   6.637   3.035
   15WAT     H2 1795   0.594   6.556   2.933
   15WAT    EPW 1796   0.630   6.621   2.959
   16WAT      O 1797   0.452   5.220   2.264
   16WAT     H1 1798   0.465   5.187   2.184
   16WAT     H2 1799   0.371   5.195   2.284
   16WAT    EPW 1800   0.442   5.212   2.255
   17WAT      O 1801   1.328   5.936   2.568
   17WAT     H1 1802   1.336   5.970   2.648
   17WAT     H2 1803   1.345   5.851   2.580
   17WAT    EPW 1804   1.332   5.928   2.582
   18WAT      O 1805   1.080   5.863   2.525
   18WAT     H1 1806   1.050   5.831   2.600
   18WAT     H2 1807   1.150   5.910   2.548
   18WAT    EPW 1808   1.086   5.865   2.539
   19WAT      O 1809   1.102   6.275   3.327
   19WAT     H1 1810   1.171   6.263   3.380
   19WAT     H2 1811   1.116   6.354   3.293
   19WAT    EPW 1812   1.115   6.285   3.330
   20WAT      O 1813   1.920   5.536   3.508
   20WAT     H1 1814   1.835   5.523   3.521
   20WAT     H2 1815   1.935   5.496   3.432
   20WAT    EPW 1816   1.910   5.528   3.499
   21WAT      O 1817   1.371   5.602   3.366
   21WAT     H1 1818   1.346   5.530   3.408
   21WAT     H2 1819   1.453   5.614   3.393
   21WAT    EPW 1820   1.380   5.593   3.376
   22WAT      O 1821   0.313   6.581   3.492
   22WAT     H1 1822   0.248   6.524   3.502
   22WAT     H2 1823   0.275   6.658   3.507
   22WAT    EPW 1824   0.298   6.584   3.496
   23WAT      O 1825   1.165   5.721   3.685
   23WAT     H1 1826   1.197   5.790   3.641
   23WAT     H2 1827   1.094   5.753   3.725
   23WAT    EPW 1828   1.159   5.736   3.684
   24WAT      O 1829   1.473   6.559   2.778
   24WAT     H1 1830   1.428   6.623   2.815
   24WAT     H2 1831   1.544   6.551   2.828
   24WAT    EPW 1832   1.477   6.567   2.791
   25WAT      O 1833   1.143   6.068   3.071
   25WAT     H1 1834   1.074   6.108   3.105
   25WAT     H2 1835   1.211   6.111   3.104
   25WAT    EPW 1836   1.143   6.080   3.081
   26WAT      O 1837   1.681   6.327   3.729
   26WAT     H1 1838   1.759   6.288   3.737
   26WAT     H2 1839   1.634   6.293   3.794
   26WAT    EPW 1840   1.685   6.316   3.739
   27WAT      O 1841   0.450   5.421   3.305
   27WAT     H1 1842   0.488   5.483   3.257
   27WAT     H2 1843   0.517   5.374   3.334
   27WAT    EPW 1844   0.466   5.424   3.302
   28WAT      O 1845   0.228   5.266   3.233
   28WAT     H1 1846   0.235   5.249   3.147
   28WAT     H2 1847   0.302   5.307   3.252
   28WAT    EPW 1848   0.240   5.270   3.223
   29WAT      O 1849   1.783   5.530   2.277
   29WAT     H1 1850   1.794   5.524   2.190
   29WAT     H2 1851   1.858   5.497   2.309
   29WAT    EPW 1852   1.796   5.524   2.269
   30WAT      O 1853   0.483   5.007   3.474
   30WAT     H1 1854   0.475   4.923   3.494
   30WAT     H2 1855   0.452   5.012   3.393
   30WAT    EPW 1856   0.477   4.995   3.465
   31WAT      O 1857   1.175   6.227   2.387
   31WAT     H1 1858   1.155   6.310   2.372
   31WAT     H2 1859   1.098   6.188   2.400
   31WAT    EPW 1860   1.161   6.233   2.387
   32WAT      O 1861   1.694   5.545   3.212
   32WAT     H1 1862   1.693   5.458   3.225
   32WAT     H2 1863   1.700   5.577   3.293
   32WAT    EPW 1864   1.695   5.537   3.226
   33WAT      O 1865   0.313   5.382   1.917
   33WAT     H1 1866   0.246   5.384   1.973
   33WAT     H2 1867   0.322   5.298   1.899
   33WAT    EPW 1868   0.304   5.370   1.922
   34WAT      O 1869   1.282   5.025   3.591
   34WAT     H1 1870   1.291   5.096   3.640
   34WAT     H2 1871   1.218   4.980   3.630
   34WAT    EPW 1872   1.273   5.029   3.604
   35WAT      O 1873   1.181   5.044   2.676
   35WAT     H1 1874   1.111   5.096   2.670
   35WAT     H2 1875   1.185   5.006   2.598
   35WAT    EPW 1876   1.171   5.046   2.664
   36WAT      O 1877   0.712   6.253   2.028
   36WAT     H1 1878   0.756   6.261   2.103
   36WAT     H2 1879   0.631   6.231   2.054
   36WAT    EPW 1880   0.706   6.251   2.043
   37WAT      O 1881   1.541   5.095   2.956
   37WAT     H1 1882   1.626   5.105   2.970
   37WAT     H2 1883   1.504   5.151   3.012
   37WAT    EPW 1884   1.548   5.105   2.966
   38WAT      O 1885   0.644   5.718   3.394
   38WAT     H1 1886   0.604   5.795   3.401
   38WAT     H2 1887   0.603   5.681   3.326
   38WAT    EPW 1888   0.632   5.724   3.385
   39WAT      O 1889   1.571   5.623   2.805
   39WAT     H1 1890   1.638   5.677   2.821
   39WAT     H2 1891   1.537   5.654   2.731
   39WAT    EPW 1892   1.576   5.636   2.797
   40WAT      O 1893   1.602   6.430   2.386
   40WAT     H1 1894   1.585   6.365   2.441
   40WAT     H2 1895   1.674   6.403   2.343
   40WAT    EPW 1896   1.610   6.416   2.388
   41WAT      O 1897   0.445   6.160   2.088
   41WAT     H1 1898   0.420   6.129   2.166
   41WAT     H2 1899   0.441   6.090   2.037
   41WAT    EPW 1900   0.440   6.145   2.092
   42WAT      O 1901   0.726   5.984   1.963
   42WAT     H1 1902   0.645   5.958   1.977
   42WAT     H2 1903   0.724   6.070   1.981
   42WAT    EPW 1904   0.714   5.993   1.968
   43WAT      O 1905   0.686   5.016   3.139
   43WAT     H1 1906   0.600   5.024   3.147
   43WAT     H2 1907   0.708   4.964   3.206
   43WAT    EPW 1908   0.677   5.009   3.150
   44WAT      O 1909   1.888   4.879   3.272
   44WAT     H1 1910   1.883   4.875   3.359
   44WAT     H2 1911   1.957   4.829   3.253
   44WAT    EPW 1912   1.898   4.871   3.282
   45WAT      O 1913   1.097   5.090   2.976
   45WAT     H1 1914   1.023   5.045   2.987
   45WAT     H2 1915   1.154   5.050   3.028
   45WAT    EPW 1916   1.094   5.078   2.985
   46WAT      O 1917   1.370   6.175   3.155
   46WAT     H1 1918   1.391   6.205   3.234
   46WAT     H2 1919   1.364   6.247   3.106
   46WAT    EPW 1920   1.372   6.190   3.159
   47WAT      O 1921   1.323   6.597   3.579
   47WAT     H1 1922   1.248   6.595   3.535
   47WAT     H2 1923   1.340   6.682   3.588
   47WAT    EPW 1924   1.315   6.609   3.574
   48WAT      O 1925   0.847   5.523   3.496
   48WAT     H1 1926   0.815   5.466   3.439
   48WAT     H2 1927   0.811   5.599   3.472
   48WAT    EPW 1928   0.837   5.526   3.484
   49WAT      O 1929   0.927   4.849   1.959
   49WAT     H1 1930   0.934   4.873   1.876
   49WAT     H2 1931   0.852   4.886   1.985
   49WAT    EPW 1932   0.917   4.858   1.951
   50WAT      O 1933   1.851   6.039   3.101
   50WAT     H1 1934   1.848   5.953   3.087
   50WAT     H2 1935   1.782   6.069   3.057
   50WAT    EPW 1936   1.840   6.031   3.092
   51WAT      O 1937   0.691   6.559   3.521
   51WAT     H1 1938   0.695   6.572   3.608
   51WAT     H2 1939   0.756   6.503   3.506
   51WAT    EPW 1940   0.701   6.553   3.532
   52WAT      O 1941   1.662   6.365   2.980
   52WAT     H1 1942   1.714   6.357   2.911
   52WAT     H2 1943   1.623   6.287   2.986
   52WAT    EPW 1944   1.664   6.352   2.971
   53WAT      O 1945   0.408   5.024   3.203
   53WAT     H1 1946   0.374   4.947   3.180
   53WAT     H2 1947   0.339   5.076   3.210
   53WAT    EPW 1948   0.393   5.020   3.201
  15.21892  15.16442  15.12260
