Generic title
57072
    1C5    HO5'    1   3.415   5.421   3.587  0.0436  0.6012 -1.0354
    1C5     O5'    2   3.506   5.446   3.571  0.2321  0.5582 -0.0897
    1C5     C5'    3   3.593   5.389   3.659 -0.9659 -0.6733  0.8497
    1C5     H5'    4   3.685   5.396   3.602 -0.9440  2.1158  1.0806
    1C5    H5''    5   3.574   5.286   3.687  0.2490 -0.9282  0.7970
    1C5     C4'    6   3.605   5.480   3.783 -0.4192 -0.3391 -0.2050
    1C5     H4'    7   3.640   5.580   3.755 -0.1691 -0.5316 -0.5864
    1C5     O4'    8   3.485   5.497   3.858  0.4119 -0.0991  0.5478
    1C5     C1'    9   3.509   5.458   3.991 -0.0759 -0.6824 -0.6012
    1C5     H1'   10   3.480   5.540   4.057  0.5621 -0.9916  0.0812
    1C5      N1   11   3.443   5.332   4.033 -0.0550 -0.0708 -0.2985
    1C5      C6   12   3.375   5.250   3.945 -0.5665  0.4457 -0.3793
    1C5      H6   13   3.382   5.274   3.840  2.8279  1.6462  0.0205
    1C5      C5   14   3.328   5.132   3.985  0.0045  0.2402  0.0473
    1C5      H5   15   3.287   5.063   3.912 -1.6819  1.1609  0.0676
    1C5      C4   16   3.339   5.092   4.117  0.2219  0.9017 -0.2083
    1C5      N4   17   3.291   4.977   4.160  0.5581 -0.5415 -0.1969
    1C5     H41   18   3.227   4.923   4.104  2.3483 -1.0362 -1.8870
    1C5     H42   19   3.291   4.958   4.259 -0.6580 -2.7893 -0.5795
    1C5      N3   20   3.391   5.169   4.209  0.1422  0.3853  0.4612
    1C5      C2   21   3.443   5.289   4.169 -0.0369  0.1433  0.5451
    1C5      O2   22   3.494   5.353   4.255 -0.3081  0.4099 -0.1096
    1C5     C3'   23   3.714   5.415   3.869 -0.1497  1.0196 -0.3663
    1C5     H3'   24   3.702   5.307   3.875  1.6860  0.8653  2.1805
    1C5     C2'   25   3.662   5.465   4.001  0.1261 -0.6159 -0.2989
    1C5     H2'   26   3.704   5.398   4.076  1.5968  0.6188  0.0423
    1C5     O2'   27   3.706   5.596   4.030  0.2355 -0.2165 -0.1327
    1C5    HO2'   28   3.795   5.611   3.996 -0.2018  0.7248 -0.8837
    1C5     O3'   29   3.850   5.459   3.854  0.3538 -0.5192 -0.1788
    2U        P   30   3.973   5.359   3.880  0.2292  0.0444 -0.2828
    2U      OP1   31   4.089   5.437   3.846 -0.2125 -0.4284 -0.0626
    2U      OP2   32   3.952   5.236   3.801 -0.1741 -0.2642 -0.4435
    2U      O5'   33   3.961   5.338   4.034  0.4863  0.0865  0.1812
    2U      C5'   34   4.006   5.442   4.124 -0.1579 -0.1087  0.0195
    2U      H5'   35   3.956   5.537   4.103 -2.2702 -1.1273  0.1015
    2U     H5''   36   4.114   5.454   4.119 -0.2879  1.7266  0.6637
    2U      C4'   37   3.978   5.406   4.274 -0.0636 -0.4786  0.5739
    2U      H4'   38   4.013   5.493   4.329  0.0608  0.3611 -0.7782
    2U      O4'   39   3.838   5.385   4.298  0.2487 -0.2071  0.3235
    2U      C1'   40   3.830   5.285   4.391 -0.0259  0.3460 -0.0704
    2U      H1'   41   3.780   5.331   4.477  3.0510  1.2250  1.3957
    2U       N1   42   3.751   5.172   4.328 -0.3887 -0.3686  0.5418
    2U       C6   43   3.746   5.155   4.189  0.4276  0.7345 -0.0675
    2U       H6   44   3.779   5.233   4.122  0.1840  1.2642  0.4208
    2U       C5   45   3.690   5.041   4.135  0.1394 -0.7597  0.0542
    2U       H5   46   3.693   5.025   4.028 -0.3157  0.4875 -0.1577
    2U       C4   47   3.631   4.943   4.218  0.2213 -0.1978 -0.1024
    2U       O4   48   3.568   4.843   4.185 -0.0557  0.1943 -0.2731
    2U       N3   49   3.642   4.963   4.354  0.3733  0.1799  0.1090
    2U       H3   50   3.603   4.899   4.422  1.8698  0.5147  1.3286
    2U       C2   51   3.705   5.070   4.412  0.3343 -0.2470 -0.2382
    2U       O2   52   3.710   5.081   4.535 -0.3297 -0.1358  0.6819
    2U      C3'   53   4.052   5.280   4.307 -1.1990  0.1553 -0.0776
    2U      H3'   54   4.033   5.217   4.220  3.6596 -0.0716 -1.2630
    2U      C2'   55   3.967   5.246   4.432 -0.3031  1.0041  0.5288
    2U      H2'   56   3.974   5.138   4.449  2.4558  0.7367 -1.6132
    2U      O2'   57   4.002   5.326   4.542 -0.3636  1.2152  0.2526
    2U     HO2'   58   3.961   5.284   4.618 -0.4112  0.8259  0.0107
    2U      O3'   59   4.190   5.287   4.325 -0.2145  0.0282  0.0420
    3G        P   60   4.280   5.152   4.309  0.0310 -0.3120  0.0502
    3G      OP1   61   4.423   5.194   4.318  0.4695 -0.2042 -0.2147
    3G      OP2   62   4.243   5.082   4.189  0.1675 -0.1240  0.1817
    3G      O5'   63   4.244   5.065   4.435  0.1500  0.1304 -0.1348
    3G      C5'   64   4.267   5.114   4.564 -0.1046  0.1268 -0.0956
    3G      H5'   65   4.199   5.198   4.580 -1.6445 -1.2805  1.1518
    3G     H5''   66   4.370   5.137   4.589  0.3220 -0.8814 -0.8875
    3G      C4'   67   4.221   4.995   4.660 -0.7007 -0.0599  0.2296
    3G      H4'   68   4.260   5.026   4.757 -2.3198  2.3214  0.2097
    3G      O4'   69   4.082   4.990   4.663  0.6069 -0.2596 -0.0297
    3G      C1'   70   4.046   4.854   4.693 -0.0761  0.6403 -0.0605
    3G      H1'   71   3.983   4.842   4.781 -0.9580  1.1598 -0.6026
    3G       N9   72   3.981   4.791   4.574  0.5337 -0.4478 -0.4779
    3G       C8   73   3.976   4.845   4.444  0.2007  0.0977 -0.0282
    3G       H8   74   4.038   4.924   4.405  0.1675  0.3768  0.4730
    3G       N7   75   3.898   4.773   4.366  1.2850  0.3320  0.3282
    3G       C5   76   3.846   4.673   4.446  0.2555  0.0639 -0.2008
    3G       C6   77   3.743   4.578   4.417 -0.1268 -0.0380 -0.4622
    3G       O6   78   3.698   4.539   4.308  0.2781 -0.5080 -0.5154
    3G       N1   79   3.704   4.510   4.530 -0.1937  0.8894 -0.2027
    3G       H1   80   3.631   4.441   4.515  1.4714 -0.8725 -0.5946
    3G       C2   81   3.766   4.517   4.651  0.0251 -0.6593 -0.2306
    3G       N2   82   3.727   4.434   4.741 -0.3221 -0.0534 -0.6137
    3G      H21   83   3.652   4.367   4.733 -2.5955  1.7829  3.1020
    3G      H22   84   3.769   4.445   4.832 -0.9533  1.5104 -0.4810
    3G       N3   85   3.859   4.613   4.683 -0.3374  0.7199 -0.2842
    3G       C4   86   3.889   4.686   4.575 -0.0701  0.3117  0.6080
    3G      C3'   87   4.273   4.856   4.625  0.0140 -0.0678 -0.1659
    3G      H3'   88   4.250   4.817   4.526 -2.4756 -1.8634  0.9920
    3G      C2'   89   4.176   4.781   4.720  0.5907 -0.2960 -0.0376
    3G      H2'   90   4.161   4.678   4.688 -2.5806  0.4416 -1.3227
    3G      O2'   91   4.217   4.789   4.860  0.2521 -0.0309 -0.1327
    3G     HO2'   92   4.170   4.719   4.907 -3.9030  3.0889  1.0362
    3G      O3'   93   4.409   4.827   4.668 -0.1422 -0.1122  0.3111
    4G        P   94   4.494   4.713   4.595 -0.0668 -0.1183 -0.0775
    4G      OP1   95   4.630   4.715   4.645  0.0550 -0.2187  0.2663
    4G      OP2   96   4.479   4.726   4.450  0.4415  1.0625  0.4417
    4G      O5'   97   4.427   4.578   4.636 -0.6829  0.2388  0.4152
    4G      C5'   98   4.424   4.527   4.765  0.0061  0.4007  0.4163
    4G      H5'   99   4.410   4.599   4.845  0.6328 -0.7957  1.6341
    4G     H5''  100   4.517   4.476   4.792  1.1308  1.9618 -0.3631
    4G      C4'  101   4.316   4.417   4.778 -0.5270  0.6815 -0.4998
    4G      H4'  102   4.319   4.393   4.885  0.5078 -0.2210 -0.7113
    4G      O4'  103   4.192   4.454   4.728  0.0611 -0.7062 -0.5000
    4G      C1'  104   4.121   4.337   4.687  0.1424 -1.0581  0.6613
    4G      H1'  105   4.021   4.331   4.732 -0.6070  0.3426 -0.7078
    4G       N9  106   4.087   4.353   4.543  0.2239  0.2570  0.4093
    4G       C8  107   4.127   4.441   4.447  0.2015 -0.2261 -0.2134
    4G       H8  108   4.212   4.504   4.466 -0.4155  0.4643  0.3061
    4G       N7  109   4.069   4.427   4.333 -0.2705 -0.3605  0.7856
    4G       C5  110   3.971   4.332   4.354 -0.3791  0.3684 -0.5405
    4G       C6  111   3.874   4.275   4.268  0.1399 -0.3183 -0.5180
    4G       O6  112   3.851   4.298   4.148 -0.6625  0.0565 -0.7640
    4G       N1  113   3.796   4.184   4.331 -1.0471  0.5759  0.1651
    4G       H1  114   3.722   4.138   4.280  0.1465 -4.4184  2.3899
    4G       C2  115   3.827   4.134   4.456 -0.2908  0.1369 -0.2249
    4G       N2  116   3.765   4.023   4.494 -0.0993  0.2097  0.2848
    4G      H21  117   3.700   3.989   4.424  0.6584  1.8697 -1.3173
    4G      H22  118   3.772   4.002   4.592  2.8642 -1.6927 -0.1977
    4G       N3  119   3.906   4.187   4.541  0.0922  0.5163  0.1395
    4G       C4  120   3.980   4.290   4.489  0.4453  0.8621  0.1342
    4G      C3'  121   4.342   4.284   4.701 -0.5927  0.4479  0.6559
    4G      H3'  122   4.365   4.310   4.598 -0.2281  0.5762  0.7681
    4G      C2'  123   4.207   4.215   4.703 -1.1027 -0.0892 -0.8119
    4G      H2'  124   4.188   4.147   4.620  0.2395 -1.1528 -0.2812
    4G      O2'  125   4.154   4.161   4.825 -0.7787  0.5770 -0.3060
    4G     HO2'  126   4.218   4.188   4.892 -2.6112  1.9431  1.0165
    4G      O3'  127   4.453   4.210   4.754  0.0445 -0.4303  0.7435
    5G        P  128   4.518   4.090   4.672  0.0404  0.2170  0.2716
    5G      OP1  129   4.617   4.023   4.756  0.1017  0.2728  0.0228
    5G      OP2  130   4.558   4.145   4.540 -0.1608 -0.4112 -0.3030
    5G      O5'  131   4.398   3.992   4.638 -0.2983 -0.0519 -0.4216
    5G      C5'  132   4.345   3.904   4.738  0.3135 -0.1517 -0.1324
    5G      H5'  133   4.296   3.957   4.819  0.4879 -0.0320 -0.1056
    5G     H5''  134   4.423   3.836   4.773  1.5821  0.4466 -1.6436
    5G      C4'  135   4.236   3.813   4.685  0.2414  0.1932  0.3527
    5G      H4'  136   4.215   3.747   4.769  0.5801 -0.0383  0.2570
    5G      O4'  137   4.107   3.870   4.640 -0.3736 -0.1659  0.1886
    5G      C1'  138   4.071   3.793   4.521  0.4081 -0.3702 -0.4857
    5G      H1'  139   3.966   3.769   4.531  0.3807  0.1244  0.5353
    5G       N9  140   4.077   3.886   4.405 -0.6276 -0.1069 -0.2617
    5G       C8  141   4.159   3.992   4.383 -0.2854  0.2743  0.3463
    5G       H8  142   4.234   4.035   4.449 -1.4702 -0.6660  2.3992
    5G       N7  143   4.138   4.057   4.268  0.1340 -0.0595 -0.7981
    5G       C5  144   4.039   3.980   4.207  0.2899 -0.5743  0.5518
    5G       C6  145   3.981   3.982   4.075  0.1706 -0.5530  0.0036
    5G       O6  146   3.997   4.064   3.988 -0.7829  0.0383  0.4986
    5G       N1  147   3.883   3.890   4.057  0.1901 -0.2351  0.0883
    5G       H1  148   3.843   3.893   3.964  1.8043  1.0486 -0.6216
    5G       C2  149   3.849   3.802   4.145 -0.1869 -0.8410 -0.4182
    5G       N2  150   3.761   3.715   4.103  0.2766  0.2248  0.3084
    5G      H21  151   3.711   3.724   4.016  2.1525  1.1492 -0.7475
    5G      H22  152   3.727   3.642   4.164  0.3273 -1.4480 -1.5563
    5G       N3  153   3.890   3.791   4.270 -0.3469 -0.7594 -0.9759
    5G       C4  154   3.990   3.888   4.294 -0.0172  0.0914 -0.2127
    5G      C3'  155   4.294   3.726   4.572  0.1510 -0.6846 -0.3884
    5G      H3'  156   4.345   3.795   4.504 -1.5510  0.4353 -0.5972
    5G      C2'  157   4.162   3.674   4.505  0.1439 -0.4815  0.3747
    5G      H2'  158   4.176   3.651   4.399 -1.2082 -0.2505  0.1321
    5G      O2'  159   4.107   3.567   4.581  0.1923  0.3390  0.2480
    5G     HO2'  160   4.165   3.491   4.588 -0.4752 -0.1831  0.2980
    5G      O3'  161   4.382   3.616   4.608 -0.3725 -0.3938  0.2581
    6U        P  162   4.451   3.526   4.501 -0.2377 -0.0906  0.3903
    6U      OP1  163   4.585   3.511   4.557 -1.3297  0.1589  0.2140
    6U      OP2  164   4.434   3.587   4.368 -0.0042  0.9487  0.1397
    6U      O5'  165   4.369   3.389   4.523  0.1959  0.2471  0.1099
    6U      C5'  166   4.360   3.314   4.644 -0.1240 -0.0085  0.9712
    6U      H5'  167   4.331   3.385   4.722  1.4437  3.5599 -1.3856
    6U     H5''  168   4.453   3.268   4.678  0.1708 -0.5776 -0.5179
    6U      C4'  169   4.241   3.209   4.629 -0.3040 -0.4003  0.0336
    6U      H4'  170   4.232   3.156   4.724 -0.5123  1.3337  1.0293
    6U      O4'  171   4.110   3.262   4.610 -0.2901  0.0966 -0.0164
    6U      C1'  172   4.038   3.179   4.522  0.2748 -0.0686 -0.3608
    6U      H1'  173   3.950   3.142   4.575 -0.9249  3.2179  0.1924
    6U       N1  174   4.009   3.244   4.391  0.5886 -0.4456 -0.0694
    6U       C6  175   4.086   3.343   4.341  0.4871 -0.5493  0.5381
    6U       H6  176   4.166   3.383   4.401  0.3811 -1.0985  1.0556
    6U       C5  177   4.048   3.399   4.224 -0.1466 -0.5672  0.7345
    6U       H5  178   4.110   3.473   4.176  0.3520 -0.6963  1.1683
    6U       C4  179   3.934   3.352   4.144 -0.2540  0.7381 -0.1807
    6U       O4  180   3.900   3.396   4.039  0.0759  0.1507 -0.0802
    6U       N3  181   3.871   3.247   4.205 -0.1918  0.0999  0.8717
    6U       H3  182   3.786   3.208   4.166 -0.1381 -1.0895  1.8658
    6U       C2  183   3.908   3.183   4.315  0.4797  0.1509 -0.1487
    6U       O2  184   3.848   3.079   4.354 -0.2612  0.4310 -0.3149
    6U      C3'  185   4.268   3.104   4.522  0.6294 -0.4103  0.3929
    6U      H3'  186   4.306   3.157   4.434 -1.9716  0.8584 -0.0771
    6U      C2'  187   4.118   3.053   4.500  0.3243  0.6325 -0.3152
    6U      H2'  188   4.104   3.026   4.395  0.7739  1.7296 -0.6732
    6U      O2'  189   4.076   2.966   4.599 -0.3067 -0.2387 -0.2874
    6U     HO2'  190   4.120   2.881   4.597 -0.3088 -0.2312 -1.4899
    6U      O3'  191   4.357   3.008   4.567  0.0424 -1.0261 -0.0772
    7C        P  192   4.453   2.940   4.469 -0.2063 -0.0265  0.2815
    7C      OP1  193   4.496   2.812   4.524  0.2107 -0.3197 -0.0832
    7C      OP2  194   4.555   3.043   4.433  0.1410 -0.1878  0.1407
    7C      O5'  195   4.366   2.916   4.330 -0.2150  0.4449  0.0701
    7C      C5'  196   4.279   2.803   4.320 -0.4534 -0.4468  0.0049
    7C      H5'  197   4.220   2.810   4.411  0.6531  1.4511  0.6376
    7C     H5''  198   4.349   2.719   4.319 -0.1611 -0.2032 -0.5025
    7C      C4'  199   4.186   2.813   4.199  0.1942  0.2930 -0.1155
    7C      H4'  200   4.120   2.728   4.215  1.0542  0.1017  3.1700
    7C      O4'  201   4.110   2.926   4.188 -0.2221  0.3123  0.9158
    7C      C1'  202   4.103   2.976   4.056  0.2026  0.5503  0.0505
    7C      H1'  203   3.998   2.987   4.028 -0.3984 -0.7510  1.6141
    7C       N1  204   4.159   3.112   4.039  0.5803 -0.0682 -0.5199
    7C       C6  205   4.264   3.152   4.119  0.7797  0.7794  0.9879
    7C       H6  206   4.285   3.089   4.205 -1.3761 -0.1129  0.9211
    7C       C5  207   4.343   3.258   4.085 -0.2696  0.1373  0.1095
    7C       H5  208   4.424   3.287   4.150 -0.4492 -0.1490  0.4687
    7C       C4  209   4.305   3.336   3.969 -0.0303  0.2290  0.1663
    7C       N4  210   4.378   3.438   3.936 -0.0485 -0.7319 -0.3058
    7C      H41  211   4.463   3.462   3.984  0.8755  0.9402 -2.5656
    7C      H42  212   4.356   3.476   3.845  0.7616  2.2594  0.6081
    7C       N3  213   4.199   3.297   3.897 -0.8127  0.6806 -0.3232
    7C       C2  214   4.124   3.188   3.929 -0.3033  0.5166 -0.2576
    7C       O2  215   4.027   3.159   3.863  0.4752 -0.0430  1.1406
    7C      C3'  216   4.266   2.801   4.066  0.2480 -0.1600  0.7168
    7C      H3'  217   4.354   2.862   4.081  1.0327 -1.2478  0.6569
    7C      C2'  218   4.165   2.867   3.968  0.3870  0.4845  0.4600
    7C      H2'  219   4.217   2.913   3.884  1.7495  0.1380  1.0807
    7C      O2'  220   4.065   2.782   3.924 -0.5577 -0.1746 -0.7882
    7C     HO2'  221   4.097   2.692   3.916 -0.3642 -0.0846 -1.0692
    7C      O3'  222   4.295   2.663   4.037  0.3877 -0.8557 -0.3841
    8G        P  223   4.448   2.626   4.000  0.5606 -0.0762  0.0332
    8G      OP1  224   4.460   2.481   3.985 -0.2955  0.5137 -0.3046
    8G      OP2  225   4.534   2.689   4.102  0.2968  0.0783 -0.0867
    8G      O5'  226   4.471   2.709   3.862  0.3171 -0.8220 -0.4257
    8G      C5'  227   4.416   2.674   3.739 -0.2265 -0.2805 -0.4061
    8G      H5'  228   4.310   2.647   3.746 -0.3831  0.4459  0.1056
    8G     H5''  229   4.446   2.579   3.695  1.7763  0.6726 -1.2462
    8G      C4'  230   4.420   2.789   3.635 -0.8547 -0.6616  0.0284
    8G      H4'  231   4.374   2.763   3.540 -2.9128  0.9792  0.5060
    8G      O4'  232   4.388   2.925   3.681 -0.3747 -0.1407  0.3890
    8G      C1'  233   4.479   3.018   3.621 -0.2895 -0.0456  0.6471
    8G      H1'  234   4.430   3.072   3.540  1.0714  1.3119  0.6892
    8G       N9  235   4.538   3.112   3.708 -0.3832 -0.4633 -0.0523
    8G       C8  236   4.566   3.094   3.841 -1.1590  0.0864  0.2963
    8G       H8  237   4.543   3.002   3.891 -1.9130  1.2461  2.2148
    8G       N7  238   4.629   3.193   3.900 -1.1373 -0.2544 -0.1411
    8G       C5  239   4.639   3.287   3.791  0.0152 -0.0584 -0.0182
    8G       C6  240   4.704   3.416   3.790 -0.5703 -0.1556  1.3400
    8G       O6  241   4.774   3.472   3.866 -0.3748  0.1141 -0.3288
    8G       N1  242   4.689   3.475   3.666 -0.3490 -1.0833 -0.2137
    8G       H1  243   4.747   3.551   3.634 -0.5531 -2.3748 -4.2235
    8G       C2  244   4.608   3.428   3.575 -0.5751  0.0384  0.6567
    8G       N2  245   4.597   3.499   3.463 -0.2578  0.4093 -0.2588
    8G      H21  246   4.651   3.584   3.455  2.2269 -1.1032 -0.6653
    8G      H22  247   4.543   3.449   3.395 -0.3783 -1.8269  1.3563
    8G       N3  248   4.551   3.307   3.562 -0.1892 -0.4412 -0.2445
    8G       C4  249   4.573   3.242   3.677  0.0277  0.2636 -1.1414
    8G      C3'  250   4.571   2.800   3.613  0.1731 -0.2150 -0.1040
    8G      H3'  251   4.614   2.812   3.713 -1.8532  1.7599  0.6324
    8G      C2'  252   4.581   2.937   3.539 -0.2004  0.5992 -0.9160
    8G      H2'  253   4.675   2.991   3.549  0.6012 -0.9792  0.7514
    8G      O2'  254   4.535   2.937   3.406  0.4189  0.2137  0.1762
    8G     HO2'  255   4.600   2.994   3.362  1.2766  0.8414  2.1498
    8G      O3'  256   4.620   2.699   3.537 -0.1222  0.1715  0.1163
    9C        P  257   4.761   2.639   3.569 -0.1836 -0.0406 -0.0930
    9C      OP1  258   4.783   2.518   3.486 -0.3622 -0.1051 -0.1394
    9C      OP2  259   4.780   2.639   3.712  0.5895  0.3049  0.3998
    9C      O5'  260   4.869   2.740   3.515 -0.3510 -0.0335  0.1059
    9C      C5'  261   5.002   2.738   3.568  0.0346 -0.2675  0.0265
    9C      H5'  262   5.037   2.636   3.552  0.6433  0.1986 -1.8167
    9C     H5''  263   5.016   2.767   3.672  3.4832 -1.8447  0.1499
    9C      C4'  264   5.095   2.821   3.481 -0.3516 -0.4895 -0.4679
    9C      H4'  265   5.187   2.822   3.538 -2.1423  1.2322  2.6681
    9C      O4'  266   5.106   2.772   3.344  0.5933 -0.1920 -0.1846
    9C      C1'  267   5.085   2.883   3.258 -0.1902  0.0022  0.5332
    9C      H1'  268   5.167   2.884   3.187  0.5640  3.3005  1.2533
    9C       N1  269   4.961   2.879   3.184  0.0317  0.4318 -0.4598
    9C       C6  270   4.863   2.792   3.212  0.1167  0.1615 -0.3840
    9C       H6  271   4.872   2.735   3.303  3.7699 -0.8605 -1.2472
    9C       C5  272   4.755   2.787   3.139  0.0585  0.0809 -0.1541
    9C       H5  273   4.669   2.726   3.163 -0.0730  0.9385  1.7403
    9C       C4  274   4.758   2.852   3.019 -0.3680 -1.4880  0.1315
    9C       N4  275   4.663   2.855   2.929 -0.5358 -0.0209 -0.6761
    9C      H41  276   4.584   2.794   2.946  1.4305 -2.6495 -0.4368
    9C      H42  277   4.658   2.934   2.865  1.7924  3.4166  2.9752
    9C       N3  278   4.847   2.945   2.984 -0.0255  0.2915  0.3735
    9C       C2  279   4.948   2.959   3.068  0.3900  0.4224  0.1671
    9C       O2  280   5.029   3.052   3.049  0.6063 -0.2678  0.3524
    9C      C3'  281   5.042   2.967   3.464 -0.3969 -0.4656 -0.0419
    9C      H3'  282   4.934   2.975   3.462 -0.3658  0.0154 -2.1572
    9C      C2'  283   5.100   3.009   3.337 -0.4930  1.3568  0.4744
    9C      H2'  284   5.042   3.091   3.295 -0.4941  1.4485  0.6547
    9C      O2'  285   5.240   3.045   3.348  0.1748  0.0134 -0.4171
    9C     HO2'  286   5.264   3.073   3.437 -0.7965 -0.6827  0.0827
    9C      O3'  287   5.084   3.057   3.575 -0.6171 -0.0272  0.2232
   10A        P  288   4.997   3.184   3.634 -0.0822 -0.2253  0.0233
   10A      OP1  289   5.085   3.254   3.740  0.2791  0.9007  0.6357
   10A      OP2  290   4.873   3.120   3.679  0.7514 -0.5092  0.0367
   10A      O5'  291   4.977   3.284   3.513 -0.3508 -0.1318 -0.4340
   10A      C5'  292   5.087   3.361   3.456 -0.2960  0.0002  0.6210
   10A      H5'  293   5.174   3.296   3.449  0.2616  0.7592  0.3390
   10A     H5''  294   5.124   3.441   3.520  1.2318 -1.3609  1.5209
   10A      C4'  295   5.051   3.414   3.312  0.7404  0.0674 -0.2092
   10A      H4'  296   5.143   3.465   3.284  1.8887 -2.8091 -2.2478
   10A      O4'  297   5.016   3.313   3.215  0.4561  0.2348  0.1196
   10A      C1'  298   4.907   3.360   3.137  0.0548 -0.4948 -0.0410
   10A      H1'  299   4.937   3.353   3.032  0.4992 -0.3094  0.0713
   10A       N9  300   4.787   3.268   3.154  0.0711 -1.3742 -0.3373
   10A       C8  301   4.752   3.191   3.263  0.4393  0.4077 -0.1886
   10A       H8  302   4.797   3.200   3.361  0.4605 -1.7090  0.0323
   10A       N7  303   4.649   3.113   3.237 -0.3310  0.0015 -0.4200
   10A       C5  304   4.612   3.144   3.109  0.3973  0.0618 -0.0772
   10A       C6  305   4.501   3.109   3.031 -0.2989  0.2321  0.6503
   10A       N6  306   4.421   3.018   3.059  0.5931 -0.0583 -0.0905
   10A      H61  307   4.354   2.989   2.988  0.0549 -0.9479  0.7473
   10A      H62  308   4.420   2.980   3.152  1.3585 -2.6979 -1.0631
   10A       N1  309   4.484   3.161   2.909  0.1096 -0.4686  0.4973
   10A       C2  310   4.566   3.253   2.871 -0.3279  0.2205  0.2461
   10A       H2  311   4.567   3.294   2.772  0.1584 -1.0751 -0.3148
   10A       N3  312   4.677   3.300   2.936  0.7496  0.9339  0.3710
   10A       C4  313   4.687   3.249   3.061 -0.5445 -0.1285  0.0095
   10A      C3'  314   4.935   3.510   3.313  0.0462 -0.9615 -1.3706
   10A      H3'  315   4.856   3.479   3.381  1.4346 -0.3628  0.6263
   10A      C2'  316   4.887   3.504   3.172 -0.1632 -0.6640  0.4260
   10A      H2'  317   4.779   3.517   3.159  0.1197  0.9490 -0.6228
   10A      O2'  318   4.965   3.590   3.089 -0.0390 -0.2828  0.3683
   10A     HO2'  319   5.007   3.657   3.143 -0.3144 -0.0616  0.3075
   10A      O3'  320   4.985   3.640   3.345 -0.2214  0.2428 -0.0325
   11G        P  321   4.937   3.727   3.471  0.2786  0.2444 -0.3424
   11G      OP1  322   5.003   3.859   3.480 -0.4267  0.6555  0.7104
   11G      OP2  323   4.911   3.647   3.589 -0.0880 -0.0686 -0.4806
   11G      O5'  324   4.786   3.764   3.421 -0.3934  0.5449 -0.4814
   11G      C5'  325   4.767   3.836   3.301 -0.4991  0.2175 -0.0350
   11G      H5'  326   4.766   3.767   3.217  2.1764 -0.7335  0.6111
   11G     H5''  327   4.848   3.909   3.298 -0.4856  0.2884  1.2345
   11G      C4'  328   4.632   3.912   3.302 -0.4178 -0.0613 -0.0025
   11G      H4'  329   4.612   3.951   3.202  2.8842 -1.8049 -1.4961
   11G      O4'  330   4.536   3.817   3.336 -0.6039 -0.1296 -0.3266
   11G      C1'  331   4.447   3.874   3.423  0.3838  0.2246 -0.1655
   11G      H1'  332   4.368   3.935   3.378 -0.1133 -0.6374 -0.4927
   11G       N9  333   4.384   3.761   3.508  0.4182 -0.4566  0.0361
   11G       C8  334   4.420   3.714   3.634  0.3607  0.1040 -0.4091
   11G       H8  335   4.499   3.750   3.698  0.3779 -1.4662  0.5075
   11G       N7  336   4.361   3.600   3.668  0.3012 -0.0699  1.0846
   11G       C5  337   4.271   3.584   3.564 -0.8540 -0.6478 -0.1826
   11G       C6  338   4.167   3.485   3.547 -0.1340 -0.0256  0.2971
   11G       O6  339   4.134   3.385   3.618 -0.3193  0.1319 -0.1021
   11G       N1  340   4.092   3.499   3.432 -0.0563 -0.3646 -0.9193
   11G       H1  341   4.035   3.423   3.399  0.8487 -1.5984  0.2437
   11G       C2  342   4.109   3.597   3.343  0.6753 -0.4343  0.3405
   11G       N2  343   4.037   3.585   3.230  0.4509 -0.0962  0.1602
   11G      H21  344   3.957   3.524   3.222  0.7478 -0.5092  0.3046
   11G      H22  345   4.061   3.649   3.156  0.6657  0.7446  0.9304
   11G       N3  346   4.211   3.676   3.345  0.2226  0.1053  0.1674
   11G       C4  347   4.285   3.673   3.463  0.6823  0.8298 -0.3884
   11G      C3'  348   4.636   4.020   3.416 -0.5547  0.3615  0.2043
   11G      H3'  349   4.736   4.037   3.456 -0.7053  0.7282  0.4222
   11G      C2'  350   4.547   3.954   3.520  0.5809  0.2123 -0.0163
   11G      H2'  351   4.616   3.882   3.565  1.0267  0.7837  0.2325
   11G      O2'  352   4.496   4.026   3.635 -0.2834  0.2985  0.0083
   11G     HO2'  353   4.491   4.115   3.599  0.0507 -0.0283 -0.8759
   11G      O3'  354   4.572   4.138   3.386  0.2739 -0.7494 -0.1667
   12U        P  355   4.620   4.234   3.271 -0.4059  0.0350 -0.0593
   12U      OP1  356   4.536   4.217   3.151 -0.2233  0.0976 -0.2266
   12U      OP2  357   4.770   4.222   3.268  0.1527  0.0223 -0.0069
   12U      O5'  358   4.577   4.378   3.329  0.0922 -0.2550  0.2012
   12U      C5'  359   4.630   4.434   3.448 -0.1841  0.1826 -1.0227
   12U      H5'  360   4.701   4.364   3.493 -0.8253  1.7585  2.8807
   12U     H5''  361   4.546   4.446   3.516 -0.4830  1.5652 -1.6096
   12U      C4'  362   4.700   4.565   3.418 -0.5205  0.5125  0.1034
   12U      H4'  363   4.735   4.612   3.510  0.6032 -0.2568  0.0906
   12U      O4'  364   4.818   4.527   3.339  0.5796  0.6235 -0.0625
   12U      C1'  365   4.825   4.614   3.231 -0.5232  0.0469  0.1230
   12U      H1'  366   4.857   4.710   3.271  0.0372 -0.8060  1.8137
   12U       N1  367   4.905   4.580   3.110 -0.3568 -0.3052 -0.0331
   12U       C6  368   4.897   4.453   3.062 -0.1963 -0.8852 -0.7353
   12U       H6  369   4.822   4.388   3.104 -0.2251  0.0303  0.6866
   12U       C5  370   4.990   4.413   2.977  0.6715 -0.9135  0.2860
   12U       H5  371   4.978   4.315   2.934 -0.9467 -0.9373  0.7243
   12U       C4  372   5.080   4.499   2.905 -0.5198 -0.2231 -0.7414
   12U       O4  373   5.146   4.476   2.805  0.8241  0.0187  0.1595
   12U       N3  374   5.082   4.625   2.958 -0.4607 -0.0933 -0.1570
   12U       H3  375   5.133   4.688   2.897  2.3714 -0.8474  1.2338
   12U       C2  376   5.002   4.670   3.062 -0.5387 -0.7575 -0.3593
   12U       O2  377   5.026   4.783   3.113  0.4420  0.3408 -0.3186
   12U      C3'  378   4.626   4.663   3.325  0.4616  0.2715 -0.4456
   12U      H3'  379   4.519   4.643   3.337  0.8295 -0.7268  1.7179
   12U      C2'  380   4.683   4.641   3.187  0.3879 -0.3179 -0.7592
   12U      H2'  381   4.644   4.560   3.124 -0.0781  0.7964 -1.9598
   12U      O2'  382   4.678   4.755   3.094 -0.5042 -0.4166  0.5151
   12U     HO2'  383   4.727   4.828   3.134  0.4681 -0.7492 -0.0326
   12U      O3'  384   4.649   4.794   3.370  0.1082 -0.0221 -0.2046
   13A        P  385   4.583   4.855   3.502 -0.0683  0.2271 -0.2512
   13A      OP1  386   4.584   5.001   3.477 -0.5065  0.0755 -0.3496
   13A      OP2  387   4.647   4.807   3.629  1.0190 -0.1528  0.4995
   13A      O5'  388   4.438   4.806   3.502 -0.4346 -0.0183  0.0470
   13A      C5'  389   4.347   4.851   3.598  0.1742  0.7183  0.3555
   13A      H5'  390   4.353   4.959   3.612 -0.8292  0.7891  0.2871
   13A     H5''  391   4.371   4.799   3.690 -0.7170  0.6645  0.5616
   13A      C4'  392   4.198   4.810   3.566  0.5677  0.6060  0.0006
   13A      H4'  393   4.127   4.859   3.632  0.9695  1.4847 -0.2082
   13A      O4'  394   4.160   4.864   3.439 -0.4817  0.1095  0.7345
   13A      C1'  395   4.058   4.776   3.387 -0.5204  0.1698 -0.8153
   13A      H1'  396   3.962   4.828   3.396 -0.3691  0.2029  1.1740
   13A       N9  397   4.077   4.763   3.239  0.0128 -0.2159  1.0386
   13A       C8  398   4.013   4.830   3.133 -0.0368  0.0220 -0.1483
   13A       H8  399   3.917   4.879   3.140 -1.4347 -2.5712  0.4825
   13A       N7  400   4.073   4.815   3.014 -0.3020  0.3121  0.1193
   13A       C5  401   4.178   4.725   3.045  0.7268 -0.2116 -0.0090
   13A       C6  402   4.280   4.666   2.969  0.0006 -0.6999  0.5433
   13A       N6  403   4.281   4.667   2.841 -0.6945 -1.2355 -0.3726
   13A      H61  404   4.359   4.624   2.794 -0.2330  0.0728 -0.8616
   13A      H62  405   4.213   4.719   2.787  1.6067  0.4390 -1.9109
   13A       N1  406   4.363   4.580   3.022  0.0497 -0.5116 -0.2072
   13A       C2  407   4.349   4.558   3.147  0.2893 -0.4798  0.0525
   13A       H2  408   4.420   4.488   3.189  1.3443  1.1307  1.0289
   13A       N3  409   4.270   4.613   3.240  0.7018  0.3483 -0.0241
   13A       C4  410   4.185   4.699   3.180  0.3433  0.7390  0.8968
   13A      C3'  411   4.175   4.656   3.555 -0.5235 -0.3189  0.3218
   13A      H3'  412   4.258   4.618   3.495 -0.6026  0.9568 -0.6304
   13A      C2'  413   4.043   4.650   3.477  0.1951  0.5826 -0.0104
   13A      H2'  414   4.039   4.559   3.417 -2.7698 -0.7042  1.9446
   13A      O2'  415   3.926   4.667   3.560  0.4360 -0.5756  0.4064
   13A     HO2'  416   3.861   4.610   3.518  1.8942 -0.4513 -2.2216
   13A      O3'  417   4.157   4.591   3.680  0.3691 -0.2158 -0.4018
   14A        P  418   4.241   4.465   3.726 -0.0893 -0.1466  0.4464
   14A      OP1  419   4.194   4.438   3.859  0.1329 -0.0440  0.0293
   14A      OP2  420   4.385   4.496   3.704  0.4811 -0.1072 -0.6356
   14A      O5'  421   4.199   4.335   3.644 -0.1152 -0.0740 -0.1777
   14A      C5'  422   4.236   4.324   3.509  0.1689  0.4561  0.2296
   14A      H5'  423   4.341   4.298   3.496  0.0462 -1.0849  1.8846
   14A     H5''  424   4.223   4.421   3.461  1.3652  0.5098 -0.0216
   14A      C4'  425   4.137   4.229   3.434  0.2290  0.1398 -0.4887
   14A      H4'  426   4.140   4.261   3.330  3.1600  0.9037 -0.2504
   14A      O4'  427   4.181   4.097   3.441 -0.1666 -0.0973 -0.4222
   14A      C1'  428   4.074   4.003   3.442 -0.4968 -0.0631 -0.9907
   14A      H1'  429   4.078   3.933   3.359  0.6728 -0.7692 -0.3553
   14A       N9  430   4.083   3.940   3.578 -0.2230  0.4309  0.1632
   14A       C8  431   4.187   3.954   3.668 -0.5101 -0.1623  0.6437
   14A       H8  432   4.256   4.036   3.669 -0.8089  0.0941  0.4175
   14A       N7  433   4.171   3.881   3.770  0.8283  0.2236  0.0360
   14A       C5  434   4.068   3.790   3.740 -0.0928  0.0433  0.3274
   14A       C6  435   4.001   3.675   3.794 -0.3080  0.2582 -0.1982
   14A       N6  436   4.026   3.616   3.907 -0.5051  0.3240 -0.0340
   14A      H61  437   3.978   3.530   3.930 -1.4555 -0.1317 -3.2901
   14A      H62  438   4.096   3.658   3.966 -0.9481 -0.8932  1.4292
   14A       N1  439   3.908   3.617   3.724  0.5119  0.2222 -0.1981
   14A       C2  440   3.869   3.667   3.614  0.0667 -0.2351 -0.0057
   14A       H2  441   3.793   3.606   3.568 -0.1089  0.3963 -0.5574
   14A       N3  442   3.911   3.774   3.550  0.1423 -0.2582 -0.8184
   14A       C4  443   4.010   3.833   3.621 -0.1042 -0.5752 -0.9478
   14A      C3'  444   3.995   4.228   3.480  0.6198  0.4007 -0.1243
   14A      H3'  445   3.988   4.234   3.588 -0.1581  0.0342 -0.1533
   14A      C2'  446   3.945   4.088   3.425 -0.4174 -0.0437 -0.4283
   14A      H2'  447   3.868   4.046   3.488  0.8727 -3.3674 -0.8947
   14A      O2'  448   3.907   4.100   3.287  0.0179  0.1967 -0.2391
   14A     HO2'  449   3.841   4.168   3.278 -0.1107 -0.0685 -1.5879
   14A      O3'  450   3.919   4.337   3.421 -0.8621  0.3138 -0.0661
   15C        P  451   3.769   4.373   3.465  0.3675  0.2558 -0.3564
   15C      OP1  452   3.747   4.519   3.435  0.2204 -0.5460 -0.0806
   15C      OP2  453   3.739   4.318   3.603 -0.1682 -0.4837  0.3101
   15C      O5'  454   3.676   4.290   3.359  0.3035  0.3121 -0.2959
   15C      C5'  455   3.563   4.352   3.295 -0.8934  0.8706 -0.7140
   15C      H5'  456   3.607   4.441   3.250  0.8553  1.4302  1.9220
   15C     H5''  457   3.499   4.393   3.373  1.7961  3.5027  0.2937
   15C      C4'  458   3.479   4.273   3.200 -0.5441  0.0227  0.0725
   15C      H4'  459   3.382   4.323   3.196 -0.0007  1.0110 -2.1365
   15C      O4'  460   3.539   4.269   3.070  0.0917  0.1969 -0.5699
   15C      C1'  461   3.539   4.132   3.032  0.0617  0.9326  0.3740
   15C      H1'  462   3.440   4.107   2.993  1.0121 -1.3503 -0.8071
   15C       N1  463   3.641   4.108   2.927 -0.8801  0.5923  0.2010
   15C       C6  464   3.767   4.060   2.958 -0.7753  0.3459  1.0227
   15C       H6  465   3.791   4.007   3.049  2.4230 -0.3884 -0.1090
   15C       C5  466   3.857   4.052   2.856  0.1024  0.1266 -0.2680
   15C       H5  467   3.955   4.015   2.881 -0.8382 -1.0073  2.1505
   15C       C4  468   3.836   4.125   2.741  0.4024  0.2652  0.9157
   15C       N4  469   3.925   4.122   2.648 -1.0464 -0.5220  0.1909
   15C      H41  470   4.014   4.088   2.680 -1.5568 -0.7205  1.4484
   15C      H42  471   3.899   4.161   2.558 -3.6401 -0.9830  0.6516
   15C       N3  472   3.722   4.169   2.704 -0.0319 -0.3922  0.0615
   15C       C2  473   3.622   4.150   2.796  1.8332 -0.9195  0.2812
   15C       O2  474   3.506   4.184   2.762 -0.0980  0.5610 -0.1635
   15C      C3'  475   3.447   4.130   3.252  0.0293  0.2266  0.1069
   15C      H3'  476   3.478   4.125   3.356  0.8253  1.5067 -0.0430
   15C      C2'  477   3.550   4.060   3.162  0.2429 -0.0405  0.0946
   15C      H2'  478   3.649   4.081   3.204 -0.5435  2.0548  1.0466
   15C      O2'  479   3.513   3.916   3.145 -0.1572 -0.3185  0.1119
   15C     HO2'  480   3.540   3.865   3.222  0.0527  0.5106  0.5977
   15C      O3'  481   3.311   4.091   3.230  0.6912 -0.3635 -0.2327
   16C        P  482   3.214   4.084   3.353  0.0270 -0.2557  0.0232
   16C      OP1  483   3.078   4.063   3.301 -0.1300  0.1403 -0.2510
   16C      OP2  484   3.240   4.209   3.431  0.5305 -0.2142  0.5695
   16C      O5'  485   3.266   3.960   3.436 -0.2691  0.0186  0.0929
   16C      C5'  486   3.229   3.827   3.404  1.2950  0.3551  0.3000
   16C      H5'  487   3.270   3.804   3.306  2.2522 -1.6473  1.1214
   16C     H5''  488   3.120   3.829   3.396  1.2175  0.1266  1.2106
   16C      C4'  489   3.263   3.723   3.508 -0.1039  0.0716 -0.1133
   16C      H4'  490   3.206   3.631   3.500  2.9029 -2.0336  1.0508
   16C      O4'  491   3.401   3.689   3.506 -0.0649 -0.1929 -0.0963
   16C      C1'  492   3.450   3.681   3.641 -0.1890 -0.6969  0.1489
   16C      H1'  493   3.497   3.584   3.657 -1.2626 -1.4528 -1.1510
   16C       N1  494   3.537   3.802   3.680  0.2665 -0.2927  0.7341
   16C       C6  495   3.538   3.918   3.605  0.2820 -0.2290 -0.8729
   16C       H6  496   3.480   3.936   3.516  1.2806  3.3456 -0.9499
   16C       C5  497   3.614   4.021   3.637  0.0378  0.4247 -0.1595
   16C       H5  498   3.608   4.112   3.579  0.4120  0.3333 -0.3451
   16C       C4  499   3.706   4.002   3.743 -0.0914  0.3179 -0.5307
   16C       N4  500   3.785   4.103   3.777  0.4065  0.4000  0.1121
   16C      H41  501   3.766   4.186   3.722  1.6396  0.4282 -0.2877
   16C      H42  502   3.851   4.092   3.853 -0.1049  1.8886  0.8200
   16C       N3  503   3.697   3.899   3.828 -0.0613 -0.3070  0.3527
   16C       C2  504   3.609   3.797   3.800  0.0209  0.0240  0.1346
   16C       O2  505   3.582   3.710   3.883  0.2797  0.7093  0.3327
   16C      C3'  506   3.230   3.773   3.650  0.2882  0.0978  0.3271
   16C      H3'  507   3.271   3.873   3.664 -0.1487  0.0048  2.5643
   16C      C2'  508   3.323   3.678   3.727 -0.0408  0.3896 -0.5320
   16C      H2'  509   3.343   3.718   3.827 -0.2681 -1.4207  0.2831
   16C      O2'  510   3.261   3.553   3.733  0.5180  0.3738 -0.5733
   16C     HO2'  511   3.321   3.496   3.782  0.3989  0.9424  0.2752
   16C      O3'  512   3.092   3.775   3.670  0.3614 -0.5335 -0.3763
   17C        P  513   3.033   3.851   3.787  0.3125  0.2383 -0.2671
   17C      OP1  514   2.888   3.808   3.790  0.3389 -0.3167 -0.0259
   17C      OP2  515   3.053   3.991   3.750 -0.4353 -0.3104 -0.6070
   17C      O5'  516   3.106   3.815   3.927  0.2083 -0.5515 -0.1700
   17C      C5'  517   3.082   3.687   3.985 -0.0109  0.2743 -0.1995
   17C      H5'  518   3.094   3.611   3.909 -1.7122  0.3339 -0.5532
   17C     H5''  519   2.980   3.687   4.024  0.0490  0.2147 -0.0404
   17C      C4'  520   3.173   3.668   4.109  0.3087  0.0910  0.6680
   17C      H4'  521   3.150   3.570   4.151 -2.4614  0.5191  0.3166
   17C      O4'  522   3.314   3.668   4.084 -0.6320  0.0800  0.2638
   17C      C1'  523   3.383   3.736   4.188  0.0533  0.3918 -0.4302
   17C      H1'  524   3.465   3.683   4.236 -0.9556  0.3434  1.3256
   17C       N1  525   3.436   3.868   4.144  0.2902 -0.1042  0.3185
   17C       C6  526   3.394   3.920   4.023 -0.2763 -0.0372 -0.9829
   17C       H6  527   3.321   3.874   3.958 -2.0126 -0.1576  0.9659
   17C       C5  528   3.452   4.029   3.987 -0.1638 -0.6692  0.1643
   17C       H5  529   3.416   4.077   3.897 -1.1268 -1.5994  0.0270
   17C       C4  530   3.550   4.095   4.067 -0.0911  0.1930  0.4233
   17C       N4  531   3.615   4.194   4.021  0.7682 -0.1083  0.6455
   17C      H41  532   3.584   4.232   3.933 -2.1335  1.1867  2.0826
   17C      H42  533   3.685   4.240   4.078 -0.1645  2.8749 -0.3894
   17C       N3  534   3.591   4.049   4.183  0.6289  0.3041  0.5471
   17C       C2  535   3.531   3.935   4.223 -0.0600  0.3027  0.2734
   17C       O2  536   3.558   3.891   4.338 -0.3401  0.1535 -0.0020
   17C      C3'  537   3.152   3.770   4.214  0.1042 -0.0342 -0.7257
   17C      H3'  538   3.152   3.871   4.173  0.6231  0.4224  0.3463
   17C      C2'  539   3.275   3.750   4.298 -0.0086  0.4995 -0.4445
   17C      H2'  540   3.301   3.831   4.366  1.1103  1.9709 -2.5219
   17C      O2'  541   3.266   3.626   4.372  0.6557  0.1271 -0.2219
   17C     HO2'  542   3.329   3.618   4.444  0.2986  0.8698  0.1788
   17C      O3'  543   3.028   3.758   4.291 -0.0853 -0.1063  0.4817
   18C        P  544   2.964   3.878   4.372 -0.5641  0.0133 -0.1981
   18C      OP1  545   2.829   3.833   4.416 -0.0519  0.1873 -0.2640
   18C      OP2  546   2.969   3.990   4.277 -0.3162 -0.2283  0.2830
   18C      O5'  547   3.050   3.905   4.501  0.2576 -0.5443  0.2648
   18C      C5'  548   3.069   3.813   4.601 -0.3921  0.3852  0.1349
   18C      H5'  549   3.109   3.717   4.568 -2.5819 -0.9783  1.2502
   18C     H5''  550   2.974   3.794   4.650  0.1598  0.8916  1.4341
   18C      C4'  551   3.169   3.872   4.705  0.4694 -0.2078 -0.2098
   18C      H4'  552   3.166   3.822   4.802 -0.0605  1.5839  0.7285
   18C      O4'  553   3.299   3.890   4.647  0.3961  0.0354  0.2791
   18C      C1'  554   3.369   4.012   4.687  0.4058 -0.0225  0.7082
   18C      H1'  555   3.466   3.975   4.719  1.2644 -0.6893 -2.3495
   18C       N1  556   3.390   4.116   4.573  0.2116  0.5514 -0.5090
   18C       C6  557   3.325   4.100   4.451 -0.2943 -0.5647 -0.5084
   18C       H6  558   3.253   4.021   4.438  0.3199 -1.5513  1.6694
   18C       C5  559   3.361   4.182   4.350  0.3300 -0.1566  0.3698
   18C       H5  560   3.324   4.168   4.250  1.6854 -0.2014 -0.1579
   18C       C4  561   3.461   4.281   4.375  0.4329 -0.2193 -0.0678
   18C       N4  562   3.475   4.372   4.280 -0.7533 -0.3091 -0.7300
   18C      H41  563   3.433   4.354   4.190  2.3691 -0.2197 -2.3282
   18C      H42  564   3.547   4.441   4.295 -0.0194 -1.1678 -0.1256
   18C       N3  565   3.521   4.299   4.489 -0.5462  0.2236  0.0699
   18C       C2  566   3.482   4.219   4.598  0.1870 -0.0990  0.1241
   18C       O2  567   3.538   4.238   4.702 -0.7285 -0.2424  0.0493
   18C      C3'  568   3.146   4.015   4.752 -0.3046 -0.3124 -0.4157
   18C      H3'  569   3.119   4.080   4.669 -2.8565  0.2727  0.7675
   18C      C2'  570   3.285   4.065   4.806  0.3509  0.2150  0.3019
   18C      H2'  571   3.295   4.173   4.808  0.6534  0.1850  0.4387
   18C      O2'  572   3.336   3.996   4.919  0.4038 -0.2994  0.3084
   18C     HO2'  573   3.347   4.057   4.992  1.2400  0.9233 -0.8023
   18C      O3'  574   3.048   4.026   4.850 -0.1329  0.4755  0.5883
   19A        P  575   2.970   4.161   4.858 -0.5846 -0.5052  0.1668
   19A      OP1  576   2.866   4.145   4.965  0.1103  0.3554  0.0536
   19A      OP2  577   2.937   4.202   4.718 -0.1390 -0.0892  0.6152
   19A      O5'  578   3.070   4.273   4.902  0.0009  0.0858  0.0707
   19A      C5'  579   3.096   4.294   5.040 -0.1955 -0.6350 -0.0426
   19A      H5'  580   3.120   4.201   5.091  0.7713 -0.8127 -0.8009
   19A     H5''  581   3.012   4.336   5.095 -0.6215  0.7741 -1.6670
   19A      C4'  582   3.222   4.382   5.067 -0.0991 -0.0619 -0.2308
   19A      H4'  583   3.254   4.356   5.168  0.2347 -0.6743 -0.4878
   19A      O4'  584   3.325   4.350   4.964 -0.1842  0.6695 -0.1470
   19A      C1'  585   3.404   4.463   4.929 -0.7116  1.2958 -0.5006
   19A      H1'  586   3.512   4.451   4.928 -0.9718 -1.6536 -1.3957
   19A       N9  587   3.366   4.504   4.793 -0.1686 -0.1786  0.2955
   19A       C8  588   3.277   4.444   4.705 -0.2368 -0.9171 -0.0134
   19A       H8  589   3.202   4.370   4.730 -1.8809  0.9872  1.0202
   19A       N7  590   3.283   4.489   4.584  0.8884  0.0542  0.7616
   19A       C5  591   3.385   4.585   4.590 -0.1628 -0.1472 -0.1279
   19A       C6  592   3.436   4.682   4.494  0.1721 -0.4414 -0.4145
   19A       N6  593   3.391   4.696   4.374 -0.0982  0.4826  0.0055
   19A      H61  594   3.443   4.763   4.319  1.4016 -0.8065 -0.2057
   19A      H62  595   3.331   4.624   4.336  3.1715 -3.1158  1.0189
   19A       N1  596   3.522   4.779   4.535  0.6706 -0.3097 -0.2112
   19A       C2  597   3.562   4.780   4.664  0.1905  0.1818  0.5643
   19A       H2  598   3.629   4.856   4.703  0.1188 -0.5153  2.1132
   19A       N3  599   3.513   4.703   4.762 -0.2748 -0.1600  0.0394
   19A       C4  600   3.427   4.606   4.722  0.2727 -0.0195  0.4633
   19A      C3'  601   3.213   4.533   5.062  0.2411 -0.3001 -0.2581
   19A      H3'  602   3.153   4.561   4.975  1.4356 -2.3532 -1.8214
   19A      C2'  603   3.358   4.568   5.032  0.3457 -0.0494 -0.5460
   19A      H2'  604   3.381   4.669   4.998  1.3331  0.2150  0.8410
   19A      O2'  605   3.438   4.545   5.145 -0.2913  0.8503 -0.2328
   19A     HO2'  606   3.523   4.582   5.121  1.3363 -0.5222  2.8822
   19A      O3'  607   3.171   4.576   5.193  0.2704 -0.4794 -0.2041
   20G        P  608   3.104   4.719   5.210  0.2618  0.1770  0.4165
   20G      OP1  609   3.059   4.732   5.350  0.4167 -0.1770  0.2952
   20G      OP2  610   3.007   4.737   5.095 -0.4377 -0.3509 -0.0473
   20G      O5'  611   3.209   4.838   5.185 -1.0102 -0.8275  0.3819
   20G      C5'  612   3.320   4.864   5.271  0.6250  0.6519 -0.7144
   20G      H5'  613   3.372   4.771   5.298 -0.6136  0.3577  0.7782
   20G     H5''  614   3.275   4.899   5.364 -1.3401  0.3003 -1.4936
   20G      C4'  615   3.409   4.970   5.213  0.2566  0.7543  1.0278
   20G      H4'  616   3.503   4.976   5.269  0.8508 -1.8488  0.4312
   20G      O4'  617   3.445   4.931   5.079 -0.2508  0.5044 -0.2840
   20G      C1'  618   3.399   5.028   4.991  0.1259 -0.2163 -0.5382
   20G      H1'  619   3.480   5.099   4.976  2.1732 -2.0689  0.9746
   20G       N9  620   3.346   4.972   4.859 -0.0382  0.1301 -0.4393
   20G       C8  621   3.251   4.871   4.848 -0.1411 -0.0488  0.2096
   20G       H8  622   3.222   4.798   4.921 -0.8143  1.0501  1.0702
   20G       N7  623   3.213   4.863   4.721 -0.3759 -0.0848  0.0997
   20G       C5  624   3.270   4.971   4.650  1.3933 -0.0507  0.3770
   20G       C6  625   3.249   5.007   4.512 -0.0586  0.1176 -0.2755
   20G       O6  626   3.173   4.957   4.433  0.2550  0.3076  0.4330
   20G       N1  627   3.319   5.119   4.477 -0.0426 -0.3372 -0.5095
   20G       H1  628   3.326   5.158   4.384 -1.1444  0.2094 -0.3720
   20G       C2  629   3.393   5.188   4.567 -0.0094 -0.3284 -0.4351
   20G       N2  630   3.457   5.295   4.527  0.0454  0.4427  0.4297
   20G      H21  631   3.452   5.323   4.430  0.5290 -0.7376  0.0489
   20G      H22  632   3.502   5.366   4.584 -0.1134  0.1243  0.9515
   20G       N3  633   3.409   5.161   4.698  0.5382  0.2759  0.3503
   20G       C4  634   3.345   5.043   4.735 -0.6623  0.7533  0.2861
   20G      C3'  635   3.343   5.106   5.203  0.7496 -1.2022 -0.5112
   20G      H3'  636   3.264   5.123   5.276  0.2673  0.1347 -1.2915
   20G      C2'  637   3.287   5.104   5.065 -0.1941 -0.1531 -0.3905
   20G      H2'  638   3.194   5.046   5.070  0.0952 -0.5093  1.7759
   20G      O2'  639   3.264   5.234   5.011  0.2557 -0.4848  0.0863
   20G     HO2'  640   3.341   5.280   5.045  0.4921 -1.9006  1.5868
   20G      O3'  641   3.439   5.202   5.206 -0.5924  0.1727 -0.3266
   21U        P  642   3.476   5.271   5.343  0.1236 -0.0177  0.1202
   21U      OP1  643   3.448   5.184   5.460  0.1140  0.2066 -0.4290
   21U      OP2  644   3.414   5.408   5.337 -0.0178  0.1343 -0.2188
   21U      O5'  645   3.629   5.302   5.327  0.5716 -0.1356  0.4937
   21U      C5'  646   3.739   5.209   5.340 -0.3837  0.2995 -0.8058
   21U      H5'  647   3.725   5.117   5.283 -0.8967  0.0463 -0.2867
   21U     H5''  648   3.740   5.182   5.446  0.4550 -1.8404 -1.3062
   21U      C4'  649   3.872   5.275   5.307  0.4160  0.6862  0.5586
   21U      H4'  650   3.954   5.213   5.342  0.9161  1.0937  0.1295
   21U      O4'  651   3.881   5.298   5.168 -1.1030 -0.3293  0.4227
   21U      C1'  652   3.872   5.432   5.127 -1.0628 -0.3386 -0.8890
   21U      H1'  653   3.969   5.470   5.095 -0.6763  0.8493  1.5110
   21U       N1  654   3.784   5.459   5.014 -0.3940  0.0004  0.5731
   21U       C6  655   3.656   5.411   5.006  0.1791 -0.3982  0.0868
   21U       H6  656   3.618   5.356   5.091 -0.1506 -0.1636  0.0934
   21U       C5  657   3.575   5.431   4.892 -0.8547  0.1340 -0.0634
   21U       H5  658   3.474   5.394   4.881 -0.3986 -1.0588 -0.3861
   21U       C4  659   3.621   5.511   4.784 -0.0719  0.1530 -0.0647
   21U       O4  660   3.557   5.526   4.679  0.0407  0.3916 -0.2881
   21U       N3  661   3.747   5.562   4.807 -0.0070  0.4696  0.5430
   21U       H3  662   3.782   5.616   4.729 -0.0089 -0.8892 -0.4380
   21U       C2  663   3.830   5.542   4.917 -0.1107 -0.5631 -0.2931
   21U       O2  664   3.925   5.617   4.933 -0.0287 -0.0142  0.0041
   21U      C3'  665   3.892   5.409   5.371 -0.1866 -0.2827 -0.4472
   21U      H3'  666   3.830   5.411   5.461  0.0175  1.0982 -0.3210
   21U      C2'  667   3.840   5.503   5.259 -0.8469 -0.0641 -0.0528
   21U      H2'  668   3.731   5.499   5.269 -0.7810 -2.7908  0.3419
   21U      O2'  669   3.898   5.631   5.271  0.1140  0.0587  0.4115
   21U     HO2'  670   3.866   5.664   5.354  3.7601  3.3928  0.7764
   21U      O3'  671   4.030   5.441   5.400  0.8933  0.5758 -0.0403
   22U        P  672   4.072   5.463   5.542 -0.1576  0.2136 -0.1658
   22U      OP1  673   3.976   5.555   5.613  0.2011 -0.1319  0.2303
   22U      OP2  674   4.213   5.499   5.560 -0.2858 -0.3266 -0.0336
   22U      O5'  675   4.049   5.326   5.614  0.1884 -1.1774 -0.2465
   22U      C5'  676   4.143   5.221   5.603  0.4639  0.0948  0.2402
   22U      H5'  677   4.238   5.267   5.627  0.4793 -0.6503  1.7678
   22U     H5''  678   4.160   5.187   5.501 -1.3925 -2.3505  0.6394
   22U      C4'  679   4.116   5.092   5.683  0.2625 -0.5686 -0.2149
   22U      H4'  680   4.199   5.024   5.664  0.5765  0.5129 -3.3762
   22U      O4'  681   4.099   5.119   5.826  0.1466  0.3231 -0.0974
   22U      C1'  682   3.963   5.084   5.854 -0.0476 -0.7941 -0.8255
   22U      H1'  683   3.969   4.982   5.890 -0.3433 -0.3351  0.6041
   22U       N1  684   3.916   5.188   5.952  0.0164 -0.1818 -0.1067
   22U       C6  685   3.906   5.322   5.916 -0.1937  0.5851  0.1994
   22U       H6  686   3.940   5.346   5.816 -2.0922  1.7789 -0.2205
   22U       C5  687   3.867   5.423   5.997  0.7704  0.2767  0.7487
   22U       H5  688   3.872   5.525   5.965  0.8320  0.2625  0.7113
   22U       C4  689   3.835   5.390   6.135 -0.4210 -0.4506  0.2122
   22U       O4  690   3.814   5.470   6.219 -0.6668 -0.1331  0.5903
   22U       N3  691   3.843   5.255   6.162 -0.4074 -0.3978  0.8643
   22U       H3  692   3.840   5.229   6.260  0.5829 -1.1171  0.7190
   22U       C2  693   3.883   5.152   6.081 -0.2133  0.1294 -0.2235
   22U       O2  694   3.878   5.032   6.112 -0.0219 -0.5155 -0.6236
   22U      C3'  695   3.986   5.027   5.631  0.1579  0.4614 -0.2979
   22U      H3'  696   3.962   5.040   5.525  3.0455 -0.9026 -1.2098
   22U      C2'  697   3.883   5.086   5.723  0.4872  0.4031 -0.5910
   22U      H2'  698   3.866   5.189   5.693 -0.4801  0.7389  1.0171
   22U      O2'  699   3.762   5.008   5.737 -0.4170  0.0311  0.1261
   22U     HO2'  700   3.707   5.004   5.658 -0.5218 -0.0573  0.2045
   22U      O3'  701   3.990   4.882   5.648 -0.1661 -0.3923 -0.3440
   23A        P  702   4.054   4.785   5.542  0.5819 -0.4083 -0.2173
   23A      OP1  703   4.057   4.651   5.609  0.2487 -0.4338  0.5442
   23A      OP2  704   4.180   4.835   5.487 -0.9258 -0.1447  0.1508
   23A      O5'  705   3.951   4.782   5.413 -0.0441 -0.5581 -0.2348
   23A      C5'  706   3.813   4.734   5.419 -0.3166 -0.4404 -0.2031
   23A      H5'  707   3.760   4.795   5.492  1.2250 -0.5152  1.0362
   23A     H5''  708   3.804   4.633   5.460 -0.6397 -0.0344  0.7706
   23A      C4'  709   3.736   4.741   5.291 -0.3173  0.0677 -0.0522
   23A      H4'  710   3.633   4.709   5.301 -0.5794  0.0541 -2.3062
   23A      O4'  711   3.735   4.877   5.238  0.1787 -0.5114 -0.6746
   23A      C1'  712   3.759   4.859   5.100  0.2474 -0.4707  0.1578
   23A      H1'  713   3.680   4.904   5.041  0.5357 -1.4714 -1.0284
   23A       N9  714   3.880   4.930   5.061  0.4239 -0.1224 -0.1346
   23A       C8  715   3.998   4.927   5.122 -0.6847  0.3163  0.1603
   23A       H8  716   4.035   4.857   5.195 -0.6578  0.9146  0.7303
   23A       N7  717   4.082   5.020   5.078 -0.2464  0.6795  0.0443
   23A       C5  718   4.003   5.090   4.984 -0.1040  0.5457 -0.0189
   23A       C6  719   4.025   5.205   4.901  0.5864 -0.6980 -0.6675
   23A       N6  720   4.136   5.281   4.891 -0.3341 -0.3869 -0.2363
   23A      H61  721   4.143   5.373   4.849 -1.1432 -0.5022 -0.6405
   23A      H62  722   4.213   5.241   4.942 -0.9924 -0.5642  0.6435
   23A       N1  723   3.930   5.241   4.813 -0.4064 -0.0469 -0.5875
   23A       C2  724   3.810   5.182   4.816 -0.0654 -0.0925  0.1948
   23A       H2  725   3.736   5.218   4.746  0.4922  1.0247  0.1572
   23A       N3  726   3.777   5.078   4.891 -0.2063 -0.2561  0.1400
   23A       C4  727   3.881   5.037   4.975  0.3157  0.2328  0.0069
   23A      C3'  728   3.799   4.653   5.181  0.3385  0.2984 -1.0323
   23A      H3'  729   3.906   4.646   5.195  0.2197 -2.0462 -0.9102
   23A      C2'  730   3.763   4.709   5.051  0.4780 -0.0565 -0.5563
   23A      H2'  731   3.839   4.688   4.977  1.3706 -3.4762  1.1400
   23A      O2'  732   3.635   4.671   5.008  0.5811  0.2646  0.1510
   23A     HO2'  733   3.612   4.698   4.918 -0.0119 -2.2460 -0.5330
   23A      O3'  734   3.747   4.522   5.190 -0.6004  0.3456  1.4836
   24A        P  735   3.834   4.399   5.144  0.2313 -0.0556  0.2577
   24A      OP1  736   3.980   4.421   5.178  0.3104 -0.2593 -0.5450
   24A      OP2  737   3.813   4.351   5.007 -0.4193  0.4621  0.0000
   24A      O5'  738   3.785   4.286   5.243 -0.1464  0.2862 -0.6295
   24A      C5'  739   3.816   4.302   5.380 -0.4703 -0.0244 -0.1122
   24A      H5'  740   3.797   4.405   5.412  0.4824  0.4032 -0.8917
   24A     H5''  741   3.924   4.290   5.385 -0.2343  0.6804 -2.4283
   24A      C4'  742   3.746   4.208   5.476 -0.3598 -0.0098  0.5237
   24A      H4'  743   3.781   4.232   5.576  0.5591  0.3549  0.1204
   24A      O4'  744   3.602   4.230   5.465 -0.4739 -0.0711  0.1731
   24A      C1'  745   3.539   4.107   5.488  0.0067  0.0841 -0.0543
   24A      H1'  746   3.476   4.111   5.577  0.5900  0.7299  0.3454
   24A       N9  747   3.458   4.070   5.370 -0.0847  0.0896  0.3020
   24A       C8  748   3.450   4.134   5.252  0.2398 -0.5931  0.7138
   24A       H8  749   3.521   4.211   5.225  0.4680 -0.3129  2.0452
   24A       N7  750   3.360   4.084   5.173  0.1047  0.1318 -0.3469
   24A       C5  751   3.294   3.989   5.250  0.1443 -0.3175 -1.0536
   24A       C6  752   3.186   3.903   5.243  0.2455 -1.3492  0.1717
   24A       N6  753   3.105   3.899   5.142  0.5593  0.7395  0.6401
   24A      H61  754   3.023   3.841   5.149 -1.1245  2.9396  0.0754
   24A      H62  755   3.123   3.960   5.064  1.2321 -1.2964 -0.8933
   24A       N1  756   3.141   3.830   5.345  0.7969  0.3871 -0.3292
   24A       C2  757   3.204   3.839   5.461  0.0654 -0.0974 -0.3092
   24A       H2  758   3.164   3.778   5.541 -0.4037 -2.0050 -1.9099
   24A       N3  759   3.314   3.912   5.486 -0.1406 -0.4103 -0.6362
   24A       C4  760   3.352   3.982   5.376 -0.1342 -0.0388  0.0122
   24A      C3'  761   3.757   4.061   5.455 -0.4783  0.1113 -0.4644
   24A      H3'  762   3.754   4.041   5.347  1.3627 -2.7002 -0.1304
   24A      C2'  763   3.639   3.996   5.520 -0.3703 -0.8792 -0.0252
   24A      H2'  764   3.615   3.900   5.475 -1.1206 -0.5125 -0.4309
   24A      O2'  765   3.669   3.998   5.659  0.5017  0.0546  0.0245
   24A     HO2'  766   3.762   3.979   5.678  0.5102  1.3924  1.6357
   24A      O3'  767   3.889   4.020   5.500  0.8496  0.6457 -0.1972
   25C        P  768   3.966   3.907   5.426  0.0368 -0.1584 -0.4230
   25C      OP1  769   4.096   3.903   5.496  0.5590 -0.4341 -0.7003
   25C      OP2  770   3.966   3.938   5.284 -0.1035 -0.5402  0.2640
   25C      O5'  771   3.884   3.771   5.447 -0.4180  0.2647 -0.1525
   25C      C5'  772   3.871   3.710   5.570  0.2050  0.4556 -0.5326
   25C      H5'  773   3.830   3.782   5.641 -2.1315 -2.1635  1.0117
   25C     H5''  774   3.968   3.673   5.603  0.2240 -0.0504 -1.1442
   25C      C4'  775   3.758   3.594   5.570 -0.3743 -0.1189  0.7281
   25C      H4'  776   3.765   3.537   5.662  0.6900 -2.7965 -0.8988
   25C      O4'  777   3.627   3.644   5.551 -0.9328  0.0692  0.6396
   25C      C1'  778   3.548   3.555   5.478  0.6796  0.1970  0.6359
   25C      H1'  779   3.458   3.541   5.538  0.0161  1.9045  0.1003
   25C       N1  780   3.504   3.612   5.344  0.3698  0.1136 -0.0618
   25C       C6  781   3.581   3.701   5.272  0.3552 -0.4192 -0.1934
   25C       H6  782   3.670   3.747   5.312 -0.3352 -0.7087  1.7753
   25C       C5  783   3.530   3.743   5.152 -0.6521 -0.0638  0.0924
   25C       H5  784   3.582   3.810   5.084 -2.2358 -0.4588 -1.5842
   25C       C4  785   3.412   3.681   5.104 -0.6974 -0.2509  0.1406
   25C       N4  786   3.353   3.717   4.994  0.7453 -0.0289 -0.1293
   25C      H41  787   3.387   3.796   4.940 -1.8583  0.8556 -0.6185
   25C      H42  788   3.261   3.681   4.973  0.8301  0.2876 -1.0937
   25C       N3  789   3.342   3.594   5.172  0.0380 -0.3491  0.3768
   25C       C2  790   3.388   3.558   5.293  0.2052  0.3913  0.9164
   25C       O2  791   3.339   3.449   5.338  0.0531  0.4748 -0.1985
   25C      C3'  792   3.776   3.492   5.456  0.1472 -0.4299 -0.9361
   25C      H3'  793   3.794   3.538   5.359  1.1363 -4.1754 -2.7460
   25C      C2'  794   3.637   3.426   5.464 -0.4699  0.0553 -0.0264
   25C      H2'  795   3.617   3.366   5.376  4.9562 -1.8214 -0.3449
   25C      O2'  796   3.629   3.345   5.586  0.4897  0.0752  0.1772
   25C     HO2'  797   3.705   3.289   5.603 -0.7028 -1.2956  1.2160
   25C      O3'  798   3.877   3.398   5.482  0.8047 -0.9428 -0.0783
   26A        P  799   3.944   3.313   5.375 -0.5014 -0.5848  0.1510
   26A      OP1  800   4.019   3.214   5.447 -0.6450 -0.0924 -0.6673
   26A      OP2  801   4.007   3.402   5.278 -0.8271 -0.5853 -1.0173
   26A      O5'  802   3.817   3.248   5.306  0.0852 -0.4449 -0.5539
   26A      C5'  803   3.803   3.210   5.171  0.4035  0.0228 -0.5563
   26A      H5'  804   3.865   3.124   5.147 -1.0366 -1.0402 -0.5792
   26A     H5''  805   3.844   3.286   5.104  1.8763 -1.2711 -1.1842
   26A      C4'  806   3.655   3.205   5.156  0.1519  0.6563 -0.1706
   26A      H4'  807   3.613   3.146   5.238  1.4953 -1.5310 -0.9622
   26A      O4'  808   3.590   3.333   5.144 -0.2403 -0.5253 -0.1805
   26A      C1'  809   3.506   3.330   5.029 -0.5332 -0.8168  0.0517
   26A      H1'  810   3.411   3.378   5.050 -0.8994 -0.6471 -1.8455
   26A       N9  811   3.573   3.416   4.934 -0.4933  0.1095  0.1052
   26A       C8  812   3.673   3.509   4.966 -0.2224  0.0128  0.6291
   26A       H8  813   3.733   3.495   5.055  0.6104 -3.7401 -0.3198
   26A       N7  814   3.690   3.601   4.876  0.4884 -0.5204  0.9494
   26A       C5  815   3.583   3.577   4.787 -0.7659  0.5223  0.6125
   26A       C6  816   3.533   3.644   4.669  0.0820 -0.3843 -0.1468
   26A       N6  817   3.598   3.742   4.601 -0.0294  0.7258  0.8952
   26A      H61  818   3.555   3.777   4.516  0.4390 -0.6064  0.0793
   26A      H62  819   3.682   3.788   4.635  0.7492  2.4583 -2.7703
   26A       N1  820   3.429   3.599   4.605  0.1030 -0.3726 -0.2959
   26A       C2  821   3.367   3.498   4.663  0.1585  0.1567  0.1706
   26A       H2  822   3.270   3.474   4.622  0.9867 -0.1616 -1.6881
   26A       N3  823   3.395   3.425   4.772  0.3417 -0.7692  0.7710
   26A       C4  824   3.510   3.469   4.825  0.1262 -0.1462 -0.2051
   26A      C3'  825   3.626   3.135   5.020  0.1764 -0.8551  0.6888
   26A      H3'  826   3.694   3.157   4.938 -1.8361 -0.1942 -0.9076
   26A      C2'  827   3.483   3.181   4.990  0.8124 -0.8311 -0.8340
   26A      H2'  828   3.450   3.168   4.887 -0.9509 -1.8020 -0.1857
   26A      O2'  829   3.382   3.125   5.062 -0.4943  0.0034  0.1974
   26A     HO2'  830   3.421   3.083   5.139 -0.3284 -1.8002 -0.8166
   26A      O3'  831   3.622   2.999   5.053  0.1222 -0.0941 -0.0122
   27A        P  832   3.675   2.883   4.956  0.3315 -0.3295  0.3128
   27A      OP1  833   3.638   2.757   5.016 -0.3677 -0.7384 -0.1315
   27A      OP2  834   3.814   2.909   4.929 -0.2020  0.4528  0.1333
   27A      O5'  835   3.595   2.911   4.826  0.3242 -0.1568  0.5210
   27A      C5'  836   3.457   2.883   4.816 -0.1038  0.3197 -0.0017
   27A      H5'  837   3.401   2.918   4.902  2.3045 -0.7547  2.1425
   27A     H5''  838   3.445   2.775   4.820 -2.6730  0.5460  0.3210
   27A      C4'  839   3.400   2.933   4.681 -0.9893  0.2391 -0.2022
   27A      H4'  840   3.298   2.899   4.663 -0.5467 -1.2813  0.0012
   27A      O4'  841   3.406   3.072   4.668 -0.1486  0.0788  0.6128
   27A      C1'  842   3.421   3.106   4.527 -0.0998  0.1613 -0.4299
   27A      H1'  843   3.343   3.171   4.489  0.0331  0.3426 -0.3965
   27A       N9  844   3.550   3.178   4.513 -0.1189 -0.6185 -0.5680
   27A       C8  845   3.656   3.195   4.600 -0.3752  0.4655  0.4252
   27A       H8  846   3.662   3.125   4.683  0.2957  0.0618  0.0515
   27A       N7  847   3.745   3.281   4.572  0.0652 -0.1964 -0.2437
   27A       C5  848   3.694   3.345   4.462  0.6469  0.0977 -0.2637
   27A       C6  849   3.727   3.465   4.398  0.4182 -0.1800 -0.3001
   27A       N6  850   3.832   3.532   4.431 -0.2830  0.5131  0.8625
   27A      H61  851   3.837   3.623   4.388 -0.0458  0.1203  0.0232
   27A      H62  852   3.905   3.494   4.491 -1.7510 -0.0521  2.3750
   27A       N1  853   3.647   3.505   4.301 -0.0010 -0.1716  0.5595
   27A       C2  854   3.536   3.431   4.269  0.0387 -0.6201  0.5700
   27A       H2  855   3.474   3.477   4.194 -0.1357  0.3642  1.2998
   27A       N3  856   3.482   3.328   4.330  0.0040 -0.5967 -0.0752
   27A       C4  857   3.569   3.282   4.427 -0.2878 -0.8925 -0.4589
   27A      C3'  858   3.478   2.884   4.561  0.4052  0.2027 -0.0231
   27A      H3'  859   3.585   2.899   4.576  0.5320  1.3514 -1.7761
   27A      C2'  860   3.437   2.974   4.449  0.4700 -0.5478 -0.3088
   27A      H2'  861   3.518   2.989   4.377  0.8013  0.0686  0.1798
   27A      O2'  862   3.302   2.945   4.403 -0.1319 -0.2490  0.2935
   27A     HO2'  863   3.261   2.885   4.465 -1.1218 -0.8631 -0.9182
   27A      O3'  864   3.441   2.750   4.535  0.0365  0.4383  0.4882
   28A        P  865   3.526   2.665   4.435 -0.1218  0.4286  0.2683
   28A      OP1  866   3.490   2.523   4.460 -0.5245  0.4607 -0.4192
   28A      OP2  867   3.666   2.703   4.457 -0.2414  0.1904 -0.7348
   28A      O5'  868   3.486   2.693   4.285 -0.3046 -0.0233  0.1627
   28A      C5'  869   3.350   2.662   4.243  0.4046 -0.2400 -0.3920
   28A      H5'  870   3.278   2.720   4.300  0.6140 -1.0159  0.6919
   28A     H5''  871   3.336   2.557   4.267 -3.2082  0.1736 -0.1990
   28A      C4'  872   3.323   2.683   4.090 -0.5328 -0.6133  0.0958
   28A      H4'  873   3.227   2.632   4.079 -1.0332  0.0775  1.1192
   28A      O4'  874   3.325   2.820   4.059  0.1845 -0.1852  0.2597
   28A      C1'  875   3.443   2.849   3.975  0.9980 -0.0202 -0.2912
   28A      H1'  876   3.427   2.832   3.868 -0.2970 -0.7253 -0.0124
   28A       N9  877   3.505   2.987   3.991 -0.0207 -0.9103 -0.2424
   28A       C8  878   3.625   3.019   4.047  0.1311 -0.1345  0.4619
   28A       H8  879   3.700   2.948   4.077  2.3283  1.1501 -1.6062
   28A       N7  880   3.655   3.147   4.049  0.5475  0.3094 -0.0017
   28A       C5  881   3.553   3.205   3.975  0.6272  0.2029 -0.2610
   28A       C6  882   3.523   3.335   3.933 -0.6644 -0.3953 -0.0327
   28A       N6  883   3.602   3.437   3.951  0.2162 -0.4408 -0.3900
   28A      H61  884   3.584   3.531   3.917  1.5763 -0.1250 -0.2883
   28A      H62  885   3.698   3.419   3.976  0.3755  0.5153 -0.2499
   28A       N1  886   3.407   3.358   3.867  0.0518 -0.0063  0.1810
   28A       C2  887   3.330   3.252   3.846 -0.1241 -0.9028  0.7869
   28A       H2  888   3.244   3.272   3.784  0.6749 -3.4131 -1.3257
   28A       N3  889   3.347   3.126   3.872  0.4667  0.0373  0.3082
   28A       C4  890   3.462   3.105   3.937  0.4374 -0.1452 -0.2209
   28A      C3'  891   3.435   2.624   4.007  0.5059  0.4344  0.2261
   28A      H3'  892   3.474   2.531   4.049  0.5929 -0.1328 -1.0441
   28A      C2'  893   3.542   2.736   3.999  0.1041  0.0344 -0.1040
   28A      H2'  894   3.591   2.759   4.093  0.2014 -3.6896  0.8964
   28A      O2'  895   3.642   2.724   3.899  0.4587  0.1398 -0.1534
   28A     HO2'  896   3.733   2.705   3.924  1.0223  1.4012 -1.1873
   28A      O3'  897   3.386   2.602   3.874  0.0292  0.1776 -0.4983
   29A        P  898   3.418   2.467   3.799  0.2415 -0.2310  0.2922
   29A      OP1  899   3.302   2.380   3.839  0.2710  0.3748  0.0517
   29A      OP2  900   3.557   2.425   3.820  0.6502 -0.7008  0.1732
   29A      O5'  901   3.397   2.495   3.645  0.3020 -0.0111 -0.1248
   29A      C5'  902   3.483   2.586   3.577 -0.9967 -0.4927  1.3282
   29A      H5'  903   3.514   2.523   3.493 -2.4943 -0.9167  1.0637
   29A     H5''  904   3.564   2.623   3.640 -0.5359  1.9404 -0.5392
   29A      C4'  905   3.418   2.717   3.529  0.4791  0.3067  0.3945
   29A      H4'  906   3.321   2.687   3.490  0.6018 -0.1595  0.4370
   29A      O4'  907   3.395   2.810   3.632 -0.0613 -0.6391  0.5084
   29A      C1'  908   3.412   2.937   3.560 -0.1034  0.7058  0.1539
   29A      H1'  909   3.322   2.998   3.569 -0.2806  0.5733 -0.6790
   29A       N9  910   3.530   3.002   3.620  0.5104  0.8056  0.3318
   29A       C8  911   3.642   2.941   3.674  0.4223 -0.4796 -0.2335
   29A       H8  912   3.642   2.835   3.690 -0.3074 -0.5506 -0.6610
   29A       N7  913   3.738   3.023   3.711 -1.0148  0.1802 -0.2365
   29A       C5  914   3.686   3.149   3.668  0.5208  0.0963 -0.1796
   29A       C6  915   3.729   3.284   3.671 -0.6465 -0.7831  0.4130
   29A       N6  916   3.843   3.333   3.712  0.4129 -0.3600 -0.0256
   29A      H61  917   3.854   3.433   3.712 -1.7941  0.0031 -2.2599
   29A      H62  918   3.907   3.276   3.766  0.8711 -0.2408 -0.4417
   29A       N1  919   3.653   3.382   3.615 -0.0685  0.5278 -0.0721
   29A       C2  920   3.542   3.346   3.549 -0.0910 -0.7794 -0.7250
   29A       H2  921   3.491   3.435   3.516  1.1517  0.7608  1.2952
   29A       N3  922   3.484   3.230   3.552  0.4391 -0.1502 -0.0636
   29A       C4  923   3.561   3.136   3.614 -0.2578  0.2926 -0.6783
   29A      C3'  924   3.502   2.770   3.409 -0.9747 -0.0380  0.0390
   29A      H3'  925   3.604   2.779   3.447 -0.6283 -1.4968 -0.4829
   29A      C2'  926   3.435   2.906   3.409  0.1557  0.1135 -0.2103
   29A      H2'  927   3.502   2.985   3.375 -0.4700  1.0369  0.6279
   29A      O2'  928   3.315   2.919   3.339 -0.4339 -0.4557  0.4390
   29A     HO2'  929   3.330   2.861   3.264 -1.7640 -1.7325  1.1189
   29A      O3'  930   3.487   2.702   3.288 -0.5061 -0.7778  0.0397
   30C        P  931   3.611   2.683   3.187  0.5886 -0.2906  0.5649
   30C      OP1  932   3.578   2.592   3.077  0.0660  0.0087  0.0293
   30C      OP2  933   3.732   2.658   3.261 -0.2267 -0.0376 -0.0500
   30C      O5'  934   3.617   2.838   3.136 -0.4883  0.2652 -0.2457
   30C      C5'  935   3.514   2.889   3.049 -0.8128 -0.0676 -0.1210
   30C      H5'  936   3.412   2.870   3.083 -0.2426 -2.1194  0.5475
   30C     H5''  937   3.520   2.838   2.953 -0.3382 -0.4472  0.1118
   30C      C4'  938   3.536   3.037   3.023 -0.3628  0.1249  0.4111
   30C      H4'  939   3.458   3.081   2.961  1.3041  1.5263 -0.8239
   30C      O4'  940   3.545   3.120   3.142 -0.2060 -0.1033  0.0135
   30C      C1'  941   3.658   3.213   3.138  0.2709  0.0836 -0.5770
   30C      H1'  942   3.619   3.311   3.166  0.9286 -0.8018  4.2480
   30C       N1  943   3.762   3.186   3.242  0.5521  0.2867 -0.7451
   30C       C6  944   3.781   3.063   3.301  0.4779 -0.1258  0.6792
   30C       H6  945   3.712   2.983   3.279 -1.6001  1.1667  2.1515
   30C       C5  946   3.865   3.057   3.405  0.0074 -0.2142 -0.1542
   30C       H5  947   3.871   2.966   3.463  1.9430  0.2550  0.4360
   30C       C4  948   3.949   3.163   3.431 -0.0833  0.3565 -0.5690
   30C       N4  949   4.038   3.147   3.522  0.0082 -0.8568 -0.3483
   30C      H41  950   4.034   3.070   3.588 -0.2152  0.5223  1.3368
   30C      H42  951   4.067   3.234   3.565 -0.4194 -0.6586 -0.4622
   30C       N3  952   3.939   3.281   3.372 -0.7774  0.2587  0.1701
   30C       C2  953   3.845   3.298   3.279  0.3335  0.7218  0.2222
   30C       O2  954   3.823   3.414   3.240 -0.1498 -0.0448 -0.5436
   30C      C3'  955   3.667   3.059   2.952  0.0357 -0.2976 -0.4113
   30C      H3'  956   3.743   2.996   2.999  0.1145  0.0872 -0.0197
   30C      C2'  957   3.708   3.202   2.991 -0.0345  0.1086 -0.2460
   30C      H2'  958   3.815   3.216   2.976 -0.2804  0.6641 -1.5731
   30C      O2'  959   3.628   3.301   2.927  0.3157  0.9391  0.0334
   30C     HO2'  960   3.610   3.260   2.842 -1.7697 -2.5040  1.8992
   30C      O3'  961   3.651   3.039   2.813 -0.0199 -0.9173 -0.2858
   31A        P  962   3.766   2.989   2.719 -0.3518  0.5537  0.1462
   31A      OP1  963   3.708   2.968   2.585 -0.1888 -0.0293 -0.1936
   31A      OP2  964   3.825   2.873   2.788  0.2894  0.1562 -0.2998
   31A      O5'  965   3.884   3.102   2.706  0.4867 -0.6819 -1.0427
   31A      C5'  966   3.857   3.224   2.640 -0.6117  0.6671 -0.7223
   31A      H5'  967   3.781   3.274   2.698  0.7707  0.1099  1.7184
   31A     H5''  968   3.828   3.205   2.537  1.8343  1.6903 -1.6679
   31A      C4'  969   3.988   3.305   2.636  0.1185 -0.3230 -0.2297
   31A      H4'  970   3.967   3.391   2.572  2.0987 -1.1697 -2.1710
   31A      O4'  971   4.024   3.358   2.765  0.1437 -0.6573  0.0686
   31A      C1'  972   4.156   3.326   2.794 -0.1076 -0.7435  0.5113
   31A      H1'  973   4.220   3.408   2.762 -1.4205  0.5012  0.9638
   31A       N9  974   4.171   3.294   2.937  0.6465 -0.1711  0.6649
   31A       C8  975   4.101   3.199   3.000 -0.1358  0.8351  0.5407
   31A       H8  976   4.018   3.143   2.958  1.1460 -0.2828 -0.5897
   31A       N7  977   4.137   3.171   3.123  0.5794  0.2649 -0.1591
   31A       C5  978   4.244   3.264   3.134  0.4365 -0.2547 -0.7973
   31A       C6  979   4.321   3.307   3.246  0.1891  0.9525 -0.0130
   31A       N6  980   4.314   3.259   3.369  0.5166 -0.0777 -0.3130
   31A      H61  981   4.367   3.301   3.444 -0.2738  2.4286 -1.0619
   31A      H62  982   4.254   3.178   3.374 -0.4102  0.6445  0.5146
   31A       N1  983   4.418   3.404   3.236  0.4323  0.8259  0.2127
   31A       C2  984   4.419   3.474   3.124 -0.3564 -0.0482  0.0094
   31A       H2  985   4.489   3.556   3.135  0.8157 -1.1718  1.1423
   31A       N3  986   4.341   3.453   3.014  0.2171  0.2799  0.1252
   31A       C4  987   4.261   3.349   3.026  0.6294  1.2849  0.3876
   31A      C3'  988   4.107   3.228   2.580 -0.0895 -0.0876 -0.3617
   31A      H3'  989   4.077   3.135   2.532 -0.3938  0.5599 -1.4842
   31A      C2'  990   4.189   3.206   2.708  0.3072  0.0633  0.4267
   31A      H2'  991   4.167   3.114   2.763 -0.1471 -0.1384 -0.0858
   31A      O2'  992   4.325   3.191   2.685 -0.4387 -0.1266 -0.2045
   31A     HO2'  993   4.369   3.173   2.768 -0.0079 -1.3332 -0.6693
   31A      O3'  994   4.177   3.318   2.491  0.2511 -0.2600  0.6814
   32A        P  995   4.236   3.268   2.346  0.3722  0.5493 -0.0644
   32A      OP1  996   4.113   3.258   2.265 -0.0234 -0.6200  0.3003
   32A      OP2  997   4.327   3.161   2.357  0.1673 -0.3135  0.0844
   32A      O5'  998   4.319   3.394   2.301  0.0304 -0.5266  0.4369
   32A      C5'  999   4.269   3.488   2.207 -0.2882  0.3674  0.1848
   32A      H5' 1000   4.183   3.535   2.256 -1.2969 -0.9872 -0.2232
   32A     H5'' 1001   4.236   3.448   2.111  1.0501 -1.8655  0.5823
   32A      C4' 1002   4.375   3.592   2.182 -0.3972 -0.1098  0.1033
   32A      H4' 1003   4.345   3.656   2.099 -2.5782  0.3691  1.1861
   32A      O4' 1004   4.402   3.661   2.302  0.5526 -0.0927 -0.4175
   32A      C1' 1005   4.537   3.698   2.324  0.4112  0.1750 -0.1768
   32A      H1' 1006   4.545   3.805   2.345 -1.7557 -0.1377  3.0746
   32A       N9 1007   4.593   3.632   2.447  0.4003  0.1061  0.5604
   32A       C8 1008   4.550   3.519   2.511  0.4777  0.0256 -0.6144
   32A       H8 1009   4.455   3.473   2.489  0.8008 -1.5698  1.1052
   32A       N7 1010   4.622   3.490   2.612  0.0132 -0.0697  0.0897
   32A       C5 1011   4.728   3.572   2.604  0.3110  0.0518 -0.3777
   32A       C6 1012   4.839   3.598   2.687  0.2429  0.1494  0.1993
   32A       N6 1013   4.870   3.534   2.799  0.1803 -0.3592  0.2882
   32A      H61 1014   4.955   3.551   2.850 -0.0168  0.4951  0.3420
   32A      H62 1015   4.815   3.452   2.817  2.1905 -2.0485 -0.7438
   32A       N1 1016   4.926   3.698   2.656 -0.6129 -0.9167  0.0696
   32A       C2 1017   4.893   3.777   2.558  0.3533  0.1491  0.7428
   32A       H2 1018   4.959   3.861   2.542  1.7327 -1.2884 -1.7977
   32A       N3 1019   4.785   3.768   2.478  0.2872 -0.4795 -0.3771
   32A       C4 1020   4.710   3.657   2.503 -0.2325 -0.3959 -0.3619
   32A      C3' 1021   4.521   3.552   2.136 -0.7297 -0.5213 -0.1616
   32A      H3' 1022   4.550   3.459   2.183  2.0133  0.4470  0.2613
   32A      C2' 1023   4.605   3.664   2.195  0.4095 -0.1156 -0.1305
   32A      H2' 1024   4.711   3.646   2.214  0.8891  2.0118 -0.4823
   32A      O2' 1025   4.596   3.776   2.108  0.1574  0.2015 -0.6001
   32A     HO2' 1026   4.640   3.746   2.028  1.9972 -0.0940  0.4707
   32A      O3' 1027   4.528   3.536   1.995 -0.1618  0.4144 -0.5933
   33G3       P 1028   4.571   3.393   1.940  0.2570  0.0897 -0.1858
   33G3     OP1 1029   4.598   3.399   1.796  0.2816  0.4425  0.3046
   33G3     OP2 1030   4.473   3.298   1.998 -0.6097 -0.4180 -0.0756
   33G3     O5' 1031   4.704   3.359   2.020  0.5248  0.2671  0.1730
   33G3     C5' 1032   4.806   3.454   2.005 -0.4283  0.0392  0.1626
   33G3     H5' 1033   4.765   3.554   2.013 -1.2629 -0.1640 -1.1996
   33G3    H5'' 1034   4.846   3.443   1.905 -1.7828 -0.3280 -0.3700
   33G3     C4' 1035   4.914   3.436   2.118 -0.8019  0.3711 -0.2071
   33G3     H4' 1036   4.994   3.506   2.098  0.1789 -1.0773 -1.6409
   33G3     O4' 1037   4.856   3.468   2.246 -0.1863  0.3100 -0.4736
   33G3     C1' 1038   4.927   3.389   2.344 -0.4524 -0.4466 -0.0707
   33G3     H1' 1039   4.970   3.451   2.423  1.8248  0.5261 -1.9372
   33G3      N9 1040   4.825   3.299   2.403  0.1446  0.3275 -0.5582
   33G3      C8 1041   4.703   3.259   2.355  0.4504 -0.1214  0.0364
   33G3      H8 1042   4.660   3.295   2.263 -2.0363 -0.4109  1.0095
   33G3      N7 1043   4.654   3.163   2.425  0.2098 -0.9162 -0.6720
   33G3      C5 1044   4.745   3.152   2.532  0.2040  0.0112 -0.3708
   33G3      C6 1045   4.738   3.067   2.643  0.2459 -0.8709 -1.2537
   33G3      O6 1046   4.655   2.987   2.672  0.1618  0.0316  0.3187
   33G3      N1 1047   4.833   3.095   2.737  0.2778  0.0959  0.0156
   33G3      H1 1048   4.839   3.030   2.813 -0.7044  0.7690  0.6894
   33G3      C2 1049   4.935   3.179   2.714 -0.1759 -0.5810 -0.6316
   33G3      N2 1050   5.042   3.184   2.792  0.3276 -0.0643  0.4846
   33G3     H21 1051   5.049   3.141   2.883 -0.5304  0.9156  1.0345
   33G3     H22 1052   5.119   3.248   2.778  0.8502 -0.8736 -0.4482
   33G3      N3 1053   4.945   3.265   2.613 -0.4719  0.9991 -0.5592
   33G3      C4 1054   4.846   3.240   2.524 -0.2687 -0.3304  0.2077
   33G3     C3' 1055   4.973   3.296   2.135 -0.1508 -0.1321 -0.0249
   33G3     H3' 1056   4.901   3.215   2.126  0.8692 -1.0118 -0.3750
   33G3     C2' 1057   5.037   3.320   2.275 -0.0352  0.1680  0.3056
   33G3     H2' 1058   5.053   3.221   2.318 -0.7376  0.0028  0.1997
   33G3     O2' 1059   5.156   3.399   2.288 -0.5636  0.1155  0.3746
   33G3    HO2' 1060   5.227   3.347   2.249  0.0953  1.0588  0.2876
   33G3     O3' 1061   5.066   3.286   2.030 -0.2985  0.2818 -0.2528
   33G3    HO3' 1062   5.140   3.247   2.077 -1.0705 -1.2877 -0.2610
   34K+      K+ 1063   4.282   4.315   4.172  0.7252  0.4331 -0.0762
   35K+      K+ 1064   3.866   3.789   4.974  0.1462  0.1121  0.2586
   36K+      K+ 1065   2.860   4.454   3.286 -0.0224  0.2439 -0.4016
   37K+      K+ 1066   4.540   4.425   6.210  0.0365  0.2072 -0.1194
   38K+      K+ 1067   4.979   3.368   4.696  0.1979  0.3633 -0.0590
   39K+      K+ 1068   4.194   2.565   3.305 -0.2046 -0.1347  0.3950
   40K+      K+ 1069   4.547   4.624   4.102  0.0230  0.0288 -0.2677
   41K+      K+ 1070   4.972   2.558   6.255  0.0313  0.1065  0.1839
   42K+      K+ 1071   3.094   3.062   3.267 -0.2644  0.3124 -0.1277
   43K+      K+ 1072   2.714   3.771   3.279 -0.0396 -0.3208 -0.2658
   44K+      K+ 1073   2.597   4.414   6.090 -0.1837  0.2481 -0.2169
   45K+      K+ 1074   4.869   2.635   2.296  0.2159 -0.2067  0.3335
   46K+      K+ 1075   4.370   4.921   5.039 -0.0579 -0.1611 -0.1992
   47K+      K+ 1076   3.791   4.544   3.762  0.0718  0.5037 -0.3163
   48K+      K+ 1077   3.117   3.146   5.044 -0.1879  0.2056  0.2840
   49K+      K+ 1078   4.270   5.259   3.154 -0.4426  0.1684 -0.0682
   50K+      K+ 1079   2.635   5.006   5.340  0.4207  0.0056 -0.0527
   51K+      K+ 1080   5.397   4.138   3.455  0.3536 -0.1153  0.5584
   52K+      K+ 1081   3.708   1.970   3.926  0.1684 -0.0238 -0.4998
   53K+      K+ 1082   3.715   3.151   2.031  0.0430  0.4216  0.2814
   54K+      K+ 1083   4.467   5.679   3.980 -0.6385 -0.4283  0.1707
   55K+      K+ 1084   3.674   2.476   5.340  0.0519  0.0258 -0.0496
   56K+      K+ 1085   4.771   3.282   4.133 -0.1815  0.2440  0.2603
   57K+      K+ 1086   4.319   4.370   2.829 -0.2786 -0.1682 -0.4497
   58K+      K+ 1087   3.614   2.219   3.236 -0.1890  0.2679 -0.2646
   59K+      K+ 1088   2.968   4.175   5.891  0.1736 -0.2946  0.0612
   60K+      K+ 1089   3.693   3.684   6.650  0.2913  0.0145  0.5143
   61K+      K+ 1090   2.321   3.941   4.710 -0.1073  0.0021 -0.1212
   62K+      K+ 1091   3.128   4.487   2.536 -0.5167  0.2713  0.0178
   63K+      K+ 1092   3.363   6.237   5.914 -0.2517 -0.0937 -0.2224
   64K+      K+ 1093   6.638   3.262   3.056 -0.2669 -0.0939  0.1818
   65K+      K+ 1094   3.053   2.210   4.245 -0.7132 -0.0201 -0.5249
   66K+      K+ 1095   4.037   2.896   1.994  0.3164  0.3373 -0.2449
   67K+      K+ 1096   4.269   6.317   7.466  0.1387  0.3810  0.0272
   68K+      K+ 1097   2.601   4.121   4.459  0.1919  0.2700  0.0528
   69K+      K+ 1098   4.931   3.657   3.983  0.0932  0.2397  0.2515
   70K+      K+ 1099   3.215   2.393   1.576 -0.2207 -0.5054  0.0919
   71K+      K+ 1100   4.281   6.069   5.485 -0.0913  0.0263  0.0376
   72K+      K+ 1101   4.355   3.895   1.682  0.3610 -0.1867  0.0936
   73K+      K+ 1102   2.737   4.383   4.972  0.8358 -0.0436  0.3689
   74K+      K+ 1103   5.338   1.105   3.633 -0.1412  0.0754 -0.3389
   75K+      K+ 1104   4.546   2.783   7.174 -0.0688 -0.0509 -0.0554
   76K+      K+ 1105   6.430   6.057   2.708 -0.2212 -0.5299  0.2973
   77K+      K+ 1106   4.201   5.453   7.247  0.2928 -0.0722 -0.1802
   78K+      K+ 1107   3.594   5.754   2.697  0.1238 -0.1090 -0.2296
   79K+      K+ 1108   6.985   4.129   1.806 -0.2864  0.2733  0.0085
   80K+      K+ 1109   3.245   3.758   6.593  0.3615 -0.5894  0.3673
   81K+      K+ 1110   6.694   3.990   3.615  0.3384  0.1713 -0.1667
   82K+      K+ 1111   4.501   7.670   5.048  0.4460  0.0501 -0.0613
   83K+      K+ 1112   4.117   2.318   2.473 -0.0784  0.1820 -0.0512
   84K+      K+ 1113   2.108   7.029   1.434  0.3613  0.4723 -0.4583
   85K+      K+ 1114   5.389   4.921   7.024  0.1679 -0.3006 -0.4443
   86K+      K+ 1115   4.078   2.963   5.341  0.0209 -0.1980 -0.1945
   87Cl-    Cl- 1116   6.184   3.934   3.506  0.3052  0.3969 -0.1928
   88Cl-    Cl- 1117   3.453   6.189   2.313  0.0900  0.0994 -0.0471
   89Cl-    Cl- 1118   3.883   3.029   7.387 -0.2053 -0.2930 -0.0751
   90Cl-    Cl- 1119   6.028   4.944   7.457  0.3219  0.2812  0.0228
   91Cl-    Cl- 1120   5.358   2.013   6.742  0.0735  0.0568 -0.2419
   92Cl-    Cl- 1121   3.259   2.023   3.557 -0.0006 -0.0570  0.0968
   93Cl-    Cl- 1122   3.327   5.040   2.156  0.3347 -0.2330 -0.0145
   94Cl-    Cl- 1123   3.023   7.737   4.460  0.4979 -0.6917 -0.2814
   95Cl-    Cl- 1124   3.614   3.083   1.732  0.4109 -0.3660  0.4419
   96Cl-    Cl- 1125   2.268   4.330   6.118  0.0006  0.3448 -0.3198
   97Cl-    Cl- 1126   5.798   3.823   2.337 -0.3970 -0.1189 -0.0586
   98Cl-    Cl- 1127   4.994   1.447   6.402 -0.1351  0.1081  0.2594
   99Cl-    Cl- 1128   2.347   5.264   4.873 -0.0760  0.3581 -0.3621
  100Cl-    Cl- 1129   3.419   5.128   2.841 -0.2338  0.3503 -0.3800
  101Cl-    Cl- 1130   3.945   6.211   6.083  0.1147  0.4728  0.2977
  102Cl-    Cl- 1131   4.524   1.652   2.283 -0.5914  0.2712 -0.1171
  103Cl-    Cl- 1132   3.468   4.169   6.754  0.6938  0.2296 -0.2858
  104Cl-    Cl- 1133   2.333   2.258   2.787  0.2395  0.1173  0.0013
  105Cl-    Cl- 1134   4.899   5.094   7.056  0.5544  0.5401 -0.3810
  106Cl-    Cl- 1135   6.845   4.769   2.515  0.3074 -0.0398 -0.2488
  107Cl-    Cl- 1136   6.033   2.687   2.467  0.0618  0.0200  0.6782
  108WAT      O 1137   5.076   7.012   0.186 -0.2288  0.7724 -0.2793
  108WAT     H1 1138   5.060   6.929   0.167 -0.4752  0.7350  0.0925
  108WAT     H2 1139   5.082   7.050   0.107  0.0855  0.3703 -0.4525
  108WAT    EPW 1140   5.075   7.006   0.171  0.4836 -0.3404 -0.3257
  109WAT      O 1141   5.852   7.457   0.441  0.3594 -0.2410  0.2440
  109WAT     H1 1142   5.917   7.515   0.447 -0.2634  0.5461 -0.4637
  109WAT     H2 1143   5.850   7.421   0.520  0.0148  1.5300  1.0921
  109WAT    EPW 1144   5.861   7.460   0.454  0.0922 -0.3682  0.3628
  110WAT      O 1145   6.556   7.266   8.040 -0.0259  0.3339  0.1989
  110WAT     H1 1146   6.631   7.220   8.045  0.8907  1.8860  1.4501
  110WAT     H2 1147   6.507   7.232   8.103 -0.2201 -0.3419 -0.2928
  110WAT    EPW 1148   6.560   7.254   8.050 -0.1383 -0.5969 -0.6659
  111WAT      O 1149   5.876   0.053   1.454 -0.5112  1.4705 -0.5158
  111WAT     H1 1150   5.913   0.112   1.506  1.4852  0.9193 -1.2117
  111WAT     H2 1151   5.929  -0.016   1.459 -0.7086  1.0938 -2.5903
  111WAT    EPW 1152   5.889   0.052   1.462 -0.5749  0.5025 -0.6823
  112WAT      O 1153   6.047   7.846   6.926  0.7442 -0.0225  0.1931
  112WAT     H1 1154   6.010   7.919   6.955  1.0324  1.2584 -2.4298
  112WAT     H2 1155   5.991   7.783   6.951 -0.3168  1.2346  1.1094
  112WAT    EPW 1156   6.033   7.847   6.934  0.1641  0.1962  0.3097
  113WAT      O 1157   6.077   7.085   0.415  0.2341  0.2884 -0.3380
  113WAT     H1 1158   5.990   7.078   0.420  0.1212  1.3985 -0.4630
  113WAT     H2 1159   6.089   7.156   0.366  1.2179  0.3331 -0.0543
  113WAT    EPW 1160   6.066   7.094   0.408  0.7891 -0.5431  0.1224
  114WAT      O 1161   6.397   6.360   6.320 -0.3316 -0.5676  0.2711
  114WAT     H1 1162   6.381   6.432   6.272  1.0473 -0.1366  0.4227
  114WAT     H2 1163   6.374   6.295   6.268  0.9251 -0.0998 -0.9066
  114WAT    EPW 1164   6.391   6.361   6.306 -0.8463  0.6263  0.4723
  115WAT      O 1165   6.057   0.481   0.386 -0.5733 -0.0867  0.4204
  115WAT     H1 1166   6.104   0.415   0.354  0.7980 -1.0872  3.9707
  115WAT     H2 1167   6.003   0.441   0.442 -1.6843  1.5847  0.5939
  115WAT    EPW 1168   6.056   0.465   0.390 -0.5326  1.5304 -0.5063
  116WAT      O 1169   4.979   7.305   8.011  0.2013 -0.1549 -0.4952
  116WAT     H1 1170   4.911   7.348   8.045  0.3444  0.6805 -1.2189
  116WAT     H2 1171   5.042   7.317   8.070  0.5629  1.6187 -1.1721
  116WAT    EPW 1172   4.978   7.313   8.024 -0.2900  0.0146 -0.5775
  117WAT      O 1173   6.255   7.545   0.231  0.1895 -0.5220 -0.6891
  117WAT     H1 1174   6.315   7.547   0.168 -0.5231  0.9894 -1.3727
  117WAT     H2 1175   6.199   7.607   0.208 -0.2221 -0.0638  1.3036
  117WAT    EPW 1176   6.256   7.554   0.218 -0.1905 -0.1204 -0.6723
  118WAT      O 1177   5.967   7.508   6.801 -0.5478  0.1828  0.3250
  118WAT     H1 1178   5.896   7.457   6.806 -1.2868  0.9509 -1.5480
  118WAT     H2 1179   6.007   7.480   6.729 -0.7946  1.9712 -0.5544
  118WAT    EPW 1180   5.962   7.496   6.791 -0.6787  0.1390 -0.7280
  119WAT      O 1181   6.951   0.236   1.089  0.4235 -0.4853  0.3325
  119WAT     H1 1182   6.981   0.250   1.170 -0.4532  0.6541  0.4886
  119WAT     H2 1183   6.982   0.157   1.069 -0.1298 -1.2019  2.1443
  119WAT    EPW 1184   6.960   0.226   1.098 -0.0433 -0.5881  0.3582
  120WAT      O 1185   6.782   5.611   0.768  0.2297 -0.1113  0.1217
  120WAT     H1 1186   6.769   5.530   0.740 -0.1882 -1.0023  2.6067
  120WAT     H2 1187   6.701   5.639   0.786  0.1948  1.5248 -2.1972
  120WAT    EPW 1188   6.768   5.603   0.767 -0.9254  0.2632  0.5293
  121WAT      O 1189   6.878   0.509   0.356 -0.2962  0.0345  0.5190
  121WAT     H1 1190   6.904   0.478   0.279  1.4900 -0.9483  1.4555
  121WAT     H2 1191   6.952   0.536   0.394 -1.0024 -0.2744  2.2216
  121WAT    EPW 1192   6.893   0.509   0.350 -0.4446 -0.1881  0.3779
  122WAT      O 1193   5.498   6.258   7.702 -0.0260 -0.2871 -0.7073
  122WAT     H1 1194   5.581   6.235   7.688  0.7174  1.4810  0.5510
  122WAT     H2 1195   5.503   6.339   7.734 -2.3483  0.6528 -2.3999
  122WAT    EPW 1196   5.511   6.266   7.705  0.4107 -0.3962 -0.1019
  123WAT      O 1197   4.817   7.876   7.131 -0.2674 -0.1942 -0.2851
  123WAT     H1 1198   4.837   7.841   7.208  0.0085  0.0341 -0.2529
  123WAT     H2 1199   4.754   7.933   7.149 -0.1540 -0.0907 -0.2192
  123WAT    EPW 1200   4.811   7.879   7.145  0.5229 -0.4966 -0.3546
  124WAT      O 1201   5.747   6.717   1.670  0.1360 -0.3768 -0.1655
  124WAT     H1 1202   5.821   6.720   1.715  0.0903 -1.3852  0.0026
  124WAT     H2 1203   5.774   6.703   1.588  0.1417 -0.5253 -0.1385
  124WAT    EPW 1204   5.762   6.715   1.664 -0.1064 -1.0756 -0.4937
  125WAT      O 1205   6.462   0.793   0.046 -0.1226 -0.0449  0.3560
  125WAT     H1 1206   6.472   0.725   0.100 -1.3827 -2.8063 -2.5068
  125WAT     H2 1207   6.407   0.845   0.089  1.6924 -0.1789  3.1140
  125WAT    EPW 1208   6.455   0.790   0.060  0.4583 -0.3279 -0.0487
  126WAT      O 1209   6.550   7.216   7.763 -1.0586 -0.1172 -1.0282
  126WAT     H1 1210   6.605   7.149   7.750 -1.6996 -0.6501 -1.0862
  126WAT     H2 1211   6.565   7.238   7.847  0.5553  0.9935 -1.5554
  126WAT    EPW 1212   6.561   7.209   7.774 -0.5394  0.0788 -0.4028
  127WAT      O 1213   6.640   7.542   7.824  0.2545 -0.6996 -0.4445
  127WAT     H1 1214   6.710   7.587   7.799  2.5956 -2.7811  1.7781
  127WAT     H2 1215   6.594   7.599   7.871  1.2362  0.3125 -0.6847
  127WAT    EPW 1216   6.644   7.557   7.827  0.1968  0.3882 -0.8730
  128WAT      O 1217   7.437   5.822   0.041  0.3665 -0.2693  0.5113
  128WAT     H1 1218   7.507   5.825  -0.011  1.2575  3.1271  1.6823
  128WAT     H2 1219   7.372   5.846  -0.012  0.9866  1.4904  0.4636
  128WAT    EPW 1220   7.438   5.826   0.025 -0.9635  0.0783  0.5823
  129WAT      O 1221   6.358   0.538   7.462  0.2686 -0.3573 -0.7022
  129WAT     H1 1222   6.282   0.493   7.464  0.4041 -0.5865  1.4045
  129WAT     H2 1223   6.388   0.522   7.381 -2.0957  0.0739 -1.7639
  129WAT    EPW 1224   6.351   0.529   7.450  0.2789  0.2771  0.1058
  130WAT      O 1225   5.812   7.955   0.324  0.3796 -0.0192  0.1346
  130WAT     H1 1226   5.846   7.900   0.266  0.5072  0.4508 -0.2459
  130WAT     H2 1227   5.870   7.954   0.389 -0.1058 -1.0621  0.5628
  130WAT    EPW 1228   5.826   7.947   0.325  0.3577  0.3112 -0.2864
  131WAT      O 1229   5.900   7.344   0.688 -0.2912 -0.3143  0.2839
  131WAT     H1 1230   5.987   7.336   0.690 -0.2774 -0.2412  0.0247
  131WAT     H2 1231   5.875   7.314   0.766 -0.0991 -1.1670  0.0349
  131WAT    EPW 1232   5.909   7.338   0.699 -0.1698  0.5014  0.7981
  132WAT      O 1233   6.567   0.450   0.242  0.0891 -0.0298  0.1071
  132WAT     H1 1234   6.532   0.434   0.321 -0.2230  0.1350  0.0020
  132WAT     H2 1235   6.499   0.474   0.194  0.2025 -0.6166 -0.3526
  132WAT    EPW 1236   6.552   0.451   0.247 -0.3759 -0.9917 -0.2694
  133WAT      O 1237   5.951   7.546   0.071  0.1581 -0.1321  1.3300
  133WAT     H1 1238   5.976   7.484   0.015  1.2973  1.7829 -0.4460
  133WAT     H2 1239   6.010   7.610   0.059 -1.5596  1.7444  2.2121
  133WAT    EPW 1240   5.963   7.546   0.061  0.5728  0.7088  0.1570
  134WAT      O 1241   7.650   6.305   0.578  0.1641 -0.4834 -0.0380
  134WAT     H1 1242   7.588   6.295   0.517  0.1165  2.6165 -0.6358
  134WAT     H2 1243   7.609   6.348   0.642  0.7484 -1.9250  1.3851
  134WAT    EPW 1244   7.635   6.310   0.578 -0.9448  0.2227 -0.8658
  135WAT      O 1245   6.887   0.017   0.573 -0.1633  0.0069 -0.1557
  135WAT     H1 1246   6.824   0.076   0.556  0.3061  0.3321 -0.8420
  135WAT     H2 1247   6.853  -0.058   0.546 -1.0442 -0.1820  1.3766
  135WAT    EPW 1248   6.873   0.015   0.566 -0.0929 -0.2596 -0.3571
  136WAT      O 1249   5.889   7.458   7.670  0.2510  0.1510  0.2466
  136WAT     H1 1250   5.929   7.451   7.592  2.8716 -0.0156  1.4876
  136WAT     H2 1251   5.857   7.378   7.683 -1.6082  0.5912 -1.2926
  136WAT    EPW 1252   5.890   7.445   7.660  0.7982  0.3871 -0.2173
  137WAT      O 1253   7.305   6.961   0.730  0.2061 -0.4265  0.1585
  137WAT     H1 1254   7.261   7.015   0.781  0.2409  0.1640 -0.4205
  137WAT     H2 1255   7.384   6.957   0.766  0.4835  0.6393 -0.2938
  137WAT    EPW 1256   7.310   6.968   0.743  0.6886  0.4574 -0.4113
  138WAT      O 1257   6.300   7.413   1.081  0.2184  0.4218  0.4185
  138WAT     H1 1258   6.242   7.365   1.037  1.0663 -0.6670  0.4732
  138WAT     H2 1259   6.250   7.455   1.140 -0.6006  0.0714 -0.0057
  138WAT    EPW 1260   6.284   7.412   1.083  0.1817 -0.2502 -0.3176
  139WAT      O 1261   4.388   7.168   6.266 -0.5258  0.0451  0.0127
  139WAT     H1 1262   4.421   7.198   6.340 -2.3919  0.3362  0.7775
  139WAT     H2 1263   4.309   7.139   6.289 -1.0509 -0.0874 -1.8180
  139WAT    EPW 1264   4.381   7.168   6.280  0.3214  0.1059 -0.1664
  140WAT      O 1265   6.813   5.897   0.344 -0.2457  0.3024  0.1395
  140WAT     H1 1266   6.785   5.827   0.299 -1.3435  0.8240 -0.0097
  140WAT     H2 1267   6.775   5.888   0.422  0.6571  0.0579  0.5605
  140WAT    EPW 1268   6.803   5.885   0.349 -0.2446 -0.1375  0.1499
  141WAT      O 1269   6.396   6.954   7.934  0.3709 -0.1219  0.0681
  141WAT     H1 1270   6.412   7.026   7.980  0.5863 -0.5143  0.6190
  141WAT     H2 1271   6.329   6.917   7.976 -0.0734  0.0105 -0.5115
  141WAT    EPW 1272   6.389   6.959   7.947  0.5420 -0.3519 -0.8610
  142WAT      O 1273   5.753   7.206   3.556 -0.0682 -0.5350 -0.0013
  142WAT     H1 1274   5.821   7.198   3.501  1.1182  1.1172  1.1374
  142WAT     H2 1275   5.769   7.145   3.617  1.6082  1.1415  1.3740
  142WAT    EPW 1276   5.765   7.196   3.557 -0.0309  0.6387 -1.0436
  143WAT      O 1277   7.338   0.434   3.748 -0.3539  0.3505  0.3958
  143WAT     H1 1278   7.267   0.480   3.725 -0.2546  0.1790 -0.2771
  143WAT     H2 1279   7.346   0.376   3.684  0.4509  0.4244  0.4212
  143WAT    EPW 1280   7.329   0.432   3.735  0.5488  0.1854 -0.8327
  144WAT      O 1281   6.328   0.057   4.967  0.2295  0.4165  0.5210
  144WAT     H1 1282   6.254   0.035   4.926  0.8554  1.7019 -1.4698
  144WAT     H2 1283   6.303   0.119   5.023 -0.3527  0.0840  0.6330
  144WAT    EPW 1284   6.314   0.063   4.969  0.2164 -0.1405  0.9085
  145WAT      O 1285   6.349   0.817   7.559  0.6859  0.1824 -0.3445
  145WAT     H1 1286   6.346   0.731   7.547  1.6082 -0.0236  0.7709
  145WAT     H2 1287   6.271   0.836   7.592  0.9812 -0.4603  0.7467
  145WAT    EPW 1288   6.337   0.807   7.562 -0.4250 -0.7327 -0.5447
  146WAT      O 1289   5.566   7.350   6.394 -0.1887 -0.1158 -0.7033
  146WAT     H1 1290   5.495   7.311   6.363 -1.1222 -0.0494  1.2194
  146WAT     H2 1291   5.568   7.426   6.351 -0.9861 -0.3230 -1.1286
  146WAT    EPW 1292   5.556   7.356   6.383 -0.4858 -0.0285  0.0111
  147WAT      O 1293   6.360   6.753   5.232 -0.0255 -0.5095  0.3421
  147WAT     H1 1294   6.408   6.771   5.303  0.0692 -3.2192  1.0836
  147WAT     H2 1295   6.410   6.780   5.166  1.1479 -0.4600  1.2162
  147WAT    EPW 1296   6.374   6.759   5.233  0.0658  0.7300  0.4767
  148WAT      O 1297   4.649   0.076   6.128 -0.1633 -0.5053 -0.0538
  148WAT     H1 1298   4.684   0.156   6.131 -0.7711 -0.1567 -1.3994
  148WAT     H2 1299   4.605   0.076   6.053  0.2501 -2.2882 -0.3466
  148WAT    EPW 1300   4.648   0.088   6.117 -0.9451  0.1632  0.0819
  149WAT      O 1301   5.410   7.739   5.311  0.2349  0.5195  0.3937
  149WAT     H1 1302   5.392   7.654   5.306  1.1390  0.1299  2.6095
  149WAT     H2 1303   5.479   7.749   5.258 -0.8443  0.2258 -1.1013
  149WAT    EPW 1304   5.418   7.728   5.302  0.1436  0.0695 -0.1275
  150WAT      O 1305   5.465   6.641   7.382 -0.5130  0.0060  0.0478
  150WAT     H1 1306   5.509   6.592   7.324 -0.2207  0.1344  0.1604
  150WAT     H2 1307   5.469   6.721   7.348 -2.2309 -0.2531 -0.8844
  150WAT    EPW 1308   5.472   6.646   7.369  0.1260  0.0873 -0.8300
  151WAT      O 1309   5.961   7.155   6.622  0.5513 -0.4570  0.2698
  151WAT     H1 1310   6.047   7.168   6.635  0.6934  0.1105 -1.0919
  151WAT     H2 1311   5.957   7.073   6.592  0.5128 -0.7920  1.1676
  151WAT    EPW 1312   5.973   7.145   6.619  0.1168 -0.7576  0.2018
  152WAT      O 1313   5.531   7.080   6.550 -0.1492 -0.5299 -0.3749
  152WAT     H1 1314   5.483   7.133   6.499 -1.3413 -0.1666  1.0445
  152WAT     H2 1315   5.581   7.136   6.594  0.2578 -0.7771 -0.5228
  152WAT    EPW 1316   5.531   7.096   6.549  0.1020  0.1509  0.4412
  153WAT      O 1317   5.551   7.449   7.727 -0.1134 -0.1295  0.1753
  153WAT     H1 1318   5.599   7.376   7.720 -1.9297 -1.2639 -1.3395
  153WAT     H2 1319   5.551   7.464   7.812 -0.9418 -2.8332  0.7675
  153WAT    EPW 1320   5.558   7.440   7.738  0.0764 -0.0963  0.1540
  154WAT      O 1321   5.947   6.501   0.707  0.1393 -0.5289 -0.0626
  154WAT     H1 1322   5.892   6.461   0.652 -0.3433  0.5298 -0.3815
  154WAT     H2 1323   6.025   6.471   0.683 -0.0195  0.1395 -1.5734
  154WAT    EPW 1324   5.950   6.491   0.695 -0.4006 -0.2465 -0.0301
  155WAT      O 1325   5.236   6.617   6.028  0.0102 -0.0148 -0.1122
  155WAT     H1 1326   5.191   6.584   5.961 -0.4448  0.0880  0.1376
  155WAT     H2 1327   5.187   6.597   6.098  0.4002  0.0144  0.1775
  155WAT    EPW 1328   5.222   6.609   6.029  1.1440 -0.0081 -0.1975
  156WAT      O 1329   6.128   7.983   6.537 -0.3831  0.2654 -0.2393
  156WAT     H1 1330   6.053   7.940   6.536 -1.4555  2.0451 -0.1263
  156WAT     H2 1331   6.122   8.036   6.468 -0.1348  1.8541  0.9097
  156WAT    EPW 1332   6.116   7.985   6.526 -0.2859  0.2198 -0.6479
  157WAT      O 1333   5.269   0.449   6.206  0.3045 -0.4864 -0.0120
  157WAT     H1 1334   5.232   0.374   6.184 -0.4330 -0.1400  0.0380
  157WAT     H2 1335   5.323   0.465   6.139 -0.5636 -0.3610 -0.7036
  157WAT    EPW 1336   5.272   0.440   6.193  0.1213 -0.3905 -0.8056
  158WAT      O 1337   6.015   7.564   6.060  0.1019  0.3435  0.6589
  158WAT     H1 1338   6.045   7.484   6.041  0.2284  0.3875  0.6714
  158WAT     H2 1339   6.019   7.568   6.147  0.9228  0.6791  0.6110
  158WAT    EPW 1340   6.020   7.553   6.070 -0.7147 -0.4536  0.1959
  159WAT      O 1341   5.988   6.451   6.116 -0.2724 -0.4594 -0.4041
  159WAT     H1 1342   5.958   6.533   6.122  0.1275 -0.3339 -0.0726
  159WAT     H2 1343   5.936   6.406   6.169  0.3629 -0.1735  0.4726
  159WAT    EPW 1344   5.976   6.457   6.125 -0.1085 -0.6424  0.5611
  160WAT      O 1345   5.476   1.369   6.225  0.1241  0.5073  0.2478
  160WAT     H1 1346   5.430   1.390   6.296  0.2654  1.3958  0.0911
  160WAT     H2 1347   5.505   1.288   6.242  0.4817  0.8590  1.3623
  160WAT    EPW 1348   5.473   1.360   6.238 -0.5611  0.4975 -0.2719
  161WAT      O 1349   6.146   0.304   5.377 -0.1494  0.5813  0.1347
  161WAT     H1 1350   6.099   0.337   5.442 -0.9002  0.7645 -0.4928
  161WAT     H2 1351   6.150   0.219   5.396 -1.2037  0.4747 -0.0865
  161WAT    EPW 1352   6.140   0.296   5.389 -0.6386 -0.3131 -0.3984
  162WAT      O 1353   6.212   0.199   6.923 -0.4466 -0.2209 -0.5285
  162WAT     H1 1354   6.241   0.134   6.872  0.9792 -0.0258 -0.0112
  162WAT     H2 1355   6.187   0.260   6.865 -2.0104 -1.2696 -1.0220
  162WAT    EPW 1356   6.212   0.199   6.907  0.8318  0.7678 -0.5716
  163WAT      O 1357   5.842   7.927   6.464 -0.0118 -0.4676 -0.3302
  163WAT     H1 1358   5.787   7.895   6.405 -0.0003  0.0089 -0.6003
  163WAT     H2 1359   5.790   7.965   6.523 -0.0052 -0.6316 -0.2171
  163WAT    EPW 1360   5.826   7.928   6.464 -0.5359  1.1448  0.0024
  164WAT      O 1361   5.341   7.223   6.292 -0.0403 -0.1005  0.5903
  164WAT     H1 1362   5.271   7.224   6.344 -0.2737 -2.4813  0.4038
  164WAT     H2 1363   5.308   7.210   6.212  0.5950 -1.5428  0.5368
  164WAT    EPW 1364   5.326   7.221   6.288 -0.4041 -1.2732 -0.4550
  165WAT      O 1365   5.920   1.679   6.665 -0.2351 -0.4096 -0.4047
  165WAT     H1 1366   5.932   1.703   6.748  0.7875 -1.4835 -0.2224
  165WAT     H2 1367   5.847   1.721   6.642 -1.0119 -0.7671  1.3017
  165WAT    EPW 1368   5.911   1.689   6.674  0.0364 -0.0854  0.4375
  166WAT      O 1369   6.192   7.460   6.977  0.1806  0.4354 -0.0306
  166WAT     H1 1370   6.129   7.500   6.931  0.6409  0.5209 -0.6155
  166WAT     H2 1371   6.189   7.499   7.055  0.3008  1.3005 -0.4377
  166WAT    EPW 1372   6.183   7.472   6.981 -0.8351 -0.7997 -0.4196
  167WAT      O 1373   4.612   6.472   5.493  0.1189  0.6685 -0.0376
  167WAT     H1 1374   4.533   6.456   5.461  0.1621 -0.9281  0.5376
  167WAT     H2 1375   4.665   6.462   5.424  0.0154 -0.6710  0.0411
  167WAT    EPW 1376   4.608   6.468   5.478  1.2512 -0.8256 -0.1061
  168WAT      O 1377   5.655   7.235   6.020 -0.3568 -0.8007  0.1105
  168WAT     H1 1378   5.695   7.311   6.036  0.4963 -1.5695  1.9165
  168WAT     H2 1379   5.587   7.258   5.970 -0.3631  1.2093  0.9334
  168WAT    EPW 1380   5.651   7.250   6.015 -0.2176 -0.6615 -1.2200
  169WAT      O 1381   5.189   7.360   0.144 -0.5422 -0.1057  0.7506
  169WAT     H1 1382   5.223   7.440   0.135  1.7643 -1.1555 -1.0281
  169WAT     H2 1383   5.189   7.348   0.231  1.7993  0.8223  0.9650
  169WAT    EPW 1384   5.194   7.370   0.156 -0.5085  0.3097 -0.4156
  170WAT      O 1385   6.396   7.197   1.333  0.2860 -0.3096  0.1542
  170WAT     H1 1386   6.318   7.157   1.337 -0.2162  0.5906 -0.2775
  170WAT     H2 1387   6.437   7.168   1.404 -0.0272 -1.6404 -0.1792
  170WAT    EPW 1388   6.390   7.187   1.344 -0.4554 -0.7309  0.1995
  171WAT      O 1389   4.959   7.305   6.159 -0.4731 -0.1558 -0.2972
  171WAT     H1 1390   5.007   7.306   6.232 -0.9524 -0.8514  0.0355
  171WAT     H2 1391   4.959   7.389   6.134  0.4570 -0.0605 -0.0128
  171WAT    EPW 1392   4.966   7.318   6.166  0.5799  0.0753 -0.4816
  172WAT      O 1393   6.124   0.128   4.184  0.2490 -0.5076 -0.1539
  172WAT     H1 1394   6.052   0.144   4.138  0.1932  2.4076  0.7270
  172WAT     H2 1395   6.113   0.046   4.212 -3.4904  0.2565  1.1635
  172WAT    EPW 1396   6.112   0.118   4.181 -0.1070  0.5019  0.2329
  173WAT      O 1397   5.501   7.835   4.681  0.2284  0.3517 -0.1864
  173WAT     H1 1398   5.449   7.897   4.648 -0.0806 -0.0051 -0.3713
  173WAT     H2 1399   5.454   7.800   4.745  0.6399  0.7116  0.3174
  173WAT    EPW 1400   5.486   7.839   4.686  0.2748 -0.5666 -0.6469
  174WAT      O 1401   6.260   6.817   6.581 -0.3092 -0.7091 -0.0827
  174WAT     H1 1402   6.266   6.881   6.522  1.4294  0.0908  0.8837
  174WAT     H2 1403   6.221   6.857   6.649 -0.4254 -1.0535  0.0537
  174WAT    EPW 1404   6.255   6.833   6.583 -0.2718 -0.7460 -0.7473
  175WAT      O 1405   5.552   6.778   5.550 -0.2298 -0.0148  0.9639
  175WAT     H1 1406   5.562   6.789   5.464 -2.6755  1.5762  0.7807
  175WAT     H2 1407   5.595   6.845   5.585  0.9916 -0.8098  1.0508
  175WAT    EPW 1408   5.560   6.789   5.542  0.4604 -0.8215 -0.6585
  176WAT      O 1409   6.123   6.925   3.065  0.4187  0.0048 -0.2795
  176WAT     H1 1410   6.056   6.914   3.120  1.4580 -0.5619  0.9101
  176WAT     H2 1411   6.133   7.012   3.063 -0.5487  0.1211 -0.7336
  176WAT    EPW 1412   6.115   6.937   3.073  0.0341  0.2820  0.6346
  177WAT      O 1413   4.476   6.925   6.453 -0.2662 -0.2097 -0.1290
  177WAT     H1 1414   4.533   6.972   6.407 -1.9523  1.3252 -0.7480
  177WAT     H2 1415   4.488   6.954   6.535 -0.0597  0.0024 -0.2324
  177WAT    EPW 1416   4.486   6.937   6.458 -0.2080 -0.6449 -0.0270
  178WAT      O 1417   4.643   6.985   6.240 -0.0696 -0.0937 -0.5230
  178WAT     H1 1418   4.715   6.935   6.245 -1.9148 -2.8944  1.0539
  178WAT     H2 1419   4.627   6.989   6.154  1.0832 -0.7702 -0.7971
  178WAT    EPW 1420   4.652   6.978   6.228  0.9406  0.0305 -0.2854
  179WAT      O 1421   6.150   6.562   6.609 -0.1342 -0.3079  0.4735
  179WAT     H1 1422   6.215   6.509   6.585 -0.6706 -0.4365 -0.7473
  179WAT     H2 1423   6.191   6.634   6.634  0.5411 -0.8279  0.9132
  179WAT    EPW 1424   6.166   6.565   6.609 -0.0452 -0.2512 -0.7443
  180WAT      O 1425   6.318   8.030   6.752 -0.0873  0.5069 -0.4231
  180WAT     H1 1426   6.394   8.024   6.709  0.3695 -2.3769  0.5299
  180WAT     H2 1427   6.259   8.007   6.693  0.1306  0.0201 -0.4581
  180WAT    EPW 1428   6.320   8.026   6.737 -0.0148  0.1937 -0.7532
  181WAT      O 1429   7.263   7.126   3.308  0.3239  0.2762 -0.1015
  181WAT     H1 1430   7.350   7.113   3.305  0.2737  0.0004 -0.4541
  181WAT     H2 1431   7.238   7.111   3.226 -0.2419 -0.9629  0.2768
  181WAT    EPW 1432   7.272   7.122   3.296 -0.8714  0.1669  0.1335
  182WAT      O 1433   6.972   7.849   4.517  0.1537  0.2047 -0.4703
  182WAT     H1 1434   6.953   7.891   4.590  0.7878  0.0235 -0.1887
  182WAT     H2 1435   6.961   7.909   4.455  2.0625  1.1388  0.0166
  182WAT    EPW 1436   6.968   7.864   4.519 -0.1107 -0.0899 -0.2577
  183WAT      O 1437   5.117   7.405   7.413  0.1132  0.7362  0.1723
  183WAT     H1 1438   5.193   7.407   7.456  0.9860  0.6848 -1.2891
  183WAT     H2 1439   5.107   7.320   7.394 -0.4135  0.7162  0.5275
  183WAT    EPW 1440   5.127   7.393   7.416  0.3571  0.1634  0.1468
  184WAT      O 1441   6.809   0.970   0.157  0.1487  0.5684 -0.5946
  184WAT     H1 1442   6.730   0.998   0.180 -0.1141  1.0896 -2.0199
  184WAT     H2 1443   6.795   0.889   0.128  0.6603 -0.5493  2.0141
  184WAT    EPW 1444   6.796   0.962   0.156  0.7121 -0.0158 -0.4688
  185WAT      O 1445   6.214   7.749   6.720  0.3758  0.0118 -0.6787
  185WAT     H1 1446   6.182   7.783   6.646 -0.5403 -2.3602 -1.4831
  185WAT     H2 1447   6.160   7.779   6.781  0.1129  0.6531 -1.2127
  185WAT    EPW 1448   6.201   7.758   6.718 -0.4296 -0.4937 -0.4082
  186WAT      O 1449   5.138   7.008   6.419 -0.2069  0.1260  0.1365
  186WAT     H1 1450   5.183   6.996   6.493 -0.4933  0.9464  0.4648
  186WAT     H2 1451   5.194   6.986   6.356 -0.4296 -2.0572  0.6081
  186WAT    EPW 1452   5.153   7.003   6.421  0.1889  0.6208 -0.0452
  187WAT      O 1453   5.717   7.436   3.327  0.4773 -0.6780  0.3266
  187WAT     H1 1454   5.681   7.485   3.389 -0.3106  0.7516 -1.1866
  187WAT     H2 1455   5.668   7.452   3.257  2.3276 -0.9015 -1.1059
  187WAT    EPW 1456   5.704   7.445   3.326  0.5662 -1.1010 -0.5453
  188WAT      O 1457   6.225   7.577   5.184  0.4625 -0.2580 -0.3120
  188WAT     H1 1458   6.182   7.547   5.114 -0.8932  1.8603 -0.4449
  188WAT     H2 1459   6.166   7.575   5.247  0.7483  0.8057  0.0027
  188WAT    EPW 1460   6.210   7.572   5.183  0.1592  0.7965 -0.1122
  189WAT      O 1461   6.279   6.837   6.041 -0.5653 -0.0284 -0.2774
  189WAT     H1 1462   6.208   6.872   6.077 -0.3303 -0.1261  0.2968
  189WAT     H2 1463   6.299   6.892   5.977 -0.3158  0.7840  0.4857
  189WAT    EPW 1464   6.271   6.850   6.037  0.3126 -0.0802 -1.0312
  190WAT      O 1465   4.908   5.999   0.211 -0.0061  0.3060 -0.9367
  190WAT     H1 1466   4.874   5.939   0.264  0.7227  0.7349  0.0513
  190WAT     H2 1467   4.952   5.952   0.153  1.4104 -0.1197  0.4201
  190WAT    EPW 1468   4.909   5.983   0.210  0.2691  0.6112  0.3275
  191WAT      O 1469   5.828   0.595   6.369  0.6760  0.3727 -0.1834
  191WAT     H1 1470   5.807   0.665   6.415  2.4116  1.0005 -0.2819
  191WAT     H2 1471   5.834   0.625   6.287  1.9575  0.2806 -0.1537
  191WAT    EPW 1472   5.826   0.610   6.364  0.6079 -1.0435 -0.4975
  192WAT      O 1473   5.800   7.043   0.124  0.1733 -1.1571 -0.1197
  192WAT     H1 1474   5.884   7.063   0.110  0.4623 -0.9343  1.5974
  192WAT     H2 1475   5.758   7.118   0.110  0.2144 -1.3140 -1.1635
  192WAT    EPW 1476   5.806   7.057   0.120 -0.0562 -0.2921 -0.2188
  193WAT      O 1477   6.202   6.995   6.795  0.8348  0.3295  0.2490
  193WAT     H1 1478   6.223   7.077   6.815  0.0328  0.3095  1.2668
  193WAT     H2 1479   6.115   6.996   6.792  0.7790  0.4338 -3.9118
  193WAT    EPW 1480   6.192   7.007   6.797 -0.5693 -0.5261  0.0847
  194WAT      O 1481   7.282   7.419   7.923  0.2676 -0.0548 -0.4311
  194WAT     H1 1482   7.207   7.438   7.884  0.1660  2.1931  0.6897
  194WAT     H2 1483   7.320   7.363   7.868 -2.0277 -0.9687 -1.2006
  194WAT    EPW 1484   7.277   7.414   7.909 -0.0374 -0.1823 -0.2146
  195WAT      O 1485   6.026   7.484   7.433  0.0438  0.4244 -0.2458
  195WAT     H1 1486   6.103   7.515   7.459 -0.3778  1.6863 -0.4763
  195WAT     H2 1487   6.048   7.419   7.379  0.9303  0.1245  0.4310
  195WAT    EPW 1488   6.041   7.479   7.429  0.5562 -0.2467 -0.1386
  196WAT      O 1489   6.040   7.760   5.430  0.1843  0.1411 -0.7342
  196WAT     H1 1490   6.019   7.781   5.512  1.2462 -2.1952  0.2229
  196WAT     H2 1491   6.016   7.676   5.424  0.3004  0.2072 -2.7859
  196WAT    EPW 1492   6.033   7.751   5.442  1.6551 -0.7218 -0.5741
  197WAT      O 1493   6.359   7.805   7.191 -0.0402  0.3362  0.2154
  197WAT     H1 1494   6.346   7.882   7.231  1.4814  0.0674  1.3122
  197WAT     H2 1495   6.367   7.827   7.107 -2.5543  1.0077  0.0611
  197WAT    EPW 1496   6.358   7.820   7.185  0.0478  0.1962  0.7191
  198WAT      O 1497   5.546   8.046   3.902 -0.5507  0.2230  0.4079
  198WAT     H1 1498   5.593   7.977   3.929 -1.3112  0.3438  2.1664
  198WAT     H2 1499   5.473   8.009   3.870 -0.9325  0.1785  1.2957
  198WAT    EPW 1500   5.542   8.030   3.901  0.1212 -0.0435  0.6873
  199WAT      O 1501   5.513   7.583   7.341 -0.0437 -0.0816 -0.3259
  199WAT     H1 1502   5.583   7.606   7.388  0.7089 -2.1085 -0.3559
  199WAT     H2 1503   5.542   7.519   7.290 -1.6334 -0.1129 -1.2685
  199WAT    EPW 1504   5.527   7.577   7.341  0.3000 -0.4041 -0.0075
  200WAT      O 1505   6.073   0.556   4.063  0.0954 -0.0297  0.0069
  200WAT     H1 1506   6.072   0.638   4.032  1.4000  0.4059  1.0336
  200WAT     H2 1507   6.138   0.518   4.019  2.5860  0.8467  2.5923
  200WAT    EPW 1508   6.082   0.563   4.052 -0.6593  0.3497  0.0476
  201WAT      O 1509   6.858   7.370   0.345  0.2026  0.3587  0.0438
  201WAT     H1 1510   6.882   7.449   0.375  2.5947  0.0553 -0.8094
  201WAT     H2 1511   6.934   7.335   0.318 -1.1320 -1.2501 -1.9105
  201WAT    EPW 1512   6.873   7.376   0.345  0.4308  0.4371 -0.3519
  202WAT      O 1513   5.594   0.377   6.364 -0.0987 -0.4440 -0.1743
  202WAT     H1 1514   5.618   0.324   6.429 -0.8927 -0.8873 -0.2292
  202WAT     H2 1515   5.644   0.448   6.376  0.2065 -0.7716  0.5453
  202WAT    EPW 1516   5.605   0.380   6.376 -0.4062 -0.5735  0.7266
  203WAT      O 1517   5.550   0.483   5.399  0.1925 -0.2831 -0.3169
  203WAT     H1 1518   5.537   0.482   5.485  0.1006 -0.7534 -0.3292
  203WAT     H2 1519   5.473   0.505   5.366  0.4648  0.8089 -0.2487
  203WAT    EPW 1520   5.537   0.486   5.407 -0.0383  0.6821  0.7082
  204WAT      O 1521   6.046   7.325   8.003 -0.3010  0.2672  0.1872
  204WAT     H1 1522   6.052   7.238   7.996 -1.7280  0.2796 -2.0540
  204WAT     H2 1523   6.126   7.352   7.979  0.1128 -0.3736  0.7721
  204WAT    EPW 1524   6.059   7.316   7.999 -0.4203  0.3291 -0.1771
  205WAT      O 1525   7.189   7.900   3.052 -0.3039  0.0818 -0.5162
  205WAT     H1 1526   7.141   7.910   2.980 -0.3744 -0.5716 -0.5589
  205WAT     H2 1527   7.270   7.921   3.025 -0.6868  2.1919 -0.2007
  205WAT    EPW 1528   7.194   7.905   3.037 -0.8772 -0.2099  0.3762
  206WAT      O 1529   6.531   0.115   2.803  0.4269  0.3846  0.0190
  206WAT     H1 1530   6.451   0.147   2.792  0.5968  0.1576 -2.2946
  206WAT     H2 1531   6.520   0.050   2.860 -1.4057 -0.8630 -1.6425
  206WAT    EPW 1532   6.518   0.110   2.810 -0.3094 -0.0907 -1.1233
  207WAT      O 1533   0.273   6.703   3.394 -0.8293  0.5716 -0.3813
  207WAT     H1 1534   0.280   6.634   3.446  0.2868  0.0761 -1.1608
  207WAT     H2 1535   0.205   6.747   3.427 -0.2933  0.1641  1.3521
  207WAT    EPW 1536   0.264   6.700   3.407 -0.0286 -0.1879  0.5183
  208WAT      O 1537   7.909   7.384   3.251 -0.1544  0.3128  0.0939
  208WAT     H1 1538   7.926   7.470   3.260 -0.7887  0.2717  2.9099
  208WAT     H2 1539   7.832   7.375   3.291 -1.0731 -1.3042 -1.9020
  208WAT    EPW 1540   7.900   7.396   3.258  0.2255 -0.7217 -0.9135
  209WAT      O 1541   7.449   7.169   3.966 -0.2695  0.1985 -0.2095
  209WAT     H1 1542   7.448   7.172   4.053 -1.3071  1.6734 -0.2407
  209WAT     H2 1543   7.388   7.109   3.948  0.5124 -0.7044  0.0686
  209WAT    EPW 1544   7.439   7.161   3.976 -0.6889 -0.0653  0.5867
  210WAT      O 1545   0.554   6.494   3.593  0.0208 -0.3079 -0.5233
  210WAT     H1 1546   0.574   6.416   3.559 -2.1631 -0.8599 -0.7382
  210WAT     H2 1547   0.468   6.499   3.580 -0.1187  1.5031  0.8267
  210WAT    EPW 1548   0.544   6.483   3.586 -0.1538 -0.1506  0.5195
  211WAT      O 1549   7.407   7.468   3.948 -0.3148  0.5945  0.0762
  211WAT     H1 1550   7.479   7.421   3.963  0.1867  1.8561  1.9307
  211WAT     H2 1551   7.435   7.550   3.956 -1.4747  1.2212 -1.6405
  211WAT    EPW 1552   7.422   7.473   3.951  1.4079  0.0002  0.2313
  212WAT      O 1553   7.821   6.783   3.912 -0.2730 -0.3294  0.2305
  212WAT     H1 1554   7.832   6.756   3.994 -0.7978  0.3908  0.5399
  212WAT     H2 1555   7.812   6.869   3.919 -0.6666 -0.2993 -0.5513
  212WAT    EPW 1556   7.821   6.791   3.925  0.0875 -0.4147  0.2215
  213WAT      O 1557   6.694   6.982   3.628 -0.0656  0.4225 -0.1090
  213WAT     H1 1558   6.756   6.997   3.569  0.7255 -0.3493  0.5126
  213WAT     H2 1559   6.661   7.061   3.644  1.2291  0.9474  0.0613
  213WAT    EPW 1560   6.698   6.996   3.622  0.2181  0.6362 -0.1095
  214WAT      O 1561   5.334   6.411   3.123  0.3359 -0.0645 -0.1511
  214WAT     H1 1562   5.407   6.368   3.146 -0.4105 -1.1941  0.2348
  214WAT     H2 1563   5.352   6.442   3.044  0.5093 -2.2084 -1.0301
  214WAT    EPW 1564   5.348   6.409   3.115  0.0550  0.7683 -0.1107
  215WAT      O 1565   5.470   7.529   5.032 -0.1962 -0.1975  0.3356
  215WAT     H1 1566   5.419   7.577   4.980  0.6718 -0.1461 -0.4884
  215WAT     H2 1567   5.422   7.518   5.103 -1.2764  0.0292 -0.3395
  215WAT    EPW 1568   5.456   7.534   5.035  0.1557 -1.0237 -0.1654
  216WAT      O 1569   4.985   7.585   6.112  0.0356  0.4947  0.3803
  216WAT     H1 1570   4.948   7.629   6.177 -1.3594 -0.0097 -0.0253
  216WAT     H2 1571   5.064   7.564   6.143 -0.8156 -0.2808  2.1847
  216WAT    EPW 1572   4.991   7.588   6.126 -0.3533  0.6213  0.3692
  217WAT      O 1573   4.437   6.428   6.515 -0.4218  0.0329  0.1880
  217WAT     H1 1574   4.433   6.401   6.432 -0.5227  1.2056 -0.2141
  217WAT     H2 1575   4.371   6.386   6.554  0.0684 -1.0866 -0.1408
  217WAT    EPW 1576   4.427   6.418   6.509 -0.4006 -0.2602 -0.4034
  218WAT      O 1577   6.210   7.267   4.165  0.3402  0.0094 -0.1921
  218WAT     H1 1578   6.196   7.310   4.239  0.2230 -0.9534  0.3650
  218WAT     H2 1579   6.211   7.183   4.190  0.9984 -0.2936 -1.1635
  218WAT    EPW 1580   6.208   7.261   4.179 -0.1996 -0.4468 -0.4674
  219WAT      O 1581   7.249   0.712   4.057 -0.2458  0.3732  0.2538
  219WAT     H1 1582   7.216   0.756   4.126 -0.3775  0.7920 -0.0716
  219WAT     H2 1583   7.308   0.767   4.025  0.3535 -0.1359  0.4787
  219WAT    EPW 1584   7.253   0.727   4.063  0.1641 -0.6806 -1.0735
  220WAT      O 1585   7.120   7.534   2.436  0.2736 -0.1449  0.3196
  220WAT     H1 1586   7.194   7.548   2.392  0.1856  1.5623  0.6404
  220WAT     H2 1587   7.061   7.582   2.392 -0.4986 -0.9267  0.4747
  220WAT    EPW 1588   7.122   7.543   2.423 -0.3821 -0.4676 -0.6310
  221WAT      O 1589   7.733   0.175   3.572  0.4203  0.4550  0.2086
  221WAT     H1 1590   7.743   0.088   3.577  2.5269  0.5812 -0.8428
  221WAT     H2 1591   7.698   0.196   3.649  1.5240 -1.1442  1.2069
  221WAT    EPW 1592   7.729   0.165   3.584  0.1026  0.0410 -0.6354
  222WAT      O 1593   7.618   7.300   1.903  0.1512  0.1316  0.3886
  222WAT     H1 1594   7.590   7.369   1.856  4.1237  1.2993 -0.6549
  222WAT     H2 1595   7.573   7.307   1.977 -1.6715  2.1211 -0.7655
  222WAT    EPW 1596   7.607   7.312   1.907  0.4800 -0.1287  0.0574
  223WAT      O 1597   7.751   0.289   3.828 -0.1530  0.2054 -0.0602
  223WAT     H1 1598   7.749   0.367   3.867  1.6000  0.0078  0.5036
  223WAT     H2 1599   7.835   0.278   3.807 -0.4354 -1.3253 -0.5377
  223WAT    EPW 1600   7.763   0.299   3.831  0.2209  0.6162 -0.0498
  224WAT      O 1601   8.060   7.277   3.679 -0.9071  0.6131 -0.0737
  224WAT     H1 1602   8.034   7.360   3.669  2.7860  1.7535 -2.3207
  224WAT     H2 1603   8.146   7.280   3.660 -0.4145 -3.6171  0.5156
  224WAT    EPW 1604   8.069   7.290   3.674  0.2494 -0.5782  0.3721
  225WAT      O 1605   7.106   7.718   3.854 -0.2351  0.1230  0.3810
  225WAT     H1 1606   7.144   7.694   3.929 -0.0948 -3.1138 -0.5819
  225WAT     H2 1607   7.021   7.713   3.872 -0.2559  2.1880  1.0582
  225WAT    EPW 1608   7.099   7.714   3.868 -0.3974 -0.2160 -0.5780
  226WAT      O 1609   5.980   6.932   6.432  0.2448  0.5903 -0.5752
  226WAT     H1 1610   6.020   6.854   6.435 -0.8932  0.0006 -0.4185
  226WAT     H2 1611   5.896   6.912   6.421  0.0071  1.8238 -1.1642
  226WAT    EPW 1612   5.974   6.917   6.431 -0.1748 -0.1145 -0.4338
  227WAT      O 1613   7.737   5.977   2.859  0.5275 -0.1256  0.0421
  227WAT     H1 1614   7.696   6.054   2.863  2.3957  0.9419 -0.0340
  227WAT     H2 1615   7.681   5.922   2.897 -1.1177  1.1334 -0.4372
  227WAT    EPW 1616   7.723   5.980   2.865  0.0648  0.5516 -0.7976
  228WAT      O 1617   6.911   0.046   3.014  0.3289  0.1469 -0.4196
  228WAT     H1 1618   6.875   0.049   3.093  1.7020  0.1325  0.2270
  228WAT     H2 1619   6.901  -0.037   2.990  0.0614  0.1131 -0.1982
  228WAT    EPW 1620   6.904   0.034   3.022 -0.0723  0.2111 -0.5263
  229WAT      O 1621   6.468   7.910   5.138 -0.0891 -0.4425  0.2790
  229WAT     H1 1622   6.537   7.938   5.182  0.6900 -2.4131  0.4159
  229WAT     H2 1623   6.444   7.979   5.090  0.6500  0.9303  1.7940
  229WAT    EPW 1624   6.474   7.924   5.138 -1.4031  0.4861  0.2951
  230WAT      O 1625   6.284   0.208   2.731 -0.3441 -0.0448 -0.3601
  230WAT     H1 1626   6.280   0.179   2.649  2.0804  1.2381 -1.0379
  230WAT     H2 1627   6.275   0.294   2.723  0.5972  0.1683  0.5907
  230WAT    EPW 1628   6.282   0.216   2.718  0.0879  0.3151 -0.2109
  231WAT      O 1629   7.427   8.009   2.995 -0.3987  0.2719  0.5687
  231WAT     H1 1630   7.484   8.029   3.058  0.3831 -0.1058  0.0066
  231WAT     H2 1631   7.447   8.066   2.932  0.8942 -1.2901 -0.5045
  231WAT    EPW 1632   7.439   8.021   2.995 -0.4786  1.1073 -0.0984
  232WAT      O 1633   6.500   6.953   4.305 -0.3848 -0.3505  0.2141
  232WAT     H1 1634   6.459   6.941   4.381 -0.0294  1.3489  0.7178
  232WAT     H2 1635   6.581   6.974   4.328 -0.4390  0.8245 -0.5902
  232WAT    EPW 1636   6.506   6.954   4.320 -0.4424 -0.1701 -0.0790
  233WAT      O 1637   6.924   7.575   4.463  0.1613 -0.0332  0.1886
  233WAT     H1 1638   6.870   7.565   4.531 -1.9573  0.9520 -1.2406
  233WAT     H2 1639   6.955   7.656   4.474  0.1316 -0.0228  0.1976
  233WAT    EPW 1640   6.920   7.585   4.475 -0.6307  0.1057 -0.0363
  234WAT      O 1641   0.233   6.806   2.264  0.0668  0.2662  0.3892
  234WAT     H1 1642   0.206   6.725   2.286  1.9929 -0.3943  0.4905
  234WAT     H2 1643   0.175   6.830   2.203 -0.3770 -1.3272  0.1253
  234WAT    EPW 1644   0.220   6.797   2.258  0.4247 -0.0975  0.1770
  235WAT      O 1645   8.051   7.628   3.123 -0.0484  0.0107  0.5113
  235WAT     H1 1646   8.055   7.709   3.155 -1.9502 -0.3100  1.7112
  235WAT     H2 1647   8.122   7.589   3.157 -0.8420  0.2985  2.6725
  235WAT    EPW 1648   8.062   7.634   3.133 -0.9780 -0.4433  0.3252
  236WAT      O 1649   0.071   7.725   3.812 -0.5451 -0.1673 -0.0403
  236WAT     H1 1650  -0.002   7.736   3.858 -1.2246  1.6067 -1.4086
  236WAT     H2 1651   0.118   7.796   3.831  0.8106 -1.2125  0.7090
  236WAT    EPW 1652   0.067   7.737   3.822  0.1133  0.1170 -0.2099
  237WAT      O 1653   8.021   7.020   3.293 -0.4765  0.1271  0.2033
  237WAT     H1 1654   8.000   6.951   3.243 -0.5523  0.5163 -0.3085
  237WAT     H2 1655   8.106   7.030   3.280 -0.4591  0.1143  0.3035
  237WAT    EPW 1656   8.030   7.011   3.284  0.6584  0.4082 -0.1615
  238WAT      O 1657   6.487   6.805   3.726 -0.0883 -0.2101 -0.2342
  238WAT     H1 1658   6.554   6.857   3.706  1.3580 -2.1552 -0.7598
  238WAT     H2 1659   6.519   6.754   3.790 -1.1440 -0.9972 -0.3070
  238WAT    EPW 1660   6.502   6.805   3.732 -0.4584 -0.6291 -0.0497
  239WAT      O 1661   0.136   5.405   3.997  0.1036 -0.1189  0.5961
  239WAT     H1 1662   0.191   5.413   3.930  0.5475 -0.4157  0.9209
  239WAT     H2 1663   0.112   5.321   3.993 -0.8831  0.1671  0.0323
  239WAT    EPW 1664   0.140   5.394   3.986  0.1251  0.3780  0.3350
  240WAT      O 1665   0.271   6.505   3.579 -0.2090  0.3516 -0.2037
  240WAT     H1 1666   0.265   6.465   3.656  2.4924 -1.5021 -0.8350
  240WAT     H2 1667   0.244   6.445   3.522 -0.7349  1.1686 -0.8497
  240WAT    EPW 1668   0.266   6.490   3.582 -0.3310 -0.4901  0.5489
  241WAT      O 1669   5.988   0.542   5.109 -0.1481 -0.3582 -0.4638
  241WAT     H1 1670   5.955   0.493   5.174  1.7096 -1.4795 -0.3056
  241WAT     H2 1671   6.007   0.483   5.047  0.6032  0.3763 -0.9447
  241WAT    EPW 1672   5.986   0.526   5.110  0.0061  0.5224 -0.0890
  242WAT      O 1673   6.920   6.735   4.313  0.2483 -0.4551 -0.5989
  242WAT     H1 1674   6.986   6.789   4.292 -0.6531  0.5054 -1.0099
  242WAT     H2 1675   6.859   6.753   4.253 -1.4848  0.6784  1.3742
  242WAT    EPW 1676   6.921   6.746   4.301 -0.4159 -0.3329  0.0752
  243WAT      O 1677   5.624   6.585   2.875 -0.7281 -0.0747  0.1433
  243WAT     H1 1678   5.637   6.577   2.961 -1.2921  1.6112  0.4202
  243WAT     H2 1679   5.538   6.596   2.868 -0.6227  0.3041 -0.6025
  243WAT    EPW 1680   5.613   6.585   2.887 -0.9486  0.7767  0.0082
  244WAT      O 1681   7.910   0.273   2.284  0.0633  0.0935 -0.0025
  244WAT     H1 1682   7.982   0.318   2.305  0.1647 -0.5760  1.1979
  244WAT     H2 1683   7.851   0.336   2.268  0.4937  0.6626  0.5689
  244WAT    EPW 1684   7.912   0.289   2.285  0.1309 -0.6206  0.0145
  245WAT      O 1685   0.144   0.023   2.594  0.5015 -0.0726  0.3506
  245WAT     H1 1686   0.218   0.027   2.639  1.6980 -0.3114 -1.4756
  245WAT     H2 1687   0.121  -0.061   2.600  0.0414  0.1096  1.3769
  245WAT    EPW 1688   0.151   0.012   2.601  0.8875  0.0372 -0.1449
  246WAT      O 1689   7.233   6.378   4.161  0.0393 -0.3522 -0.4680
  246WAT     H1 1690   7.245   6.343   4.240  0.6251 -0.3601 -0.5576
  246WAT     H2 1691   7.193   6.314   4.117 -0.3136 -0.3379 -0.1688
  246WAT    EPW 1692   7.229   6.363   4.166 -0.4602 -0.6516  0.4573
  247WAT      O 1693   6.756   7.262   4.355 -0.2590 -0.1493 -0.0346
  247WAT     H1 1694   6.735   7.180   4.378  1.1054 -0.3147  0.7515
  247WAT     H2 1695   6.684   7.308   4.374 -1.2733 -1.2488 -1.0840
  247WAT    EPW 1696   6.742   7.257   4.361 -0.5042 -0.2875 -1.1049
  248WAT      O 1697   7.640   7.598   3.596  0.6798  0.2348 -0.5579
  248WAT     H1 1698   7.718   7.571   3.624  0.0897 -0.8446  0.1525
  248WAT     H2 1699   7.628   7.552   3.523  0.6285  0.2553 -0.5628
  248WAT    EPW 1700   7.650   7.587   3.589 -0.6130 -0.1402  0.1301
  249WAT      O 1701   5.345   7.286   4.864  0.3825 -0.0231  0.3355
  249WAT     H1 1702   5.263   7.268   4.889 -0.4838  1.3699 -1.3061
  249WAT     H2 1703   5.362   7.225   4.805  1.3438 -1.5397  2.0834
  249WAT    EPW 1704   5.335   7.274   4.859 -0.6347 -0.0401 -0.5379
  250WAT      O 1705   7.773   7.926   3.640  0.0548  0.3150 -0.4727
  250WAT     H1 1706   7.713   7.895   3.583  0.8284  0.8197 -1.6013
  250WAT     H2 1707   7.736   7.911   3.718 -1.4723  0.4529 -1.1223
  250WAT    EPW 1708   7.758   7.919   3.643 -1.0964  0.7251 -0.7918
  251WAT      O 1709   7.200   7.559   3.518 -0.0636  0.1777  0.2338
  251WAT     H1 1710   7.245   7.492   3.485 -0.7593 -1.0193  1.6336
  251WAT     H2 1711   7.261   7.612   3.549  0.4950  0.2154 -0.8793
  251WAT    EPW 1712   7.215   7.557   3.517 -0.0688  0.2542 -0.6015
  252WAT      O 1713   7.615   7.664   3.285  0.2994  0.1758  0.1525
  252WAT     H1 1714   7.612   7.710   3.211  2.9612 -0.3719 -0.4115
  252WAT     H2 1715   7.584   7.586   3.263  1.5372 -0.1384 -0.5918
  252WAT    EPW 1716   7.610   7.659   3.271  0.8428  0.2652  0.6264
  253WAT      O 1717   6.141   6.694   5.640 -0.0694  0.1670 -0.0523
  253WAT     H1 1718   6.177   6.616   5.654  1.3357  0.9655  0.9665
  253WAT     H2 1719   6.138   6.699   5.553 -0.1627 -0.9988 -0.1410
  253WAT    EPW 1720   6.146   6.683   5.630  0.1293 -0.2541 -0.6743
  254WAT      O 1721   6.323   6.693   2.795  0.4295 -0.4061 -0.1202
  254WAT     H1 1722   6.269   6.756   2.771 -1.5023 -1.8239  0.2801
  254WAT     H2 1723   6.384   6.693   2.733 -0.7597  0.3860 -1.3375
  254WAT    EPW 1724   6.324   6.702   2.783 -0.7801 -1.1724 -1.1901
  255WAT      O 1725   7.185   0.137   4.207  0.6112 -0.4604  0.2391
  255WAT     H1 1726   7.269   0.155   4.193  0.8405 -1.7484 -0.1680
  255WAT     H2 1727   7.183   0.050   4.211 -1.0285 -0.6114 -2.0399
  255WAT    EPW 1728   7.197   0.127   4.206 -0.3839 -0.6383  0.0883
  256WAT      O 1729   5.568   0.223   3.745  0.6075  0.4212  0.2981
  256WAT     H1 1730   5.484   0.236   3.725  1.1568  2.7341 -0.7904
  256WAT     H2 1731   5.565   0.155   3.800 -1.9193  0.1757 -0.0158
  256WAT    EPW 1732   5.555   0.215   3.750  0.4122 -1.0192  0.4439
  257WAT      O 1733   6.170   7.485   6.578  0.0686  0.2945 -0.0244
  257WAT     H1 1734   6.145   7.520   6.502 -0.3383  0.4787  0.1942
  257WAT     H2 1735   6.204   7.553   6.621  0.7617  0.0891 -0.2359
  257WAT    EPW 1736   6.171   7.501   6.573 -0.3981  0.9398  0.5647
  258WAT      O 1737   6.169   7.755   3.297 -0.1398  0.3164  0.2506
  258WAT     H1 1738   6.130   7.833   3.298 -0.5251  0.1985 -1.6513
  258WAT     H2 1739   6.108   7.701   3.326  0.1253  0.7026  1.5716
  258WAT    EPW 1740   6.154   7.759   3.301 -0.2841 -0.1846 -0.7698
  259WAT      O 1741   6.185   6.477   2.705 -0.5849 -0.0944  0.1319
  259WAT     H1 1742   6.227   6.539   2.749  0.0096  0.6464 -1.4161
  259WAT     H2 1743   6.160   6.517   2.631 -1.6823 -1.2392 -0.1621
  259WAT    EPW 1744   6.187   6.492   2.700 -0.0633  0.2609 -0.0132
  260WAT      O 1745   7.929   7.629   2.483  0.2850 -0.1254 -0.8566
  260WAT     H1 1746   7.947   7.571   2.420  1.2163  0.1348 -0.8389
  260WAT     H2 1747   7.880   7.688   2.442 -0.4785 -0.7889 -0.9312
  260WAT    EPW 1748   7.924   7.629   2.467 -0.6146  0.4265  0.7176
  261WAT      O 1749   5.667   6.158   2.922 -0.0590  0.5953 -0.4960
  261WAT     H1 1750   5.646   6.195   2.846  2.2416  1.8740 -0.5962
  261WAT     H2 1751   5.742   6.116   2.905 -0.2700 -0.3493  0.7319
  261WAT    EPW 1752   5.675   6.157   2.908  0.2210 -0.0106 -0.4985
  262WAT      O 1753   5.285   6.818   5.385  0.0574  0.0636 -0.7349
  262WAT     H1 1754   5.270   6.816   5.471 -1.1794  0.5561 -0.9222
  262WAT     H2 1755   5.210   6.790   5.350 -0.7697  3.1754 -1.7425
  262WAT    EPW 1756   5.272   6.814   5.392 -0.7343 -0.7056 -0.2642
  263WAT      O 1757   0.247   7.263   3.680 -0.2833  0.4927 -0.5474
  263WAT     H1 1758   0.238   7.203   3.742  0.3229  0.6007 -0.3511
  263WAT     H2 1759   0.249   7.216   3.606  2.0037  0.0685 -0.2931
  263WAT    EPW 1760   0.246   7.247   3.678 -0.6776 -0.2968  0.2802
  264WAT      O 1761   6.948   7.427   3.764 -0.2636  0.4677 -0.3528
  264WAT     H1 1762   6.930   7.492   3.820 -0.6080  0.6330 -0.6464
  264WAT     H2 1763   7.035   7.424   3.764 -0.2416  0.9157 -0.3108
  264WAT    EPW 1764   6.958   7.436   3.772  0.7955 -0.2718 -0.3636
  265WAT      O 1765   6.781   7.234   4.999 -0.2866 -0.1776 -0.4027
  265WAT     H1 1766   6.843   7.227   4.939 -1.6539  0.1596 -1.9269
  265WAT     H2 1767   6.768   7.320   5.006  1.3184 -0.0512  2.0173
  265WAT    EPW 1768   6.788   7.245   4.991  0.7108 -0.4961 -0.3224
  266WAT      O 1769   8.064   6.650   3.769  0.1183 -0.0074 -0.4939
  266WAT     H1 1770   8.062   6.567   3.742 -0.0719 -0.6075  1.2417
  266WAT     H2 1771   7.980   6.670   3.782  0.2193  0.2122 -0.1687
  266WAT    EPW 1772   8.051   6.641   3.767 -0.2534 -0.1182 -0.8767
  267WAT      O 1773   5.962   7.300   5.093 -0.2774  0.2485 -0.3175
  267WAT     H1 1774   5.995   7.370   5.054  1.4241 -1.7801 -2.7748
  267WAT     H2 1775   5.894   7.278   5.043 -0.2423 -0.3762 -0.1035
  267WAT    EPW 1776   5.957   7.307   5.080 -0.2667 -0.4447 -0.8609
  268WAT      O 1777   7.544   7.508   0.761  0.0071  0.6222 -0.2519
  268WAT     H1 1778   7.616   7.557   0.772  1.8137 -1.5789 -1.5537
  268WAT     H2 1779   7.570   7.428   0.784 -2.5321 -0.0112  0.7204
  268WAT    EPW 1780   7.559   7.504   0.766 -0.0393  0.4920  0.4082
  269WAT      O 1781   7.453   6.240   1.995  0.0740  1.0161 -0.1083
  269WAT     H1 1782   7.462   6.203   2.073 -0.6495 -0.8691 -0.8828
  269WAT     H2 1783   7.474   6.324   2.010 -0.6717  0.8440  2.2208
  269WAT    EPW 1784   7.457   6.247   2.009 -0.0243 -0.3317 -0.5938
  270WAT      O 1785   0.504   5.768   1.477 -0.4044 -0.2845 -0.0735
  270WAT     H1 1786   0.536   5.729   1.405  0.6942 -0.4813  0.4971
  270WAT     H2 1787   0.559   5.833   1.492  0.3513 -1.2321  1.5070
  270WAT    EPW 1788   0.517   5.772   1.469 -0.8144 -0.1953  0.3460
  271WAT      O 1789   7.856   6.630   1.795 -1.0794  0.7333 -0.2656
  271WAT     H1 1790   7.845   6.582   1.867 -0.1033 -0.3978 -0.8407
  271WAT     H2 1791   7.868   6.711   1.825  0.9229  0.0369  0.9616
  271WAT    EPW 1792   7.856   6.635   1.810 -0.1548 -0.3990 -0.6258
  272WAT      O 1793   7.381   6.612   2.712  0.2265 -0.0289  0.0005
  272WAT     H1 1794   7.379   6.696   2.736  0.5016 -0.0465  0.0903
  272WAT     H2 1795   7.297   6.590   2.706  0.1476  0.4140 -0.5957
  272WAT    EPW 1796   7.369   6.621   2.715  0.4249  0.7720  0.4725
  273WAT      O 1797   7.332   7.644   1.760  0.4196  0.2397 -0.0048
  273WAT     H1 1798   7.265   7.640   1.815  0.0488 -1.1225 -0.5143
  273WAT     H2 1799   7.314   7.714   1.711  0.6753  1.3726  1.4564
  273WAT    EPW 1800   7.319   7.654   1.761  0.4863 -0.3930 -0.6006
  274WAT      O 1801   7.991   6.852   1.525  0.0246  0.1061 -0.1088
  274WAT     H1 1802   8.047   6.917   1.509  1.6902 -1.1273  0.3621
  274WAT     H2 1803   7.948   6.879   1.597 -0.9480  1.6277 -1.2030
  274WAT    EPW 1804   7.993   6.866   1.534 -0.6804 -0.8057 -0.3458
  275WAT      O 1805   6.930   7.017   2.841  0.4128 -0.0248  0.2444
  275WAT     H1 1806   6.881   6.945   2.841 -0.1235  0.3040 -0.9906
  275WAT     H2 1807   6.974   7.012   2.916 -2.5928  0.4269  2.1718
  275WAT    EPW 1808   6.929   7.005   2.852  0.5723 -0.6789 -0.0773
  276WAT      O 1809   7.609   6.121   3.245 -0.0452 -0.0003 -0.7071
  276WAT     H1 1810   7.530   6.131   3.283  0.4747 -0.2628  0.5060
  276WAT     H2 1811   7.664   6.122   3.313  0.8563 -1.5495 -1.3555
  276WAT    EPW 1812   7.605   6.122   3.261  0.0756  0.0205 -0.3163
  277WAT      O 1813   0.736   6.342   0.612  0.6668 -0.2673  0.2140
  277WAT     H1 1814   0.658   6.362   0.578 -0.2003 -0.4517  1.9745
  277WAT     H2 1815   0.792   6.374   0.554 -0.7077  1.0342 -0.4852
  277WAT    EPW 1816   0.733   6.350   0.599 -0.8417 -0.3494 -0.2707
  278WAT      O 1817   0.554   5.521   3.441 -0.2598 -0.2973  0.1626
  278WAT     H1 1818   0.630   5.503   3.480  0.1753 -0.1283 -0.5903
  278WAT     H2 1819   0.499   5.463   3.477 -0.3522  1.0518  2.4050
  278WAT    EPW 1820   0.557   5.509   3.452  0.1594 -0.1829  0.3199
  279WAT      O 1821   0.068   6.810   3.517 -0.1868  0.2222 -0.4232
  279WAT     H1 1822  -0.000   6.846   3.475 -0.4835  0.2013  0.0226
  279WAT     H2 1823   0.030   6.752   3.570  0.0915  0.8272  0.4724
  279WAT    EPW 1824   0.052   6.807   3.519  0.2264  0.0174 -0.4364
  280WAT      O 1825   0.437   7.470   1.622  0.7220 -0.2775  0.4133
  280WAT     H1 1826   0.410   7.400   1.575 -1.0799  0.4201  0.3118
  280WAT     H2 1827   0.441   7.439   1.703 -0.3505 -0.4634  0.4168
  280WAT    EPW 1828   0.433   7.455   1.627  0.0050 -0.9561 -0.3665
  281WAT      O 1829   7.346   7.476   3.134  0.4074  0.3395 -0.0480
  281WAT     H1 1830   7.273   7.523   3.140  0.5769  0.5553  0.4178
  281WAT     H2 1831   7.387   7.509   3.065 -0.5706 -0.7026 -1.1916
  281WAT    EPW 1832   7.341   7.488   3.125  0.3376 -0.8202 -0.3548
  282WAT      O 1833   0.771   6.859   1.256  0.5468 -0.3909 -0.9004
  282WAT     H1 1834   0.846   6.843   1.298 -0.3362  0.0829  1.0162
  282WAT     H2 1835   0.764   6.946   1.259 -0.2768 -0.4534 -0.6186
  282WAT    EPW 1836   0.781   6.869   1.263 -0.2755  0.5240 -0.2111
  283WAT      O 1837   0.464   6.854   3.055  0.5354 -0.0207  0.4231
  283WAT     H1 1838   0.446   6.895   2.979 -0.3968  1.2913  1.3085
  283WAT     H2 1839   0.490   6.919   3.107 -0.5894 -0.6080  1.7638
  283WAT    EPW 1840   0.465   6.870   3.051 -0.4440  0.0528 -0.1794
  284WAT      O 1841   0.175   6.279   1.064  0.3916  0.3768 -0.2103
  284WAT     H1 1842   0.258   6.254   1.057  0.2958 -0.3992  1.0699
  284WAT     H2 1843   0.178   6.365   1.050  1.3033  0.2504 -0.8721
  284WAT    EPW 1844   0.188   6.288   1.061  0.1753 -0.2220 -0.7249
  285WAT      O 1845   0.159   7.993   3.309 -0.2464 -0.0927  0.5749
  285WAT     H1 1846   0.129   8.071   3.283  1.4830  0.5204  0.2885
  285WAT     H2 1847   0.219   7.974   3.248  0.9982 -0.5452  1.9034
  285WAT    EPW 1848   0.163   8.002   3.296  0.2154  1.0454 -0.8017
  286WAT      O 1849   0.763   7.415   2.381  0.1286  0.3387  0.3407
  286WAT     H1 1850   0.720   7.433   2.307  0.9354 -1.1819 -0.5696
  286WAT     H2 1851   0.817   7.350   2.357  0.3325 -0.2778  2.3092
  286WAT    EPW 1852   0.765   7.408   2.366 -0.4349 -0.6504  0.7610
  287WAT      O 1853   7.676   7.643   1.502  0.0037 -0.2988 -0.3361
  287WAT     H1 1854   7.757   7.621   1.478  1.1977  1.6850  1.5265
  287WAT     H2 1855   7.671   7.727   1.479 -0.7420  0.1531  1.3479
  287WAT    EPW 1856   7.688   7.653   1.495 -0.3461  0.0925 -0.4688
  288WAT      O 1857   6.836   7.831   2.548  0.4189 -0.0149  0.0581
  288WAT     H1 1858   6.841   7.917   2.563 -0.4210 -0.0364  0.5548
  288WAT     H2 1859   6.804   7.799   2.622  0.3945 -0.7125 -0.2448
  288WAT    EPW 1860   6.832   7.839   2.561  0.7283 -0.5773 -0.3867
  289WAT      O 1861   7.947   6.688   2.705 -0.0144 -0.7191  0.3219
  289WAT     H1 1862   7.972   6.659   2.626  0.4248  0.6731 -0.0705
  289WAT     H2 1863   7.930   6.614   2.748  1.0121 -1.5759 -0.6481
  289WAT    EPW 1864   7.948   6.673   2.699 -0.1349  0.4647 -0.7154
  290WAT      O 1865   6.354   6.810   1.193 -0.3421  0.5023  0.0608
  290WAT     H1 1866   6.354   6.896   1.179  0.9213  0.7386  1.3211
  290WAT     H2 1867   6.401   6.779   1.126 -0.2346  0.8664 -0.0342
  290WAT    EPW 1868   6.361   6.818   1.181  0.3561 -0.2795 -0.0220
  291WAT      O 1869   7.868   6.897   1.779 -0.1961  0.1284 -0.0053
  291WAT     H1 1870   7.913   6.945   1.836  0.9984  0.9990 -1.6037
  291WAT     H2 1871   7.789   6.935   1.777 -0.8952 -0.9931  2.3050
  291WAT    EPW 1872   7.863   6.909   1.787  0.1169  0.0025  0.1998
  292WAT      O 1873   0.079   7.320   3.341  0.2330 -0.4104  0.8765
  292WAT     H1 1874   0.116   7.249   3.306 -0.3708 -0.8730  1.1687
  292WAT     H2 1875  -0.002   7.319   3.309  0.6367  0.9975 -0.3468
  292WAT    EPW 1876   0.073   7.309   3.331 -0.0828 -0.4167  0.4998
  293WAT      O 1877   6.977   7.525   1.535 -0.3124 -0.1170 -0.2682
  293WAT     H1 1878   7.018   7.600   1.520  0.0686 -0.5553 -1.4992
  293WAT     H2 1879   7.041   7.468   1.552 -0.6305 -0.0526  1.3024
  293WAT    EPW 1880   6.992   7.527   1.535 -0.1397  0.2577 -0.5313
  294WAT      O 1881   0.287   6.988   4.237 -0.1798  0.0232  0.1827
  294WAT     H1 1882   0.270   7.039   4.305 -1.0679  0.5533 -0.4156
  294WAT     H2 1883   0.323   7.043   4.179  0.9885 -0.5145  0.3734
  294WAT    EPW 1884   0.290   7.004   4.238 -0.8237 -0.0045 -0.2659
  295WAT      O 1885   0.109   6.726   3.990  0.0765 -0.0190  0.2396
  295WAT     H1 1886   0.078   6.719   3.909 -2.7782 -1.1617  1.3129
  295WAT     H2 1887   0.099   6.646   4.023  2.4217  0.0828  1.3830
  295WAT    EPW 1888   0.103   6.713   3.983 -0.1089 -0.9443 -0.5122
  296WAT      O 1889   7.710   0.208   0.879  0.0804 -0.1508  0.2295
  296WAT     H1 1890   7.760   0.179   0.945 -0.0442  1.1307  0.9241
  296WAT     H2 1891   7.682   0.285   0.907 -2.3341 -0.8184 -0.1434
  296WAT    EPW 1892   7.713   0.215   0.893  0.5715 -0.2629  0.2744
  297WAT      O 1893   0.103   6.677   1.594 -0.2035  0.2931  0.6938
  297WAT     H1 1894   0.088   6.682   1.680 -2.0009 -0.7097  0.4842
  297WAT     H2 1895   0.046   6.734   1.560 -2.4752 -2.2175 -0.0253
  297WAT    EPW 1896   0.092   6.686   1.602 -0.5417  0.3515 -0.2646
  298WAT      O 1897   7.763   6.902   2.626  0.4633 -0.4867  0.1166
  298WAT     H1 1898   7.793   6.839   2.678 -1.5989 -0.9187  0.8723
  298WAT     H2 1899   7.690   6.929   2.666 -0.0641  0.6267 -1.4925
  298WAT    EPW 1900   7.756   6.897   2.640 -0.2714 -1.2352 -0.6712
  299WAT      O 1901   7.500   8.007   2.535  0.0923 -0.2939 -0.1029
  299WAT     H1 1902   7.443   7.941   2.539 -2.4629  1.7903  1.3487
  299WAT     H2 1903   7.492   8.037   2.454 -0.7075 -0.2299 -0.0091
  299WAT    EPW 1904   7.490   8.002   2.524 -0.2096  0.0721 -0.2397
  300WAT      O 1905   0.322   7.105   2.295 -0.2180  0.2447 -0.6683
  300WAT     H1 1906   0.302   7.020   2.290  2.4489 -0.5641  0.7159
  300WAT     H2 1907   0.324   7.121   2.380  2.1295  0.8808 -0.7741
  300WAT    EPW 1908   0.319   7.094   2.307  0.2137  0.6865 -0.2702
  301WAT      O 1909   7.863   0.946   0.981 -0.3409  0.3610 -0.0629
  301WAT     H1 1910   7.933   0.993   0.959  1.4161 -1.8643  0.3976
  301WAT     H2 1911   7.885   0.911   1.058 -2.4434  0.4736  0.6362
  301WAT    EPW 1912   7.877   0.948   0.989  0.3226  0.0560 -0.6912
  302WAT      O 1913   7.628   6.463   1.519  0.1657 -0.1719  0.2578
  302WAT     H1 1914   7.714   6.475   1.528  0.6279 -1.2002 -2.0798
  302WAT     H2 1915   7.597   6.542   1.501  1.1098 -0.1852 -1.6879
  302WAT    EPW 1916   7.636   6.476   1.518  0.8856 -0.7700  0.1947
  303WAT      O 1917   0.427   6.113   0.687  0.4041 -0.3237  0.2971
  303WAT     H1 1918   0.482   6.075   0.631  0.9802 -0.2914  0.8271
  303WAT     H2 1919   0.348   6.092   0.656  0.6614  0.8488 -1.3566
  303WAT    EPW 1920   0.424   6.104   0.674 -0.3366 -0.7495 -0.6764
  304WAT      O 1921   0.107   6.410   1.452 -0.1815 -0.4359 -0.2467
  304WAT     H1 1922   0.128   6.457   1.382  0.2699 -1.5195 -0.8586
  304WAT     H2 1923   0.069   6.469   1.505  0.5408  0.6552 -0.8844
  304WAT    EPW 1924   0.105   6.426   1.450  0.5997 -0.1884 -0.3673
  305WAT      O 1925   7.554   7.265   0.881  0.2645 -0.1159  0.3264
  305WAT     H1 1926   7.549   7.182   0.854 -0.4887 -0.0765  0.3111
  305WAT     H2 1927   7.626   7.267   0.930  3.0553  0.2809 -3.3105
  305WAT    EPW 1928   7.564   7.253   0.884  0.0597 -0.1585 -0.2708
  306WAT      O 1929   7.155   7.062   3.046 -0.8643  0.5518  0.1491
  306WAT     H1 1930   7.199   6.987   3.054 -1.0510  0.5303  1.0221
  306WAT     H2 1931   7.208   7.112   2.998 -0.5589  0.0040 -0.0860
  306WAT    EPW 1932   7.169   7.058   3.040  0.6032 -0.6871  0.0384
  307WAT      O 1933   7.151   7.979   0.606  0.0654 -0.0097 -0.7777
  307WAT     H1 1934   7.192   8.049   0.639  1.4678 -1.8072  1.6096
  307WAT     H2 1935   7.071   8.009   0.589 -0.5329  1.5200  3.4690
  307WAT    EPW 1936   7.145   7.994   0.609  0.3690  0.8565  0.5080
  308WAT      O 1937   7.361   0.090   2.305 -0.5967  0.0340 -0.8575
  308WAT     H1 1938   7.345   0.064   2.223 -2.6588 -0.2037 -0.4352
  308WAT     H2 1939   7.282   0.093   2.341  0.2788 -0.0808  1.2028
  308WAT    EPW 1940   7.347   0.086   2.298 -0.8396 -0.6263 -0.2944
  309WAT      O 1941   0.635   6.951   2.395  0.5412 -0.0646 -0.6609
  309WAT     H1 1942   0.629   7.029   2.357  1.5049  0.2533 -0.1948
  309WAT     H2 1943   0.720   6.931   2.387  0.2781 -1.1543 -0.9474
  309WAT    EPW 1944   0.647   6.959   2.388 -0.1979 -0.6863  0.8724
  310WAT      O 1945   7.528   6.194   2.799  0.1429  0.5457  0.1283
  310WAT     H1 1946   7.512   6.173   2.716  0.3400 -0.5598  0.3486
  310WAT     H2 1947   7.467   6.150   2.844  0.6893  0.2788  0.6307
  310WAT    EPW 1948   7.517   6.184   2.794 -0.1077 -0.4747  0.9529
  311WAT      O 1949   7.946   7.545   2.882 -0.4491  0.1347  0.2542
  311WAT     H1 1950   7.983   7.555   2.960  0.1663 -0.6408  0.0729
  311WAT     H2 1951   8.005   7.499   2.837  0.5296  3.0189 -1.6491
  311WAT    EPW 1952   7.960   7.540   2.887  0.3606 -0.8857  0.5655
  312WAT      O 1953   0.300   6.683   2.755 -0.4822  0.1298 -0.3198
  312WAT     H1 1954   0.225   6.718   2.784 -0.7010 -2.0147  2.0414
  312WAT     H2 1955   0.352   6.752   2.746 -1.4008  1.3154  2.4102
  312WAT    EPW 1956   0.296   6.698   2.758 -0.3709 -1.2224  0.4845
  313WAT      O 1957   7.388   7.839   1.305  0.7243  0.2523 -0.3164
  313WAT     H1 1958   7.386   7.899   1.242  1.3083 -0.5734 -1.1553
  313WAT     H2 1959   7.465   7.852   1.344  0.8261  0.0935 -0.4620
  313WAT    EPW 1960   7.399   7.849   1.302  0.1709  0.7667  0.2919
  314WAT      O 1961   7.505   6.679   2.416  0.3298  0.3074 -0.0463
  314WAT     H1 1962   7.463   6.682   2.493 -0.0174  1.0440 -0.2641
  314WAT     H2 1963   7.577   6.726   2.430  0.6688 -0.2376  0.0670
  314WAT    EPW 1964   7.510   6.686   2.430  0.8118 -0.0895 -0.1952
  315WAT      O 1965   0.221   6.684   3.127 -0.0039 -0.5178  0.7858
  315WAT     H1 1966   0.243   6.690   3.211 -0.3489 -1.7696  0.9911
  315WAT     H2 1967   0.294   6.706   3.084 -0.6226  3.0784  1.3189
  315WAT    EPW 1968   0.235   6.688   3.133  0.3752  0.0940 -1.1337
  316WAT      O 1969   7.820   6.082   3.993  0.6643 -0.0353 -0.5896
  316WAT     H1 1970   7.753   6.118   3.951 -0.5333 -0.3739  0.9349
  316WAT     H2 1971   7.814   5.997   3.972 -1.2115 -0.5790  1.7561
  316WAT    EPW 1972   7.809   6.075   3.984 -0.3649 -0.2701  0.7186
  317WAT      O 1973   7.541   7.658   2.629  0.4417 -0.0566  0.3399
  317WAT     H1 1974   7.470   7.706   2.641  0.6004  0.0592  0.8705
  317WAT     H2 1975   7.518   7.579   2.659  0.6199  0.0513  0.7682
  317WAT    EPW 1976   7.527   7.653   2.635  0.0968 -0.1768 -0.2513
  318WAT      O 1977   0.083   6.835   2.811  0.1034  0.1407 -0.1084
  318WAT     H1 1978   0.079   6.921   2.818  2.6517  0.7158 -3.3474
  318WAT     H2 1979   0.012   6.814   2.765 -0.1581  0.5775  0.0875
  318WAT    EPW 1980   0.072   6.844   2.806  0.1620 -0.6495 -0.2546
  319WAT      O 1981   0.206   6.329   2.279  0.3052  0.4735 -0.1719
  319WAT     H1 1982   0.293   6.332   2.288  0.4359  1.4257 -1.4382
  319WAT     H2 1983   0.189   6.243   2.272  0.7840  0.0459  2.6812
  319WAT    EPW 1984   0.216   6.317   2.279 -0.2336  0.4043 -0.5135
  320WAT      O 1985   0.202   7.055   3.281 -0.3495  0.3786 -0.0045
  320WAT     H1 1986   0.228   7.043   3.364 -1.4402 -0.6327  0.2225
  320WAT     H2 1987   0.277   7.052   3.236  0.1582 -0.2218  0.8348
  320WAT    EPW 1988   0.217   7.053   3.287 -0.6326 -0.7060 -0.1185
  321WAT      O 1989   6.635   7.760   4.520  0.4542  0.1169 -0.0864
  321WAT     H1 1990   6.562   7.726   4.487 -0.8624  3.3881 -0.9668
  321WAT     H2 1991   6.679   7.786   4.450  0.3103  2.0802  0.4738
  321WAT    EPW 1992   6.631   7.759   4.505 -0.6644 -0.0464 -0.6164
  322WAT      O 1993   6.977   6.850   2.390  0.0976  0.1360  0.2107
  322WAT     H1 1994   7.062   6.830   2.385 -0.1630 -1.1843  0.6111
  322WAT     H2 1995   6.940   6.775   2.416 -1.3730  0.2390 -1.3841
  322WAT    EPW 1996   6.984   6.836   2.393 -0.2993  0.2607  0.8556
  323WAT      O 1997   0.058   5.873   3.816  0.8915  0.4983  0.1056
  323WAT     H1 1998   0.055   5.850   3.732  2.1563  0.7627 -0.0405
  323WAT     H2 1999   0.131   5.835   3.845  1.3076  1.6851  0.6767
  323WAT    EPW 2000   0.068   5.864   3.808  0.4368  0.0292  0.5493
  324WAT      O 2001   0.576   7.364   2.579  0.0383  0.6381  0.2085
  324WAT     H1 2002   0.595   7.449   2.576  2.1367  0.2110 -1.2680
  324WAT     H2 2003   0.638   7.328   2.530 -0.9971 -1.7318  0.5028
  324WAT    EPW 2004   0.588   7.371   2.571  0.0919 -0.1032 -0.6644
  325WAT      O 2005   7.081   6.465   1.837  0.0678 -0.6109 -0.0916
  325WAT     H1 2006   7.158   6.507   1.836 -0.4844  0.4768  0.4640
  325WAT     H2 2007   7.029   6.516   1.789 -1.3086  0.8523  2.7017
  325WAT    EPW 2008   7.085   6.479   1.830  0.2849 -0.0774 -0.5507
  326WAT      O 2009   7.295   6.065   2.380  0.8441 -0.4802  0.5132
  326WAT     H1 2010   7.365   6.071   2.329  1.1550 -0.4608  0.9357
  326WAT     H2 2011   7.282   6.148   2.407 -0.1129 -0.2573 -0.5746
  326WAT    EPW 2012   7.303   6.078   2.377 -0.4962  0.5332 -0.4447
  327WAT      O 2013   8.007   7.509   2.248 -0.1336  0.8275 -0.3332
  327WAT     H1 2014   8.022   7.589   2.218 -0.5381  0.8378 -0.5038
  327WAT     H2 2015   7.976   7.466   2.179 -2.4071  1.2269  0.3719
  327WAT    EPW 2016   8.005   7.514   2.234 -0.9114 -0.1859 -0.2528
  328WAT      O 2017   0.802   6.421   2.458  0.1666  0.1437 -0.2476
  328WAT     H1 2018   0.772   6.395   2.380 -0.7765  2.1277 -0.6180
  328WAT     H2 2019   0.821   6.506   2.445  0.5070  0.3710  1.5315
  328WAT    EPW 2020   0.800   6.430   2.444  0.5549  0.3105 -1.3312
  329WAT      O 2021   0.128   6.661   1.882 -0.8407 -0.1258  0.3735
  329WAT     H1 2022   0.188   6.639   1.941  2.5946  3.7933 -1.1565
  329WAT     H2 2023   0.075   6.715   1.926  0.8066  1.5836  0.3930
  329WAT    EPW 2024   0.129   6.666   1.897  0.3337 -0.0853 -0.0488
  330WAT      O 2025   0.448   7.376   3.850  0.1144  0.1573  0.1227
  330WAT     H1 2026   0.390   7.365   3.786 -1.3591 -1.2133  1.6161
  330WAT     H2 2027   0.512   7.321   3.829  0.3449  0.7927 -0.9068
  330WAT    EPW 2028   0.449   7.367   3.837  0.5102 -0.4136 -1.0485
  331WAT      O 2029   6.987   7.034   0.149  0.6627  0.2947  0.0750
  331WAT     H1 2030   6.995   6.995   0.227 -3.0583 -1.6783 -0.2455
  331WAT     H2 2031   7.054   7.003   0.103  1.6465 -0.3247  1.8519
  331WAT    EPW 2032   6.998   7.023   0.154 -0.1442 -0.6593 -0.1181
  332WAT      O 2033   6.869   6.545   0.381 -0.0094 -0.2206 -0.0240
  332WAT     H1 2034   6.845   6.620   0.342  1.4695  1.2550  1.6881
  332WAT     H2 2035   6.795   6.515   0.415 -0.1326  2.9043  3.0386
  332WAT    EPW 2036   6.854   6.552   0.380  0.7299  0.2515 -0.5886
  333WAT      O 2037   7.197   6.731   1.999 -0.2915  0.3015 -0.6776
  333WAT     H1 2038   7.258   6.682   1.961 -0.2974  0.0878 -0.4136
  333WAT     H2 2039   7.196   6.804   1.951  1.0093  0.8053  0.0224
  333WAT    EPW 2040   7.206   6.735   1.987  0.3130 -0.0331  0.0647
  334WAT      O 2041   7.319   0.608   0.698 -0.2470  0.1406  0.2112
  334WAT     H1 2042   7.340   0.585   0.617 -0.7209  2.3265 -0.6084
  334WAT     H2 2043   7.234   0.627   0.693 -0.0872  1.1604  0.9795
  334WAT    EPW 2044   7.310   0.608   0.686  0.9555  0.1919  0.0711
  335WAT      O 2045   8.002   1.149   1.750  0.1231  0.3319  1.1036
  335WAT     H1 2046   7.935   1.131   1.698 -0.6209 -0.2008  2.1909
  335WAT     H2 2047   7.996   1.089   1.813  0.6683  1.2523  2.0762
  335WAT    EPW 2048   7.991   1.138   1.752  0.4963 -0.1398 -0.5174
  336WAT      O 2049   7.064   7.490   1.023  0.2903 -0.4587 -0.3630
  336WAT     H1 2050   7.147   7.464   1.030 -0.0234 -1.2051  0.6951
  336WAT     H2 2051   7.067   7.574   1.049  0.3255 -1.1990  2.2935
  336WAT    EPW 2052   7.077   7.499   1.028 -0.3517 -0.1022 -0.5701
  337WAT      O 2053   6.237   0.032   1.237 -0.1203 -0.8176  0.2156
  337WAT     H1 2054   6.264  -0.009   1.165  0.9845 -2.2869  1.3913
  337WAT     H2 2055   6.225   0.115   1.211  0.0391 -1.3476 -1.6728
  337WAT    EPW 2056   6.239   0.038   1.222 -0.5943  0.6057 -0.2890
  338WAT      O 2057   7.098   6.064   1.380  0.1321  0.5769 -0.5363
  338WAT     H1 2058   7.011   6.063   1.376  0.1575  1.1018 -1.7188
  338WAT     H2 2059   7.116   6.148   1.395  0.4475  0.6604 -1.3140
  338WAT    EPW 2060   7.088   6.077   1.381  0.1799  0.4926 -0.2591
  339WAT      O 2061   7.151   7.027   7.811 -0.6071  0.0682  0.2312
  339WAT     H1 2062   7.170   7.058   7.890  2.1377  0.2609 -0.3961
  339WAT     H2 2063   7.118   7.097   7.769  0.2126  0.6484  0.5158
  339WAT    EPW 2064   7.149   7.042   7.817 -0.1039  0.5531 -1.1701
  340WAT      O 2065   7.806   0.042   0.687  0.1393 -0.5868 -0.3863
  340WAT     H1 2066   7.780   0.109   0.736  2.6084  1.1772 -1.3205
  340WAT     H2 2067   7.796  -0.027   0.740 -1.3427  0.6446  1.0172
  340WAT    EPW 2068   7.801   0.042   0.702  0.5196 -0.3730 -0.3369
  341WAT      O 2069   7.273   7.627   0.441 -0.0310  0.3538  0.5249
  341WAT     H1 2070   7.305   7.702   0.473  0.5430 -0.2221  1.3578
  341WAT     H2 2071   7.260   7.644   0.357  0.2736  1.3343  0.6632
  341WAT    EPW 2072   7.276   7.640   0.433 -0.1203 -0.5704 -1.1980
  342WAT      O 2073   7.285   6.764   0.304  0.2473  0.5520 -0.3271
  342WAT     H1 2074   7.222   6.749   0.246 -0.0789  0.4354  0.0595
  342WAT     H2 2075   7.244   6.802   0.370  0.6663  0.9273 -0.2810
  342WAT    EPW 2076   7.270   6.767   0.305  0.8503 -0.2519 -0.5155
  343WAT      O 2077   7.145   7.248   2.178 -0.2051 -0.1787 -0.6578
  343WAT     H1 2078   7.131   7.334   2.177  0.8816  0.0229  0.1956
  343WAT     H2 2079   7.148   7.229   2.263  1.4551 -0.7275 -0.8115
  343WAT    EPW 2080   7.143   7.258   2.191  0.4206 -0.3848 -0.5023
  344WAT      O 2081   7.101   6.114   1.101 -0.3768 -0.2393  0.3224
  344WAT     H1 2082   7.113   6.087   1.183  2.0716 -1.3142 -0.3066
  344WAT     H2 2083   7.134   6.050   1.052 -0.6514  0.8953 -1.4705
  344WAT    EPW 2084   7.108   6.101   1.106 -0.5805 -0.2052  0.1523
  345WAT      O 2085   5.553   7.161   0.456  0.2035 -0.4637 -0.0467
  345WAT     H1 2086   5.632   7.132   0.478  0.4267 -0.2635 -0.5843
  345WAT     H2 2087   5.562   7.248   0.458 -0.4755 -0.3764  1.6190
  345WAT    EPW 2088   5.566   7.170   0.460 -0.0951  0.5576 -0.8340
  346WAT      O 2089   6.488   0.319   0.819  0.2520  0.1292  0.3268
  346WAT     H1 2090   6.403   0.302   0.810  0.5204 -0.3826 -2.0172
  346WAT     H2 2091   6.492   0.406   0.808  0.0004  0.2372  1.0232
  346WAT    EPW 2092   6.476   0.329   0.816  0.6308  0.5810 -0.1082
  347WAT      O 2093   6.636   5.559   1.590  0.0247  0.1459 -0.2984
  347WAT     H1 2094   6.610   5.580   1.670 -1.6030 -1.2513 -0.3966
  347WAT     H2 2095   6.708   5.606   1.579 -0.8644  2.0070  1.1641
  347WAT    EPW 2096   6.642   5.569   1.600  0.0231  0.9510 -0.2274
  348WAT      O 2097   6.295   7.650   7.936 -0.2964 -0.0906  0.3596
  348WAT     H1 2098   6.248   7.586   7.902  0.2394 -1.3280  1.8184
  348WAT     H2 2099   6.359   7.608   7.979  1.7420  1.4910 -0.9544
  348WAT    EPW 2100   6.298   7.634   7.938  0.2506 -0.3044  0.2031
  349WAT      O 2101   7.753   7.880   0.873  1.0517 -0.2566 -0.5391
  349WAT     H1 2102   7.753   7.798   0.845  0.8588 -0.2466 -0.5701
  349WAT     H2 2103   7.776   7.874   0.956 -2.4484 -0.7281  0.5904
  349WAT    EPW 2104   7.756   7.867   0.881  0.8665  0.2360 -0.6938
  350WAT      O 2105   6.000   0.785   0.064  0.1082  0.1245 -0.1320
  350WAT     H1 2106   6.067   0.745   0.102 -0.7598 -0.9085  0.3610
  350WAT     H2 2107   5.940   0.722   0.055 -0.3169  0.6994 -1.7919
  350WAT    EPW 2108   6.001   0.770   0.068  0.4797 -0.5031  0.2745
  351WAT      O 2109   5.857   7.119   1.314  0.0814 -0.0880 -0.4406
  351WAT     H1 2110   5.847   7.182   1.255 -0.2991 -2.0171 -2.5559
  351WAT     H2 2111   5.790   7.066   1.300  0.6757 -1.2594  0.8960
  351WAT    EPW 2112   5.846   7.120   1.303  0.0813  0.6281 -0.4817
  352WAT      O 2113   7.165   7.682   1.227 -0.0776 -0.4528 -0.1774
  352WAT     H1 2114   7.239   7.717   1.258  0.3665 -1.7671  0.3182
  352WAT     H2 2115   7.109   7.750   1.226  1.4226  0.8337 -1.6257
  352WAT    EPW 2116   7.168   7.697   1.232  0.3621 -0.1048  0.1421
  353WAT      O 2117   6.185   7.829   7.620 -0.2073  0.0566  0.5082
  353WAT     H1 2118   6.209   7.746   7.608  0.8392  0.5244 -0.8500
  353WAT     H2 2119   6.255   7.866   7.655  0.1622  0.8374 -0.9727
  353WAT    EPW 2120   6.199   7.822   7.623  0.8593 -0.3306 -0.3206
  354WAT      O 2121   6.864   7.299   0.956 -0.0117  0.2453 -0.0238
  354WAT     H1 2122   6.890   7.227   0.998  0.0380  0.3203  0.0757
  354WAT     H2 2123   6.938   7.345   0.947 -0.2581  0.8755  1.0724
  354WAT    EPW 2124   6.879   7.295   0.961  0.4379  0.3071 -0.6045
  355WAT      O 2125   0.006   6.857   2.049 -0.3850 -0.1917 -0.0290
  355WAT     H1 2126  -0.012   6.929   2.003  0.0313  0.4911  0.8654
  355WAT     H2 2127  -0.028   6.873   2.127  0.9615 -0.3590  0.6184
  355WAT    EPW 2128  -0.002   6.870   2.054  0.0771 -0.2884  0.6515
  356WAT      O 2129   6.346   7.612   1.506 -0.1187 -0.1592 -0.2897
  356WAT     H1 2130   6.414   7.662   1.485  0.0121  0.0127  0.5338
  356WAT     H2 2131   6.280   7.668   1.511 -0.5699 -0.4433 -2.0475
  356WAT    EPW 2132   6.346   7.628   1.503 -0.2299  0.0757 -0.3295
  357WAT      O 2133   6.268   7.961   2.097  0.0375  0.2967  0.4151
  357WAT     H1 2134   6.223   7.973   2.172  0.8747  0.6231  0.8742
  357WAT     H2 2135   6.308   7.884   2.110 -1.9458 -1.0526 -0.8139
  357WAT    EPW 2136   6.267   7.951   2.110 -0.6062  1.1262  0.0940
  358WAT      O 2137   7.493   0.053   0.354  0.5332 -0.8107  0.2215
  358WAT     H1 2138   7.490   0.101   0.281 -1.6130  0.7638  1.2222
  358WAT     H2 2139   7.481   0.112   0.417  0.0758 -2.4087  1.6857
  358WAT    EPW 2140   7.491   0.069   0.352 -1.1808  0.3992 -0.4745
  359WAT      O 2141   7.963   7.649   1.470 -0.4480  0.3522 -0.3770
  359WAT     H1 2142   8.027   7.655   1.411 -0.2842  0.4405 -0.1923
  359WAT     H2 2143   7.971   7.722   1.516 -0.1300 -0.0360  0.1953
  359WAT    EPW 2144   7.974   7.660   1.468  0.8141 -1.3723  0.7758
  360WAT      O 2145   7.134   7.244   0.608  0.2877  0.0613  0.8149
  360WAT     H1 2146   7.172   7.322   0.613 -0.7903  0.5848  1.1432
  360WAT     H2 2147   7.132   7.228   0.522  0.8346  0.2178  0.7658
  360WAT    EPW 2148   7.139   7.253   0.596 -0.5448  0.1509  0.4477
  361WAT      O 2149   6.003   7.886   0.546 -0.3450 -0.0779  0.3128
  361WAT     H1 2150   6.078   7.912   0.581  1.1796 -1.4720 -1.6573
  361WAT     H2 2151   6.021   7.805   0.517 -1.8386  0.3995 -2.2407
  361WAT    EPW 2152   6.017   7.878   0.547 -0.1479  0.1376 -0.0319
  362WAT      O 2153   5.813   7.042   0.420  0.2095  0.2004  0.1983
  362WAT     H1 2154   5.800   7.038   0.334  1.6632  0.8494 -0.0714
  362WAT     H2 2155   5.805   6.959   0.446  0.7247 -0.1485 -0.7204
  362WAT    EPW 2156   5.810   7.029   0.412 -0.3496  0.9677 -0.7769
  363WAT      O 2157   7.139   3.847   0.777  0.1394  0.1157 -0.7289
  363WAT     H1 2158   7.162   3.871   0.857 -0.4620  0.7868 -0.7488
  363WAT     H2 2159   7.069   3.896   0.760  0.9987  0.9129 -2.1699
  363WAT    EPW 2160   7.132   3.858   0.786 -0.2776 -0.9885  0.9903
  364WAT      O 2161   5.418   6.535   0.680 -0.2908 -0.2098  0.8051
  364WAT     H1 2162   5.486   6.529   0.626 -0.4792  0.6264  0.4557
  364WAT     H2 2163   5.367   6.469   0.656 -1.1813  1.1242 -1.2355
  364WAT    EPW 2164   5.420   6.525   0.669  0.2886  0.2522 -0.4966
  365WAT      O 2165   7.242   5.909   7.871  1.1816  0.3346  0.0636
  365WAT     H1 2166   7.169   5.879   7.835  0.9945  0.3003  0.4679
  365WAT     H2 2167   7.299   5.910   7.804  0.1768  2.6976 -0.8499
  365WAT    EPW 2168   7.240   5.905   7.856 -0.1816 -0.3826 -0.7133
  366WAT      O 2169   1.117   4.537   7.620 -0.3264 -0.6534 -0.0192
  366WAT     H1 2170   1.130   4.619   7.591  1.2199 -0.7572  0.3139
  366WAT     H2 2171   1.053   4.508   7.569 -0.6884  0.6592 -0.3576
  366WAT    EPW 2172   1.109   4.545   7.608 -0.7221  0.5352  0.3978
  367WAT      O 2173   6.462   5.932   0.254  0.1401 -0.1869  1.1261
  367WAT     H1 2174   6.495   5.871   0.307  0.7735  0.8212  1.9238
  367WAT     H2 2175   6.504   6.005   0.278  1.9450  0.0166 -2.0421
  367WAT    EPW 2176   6.473   5.934   0.265  0.2516  0.6820 -1.2415
  368WAT      O 2177   6.421   4.326   6.859 -0.3450 -0.2724  0.1975
  368WAT     H1 2178   6.432   4.351   6.941 -2.2915  0.6808  0.2009
  368WAT     H2 2179   6.496   4.349   6.821  0.3742 -0.2505  1.5671
  368WAT    EPW 2180   6.434   4.333   6.865  0.1080  1.2140  0.8306
  369WAT      O 2181   7.294   5.367   7.983  0.1779 -0.3257  0.5093
  369WAT     H1 2182   7.324   5.285   7.986  0.5054 -0.4061 -2.3973
  369WAT     H2 2183   7.344   5.409   8.041  0.2457 -2.0627  1.8099
  369WAT    EPW 2184   7.306   5.361   7.992  0.0781 -0.4872 -0.0532
  370WAT      O 2185   6.871   5.909   1.658 -0.0339 -0.0219 -0.1561
  370WAT     H1 2186   6.908   5.940   1.731  1.2202 -0.5660 -0.5302
  370WAT     H2 2187   6.786   5.907   1.678  0.1078  1.3044  0.7356
  370WAT    EPW 2188   6.864   5.913   1.672  0.0993 -0.1800  0.1550
  371WAT      O 2189   6.237   5.587   0.313 -0.0638 -0.3793 -0.0035
  371WAT     H1 2190   6.241   5.656   0.260  1.1122  0.2865  0.9152
  371WAT     H2 2191   6.286   5.609   0.381 -1.8530 -1.0132  1.6197
  371WAT    EPW 2192   6.245   5.600   0.316  0.2686  0.5017 -0.1753
  372WAT      O 2193   6.829   5.649   0.214 -0.1899  0.2123 -0.1511
  372WAT     H1 2194   6.790   5.583   0.173  0.2591  0.2129 -0.5918
  372WAT     H2 2195   6.894   5.671   0.160  1.5599 -0.9717  1.3876
  372WAT    EPW 2196   6.833   5.643   0.200  0.1576 -0.2431  0.2083
  373WAT      O 2197   6.938   4.384   7.612 -0.5388 -0.8660  0.0593
  373WAT     H1 2198   6.883   4.327   7.575  0.1379 -2.2852  1.1279
  373WAT     H2 2199   7.011   4.338   7.621  0.5516  0.6894 -0.4635
  373WAT    EPW 2200   6.940   4.369   7.608 -0.1758 -0.3686 -0.2452
  374WAT      O 2201   7.962   5.399   7.763 -0.5290  0.2348 -0.1339
  374WAT     H1 2202   8.026   5.453   7.784  0.1386 -0.6684  0.2213
  374WAT     H2 2203   7.902   5.412   7.825  0.2491 -0.4373  0.7999
  374WAT    EPW 2204   7.963   5.409   7.775 -0.7279 -0.0588 -0.1676
  375WAT      O 2205   7.778   5.367   1.165 -0.0801  0.4758  0.1177
  375WAT     H1 2206   7.788   5.299   1.219  2.3249 -0.3608 -1.1939
  375WAT     H2 2207   7.717   5.340   1.109 -0.3159  0.0790  0.5573
  375WAT    EPW 2208   7.771   5.353   1.164 -0.6850 -0.4009  0.7317
  376WAT      O 2209   6.203   6.830   0.051 -0.1773 -0.3264  0.1853
  376WAT     H1 2210   6.175   6.752   0.024  0.9576 -0.2961 -1.1807
  376WAT     H2 2211   6.192   6.826   0.138 -1.9838 -1.2310 -0.0242
  376WAT    EPW 2212   6.197   6.818   0.060  1.2795  0.4745 -0.0960
  377WAT      O 2213   6.215   6.856   0.327  0.0692 -0.0449 -0.4060
  377WAT     H1 2214   6.174   6.912   0.379 -1.6846 -1.8251  0.2656
  377WAT     H2 2215   6.299   6.882   0.330 -0.0193  0.2478  2.9497
  377WAT    EPW 2216   6.222   6.868   0.335  0.1409 -0.3860 -0.0665
  378WAT      O 2217   6.211   5.387   1.966  0.0826 -0.2633  0.7277
  378WAT     H1 2218   6.167   5.351   2.032  0.8658  0.3508  1.5908
  378WAT     H2 2219   6.147   5.414   1.912 -0.5387 -1.9117  0.5805
  378WAT    EPW 2220   6.195   5.386   1.968 -0.4580 -0.5953 -0.3020
  379WAT      O 2221   7.780   6.076   0.258  0.7584  0.3259  0.3673
  379WAT     H1 2222   7.835   6.055   0.193 -0.4829  0.8318 -0.9187
  379WAT     H2 2223   7.763   6.160   0.243 -2.9322 -0.5362 -1.4222
  379WAT    EPW 2224   7.786   6.085   0.246 -0.8518 -0.4549 -0.4470
  380WAT      O 2225   6.526   6.470   7.799  0.6802 -0.3209 -0.1349
  380WAT     H1 2226   6.527   6.535   7.857 -2.2460 -1.2952  1.2054
  380WAT     H2 2227   6.527   6.511   7.722  0.4438  1.2253  0.6446
  380WAT    EPW 2228   6.527   6.486   7.796  0.5441  0.1931 -0.2948
  381WAT      O 2229   6.884   5.374   7.685  0.6896 -0.5628 -0.0052
  381WAT     H1 2230   6.964   5.406   7.674  0.8034 -0.0828  1.9199
  381WAT     H2 2231   6.897   5.288   7.688  0.8871 -0.6049 -1.2615
  381WAT    EPW 2232   6.898   5.366   7.684  0.3867  0.8705 -0.3878
  382WAT      O 2233   6.561   4.679   7.434  0.1850  0.6084 -0.2388
  382WAT     H1 2234   6.563   4.757   7.473 -0.8914  0.4880  0.0841
  382WAT     H2 2235   6.641   4.672   7.399 -0.0930  2.4158 -1.4004
  382WAT    EPW 2236   6.573   4.689   7.435  0.0664  0.9866  0.4251
  383WAT      O 2237   7.489   5.847   0.526 -0.2636  0.5982 -0.1079
  383WAT     H1 2238   7.533   5.892   0.586  1.9453 -0.3953 -0.8678
  383WAT     H2 2239   7.432   5.801   0.573  1.1945  0.0710  1.2435
  383WAT    EPW 2240   7.487   5.847   0.542  1.0510  0.3567  0.1450
  384WAT      O 2241   6.571   5.596   7.469 -0.5382 -0.3461 -0.4728
  384WAT     H1 2242   6.497   5.575   7.427 -1.3154 -0.5624  0.9673
  384WAT     H2 2243   6.590   5.524   7.513  0.6243 -0.3267 -0.9243
  384WAT    EPW 2244   6.563   5.582   7.469  0.3542  0.5774  0.5448
  385WAT      O 2245   7.192   4.227   7.917 -0.2443  0.9797 -0.8455
  385WAT     H1 2246   7.203   4.140   7.918  0.9405  1.0908  0.9455
  385WAT     H2 2247   7.106   4.237   7.916 -0.4077 -0.2240 -0.6008
  385WAT    EPW 2248   7.181   4.215   7.917 -0.4483 -1.2363  0.3226
  386WAT      O 2249   6.728   5.385   0.101 -0.4699  0.7262 -0.1787
  386WAT     H1 2250   6.749   5.329   0.164 -1.8963  0.2935 -0.0424
  386WAT     H2 2251   6.688   5.335   0.041 -0.2347  1.3251 -0.8598
  386WAT    EPW 2252   6.725   5.370   0.101  0.1970 -0.1073  0.7537
  387WAT      O 2253   6.061   6.187   0.843  0.0793 -0.4807  0.1834
  387WAT     H1 2254   6.001   6.141   0.801  0.2983 -2.4933  1.9375
  387WAT     H2 2255   6.018   6.219   0.912  0.7741 -1.0793  0.9022
  387WAT    EPW 2256   6.046   6.185   0.847  0.2855 -0.3080 -0.7336
  388WAT      O 2257   0.314   5.837   0.336  0.5384 -0.3638  0.2607
  388WAT     H1 2258   0.357   5.789   0.278  1.6520  0.1971  0.5827
  388WAT     H2 2259   0.304   5.914   0.297  1.2215 -0.0087  0.7702
  388WAT    EPW 2260   0.319   5.842   0.322  0.5677  0.2241  0.0983
  389WAT      O 2261   6.976   6.490   7.653 -0.4305  0.1618 -0.0464
  389WAT     H1 2262   7.051   6.445   7.651  1.0313  2.4605 -0.1355
  389WAT     H2 2263   6.947   6.477   7.735  0.5117 -0.0856  0.2585
  389WAT    EPW 2264   6.983   6.481   7.665 -0.0942  0.2182  0.4444
  390WAT      O 2265   6.832   5.945   7.689  0.3803 -0.0423  0.1881
  390WAT     H1 2266   6.770   5.961   7.749 -2.1822  1.3686 -2.5611
  390WAT     H2 2267   6.857   5.864   7.707  0.5203  0.6122  3.7051
  390WAT    EPW 2268   6.826   5.936   7.701  0.4366 -0.1400  0.1400
  391WAT      O 2269   5.810   6.374   0.515 -0.0316  0.2469 -0.0140
  391WAT     H1 2270   5.877   6.330   0.482  1.5110  0.2834  2.8078
  391WAT     H2 2271   5.751   6.312   0.533  0.5591 -0.1746  0.4570
  391WAT    EPW 2272   5.811   6.358   0.513 -0.6688  0.8533 -0.7124
  392WAT      O 2273   6.405   6.985   7.298 -0.2910 -0.4444  0.1851
  392WAT     H1 2274   6.356   6.955   7.363 -0.9933 -1.7294 -0.8969
  392WAT     H2 2275   6.370   6.949   7.226  1.7394 -0.8012 -0.7066
  392WAT    EPW 2276   6.393   6.975   7.297  0.7213  0.0195 -0.7509
  393WAT      O 2277   6.724   6.794   7.386 -0.2243 -0.8493 -0.4832
  393WAT     H1 2278   6.784   6.857   7.388 -1.9012  1.2270  5.6525
  393WAT     H2 2279   6.657   6.831   7.343  0.7398 -0.8974 -2.1059
  393WAT    EPW 2280   6.723   6.809   7.380  0.4231  0.4499 -0.1491
  394WAT      O 2281   7.771   4.818   0.089  0.0513 -0.1703 -0.0378
  394WAT     H1 2282   7.807   4.832   0.168 -1.3299 -0.0288  0.6007
  394WAT     H2 2283   7.791   4.735   0.071  0.4446 -0.1799  0.4234
  394WAT    EPW 2284   7.779   4.808   0.098 -0.1875 -0.0900  0.3486
  395WAT      O 2285   6.472   7.523   0.062 -0.5359 -0.5087 -0.0009
  395WAT     H1 2286   6.541   7.553   0.106 -0.3896  1.8182 -1.6016
  395WAT     H2 2287   6.500   7.448   0.027  0.5702 -0.4794  0.7957
  395WAT    EPW 2288   6.486   7.517   0.063  0.2685 -0.3472  0.2098
  396WAT      O 2289   4.743   5.011   0.389 -0.2944  0.1050 -0.1081
  396WAT     H1 2290   4.773   5.090   0.370  0.1477  0.0619  0.3831
  396WAT     H2 2291   4.804   4.957   0.358  0.6303  0.0413  1.6691
  396WAT    EPW 2292   4.756   5.014   0.382 -0.8803  0.6424  0.7858
  397WAT      O 2293   6.153   6.020   0.045  0.2746 -0.5040 -0.1723
  397WAT     H1 2294   6.230   5.991   0.018 -0.0891 -0.9296 -0.7553
  397WAT     H2 2295   6.102   6.014  -0.025 -1.0641 -2.9492  0.8776
  397WAT    EPW 2296   6.157   6.015   0.031  0.9561 -0.7255  0.0406
  398WAT      O 2297   0.124   5.896   7.748  0.0148  0.3491 -0.1986
  398WAT     H1 2298   0.211   5.903   7.740 -0.0252  0.9644 -0.1547
  398WAT     H2 2299   0.103   5.961   7.802 -0.5202  0.4730 -0.5446
  398WAT    EPW 2300   0.134   5.907   7.755  1.2780  0.1214  0.2734
  399WAT      O 2301   6.247   4.212   7.345  0.1069 -1.0492  0.0384
  399WAT     H1 2302   6.189   4.222   7.281  1.0582 -2.0935 -1.0333
  399WAT     H2 2303   6.304   4.276   7.333 -0.9828  0.2579  1.3636
  399WAT    EPW 2304   6.247   4.223   7.334 -0.5245  0.7481 -0.1131
  400WAT      O 2305   5.085   7.272   6.411 -0.1870 -0.0351  0.0279
  400WAT     H1 2306   5.043   7.309   6.479 -2.2664 -1.5405 -0.3474
  400WAT     H2 2307   5.079   7.187   6.428  1.9323 -0.3691 -0.5988
  400WAT    EPW 2308   5.078   7.265   6.424  0.3181 -0.4511 -0.0283
  401WAT      O 2309   6.431   6.167   7.597  0.2356 -0.5324 -0.0317
  401WAT     H1 2310   6.449   6.207   7.522  0.6845  0.1435  0.4290
  401WAT     H2 2311   6.366   6.215   7.631  1.1083  0.1097  0.7531
  401WAT    EPW 2312   6.424   6.180   7.591  0.1626 -0.5348 -0.3119
  402WAT      O 2313   6.826   3.701   7.942 -0.6475  0.1011 -0.0677
  402WAT     H1 2314   6.741   3.684   7.951 -0.6292 -0.3886 -0.7544
  402WAT     H2 2315   6.859   3.626   7.911 -0.1746  0.6788 -0.9939
  402WAT    EPW 2316   6.818   3.687   7.939  0.8600  0.0935  0.7077
  403WAT      O 2317   6.520   5.731   7.723 -0.2667  0.3779 -0.3025
  403WAT     H1 2318   6.544   5.705   7.643  2.8357 -1.0219  0.8829
  403WAT     H2 2319   6.553   5.812   7.729 -1.8003  1.0772 -0.8739
  403WAT    EPW 2320   6.529   5.739   7.712  1.4184 -0.1351  0.2570
  404WAT      O 2321   5.880   5.991   0.367  0.4134 -0.0802  0.1188
  404WAT     H1 2322   5.919   6.066   0.346  0.8429  0.0863  1.4502
  404WAT     H2 2323   5.946   5.939   0.390  0.0691 -0.6846 -0.2260
  404WAT    EPW 2324   5.896   5.995   0.367 -0.0923 -0.3506 -0.9708
  405WAT      O 2325   7.073   6.711   0.149  0.4863  0.1006  0.1011
  405WAT     H1 2326   6.987   6.721   0.149  0.4768  0.7013  2.5995
  405WAT     H2 2327   7.088   6.659   0.080 -2.1493 -2.1709  1.0506
  405WAT    EPW 2328   7.063   6.705   0.138 -0.1096  0.5370  0.4115
  406WAT      O 2329   7.202   6.530   1.183 -0.9729  0.0953  0.2284
  406WAT     H1 2330   7.136   6.489   1.144 -1.7870  0.5406  1.0967
  406WAT     H2 2331   7.197   6.504   1.266  0.8939 -1.0402  0.0318
  406WAT    EPW 2332   7.192   6.520   1.189  0.6409  0.8746 -0.3916
  407WAT      O 2333   5.834   5.030   0.166  0.0554 -0.1566 -0.6871
  407WAT     H1 2334   5.918   5.026   0.142  1.1047  1.3633  2.1986
  407WAT     H2 2335   5.825   4.964   0.222  0.0946  1.0813  0.8502
  407WAT    EPW 2336   5.845   5.020   0.171  0.2338  0.2080  0.6396
  408WAT      O 2337   5.801   5.300   0.238 -0.1393 -0.5384  0.4487
  408WAT     H1 2338   5.880   5.332   0.258 -1.2880  1.5445  2.1543
  408WAT     H2 2339   5.816   5.218   0.216  2.7215  0.2903 -1.1248
  408WAT    EPW 2340   5.815   5.293   0.238 -0.2243 -0.1351  0.8048
  409WAT      O 2341   6.566   4.954   7.183 -0.7128  0.2077 -0.3198
  409WAT     H1 2342   6.492   4.927   7.220  0.5127 -1.1083  1.3549
  409WAT     H2 2343   6.607   4.879   7.163  0.9568  0.8492  0.5349
  409WAT    EPW 2344   6.561   4.939   7.186 -0.4925  0.4476  0.1718
  410WAT      O 2345   6.666   6.091   7.427 -0.1814 -0.3917  0.0259
  410WAT     H1 2346   6.639   6.008   7.419 -0.5457 -0.2203 -0.5887
  410WAT     H2 2347   6.752   6.084   7.440 -0.0066 -0.8295 -1.2096
  410WAT    EPW 2348   6.674   6.078   7.428 -0.0383 -0.4097 -0.2556
  411WAT      O 2349   6.494   4.981   0.381 -0.2919  0.1275 -0.2677
  411WAT     H1 2350   6.563   4.983   0.328 -0.1309 -0.7933 -0.1056
  411WAT     H2 2351   6.478   4.896   0.391 -1.5759  0.3275 -0.4545
  411WAT    EPW 2352   6.502   4.969   0.375 -0.5844 -0.4832  0.3978
  412WAT      O 2353   7.410   7.657   8.055  0.2494 -0.4780 -0.0848
  412WAT     H1 2354   7.495   7.641   8.071 -0.0155 -0.5998  1.2655
  412WAT     H2 2355   7.386   7.587   8.008  1.6800  1.1425 -3.6060
  412WAT    EPW 2356   7.419   7.644   8.050  1.1423 -0.0357 -0.5678
  413WAT      O 2357   0.819   4.004   7.351 -0.0760 -0.0130  0.6802
  413WAT     H1 2358   0.793   3.957   7.282 -3.8388  2.9620 -0.2827
  413WAT     H2 2359   0.879   4.058   7.318  1.3330 -1.3660  0.8914
  413WAT    EPW 2360   0.824   4.005   7.336  0.9025 -0.5043  0.9052
  414WAT      O 2361   7.628   5.258   8.056 -0.0477 -0.3534  0.3755
  414WAT     H1 2362   7.684   5.193   8.040  1.2980  0.9811 -0.5854
  414WAT     H2 2363   7.550   5.218   8.056  0.7653 -2.0317  0.2710
  414WAT    EPW 2364   7.625   5.243   8.054 -0.4873  0.2325 -0.2970
  415WAT      O 2365   6.008   4.138   7.170 -0.1239 -0.2749 -0.0665
  415WAT     H1 2366   6.006   4.225   7.168 -0.4409 -0.2841 -2.2583
  415WAT     H2 2367   5.976   4.119   7.249  1.5755  1.5864  1.1841
  415WAT    EPW 2368   6.003   4.148   7.182  0.2707 -0.0238 -0.5641
  416WAT      O 2369   6.079   7.617   0.482  0.2942 -0.3242  0.0917
  416WAT     H1 2370   6.162   7.630   0.460  0.5112  0.7027  1.3773
  416WAT     H2 2371   6.084   7.584   0.562 -0.5205 -1.1934 -0.2028
  416WAT    EPW 2372   6.092   7.614   0.490  0.1988 -0.4737 -0.0032
  417WAT      O 2373   6.746   6.135   0.228  0.4752  0.6288 -0.0834
  417WAT     H1 2374   6.813   6.188   0.212 -0.0207  2.0169  2.0124
  417WAT     H2 2375   6.783   6.068   0.270  1.0295 -0.4902 -2.2632
  417WAT    EPW 2376   6.762   6.133   0.232 -0.2125 -0.3077  0.6024
  418WAT      O 2377   6.392   4.227   6.596 -0.2528  0.5447 -0.0007
  418WAT     H1 2378   6.384   4.271   6.671  0.0778  2.1041 -0.8246
  418WAT     H2 2379   6.432   4.284   6.544 -0.7609 -0.3830 -1.4632
  418WAT    EPW 2380   6.397   4.242   6.599 -0.1553 -0.6740  0.3437
  419WAT      O 2381   5.880   4.964   7.114 -0.0613 -0.6774  0.4756
  419WAT     H1 2382   5.877   4.999   7.194 -0.6521  2.3207 -0.6955
  419WAT     H2 2383   5.965   4.961   7.096  0.1034 -1.8075  1.3364
  419WAT    EPW 2384   5.892   4.969   7.123  0.5513  0.2270  0.5168
  420WAT      O 2385   6.284   6.079   0.480 -0.8696  0.2156 -0.2445
  420WAT     H1 2386   6.324   6.030   0.539  0.5630 -0.8010 -1.9600
  420WAT     H2 2387   6.348   6.127   0.446 -1.0794 -1.1044 -2.7250
  420WAT    EPW 2388   6.299   6.079   0.484 -0.1652  0.0251  0.6959
  421WAT      O 2389   6.928   6.940   0.403  0.5493 -0.5824  0.3959
  421WAT     H1 2390   7.002   6.907   0.434  0.0213  0.0482  2.4991
  421WAT     H2 2391   6.902   6.996   0.465 -0.2591  1.3582 -1.5458
  421WAT    EPW 2392   6.935   6.943   0.417  0.3580 -1.1349  0.2366
  422WAT      O 2393   7.380   5.104  -0.002  0.0985  0.3341  0.1647
  422WAT     H1 2394   7.362   5.079   0.079 -0.4971  1.2506  0.3300
  422WAT     H2 2395   7.397   5.029  -0.043  0.8274 -0.0971  1.2279
  422WAT    EPW 2396   7.380   5.089   0.004  0.0586  0.4317 -0.8196
  423WAT      O 2397   7.270   5.993   0.910 -0.0595  1.1647  0.1667
  423WAT     H1 2398   7.228   5.949   0.848  0.5608  0.7189  0.0544
  423WAT     H2 2399   7.331   5.938   0.937  0.6863  1.9219  0.0820
  423WAT    EPW 2400   7.273   5.979   0.905  0.0500 -0.1483 -0.0582
  424WAT      O 2401   5.014   7.436   6.645 -0.5027 -0.2976 -0.2030
  424WAT     H1 2402   4.937   7.407   6.616  0.0652  0.4320 -2.6570
  424WAT     H2 2403   4.999   7.519   6.665 -0.3268 -0.0691 -0.9712
  424WAT    EPW 2404   5.001   7.444   6.643  0.7107  0.1636 -0.2237
  425WAT      O 2405   6.191   4.717   5.939  0.4280  0.0721 -0.1522
  425WAT     H1 2406   6.105   4.705   5.948  0.5820 -1.2073 -0.2735
  425WAT     H2 2407   6.195   4.786   5.886 -0.5113  0.6155  0.4423
  425WAT    EPW 2408   6.179   4.725   5.932  0.2289  0.2458  0.1375
  426WAT      O 2409   5.661   6.374   6.823 -0.3656 -0.2411 -0.6394
  426WAT     H1 2410   5.694   6.294   6.809 -1.1241 -0.8406  0.7761
  426WAT     H2 2411   5.577   6.365   6.800 -0.2495  0.4243 -1.3524
  426WAT    EPW 2412   5.653   6.361   6.817  0.0250 -0.6620 -0.6663
  427WAT      O 2413   4.976   7.906   5.826 -0.2620 -0.1678 -0.3310
  427WAT     H1 2414   4.902   7.942   5.797 -0.0276  0.7877  0.1939
  427WAT     H2 2415   4.977   7.927   5.911 -0.2450 -1.6974  0.0726
  427WAT    EPW 2416   4.966   7.915   5.834 -0.0150 -0.0356 -0.1094
  428WAT      O 2417   6.108   3.246   6.501 -0.2303  0.2460 -0.5750
  428WAT     H1 2418   6.137   3.325   6.525  1.4505 -0.1982 -1.0212
  428WAT     H2 2419   6.063   3.220   6.571 -2.0880  2.1481 -0.9498
  428WAT    EPW 2420   6.106   3.254   6.515  0.5214  0.0269 -0.3303
  429WAT      O 2421   5.961   6.694   4.937 -0.4609 -0.0595  0.0209
  429WAT     H1 2422   6.006   6.714   4.865  0.3865 -0.6665  0.3752
  429WAT     H2 2423   5.949   6.608   4.931 -1.2366  0.0261  0.1375
  429WAT    EPW 2424   5.966   6.684   4.925  0.7647  0.6862 -0.7220
  430WAT      O 2425   5.757   6.790   0.042 -0.0082  0.0436  0.1562
  430WAT     H1 2426   5.785   6.754   0.116 -2.0086 -0.1125  0.8891
  430WAT     H2 2427   5.772   6.875   0.053 -3.0055  0.4424  2.1289
  430WAT    EPW 2428   5.764   6.797   0.054  0.0502  0.0584  0.6719
  431WAT      O 2429   7.254   4.648   7.522  0.0589 -0.5922  0.4206
  431WAT     H1 2430   7.324   4.605   7.553  1.4656  1.7303  0.7529
  431WAT     H2 2431   7.286   4.688   7.451 -0.9658  0.4941  0.5586
  431WAT    EPW 2432   7.269   4.647   7.516  0.0972  0.3288 -0.0100
  432WAT      O 2433   5.811   5.955   7.281 -0.0285 -0.1444  0.1982
  432WAT     H1 2434   5.751   5.994   7.231 -0.8096 -1.0791  0.3664
  432WAT     H2 2435   5.843   5.893   7.230 -0.7435 -1.0251  0.7858
  432WAT    EPW 2436   5.807   5.952   7.266  0.5086 -0.2324 -0.0924
  433WAT      O 2437   5.433   5.867   5.996 -0.3264 -0.0902  0.4769
  433WAT     H1 2438   5.372   5.810   5.969 -1.0585  0.7509  0.2942
  433WAT     H2 2439   5.412   5.940   5.953 -0.1734  0.6686  1.6547
  433WAT    EPW 2440   5.421   5.870   5.985 -0.3537  0.2121 -0.3738
  434WAT      O 2441   6.485   6.694   0.995  0.5684  0.4344 -0.0052
  434WAT     H1 2442   6.510   6.644   0.928 -1.9890 -0.6078 -0.2903
  434WAT     H2 2443   6.515   6.651   1.065  2.6605  1.1723 -0.3889
  434WAT    EPW 2444   6.493   6.680   0.995  1.0351 -0.5767  0.4969
  435WAT      O 2445   5.790   6.258   0.189 -0.0012  0.5260  0.4087
  435WAT     H1 2446   5.765   6.234   0.109 -1.4416  0.5988  0.7996
  435WAT     H2 2447   5.861   6.307   0.175 -0.6362  1.1261 -0.8874
  435WAT    EPW 2448   5.797   6.261   0.175 -0.1100  0.3546  0.1146
  436WAT      O 2449   6.111   6.156   4.639  0.6719  0.5766 -0.0530
  436WAT     H1 2450   6.115   6.083   4.592 -0.6474  0.5101 -0.0842
  436WAT     H2 2451   6.170   6.142   4.702  0.2929 -0.6162  0.0652
  436WAT    EPW 2452   6.121   6.143   4.642 -0.1264  0.0973 -0.3570
  437WAT      O 2453   5.843   6.141   5.076 -0.2446 -0.1961 -0.3921
  437WAT     H1 2454   5.794   6.161   5.145 -0.1231 -0.4438 -0.2336
  437WAT     H2 2455   5.900   6.207   5.072 -0.2203 -0.2051 -0.2237
  437WAT    EPW 2456   5.844   6.154   5.086  0.5241  1.2623  0.1584
  438WAT      O 2457   6.265   4.707   4.808  0.3325 -0.7418  0.9327
  438WAT     H1 2458   6.188   4.688   4.772  1.5540  0.0135 -2.4024
  438WAT     H2 2459   6.247   4.774   4.861 -1.1891 -0.1293 -0.2911
  438WAT    EPW 2460   6.251   4.714   4.811  0.6454 -0.2133  0.9875
  439WAT      O 2461   6.140   6.584   7.015  0.0242 -0.0167 -0.0990
  439WAT     H1 2462   6.182   6.536   7.075  1.1443 -0.2812 -1.0497
  439WAT     H2 2463   6.112   6.525   6.957  0.5265  0.3592 -0.7482
  439WAT    EPW 2464   6.142   6.568   7.015 -0.2384  0.0221  0.3871
  440WAT      O 2465   6.467   6.896   7.671 -0.1040 -0.2221 -0.2043
  440WAT     H1 2466   6.403   6.936   7.628 -0.8023 -1.2189 -0.1419
  440WAT     H2 2467   6.450   6.913   7.755  1.1775  1.6028 -0.2642
  440WAT    EPW 2468   6.455   6.904   7.677  0.4870  0.4512  1.1637
  441WAT      O 2469   5.553   0.245   6.089  0.0280 -0.1368  0.0214
  441WAT     H1 2470   5.484   0.204   6.124 -1.0982  0.6792 -1.1227
  441WAT     H2 2471   5.581   0.297   6.153  0.9026 -1.9594  1.1816
  441WAT    EPW 2472   5.547   0.247   6.103 -0.4168  0.0867 -0.2429
  442WAT      O 2473   6.049   6.659   6.358  0.5270  0.7777  0.3663
  442WAT     H1 2474   6.067   6.639   6.441  0.2947 -0.7724  0.0650
  442WAT     H2 2475   6.117   6.628   6.314 -0.7956 -1.3332 -0.3311
  442WAT    EPW 2476   6.062   6.652   6.364 -0.1926 -0.3367 -0.5490
  443WAT      O 2477   6.153   5.575   6.948 -0.5812  0.1984  0.2318
  443WAT     H1 2478   6.178   5.492   6.957 -3.6371 -1.0272 -1.0742
  443WAT     H2 2479   6.114   5.594   7.024 -0.8731  0.0214  0.1279
  443WAT    EPW 2480   6.151   5.566   6.961  0.1156 -0.0964 -0.5097
  444WAT      O 2481   6.361   6.202   5.384 -0.6914 -0.0386  0.2131
  444WAT     H1 2482   6.429   6.249   5.358 -0.3645 -0.2091  0.7402
  444WAT     H2 2483   6.350   6.145   5.320 -1.1166  0.7675 -0.4554
  444WAT    EPW 2484   6.369   6.201   5.371  0.0712 -0.2291 -0.3182
  445WAT      O 2485   5.901   7.452   4.713 -0.0612  0.5221 -0.5348
  445WAT     H1 2486   5.825   7.444   4.756 -0.1708 -1.7139 -1.0182
  445WAT     H2 2487   5.902   7.536   4.690 -3.3468  0.3052 -2.1448
  445WAT    EPW 2488   5.890   7.463   4.716 -0.0569  0.0883  0.3290
  446WAT      O 2489   6.728   4.766   6.663  0.0911 -0.2283  0.5882
  446WAT     H1 2490   6.745   4.833   6.716 -0.5171  0.4081 -0.0106
  446WAT     H2 2491   6.699   4.804   6.590  1.0437 -1.0888 -0.2609
  446WAT    EPW 2492   6.726   4.782   6.660 -0.1003 -0.5918  0.3715
  447WAT      O 2493   5.584   5.764   7.138 -0.0864 -0.2751 -0.3828
  447WAT     H1 2494   5.538   5.712   7.085 -1.8646  0.0511  0.7254
  447WAT     H2 2495   5.593   5.838   7.092 -0.3555 -0.4691 -0.7542
  447WAT    EPW 2496   5.578   5.768   7.123 -0.5454 -0.0050  0.7420
  448WAT      O 2497   6.666   5.686   4.333 -0.1927 -0.2163 -0.3094
  448WAT     H1 2498   6.697   5.726   4.261  0.9219 -0.1922  0.1718
  448WAT     H2 2499   6.580   5.695   4.325 -0.0471  0.5752 -1.1969
  448WAT    EPW 2500   6.658   5.693   4.321 -0.7616 -0.6076 -0.4109
  449WAT      O 2501   7.323   4.866   7.932  0.1975 -0.2177  0.7182
  449WAT     H1 2502   7.388   4.864   7.874  1.4087 -1.2664  2.0458
  449WAT     H2 2503   7.294   4.784   7.934 -1.8273  0.3833 -0.4751
  449WAT    EPW 2504   7.328   4.854   7.923  0.5288  0.1194 -0.3530
  450WAT      O 2505   5.808   7.753   0.149 -0.3241 -0.2557 -0.0567
  450WAT     H1 2506   5.798   7.790   0.071 -1.2326 -0.3747 -0.0093
  450WAT     H2 2507   5.871   7.694   0.136  0.1021  0.2851 -0.4910
  450WAT    EPW 2508   5.816   7.750   0.136  0.1409 -0.0296  0.2506
  451WAT      O 2509   6.965   4.783   7.110 -0.2132 -0.0261  0.1912
  451WAT     H1 2510   6.991   4.866   7.111  0.2005 -0.1355 -0.5874
  451WAT     H2 2511   7.039   4.738   7.117 -0.3293 -0.3327 -0.4374
  451WAT    EPW 2512   6.980   4.788   7.111 -0.3652 -0.6632 -0.4460
  452WAT      O 2513   5.858   7.330   6.423 -0.4742  0.3544  0.6316
  452WAT     H1 2514   5.882   7.257   6.462 -1.0715  0.0957  0.5281
  452WAT     H2 2515   5.780   7.311   6.390 -0.6304  1.0341  0.5918
  452WAT    EPW 2516   5.850   7.317   6.424 -0.1650 -0.1245  0.1787
  453WAT      O 2517   5.139   6.250   7.070  0.4227  0.3445 -0.2945
  453WAT     H1 2518   5.093   6.233   6.998  0.4309 -1.7564  0.1382
  453WAT     H2 2519   5.081   6.288   7.123  0.3941  1.8198 -1.3240
  453WAT    EPW 2520   5.124   6.253   7.068  0.4687  0.0547  0.2773
  454WAT      O 2521   5.738   6.600   6.982  0.5420 -0.0733 -0.2995
  454WAT     H1 2522   5.747   6.526   6.937  0.8041  0.0247 -0.4095
  454WAT     H2 2523   5.705   6.574   7.058 -2.5791  0.0030 -1.4907
  454WAT    EPW 2524   5.735   6.585   6.986  0.0573  0.5270 -0.7017
  455WAT      O 2525   6.390   7.231   4.650  0.1023 -0.3804  0.4601
  455WAT     H1 2526   6.457   7.194   4.692  2.3365  1.9404 -0.7251
  455WAT     H2 2527   6.363   7.293   4.705  2.5227  2.1441 -0.9348
  455WAT    EPW 2528   6.396   7.235   4.664  0.4000  0.5334 -0.9519
  456WAT      O 2529   6.652   5.447   6.951 -0.2874 -0.0170  0.3068
  456WAT     H1 2530   6.612   5.517   6.983  0.9176  1.3792 -1.0568
  456WAT     H2 2531   6.628   5.446   6.867  2.4344  0.9140 -0.5879
  456WAT    EPW 2532   6.643   5.457   6.943  0.3842  0.0637  0.1677
  457WAT      O 2533   5.454   6.000   7.373  0.3788 -0.1033 -0.3834
  457WAT     H1 2534   5.526   6.042   7.348  0.6015 -0.6024 -0.5999
  457WAT     H2 2535   5.414   5.982   7.298  0.1748 -0.0860 -0.2800
  457WAT    EPW 2536   5.458   6.004   7.358  1.4463 -0.5785 -0.0554
  458WAT      O 2537   6.534   3.000   7.032 -0.0504 -0.1536  0.1972
  458WAT     H1 2538   6.481   3.041   6.976  0.5277 -0.1707 -0.3743
  458WAT     H2 2539   6.497   2.921   7.040  0.6443 -0.6738 -1.3388
  458WAT    EPW 2540   6.521   2.994   7.025 -0.8024  0.7800  0.5866
  459WAT      O 2541   5.300   5.650   5.872 -0.5639 -0.5564 -0.5683
  459WAT     H1 2542   5.301   5.589   5.935 -0.8757 -0.9485 -0.9357
  459WAT     H2 2543   5.371   5.631   5.824  0.4707  0.5916  0.4441
  459WAT    EPW 2544   5.311   5.638   5.874 -0.4599 -0.9098 -1.0152
  460WAT      O 2545   5.750   4.868   7.727 -0.1471  0.2272  0.2444
  460WAT     H1 2546   5.737   4.852   7.811  2.5097 -2.1389  0.3766
  460WAT     H2 2547   5.814   4.928   7.726 -0.4005  0.4975 -0.0862
  460WAT    EPW 2548   5.758   4.874   7.739  0.0320 -0.2792  0.9599
  461WAT      O 2549   5.695   6.872   0.930 -0.6238 -0.3837  0.7574
  461WAT     H1 2550   5.672   6.904   0.852  1.2658  0.5771  0.5316
  461WAT     H2 2551   5.716   6.789   0.913  1.0305  0.1631 -0.0532
  461WAT    EPW 2552   5.694   6.865   0.916  0.1412  0.2800  0.1783
  462WAT      O 2553   6.314   6.342   6.598 -0.2534  0.0048  0.4063
  462WAT     H1 2554   6.343   6.340   6.516 -0.4590  0.0620  0.3302
  462WAT     H2 2555   6.378   6.381   6.642  0.5424 -1.4190  0.5584
  462WAT    EPW 2556   6.328   6.348   6.592  0.0309  0.6914 -0.4619
  463WAT      O 2557   5.851   0.457   5.587  0.8474 -0.0729 -0.2072
  463WAT     H1 2558   5.806   0.468   5.513 -2.0444  1.0692  1.5433
  463WAT     H2 2559   5.850   0.537   5.623  0.6625 -0.9257  1.8050
  463WAT    EPW 2560   5.844   0.471   5.582  0.0010  0.0805 -0.1398
  464WAT      O 2561   6.353   7.113   5.424  0.7670 -0.0157 -0.0340
  464WAT     H1 2562   6.355   7.039   5.472 -1.2180 -0.2998 -0.3251
  464WAT     H2 2563   6.361   7.176   5.484  2.6292 -0.4076  0.2084
  464WAT    EPW 2564   6.354   7.111   5.440 -0.9188 -0.5713  0.4063
  465WAT      O 2565   5.328   6.705   6.408 -0.2455 -0.2441  0.1133
  465WAT     H1 2566   5.395   6.649   6.407  0.8743  1.0361 -1.7161
  465WAT     H2 2567   5.264   6.661   6.370  0.2866 -0.6538 -0.3256
  465WAT    EPW 2568   5.329   6.690   6.403 -0.0999 -0.1940  0.0449
  466WAT      O 2569   5.858   5.979   7.548  0.5115  1.1964 -0.0396
  466WAT     H1 2570   5.808   5.916   7.581  2.1085  0.0675  0.3596
  466WAT     H2 2571   5.842   5.976   7.463 -0.9173  1.6609  0.1759
  466WAT    EPW 2572   5.848   5.970   7.541  0.2206 -0.4796  0.1526
  467WAT      O 2573   5.231   5.053   6.473 -0.1636  0.0704 -0.1567
  467WAT     H1 2574   5.302   5.035   6.521  1.1611  0.5359 -1.8702
  467WAT     H2 2575   5.233   5.139   6.464 -0.3309 -0.0157 -1.1215
  467WAT    EPW 2576   5.242   5.063   6.479  0.1399 -0.5108  0.1691
  468WAT      O 2577   5.776   5.571   7.144  0.3083  0.1595 -0.0443
  468WAT     H1 2578   5.717   5.631   7.167  1.9568  1.4630  1.0169
  468WAT     H2 2579   5.847   5.618   7.126  1.6074 -1.4472  0.5812
  468WAT    EPW 2580   5.778   5.587   7.145 -0.6072  0.0236  0.6253
  469WAT      O 2581   5.261   6.296   5.690 -0.2370  0.2304  0.4169
  469WAT     H1 2582   5.316   6.344   5.641  0.6846 -0.0356  1.1478
  469WAT     H2 2583   5.249   6.224   5.643 -1.6948  1.1791 -0.7285
  469WAT    EPW 2584   5.268   6.293   5.676  0.3093 -0.0751 -0.2205
  470WAT      O 2585   5.523   5.789   6.283 -0.3897  0.9029  0.8027
  470WAT     H1 2586   5.452   5.746   6.311  0.1866  0.1897  1.1986
  470WAT     H2 2587   5.498   5.819   6.205 -0.9023  0.0544  0.6220
  470WAT    EPW 2588   5.509   5.787   6.276  0.5505  0.0394 -0.2940
  471WAT      O 2589   5.883   7.646   7.078 -0.1135  0.0450 -0.1261
  471WAT     H1 2590   5.799   7.650   7.104  0.3390 -0.3903  1.5280
  471WAT     H2 2591   5.904   7.562   7.091  0.8637  0.3720  0.4386
  471WAT    EPW 2592   5.874   7.634   7.084 -0.5912  0.0052 -0.9708
  472WAT      O 2593   4.412   5.181   4.985  0.2765  0.2627 -0.6226
  472WAT     H1 2594   4.449   5.235   5.043  1.8185  0.2528 -1.5589
  472WAT     H2 2595   4.457   5.195   4.912  0.0705 -1.5973 -1.1510
  472WAT    EPW 2596   4.424   5.191   4.983 -0.3602 -0.3579 -0.1031
  473WAT      O 2597   5.272   5.421   6.062  0.1065 -0.0399 -0.5553
  473WAT     H1 2598   5.210   5.363   6.040 -0.0003 -0.2555  0.2709
  473WAT     H2 2599   5.346   5.380   6.044  0.0579 -0.8496  0.9498
  473WAT    EPW 2600   5.274   5.407   6.056 -0.0201 -0.3130  0.4494
  474WAT      O 2601   6.261   4.468   6.066  0.2327  0.3389 -0.0415
  474WAT     H1 2602   6.202   4.407   6.045 -1.4099  0.0860  4.1383
  474WAT     H2 2603   6.238   4.537   6.018 -1.2093 -0.8223 -1.1118
  474WAT    EPW 2604   6.249   4.469   6.056  0.1527  0.6378  0.6607
  475WAT      O 2605   4.369   6.812   6.002  0.2694 -0.0077 -0.1604
  475WAT     H1 2606   4.423   6.880   6.012  0.9944 -0.6839  0.6705
  475WAT     H2 2607   4.330   6.805   6.079  1.3751 -1.4860  0.3121
  475WAT    EPW 2608   4.371   6.821   6.015  0.6367 -0.3877 -0.3123
  476WAT      O 2609   6.624   5.364   7.617  0.1219  0.1183  0.1827
  476WAT     H1 2610   6.707   5.383   7.634  0.0469 -0.3542  1.1399
  476WAT     H2 2611   6.626   5.279   7.595 -0.1899 -0.0652  0.8555
  476WAT    EPW 2612   6.636   5.354   7.616  0.3334 -0.2179  0.2315
  477WAT      O 2613   5.678   5.571   6.225  0.3570 -0.3006 -0.2855
  477WAT     H1 2614   5.616   5.631   6.241  0.0976 -0.7713  0.5223
  477WAT     H2 2615   5.677   5.521   6.296  0.7871 -1.0817 -0.8121
  477WAT    EPW 2616   5.669   5.573   6.238 -0.5819 -0.1053 -0.5671
  478WAT      O 2617   5.968   6.649   7.466 -0.0404 -0.5554 -0.0385
  478WAT     H1 2618   5.886   6.621   7.474 -0.5104 -0.8730 -4.0285
  478WAT     H2 2619   5.971   6.680   7.384  3.0231  2.3765  0.9647
  478WAT    EPW 2620   5.956   6.650   7.455 -0.9074  0.0503 -0.8088
  479WAT      O 2621   4.902   6.636   6.463  0.4574  0.1727 -0.4305
  479WAT     H1 2622   4.949   6.646   6.535 -1.0464  1.1233  0.4577
  479WAT     H2 2623   4.823   6.613   6.493 -0.9738  3.1587 -1.5306
  479WAT    EPW 2624   4.897   6.634   6.478  0.9627  0.1141  0.1333
  480WAT      O 2625   6.858   7.069   7.494 -0.1462  0.2470  0.5626
  480WAT     H1 2626   6.927   7.110   7.528 -0.3743  1.0499  0.0933
  480WAT     H2 2627   6.813   7.042   7.564 -2.1641  4.4310  1.2053
  480WAT    EPW 2628   6.861   7.071   7.509  0.8913 -0.3861 -0.5143
  481WAT      O 2629   5.900   6.620   0.210 -0.8829 -0.0348 -0.2428
  481WAT     H1 2630   5.955   6.601   0.145 -0.5085  1.1109 -0.2855
  481WAT     H2 2631   5.951   6.617   0.281 -1.1016 -0.4591 -0.1046
  481WAT    EPW 2632   5.916   6.617   0.211  0.0925 -0.1327  0.3148
  482WAT      O 2633   6.509   6.309   7.340 -0.0834  0.0632 -0.5722
  482WAT     H1 2634   6.550   6.237   7.366 -3.0125 -0.7968  2.3081
  482WAT     H2 2635   6.563   6.373   7.363  0.6751 -1.0805  0.9745
  482WAT    EPW 2636   6.523   6.308   7.347 -0.1720  0.1357 -0.1975
  483WAT      O 2637   5.779   2.871   7.693  0.4012 -0.4626 -0.1155
  483WAT     H1 2638   5.850   2.890   7.741 -1.1741  0.9824  1.8462
  483WAT     H2 2639   5.807   2.877   7.611  2.7751 -1.0265  0.5933
  483WAT    EPW 2640   5.794   2.875   7.688 -1.0089 -0.4095  0.7630
  484WAT      O 2641   5.700   0.470   4.867  0.2859  0.1981  0.1106
  484WAT     H1 2642   5.677   0.389   4.843  3.9005 -0.4111 -2.0445
  484WAT     H2 2643   5.718   0.462   4.952 -2.7866 -0.2322  0.8483
  484WAT    EPW 2644   5.700   0.457   4.876 -0.5264  0.1226  0.0874
  485WAT      O 2645   5.709   5.690   6.558 -0.3397 -0.0612  0.3816
  485WAT     H1 2646   5.792   5.713   6.543 -0.6118  0.8184  0.1806
  485WAT     H2 2647   5.706   5.607   6.531 -0.0374  0.5299 -1.6478
  485WAT    EPW 2648   5.721   5.681   6.552  0.3885 -0.9737 -1.0640
  486WAT      O 2649   5.612   6.362   6.340  0.0693  0.1261  0.2129
  486WAT     H1 2650   5.548   6.320   6.382  0.8999 -1.4786 -0.0526
  486WAT     H2 2651   5.570   6.413   6.284 -0.9982 -0.2354  0.6554
  486WAT    EPW 2652   5.597   6.363   6.338  0.2642  0.4616  0.2945
  487WAT      O 2653   5.801   6.257   6.186 -0.0964 -0.2509  0.0200
  487WAT     H1 2654   5.771   6.295   6.259 -0.1747  2.7046 -1.4139
  487WAT     H2 2655   5.732   6.258   6.132  0.5863 -0.2313 -0.8715
  487WAT    EPW 2656   5.786   6.263   6.189 -0.4565 -0.2088  0.5157
  488WAT      O 2657   5.563   5.464   5.241  0.5525 -0.2844  0.3015
  488WAT     H1 2658   5.621   5.424   5.293 -2.3061 -0.5905  3.5999
  488WAT     H2 2659   5.592   5.547   5.238  2.2897 -0.8573 -0.0433
  488WAT    EPW 2660   5.576   5.471   5.248  0.1129 -0.6877 -0.6695
  489WAT      O 2661   5.688   5.990   6.458 -0.6896  0.0299 -0.0846
  489WAT     H1 2662   5.698   5.904   6.470 -0.2348 -0.1713 -1.7265
  489WAT     H2 2663   5.650   5.997   6.380  1.1647  1.3326 -0.9720
  489WAT    EPW 2664   5.684   5.978   6.449 -0.5028 -0.1051  0.1309
  490WAT      O 2665   6.704   6.683   4.479  0.1038 -0.2849 -0.0690
  490WAT     H1 2666   6.696   6.733   4.550 -0.3432 -1.0696  0.4378
  490WAT     H2 2667   6.784   6.702   4.450  1.2929 -1.7154  2.0058
  490WAT    EPW 2668   6.714   6.693   4.485  0.6816 -0.1646  0.4622
  491WAT      O 2669   5.846   6.908   7.868  0.1935  0.3177  0.1708
  491WAT     H1 2670   5.779   6.965   7.876 -0.1694 -0.0985  0.1253
  491WAT     H2 2671   5.822   6.842   7.919  0.3820 -0.0134 -0.1716
  491WAT    EPW 2672   5.832   6.907   7.876  0.0509 -0.7015  0.8691
  492WAT      O 2673   5.996   7.652   3.966  0.2955 -0.0296  0.4564
  492WAT     H1 2674   5.935   7.656   4.028 -0.9428 -1.1768 -0.6123
  492WAT     H2 2675   5.977   7.721   3.915 -0.8146 -0.9226 -0.4190
  492WAT    EPW 2676   5.984   7.663   3.968  0.1358 -0.5728 -0.1737
  493WAT      O 2677   5.422   5.350   5.610 -0.2362 -0.2907 -0.3645
  493WAT     H1 2678   5.348   5.327   5.649  0.1204 -2.2042 -0.7411
  493WAT     H2 2679   5.398   5.365   5.527 -0.0728 -1.9583 -0.7442
  493WAT    EPW 2680   5.408   5.349   5.603  0.2137  0.3676  0.6028
  494WAT      O 2681   5.913   5.912   5.210  0.1108  0.4215 -0.2538
  494WAT     H1 2682   5.993   5.883   5.190  0.5458  1.4280 -0.0153
  494WAT     H2 2683   5.896   5.971   5.149 -0.2143  0.6206  0.0238
  494WAT    EPW 2684   5.923   5.916   5.198 -0.2606  0.0384  0.3341
  495WAT      O 2685   5.248   5.995   6.792 -0.3517  0.0949  0.8125
  495WAT     H1 2686   5.201   5.961   6.857  1.1867  1.4694  2.7510
  495WAT     H2 2687   5.244   5.934   6.729 -2.7841 -0.8140  1.7168
  495WAT    EPW 2688   5.240   5.981   6.792 -0.4924 -0.2022 -0.2100
  496WAT      O 2689   6.474   5.913   4.729  0.1956 -0.2982  0.4968
  496WAT     H1 2690   6.535   5.919   4.667 -0.3596 -0.7132 -0.1131
  496WAT     H2 2691   6.426   5.844   4.704 -0.8263  0.3193  0.6679
  496WAT    EPW 2692   6.476   5.904   4.716 -0.4039 -0.3769 -0.0899
  497WAT      O 2693   5.766   6.073   6.848 -0.1120  0.5057  0.0857
  497WAT     H1 2694   5.822   6.010   6.827 -1.1136 -0.7834  1.0901
  497WAT     H2 2695   5.693   6.049   6.807 -0.5546  0.9035  0.6209
  497WAT    EPW 2696   5.763   6.060   6.839 -0.1449  0.9246 -0.2542
  498WAT      O 2697   4.784   6.253   6.410 -0.3150  0.3129 -0.3038
  498WAT     H1 2698   4.762   6.317   6.465 -0.9254  0.3476 -0.5763
  498WAT     H2 2699   4.781   6.292   6.332  1.6396  0.5696 -0.3154
  498WAT    EPW 2700   4.780   6.269   6.406 -0.7182  0.6118  0.0491
  499WAT      O 2701   5.421   4.091   7.350  0.0092  0.0804  0.1071
  499WAT     H1 2702   5.433   4.102   7.265  2.3444  1.9453  0.5713
  499WAT     H2 2703   5.381   4.013   7.356  0.8931 -0.6660 -2.5873
  499WAT    EPW 2704   5.417   4.081   7.339 -0.7596 -0.7751 -0.2228
  500WAT      O 2705   5.896   7.094   6.025  0.0380  0.1196  0.5511
  500WAT     H1 2706   5.883   7.037   5.960  2.0877 -0.8535  0.9159
  500WAT     H2 2707   5.819   7.134   6.033 -0.6044 -0.5255 -1.7038
  500WAT    EPW 2708   5.883   7.092   6.016  0.2754 -0.4709 -0.1830
  501WAT      O 2709   5.597   5.670   7.403  0.0860  0.6543  0.2967
  501WAT     H1 2710   5.525   5.626   7.426 -0.0308  0.6409 -0.0966
  501WAT     H2 2711   5.574   5.709   7.329  0.1136  1.5606  0.7538
  501WAT    EPW 2712   5.583   5.669   7.396  0.9379 -1.4148  0.1899
  502WAT      O 2713   6.164   4.862   5.128  0.1099  0.3914  0.7165
  502WAT     H1 2714   6.097   4.901   5.169 -1.9823 -0.3732 -1.7514
  502WAT     H2 2715   6.185   4.919   5.065  0.6939 -0.0858  0.4681
  502WAT    EPW 2716   6.157   4.877   5.125  0.6726 -0.1746 -0.4556
  503WAT      O 2717   6.462   5.683   7.074 -0.3159 -0.0619 -0.2358
  503WAT     H1 2718   6.414   5.647   7.136  0.1026  2.5029  1.7702
  503WAT     H2 2719   6.406   5.695   7.008 -2.2793  1.8555  1.6239
  503WAT    EPW 2720   6.447   5.680   7.073 -0.5920 -0.2427 -0.4238
  504WAT      O 2721   6.027   7.047   8.037 -0.3421  0.2364  0.1046
  504WAT     H1 2722   6.080   6.980   8.053  0.1814  0.8019  0.7906
  504WAT     H2 2723   5.974   7.017   7.974 -0.4014 -0.9525  0.7069
  504WAT    EPW 2724   6.027   7.033   8.030  0.4485 -0.3649  0.2208
  505WAT      O 2725   6.443   4.418   7.402 -0.1820  0.2500 -0.3413
  505WAT     H1 2726   6.453   4.397   7.486 -0.3688 -0.9145 -0.5979
  505WAT     H2 2727   6.474   4.499   7.398  1.2254 -0.1956  0.5770
  505WAT    EPW 2728   6.449   4.427   7.414  0.0705  0.9461  0.8034
  506WAT      O 2729   6.069   6.394   6.819 -0.1981 -0.0602 -0.0913
  506WAT     H1 2730   6.053   6.442   6.748 -2.5696 -1.3132 -0.5242
  506WAT     H2 2731   6.104   6.321   6.787  0.4630  0.1081  0.2342
  506WAT    EPW 2732   6.072   6.390   6.804 -0.1019 -0.4222  0.0249
  507WAT      O 2733   6.173   7.068   4.639  0.4428 -0.7000  0.0982
  507WAT     H1 2734   6.249   7.107   4.623  0.8056 -0.8654  1.3202
  507WAT     H2 2735   6.163   7.076   4.725 -0.2648 -1.8634  0.1497
  507WAT    EPW 2736   6.183   7.075   4.649 -0.0435  0.9960 -0.0859
  508WAT      O 2737   5.630   6.690   6.608  0.2457  0.7499 -0.3443
  508WAT     H1 2738   5.686   6.692   6.675  0.5097 -1.3438 -0.4423
  508WAT     H2 2739   5.552   6.683   6.646  0.3945 -0.4277 -0.2326
  508WAT    EPW 2740   5.627   6.690   6.623  0.5074 -0.0027  0.0493
  509WAT      O 2741   6.470   6.331   0.122  0.2517  0.4736 -0.0585
  509WAT     H1 2742   6.445   6.412   0.141 -2.9942 -0.3119 -0.4785
  509WAT     H2 2743   6.411   6.304   0.064  0.8235 -2.3864  0.5439
  509WAT    EPW 2744   6.458   6.339   0.116  0.1395 -0.3589  0.3481
  510WAT      O 2745   6.368   4.926   6.676 -0.6916  0.5820  0.2986
  510WAT     H1 2746   6.411   4.852   6.662 -0.4524  0.8548 -0.4756
  510WAT     H2 2747   6.427   4.988   6.659 -1.2916  0.9559 -0.5445
  510WAT    EPW 2748   6.383   4.925   6.671 -0.3115 -0.7640 -1.2231
  511WAT      O 2749   6.306   5.411   7.686 -0.2536 -0.0995  0.4240
  511WAT     H1 2750   6.337   5.346   7.734 -0.4091  0.1965  0.9304
  511WAT     H2 2751   6.377   5.448   7.652  0.2194  1.8417  3.1799
  511WAT    EPW 2752   6.321   5.407   7.688 -0.2218  0.4375  1.0874
  512WAT      O 2753   5.800   5.351   7.999  0.3980 -0.2006 -0.1505
  512WAT     H1 2754   5.882   5.320   7.992  1.2657  1.8594  0.0414
  512WAT     H2 2755   5.783   5.345   8.084  0.8508  0.4896 -0.0032
  512WAT    EPW 2756   5.810   5.345   8.011 -0.8628 -0.6076 -0.0370
  513WAT      O 2757   5.789   6.667   5.422 -0.2036 -0.7348  0.0372
  513WAT     H1 2758   5.777   6.736   5.371  1.0859 -0.5182  0.0045
  513WAT     H2 2759   5.787   6.700   5.503 -1.9204 -1.0312  0.1625
  513WAT    EPW 2760   5.787   6.682   5.426 -0.4528  0.4745 -1.5029
  514WAT      O 2761   5.459   5.668   4.047  0.4950  0.1469 -0.4217
  514WAT     H1 2762   5.452   5.751   4.071  1.0658  0.0551  0.0858
  514WAT     H2 2763   5.377   5.643   4.036  0.3449  1.2985 -2.4565
  514WAT    EPW 2764   5.446   5.676   4.049  0.3980 -0.3625 -0.2962
  515WAT      O 2765   6.211   6.514   7.474 -0.1441 -0.0207  0.4599
  515WAT     H1 2766   6.283   6.553   7.505 -0.2689 -1.2401  2.4909
  515WAT     H2 2767   6.147   6.569   7.496 -0.1006 -0.3083  1.3654
  515WAT    EPW 2768   6.212   6.528   7.482  0.0311  0.3362 -0.2622
  516WAT      O 2769   6.170   5.925   7.050 -0.3123 -0.4176  0.5500
  516WAT     H1 2770   6.130   6.000   7.033 -1.1655 -0.6394  1.5240
  516WAT     H2 2771   6.215   5.941   7.123 -1.5411 -1.1931  1.5188
  516WAT    EPW 2772   6.171   5.938   7.058 -0.4807  0.1899 -0.6995
  517WAT      O 2773   5.960   6.239   7.912 -0.2508 -0.2570 -0.6138
  517WAT     H1 2774   5.876   6.219   7.921  0.3908 -2.5599  1.2040
  517WAT     H2 2775   5.998   6.162   7.895  1.8709  0.0511  2.0207
  517WAT    EPW 2776   5.953   6.225   7.911  0.3540  0.5245 -0.0228
  518WAT      O 2777   7.577   4.169   7.872 -0.2656  0.5940 -0.5032
  518WAT     H1 2778   7.543   4.143   7.948  2.5704 -2.1366  0.0062
  518WAT     H2 2779   7.612   4.097   7.839  0.7827  2.2127 -3.2414
  518WAT    EPW 2780   7.577   4.155   7.878  0.8657  0.1743  0.5782
  519WAT      O 2781   5.622   6.038   7.099 -0.3578  0.1102  0.5293
  519WAT     H1 2782   5.673   6.053   7.029  0.7778  1.3757  1.5545
  519WAT     H2 2783   5.542   6.059   7.071  0.0412  0.3722 -0.4603
  519WAT    EPW 2784   5.618   6.044   7.085 -0.1259 -0.9605 -0.2588
  520WAT      O 2785   6.203   5.857   5.150  0.7477  0.0630 -0.2832
  520WAT     H1 2786   6.246   5.923   5.113  0.6857 -0.1878 -0.8170
  520WAT     H2 2787   6.230   5.859   5.233  0.1529  1.2364 -0.1051
  520WAT    EPW 2788   6.214   5.867   5.157  0.1173 -0.4027 -0.7671
  521WAT      O 2789   5.553   7.900   5.512 -0.2327  0.6637 -0.6031
  521WAT     H1 2790   5.548   7.830   5.460  0.0109  0.6372 -0.5936
  521WAT     H2 2791   5.638   7.919   5.513 -0.1776  0.4191  0.1108
  521WAT    EPW 2792   5.565   7.893   5.504  0.5437 -0.7163  0.7324
  522WAT      O 2793   5.710   4.640   6.157  0.4418  0.0177 -0.7326
  522WAT     H1 2794   5.711   4.597   6.233  1.4441  1.8414  0.3550
  522WAT     H2 2795   5.639   4.690   6.163  0.4744  0.1032 -1.0516
  522WAT    EPW 2796   5.700   4.641   6.169  0.1048 -0.2880  0.6717
  523WAT      O 2797   6.242   7.829   4.728  0.3439  0.9189 -0.9676
  523WAT     H1 2798   6.322   7.865   4.728  0.4237  0.7432 -0.7610
  523WAT     H2 2799   6.206   7.858   4.803 -0.4592  2.4702 -1.9044
  523WAT    EPW 2800   6.248   7.839   4.739 -0.5457 -0.7271 -0.1994
  524WAT      O 2801   5.883   6.050   5.471  0.3245  0.4164  0.2443
  524WAT     H1 2802   5.917   6.028   5.394  1.0036 -0.9699  0.9151
  524WAT     H2 2803   5.940   6.109   5.502 -0.1471  1.2662 -0.4359
  524WAT    EPW 2804   5.896   6.056   5.464  0.3071  0.6920 -0.6202
  525WAT      O 2805   5.707   6.322   7.357 -0.0302  0.9380 -0.0110
  525WAT     H1 2806   5.729   6.293   7.436  3.0901  2.5589 -0.1363
  525WAT     H2 2807   5.776   6.302   7.307 -1.8049  0.1834 -2.3433
  525WAT    EPW 2808   5.720   6.315   7.361 -0.3763 -0.0464  0.1681
  526WAT      O 2809   5.906   5.992   6.098 -0.2304 -0.1461  0.1423
  526WAT     H1 2810   5.892   6.073   6.126 -0.1044 -0.1824  0.3099
  526WAT     H2 2811   5.850   5.984   6.031 -0.4747 -0.0322  0.3309
  526WAT    EPW 2812   5.895   6.003   6.092 -0.1894  0.5457 -0.2588
  527WAT      O 2813   5.985   4.058   4.447 -0.1315 -0.6165 -0.0813
  527WAT     H1 2814   5.929   4.057   4.514  2.7000 -0.0370  2.4717
  527WAT     H2 2815   6.038   3.991   4.462  0.9485 -0.1286 -1.4384
  527WAT    EPW 2816   5.984   4.048   4.459 -0.2599 -0.5083  0.0660
  528WAT      O 2817   5.988   6.180   7.014 -0.1022  0.3685 -0.2454
  528WAT     H1 2818   6.015   6.254   6.977 -0.0418 -0.0140 -0.9848
  528WAT     H2 2819   5.931   6.147   6.956  0.0699 -0.2961 -0.0485
  528WAT    EPW 2820   5.983   6.186   7.000 -0.2301  0.0444 -0.6813
  529WAT      O 2821   7.094   6.012   0.148 -0.8024  0.1694  0.4724
  529WAT     H1 2822   7.146   6.039   0.084 -2.2428 -0.8211 -1.2047
  529WAT     H2 2823   7.107   6.071   0.212  1.2449  0.7433 -0.4067
  529WAT    EPW 2824   7.104   6.025   0.148 -0.0010 -0.3059  0.1336
  530WAT      O 2825   5.093   5.566   0.140 -1.0122  0.7193 -0.2425
  530WAT     H1 2826   5.155   5.520   0.180 -2.7447 -3.1983 -1.5602
  530WAT     H2 2827   5.138   5.616   0.084  1.0133  0.1234  0.7414
  530WAT    EPW 2828   5.109   5.567   0.138  0.0620  0.4730  0.2037
  531WAT      O 2829   5.079   4.652   6.401 -0.1080  0.0066 -0.3818
  531WAT     H1 2830   5.065   4.586   6.456 -1.5396 -0.3420 -1.1136
  531WAT     H2 2831   5.111   4.612   6.330 -0.6200  0.1403 -0.6913
  531WAT    EPW 2832   5.082   4.636   6.398 -0.7042 -0.3326 -0.5381
  532WAT      O 2833   6.926   4.777   0.149  0.2810 -0.9076  0.0075
  532WAT     H1 2834   6.966   4.700   0.158 -2.4799 -2.4274  0.5675
  532WAT     H2 2835   6.923   4.789   0.063 -1.4208 -2.7873 -0.2737
  532WAT    EPW 2836   6.931   4.768   0.138 -0.7456  0.0733  0.0174
  533WAT      O 2837   6.752   6.990   4.401  0.1219  0.4379  0.1543
  533WAT     H1 2838   6.826   6.947   4.386  0.2220  0.7817 -0.3913
  533WAT     H2 2839   6.716   6.949   4.469  1.8289  1.5527  1.8200
  533WAT    EPW 2840   6.757   6.978   4.409  0.2405  0.4333 -0.2726
  534WAT      O 2841   5.733   5.901   5.908 -0.1199  0.6472 -0.2167
  534WAT     H1 2842   5.706   5.937   5.833  0.7893  0.6164 -0.5711
  534WAT     H2 2843   5.661   5.864   5.940 -0.5860  0.9158 -0.9230
  534WAT    EPW 2844   5.718   5.901   5.901 -0.7211 -0.1289 -0.0321
  535WAT      O 2845   6.742   5.123   7.333  0.4599 -0.5799  0.8407
  535WAT     H1 2846   6.698   5.110   7.407 -0.8691 -1.7943 -0.1259
  535WAT     H2 2847   6.709   5.065   7.278  1.3053  0.3942 -0.7845
  535WAT    EPW 2848   6.731   5.113   7.336 -0.0016  0.5891 -0.7963
  536WAT      O 2849   6.092   6.487   5.405  0.1088 -0.3889 -0.4614
  536WAT     H1 2850   6.101   6.528   5.329  0.9565 -0.6194 -0.4921
  536WAT     H2 2851   6.012   6.510   5.431 -0.3014 -0.5454 -1.5512
  536WAT    EPW 2852   6.081   6.497   5.398  0.3202 -0.1811  0.1255
  537WAT      O 2853   6.409   7.840   6.928 -0.4167  0.1202 -0.5492
  537WAT     H1 2854   6.365   7.771   6.897 -1.2363  1.0825 -1.5766
  537WAT     H2 2855   6.376   7.907   6.884 -1.1996  1.5016  1.9349
  537WAT    EPW 2856   6.397   7.840   6.917 -0.2161  0.1783 -0.3331
  538WAT      O 2857   6.913   7.175   4.117 -0.5277 -0.3872 -0.0076
  538WAT     H1 2858   6.890   7.207   4.194  0.0406 -0.0825  0.0411
  538WAT     H2 2859   6.919   7.089   4.130 -0.7487 -0.3679  0.2053
  538WAT    EPW 2860   6.911   7.167   4.130 -0.8103  0.7012  0.0460
  539WAT      O 2861   6.422   6.256   3.593 -0.1734  1.0406  0.1439
  539WAT     H1 2862   6.385   6.334   3.580 -0.0151  0.8145 -2.1806
  539WAT     H2 2863   6.507   6.274   3.595 -0.2088  1.1812  2.2363
  539WAT    EPW 2864   6.429   6.270   3.591  0.5962  0.0064 -0.5065
  540WAT      O 2865   6.583   6.519   2.891 -0.2375 -0.0318 -0.5255
  540WAT     H1 2866   6.549   6.518   2.972 -0.5285 -0.4306 -0.6511
  540WAT     H2 2867   6.658   6.562   2.901  1.0708 -2.3930  0.5040
  540WAT    EPW 2868   6.589   6.526   2.905 -0.0558 -1.0358 -0.0308
  541WAT      O 2869   0.265   7.035   3.539 -0.4557  0.1625 -0.4283
  541WAT     H1 2870   0.335   6.984   3.548 -0.5745 -0.1158 -1.0969
  541WAT     H2 2871   0.199   6.984   3.563 -0.5820 -0.0273 -1.1651
  541WAT    EPW 2872   0.266   7.020   3.544  0.1421 -0.8298 -0.1015
  542WAT      O 2873   7.362   4.882   2.605  0.1606  0.7813 -0.2487
  542WAT     H1 2874   7.298   4.909   2.551  0.1520 -1.2588 -1.3394
  542WAT     H2 2875   7.433   4.884   2.555  0.3545 -0.0547 -0.0206
  542WAT    EPW 2876   7.363   4.886   2.590  0.1180  0.1612  0.8792
  543WAT      O 2877   7.960   7.162   3.912 -0.0323 -0.2921 -0.5965
  543WAT     H1 2878   7.999   7.207   3.848 -0.2769  1.6661  0.5357
  543WAT     H2 2879   8.026   7.139   3.964  0.0098 -0.5404 -0.7579
  543WAT    EPW 2880   7.976   7.166   3.911  0.2616 -0.9058 -0.6470
  544WAT      O 2881   5.634   6.558   4.433  0.5405  0.1033 -0.0595
  544WAT     H1 2882   5.661   6.578   4.353  1.0895 -2.4191 -0.5962
  544WAT     H2 2883   5.623   6.636   4.472  0.4502  1.3795 -2.4865
  544WAT    EPW 2884   5.636   6.572   4.427  0.1820 -0.2464 -0.1602
  545WAT      O 2885   5.298   6.980   5.161 -0.1977  0.6165  0.2425
  545WAT     H1 2886   5.223   6.968   5.118  0.1509  1.5126 -0.6444
  545WAT     H2 2887   5.288   6.931   5.233 -0.7758 -0.9499 -0.8493
  545WAT    EPW 2888   5.285   6.971   5.165 -1.0174 -1.0145  0.3908
  546WAT      O 2889   7.266   6.834   3.570 -0.0120  0.0429  0.5104
  546WAT     H1 2890   7.333   6.794   3.531  0.3927  0.0009  1.2435
  546WAT     H2 2891   7.287   6.919   3.563 -0.1726  0.0611  0.2239
  546WAT    EPW 2892   7.279   6.841   3.563  0.6087 -0.0920 -0.3846
  547WAT      O 2893   6.515   4.492   4.610  0.2975  0.1822  0.7076
  547WAT     H1 2894   6.562   4.508   4.682 -2.4385  1.5670  2.3471
  547WAT     H2 2895   6.473   4.567   4.595 -1.0770 -0.8193 -0.8822
  547WAT    EPW 2896   6.516   4.506   4.619 -0.0336 -0.9311  0.3623
  548WAT      O 2897   6.232   6.354   5.995  0.7438 -0.5249 -0.0520
  548WAT     H1 2898   6.235   6.278   6.037 -2.8260 -0.1551  1.2432
  548WAT     H2 2899   6.169   6.398   6.036  0.4738  1.8989 -2.7120
  548WAT    EPW 2900   6.223   6.349   6.007  0.1285 -0.5480 -0.3722
  549WAT      O 2901   5.359   5.341   4.999  0.7183  0.1149  0.2695
  549WAT     H1 2902   5.373   5.280   5.059  1.9763 -2.4021 -2.3372
  549WAT     H2 2903   5.400   5.411   5.030  0.6170 -0.7884  2.6380
  549WAT    EPW 2904   5.367   5.342   5.012 -0.6874 -0.1674  0.0648
  550WAT      O 2905   6.296   6.866   3.909  0.4754 -0.0821  0.0672
  550WAT     H1 2906   6.358   6.919   3.941  0.6410  0.3878 -1.0036
  550WAT     H2 2907   6.334   6.830   3.839  0.2370 -1.3628  0.5663
  550WAT    EPW 2908   6.311   6.868   3.903  0.5178  1.3738 -0.5406
  551WAT      O 2909   7.352   6.446   3.766  0.2077  0.1668  0.0256
  551WAT     H1 2910   7.265   6.449   3.768  0.1901 -0.2053  0.0101
  551WAT     H2 2911   7.376   6.529   3.777 -0.1589  0.5378 -1.6671
  551WAT    EPW 2912   7.343   6.459   3.768  0.6434  0.3804 -0.5469
  552WAT      O 2913   6.244   6.502   3.614  0.5166  0.1961 -0.8104
  552WAT     H1 2914   6.171   6.485   3.569  1.2118 -0.2117 -1.8232
  552WAT     H2 2915   6.250   6.589   3.609  0.2113  0.2158 -0.9046
  552WAT    EPW 2916   6.234   6.512   3.607 -0.0766 -0.5081  0.7069
  553WAT      O 2917   6.217   4.400   3.789  0.2496 -0.1858 -0.3304
  553WAT     H1 2918   6.176   4.399   3.712  1.2704  0.9897 -0.9325
  553WAT     H2 2919   6.160   4.439   3.842  0.3531  0.9970 -1.0403
  553WAT    EPW 2920   6.202   4.406   3.786 -0.0204 -0.0211 -0.0413
  554WAT      O 2921   5.917   4.486   4.153  0.1310  0.5131 -0.6774
  554WAT     H1 2922   5.996   4.492   4.115 -0.4729  0.4546 -1.9826
  554WAT     H2 2923   5.905   4.400   4.161 -0.1164  0.5074 -1.1415
  554WAT    EPW 2924   5.927   4.474   4.149 -0.2664 -0.0833  0.8744
  555WAT      O 2925   0.344   6.319   4.149  0.6325  0.8094  0.1382
  555WAT     H1 2926   0.371   6.247   4.189  1.3436  0.9566 -0.0563
  555WAT     H2 2927   0.400   6.327   4.082  1.7563  2.5171  1.1837
  555WAT    EPW 2928   0.356   6.310   4.145 -0.2319  1.4352 -0.0152
  556WAT      O 2929   6.135   5.349   4.412 -0.0116 -0.0568  0.2550
  556WAT     H1 2930   6.138   5.423   4.458  1.0937  0.4273 -0.5556
  556WAT     H2 2931   6.131   5.376   4.329  0.1245 -0.9069 -0.0428
  556WAT    EPW 2932   6.135   5.364   4.406 -0.8486  0.4252 -0.9301
  557WAT      O 2933   6.185   6.408   3.121  0.6433 -1.0294  0.1249
  557WAT     H1 2934   6.143   6.463   3.175 -0.5240  0.3278 -2.0551
  557WAT     H2 2935   6.124   6.384   3.064  2.3507 -0.3703 -2.1133
  557WAT    EPW 2936   6.170   6.413   3.121 -0.3170  0.5438 -0.5660
  558WAT      O 2937   5.995   5.777   4.747 -0.0471 -0.5612 -0.2300
  558WAT     H1 2938   6.060   5.756   4.802 -0.2946  0.2154  0.3773
  558WAT     H2 2939   6.013   5.859   4.725 -0.2440 -0.6982 -0.9135
  558WAT    EPW 2940   6.007   5.786   4.752  0.7134  0.1677  0.0749
  559WAT      O 2941   7.371   6.875   2.954 -0.1730  0.7152  0.2924
  559WAT     H1 2942   7.406   6.929   2.895  1.2045 -2.1717 -1.7357
  559WAT     H2 2943   7.428   6.877   3.020  0.7208  0.5387 -0.4582
  559WAT    EPW 2944   7.385   6.883   2.955  0.3142  0.4555 -0.3245
  560WAT      O 2945   6.338   6.850   4.532  0.0131 -0.3273 -0.4108
  560WAT     H1 2946   6.256   6.866   4.560  0.0369 -1.0742  0.1191
  560WAT     H2 2947   6.383   6.844   4.606  0.9081  1.7727 -0.7221
  560WAT    EPW 2948   6.332   6.852   4.547  1.0001 -0.2339  0.5910
  561WAT      O 2949   6.952   6.457   4.213 -0.1383  1.1274 -0.0642
  561WAT     H1 2950   7.033   6.426   4.224  0.2263  2.3321  0.9242
  561WAT     H2 2951   6.961   6.543   4.225 -1.2005  1.5977 -2.1889
  561WAT    EPW 2952   6.966   6.465   4.217  0.8835 -0.7738 -0.5403
  562WAT      O 2953   7.241   7.903   4.138  0.0673 -0.1163  0.1651
  562WAT     H1 2954   7.204   7.825   4.142  0.9670 -0.5957 -0.4035
  562WAT     H2 2955   7.310   7.896   4.191 -1.3145  1.1799  2.2639
  562WAT    EPW 2956   7.246   7.891   4.146  0.3916  0.5170 -0.2127
  563WAT      O 2957   5.925   4.641   5.944 -0.0861  0.0988  0.1154
  563WAT     H1 2958   5.901   4.607   6.021 -1.3881 -0.5686 -0.5628
  563WAT     H2 2959   5.947   4.571   5.897  0.9111  0.5212 -0.0679
  563WAT    EPW 2960   5.925   4.626   5.949 -0.0688 -0.3114 -0.1923
  564WAT      O 2961   6.357   7.245   5.197 -0.2733 -0.1676 -0.0219
  564WAT     H1 2962   6.370   7.200   5.271  3.3058  0.8110  0.1213
  564WAT     H2 2963   6.323   7.320   5.224  0.5258 -0.0161  0.5800
  564WAT    EPW 2964   6.354   7.249   5.212 -0.9756 -0.1582  0.9268
  565WAT      O 2965   5.204   6.172   5.296  0.1304  0.1515 -0.0348
  565WAT     H1 2966   5.125   6.134   5.288  0.4477 -0.7010  0.8133
  565WAT     H2 2967   5.240   6.132   5.364  1.2924  0.5734 -0.3750
  565WAT    EPW 2968   5.197   6.160   5.305  1.3171  0.1956 -0.0933
  566WAT      O 2969   0.226   6.367   3.847  0.0581  0.3947  0.4528
  566WAT     H1 2970   0.187   6.400   3.917 -0.1547  0.8742  0.1171
  566WAT     H2 2971   0.211   6.281   3.853  0.8761  0.3014  1.5014
  566WAT    EPW 2972   0.218   6.359   3.858  0.3240  0.1793 -0.4180
  567WAT      O 2973   7.118   6.084   3.600  0.1723 -0.3640 -0.2578
  567WAT     H1 2974   7.182   6.061   3.546  0.5033 -0.2075  0.0579
  567WAT     H2 2975   7.155   6.078   3.679  0.0540  0.5124 -0.1203
  567WAT    EPW 2976   7.133   6.080   3.604 -0.5329 -0.6221 -0.4359
  568WAT      O 2977   6.350   7.073   4.987 -0.1382  0.6083 -0.0569
  568WAT     H1 2978   6.359   7.141   5.041 -0.5199  1.3187 -0.8711
  568WAT     H2 2979   6.268   7.080   4.959 -0.3231 -0.4514  0.1808
  568WAT    EPW 2980   6.339   7.084   4.991 -0.1596 -1.0236 -0.9777
  569WAT      O 2981   0.674   4.620   3.682 -0.1487  0.2558  0.5737
  569WAT     H1 2982   0.709   4.666   3.748 -0.7272  0.6473  0.6092
  569WAT     H2 2983   0.626   4.560   3.723  0.7311 -0.5096  0.5326
  569WAT    EPW 2984   0.672   4.618   3.698  0.0170 -0.2397  0.7671
  570WAT      O 2985   5.164   5.999   6.272  0.4794  0.1180  0.0811
  570WAT     H1 2986   5.172   5.916   6.246  0.0401  0.2450 -0.4764
  570WAT     H2 2987   5.145   6.042   6.199 -2.0052  0.2965  0.7204
  570WAT    EPW 2988   5.162   5.993   6.257 -0.3512 -0.1848  0.1507
  571WAT      O 2989   5.545   6.652   4.965 -0.3005 -0.2507  0.1896
  571WAT     H1 2990   5.578   6.573   4.947 -1.3450 -0.6661  0.0309
  571WAT     H2 2991   5.523   6.646   5.049  0.1118  0.0617  0.3231
  571WAT    EPW 2992   5.547   6.639   4.975  0.2003 -0.1538 -0.1715
  572WAT      O 2993   6.082   5.146   5.007 -0.1464  1.0818  0.2887
  572WAT     H1 2994   5.999   5.148   5.033  0.1617  1.5745  1.2931
  572WAT     H2 2995   6.079   5.104   4.931 -0.9972 -1.2100  1.4924
  572WAT    EPW 2996   6.070   5.140   5.000 -0.0833  0.0805 -0.3315
  573WAT      O 2997   7.322   7.106   3.632 -0.7486  0.2508  0.0454
  573WAT     H1 2998   7.408   7.100   3.619 -0.8056  2.6265 -2.2021
  573WAT     H2 2999   7.316   7.153   3.706 -0.0847  0.5845 -0.1040
  573WAT    EPW 3000   7.334   7.112   3.641  0.5187  0.2092 -0.4175
  574WAT      O 3001   5.688   5.225   3.706  0.3641 -0.3693  0.3919
  574WAT     H1 3002   5.727   5.268   3.642 -1.4273  0.9455  0.1161
  574WAT     H2 3003   5.604   5.223   3.683 -0.1039 -1.2277  1.9540
  574WAT    EPW 3004   5.681   5.231   3.693  0.0208  0.0860 -0.4806
  575WAT      O 3005   5.311   4.872   3.831 -0.2381  0.7307  0.0789
  575WAT     H1 3006   5.341   4.918   3.899  0.3113 -1.5557  1.5015
  575WAT     H2 3007   5.302   4.792   3.863 -1.8049 -0.0453 -2.0826
  575WAT    EPW 3008   5.314   4.867   3.845  0.7165 -0.4601  0.0039
  576WAT      O 3009   7.231   5.496   3.411  0.0440 -0.1981 -0.3453
  576WAT     H1 3010   7.159   5.446   3.412  1.1080 -1.8088  1.4322
  576WAT     H2 3011   7.241   5.515   3.326 -3.6782  2.0101 -0.5201
  576WAT    EPW 3012   7.222   5.492   3.398 -0.0060  0.5273  0.8389
  577WAT      O 3013   7.581   5.232   2.404 -0.1673 -0.4439 -0.9643
  577WAT     H1 3014   7.529   5.299   2.386  0.2801  1.1557  2.6816
  577WAT     H2 3015   7.661   5.266   2.396  0.0723  0.1700  2.2818
  577WAT    EPW 3016   7.585   5.247   2.400 -0.6016  0.9143  0.1720
  578WAT      O 3017   7.185   7.174   4.328 -0.4915  0.0916  0.8129
  578WAT     H1 3018   7.139   7.221   4.385  2.0435  1.8904  1.5860
  578WAT     H2 3019   7.208   7.232   4.267 -2.9172 -1.7275 -2.0741
  578WAT    EPW 3020   7.182   7.190   4.328  0.0525 -0.1695  0.3525
  579WAT      O 3021   6.061   5.974   6.330 -0.3000  0.2178  0.9763
  579WAT     H1 3022   6.031   6.041   6.378 -1.1818  1.4908 -1.2076
  579WAT     H2 3023   6.016   5.980   6.256 -0.2129 -2.6799  0.5573
  579WAT    EPW 3024   6.050   5.985   6.326  0.4118  0.1178  0.5793
  580WAT      O 3025   5.800   5.051   4.088  0.1948 -0.0887 -0.3209
  580WAT     H1 3026   5.789   5.122   4.037  1.7859 -0.3329 -1.0642
  580WAT     H2 3027   5.880   5.023   4.067  0.7677 -0.4342  2.0680
  580WAT    EPW 3028   5.810   5.058   4.077 -0.7503 -0.4895 -0.1295
  581WAT      O 3029   5.833   4.988   4.619 -0.6869  0.3498 -0.5097
  581WAT     H1 3030   5.795   4.910   4.608 -1.1283  0.0029  2.6045
  581WAT     H2 3031   5.833   5.022   4.539  1.7217 -3.7708 -2.5715
  581WAT    EPW 3032   5.827   4.981   4.605  0.5006 -0.0973  0.0969
  582WAT      O 3033   6.165   4.139   5.561 -1.0198  0.3478  0.3860
  582WAT     H1 3034   6.166   4.223   5.585  0.0317  0.6726 -0.6894
  582WAT     H2 3035   6.162   4.143   5.474 -0.1047 -0.7180  0.2884
  582WAT    EPW 3036   6.164   4.152   5.552  0.4346  0.2466  0.5958
  583WAT      O 3037   5.794   6.915   2.814 -0.5379 -0.0107  0.4265
  583WAT     H1 3038   5.789   7.000   2.796  0.5982 -0.3585 -1.8752
  583WAT     H2 3039   5.728   6.879   2.769 -0.2170 -0.4818  0.3194
  583WAT    EPW 3040   5.784   6.922   2.805 -0.3342  0.0417 -0.4832
  584WAT      O 3041   6.408   5.516   5.064  0.6423  0.3529 -0.0634
  584WAT     H1 3042   6.393   5.532   5.148  0.0178  1.9986 -0.4501
  584WAT     H2 3043   6.400   5.429   5.058 -1.9926  0.4120  1.0938
  584WAT    EPW 3044   6.405   5.506   5.075  0.0727  0.2230 -1.1744
  585WAT      O 3045   6.569   7.116   4.826 -0.0812  0.5611 -0.4097
  585WAT     H1 3046   6.500   7.092   4.873  0.1750 -0.7778 -0.6743
  585WAT     H2 3047   6.624   7.149   4.885 -1.2599  2.5342 -0.3053
  585WAT    EPW 3048   6.567   7.118   4.841  0.4950  0.4440  0.1347
  586WAT      O 3049   7.311   5.978   2.686 -0.6588  0.3375  0.3163
  586WAT     H1 3050   7.328   5.983   2.601 -0.8459 -1.5448  0.1291
  586WAT     H2 3051   7.228   5.949   2.689 -0.9447  1.1636  1.1639
  586WAT    EPW 3052   7.301   5.974   2.674 -0.1169  0.0879 -0.7546
  587WAT      O 3053   5.142   6.246   4.336 -0.0658 -0.0833  0.9631
  587WAT     H1 3054   5.130   6.237   4.422 -1.0298  0.1847  0.8676
  587WAT     H2 3055   5.207   6.190   4.318  0.2084 -0.0720  1.8756
  587WAT    EPW 3056   5.150   6.236   4.346  0.4982 -0.7003 -0.8941
  588WAT      O 3057   6.992   4.874   2.795 -0.1325 -0.5071 -0.0588
  588WAT     H1 3058   6.936   4.856   2.731 -1.5218  1.0077  0.6480
  588WAT     H2 3059   7.031   4.948   2.769  0.6333 -0.8691  0.0287
  588WAT    EPW 3060   6.989   4.883   2.782 -0.2700  0.2228  0.4716
  589WAT      O 3061   6.298   5.684   3.786  0.6304  0.2545  0.0514
  589WAT     H1 3062   6.383   5.681   3.807  1.3790  0.8079 -2.5738
  589WAT     H2 3063   6.275   5.600   3.780  0.4967  0.0582  2.2220
  589WAT    EPW 3064   6.307   5.672   3.788 -0.0868 -0.6138 -0.3568
  590WAT      O 3065   5.958   5.809   6.857  0.1023  0.4424  0.0638
  590WAT     H1 3066   5.919   5.747   6.809 -1.6710  1.4143  0.1547
  590WAT     H2 3067   6.041   5.805   6.831 -0.2781 -0.8843 -1.1079
  590WAT    EPW 3068   5.965   5.799   6.846 -0.6441 -0.5597  0.2513
  591WAT      O 3069   7.446   6.678   3.425 -0.8490  0.1534 -0.2970
  591WAT     H1 3070   7.404   6.624   3.371 -1.8451  2.1085 -1.6202
  591WAT     H2 3071   7.530   6.670   3.400 -0.6100 -2.3356  1.0468
  591WAT    EPW 3072   7.452   6.669   3.413 -0.1779  0.7651 -0.3188
  592WAT      O 3073   5.934   5.809   4.229  0.4971  0.4808  0.7009
  592WAT     H1 3074   5.968   5.789   4.151 -1.1363 -0.3470  0.1753
  592WAT     H2 3075   5.881   5.743   4.246  0.5232  0.8589  2.3503
  592WAT    EPW 3076   5.931   5.796   4.220  0.1405  0.5212  0.4116
  593WAT      O 3077   6.729   5.852   4.111  0.6153  0.4387 -0.0114
  593WAT     H1 3078   6.810   5.878   4.090  0.9478 -0.4699  0.0841
  593WAT     H2 3079   6.688   5.926   4.130  0.8658  1.1120 -1.9056
  593WAT    EPW 3080   6.735   5.867   4.111  0.1651  0.2408 -0.3341
  594WAT      O 3081   6.540   6.708   7.932 -0.2962 -0.2363  0.7928
  594WAT     H1 3082   6.618   6.721   7.969 -0.2534 -0.0714  0.6424
  594WAT     H2 3083   6.506   6.788   7.925  0.4793 -0.0431 -1.2514
  594WAT    EPW 3084   6.546   6.722   7.937  0.1368 -0.1769 -1.4723
  595WAT      O 3085   6.111   6.368   4.167  0.2769  0.7750  0.5879
  595WAT     H1 3086   6.073   6.309   4.115 -1.5472  0.1862  2.4664
  595WAT     H2 3087   6.153   6.321   4.226  1.4557  1.4334  0.3155
  595WAT    EPW 3088   6.111   6.352   4.168 -0.4282  0.6344  0.4265
  596WAT      O 3089   5.803   7.731   3.572  0.6075  0.0827  0.5950
  596WAT     H1 3090   5.863   7.677   3.539 -1.0475 -1.2454 -0.4553
  596WAT     H2 3091   5.814   7.805   3.526  0.4851 -0.6454 -0.6446
  596WAT    EPW 3092   5.813   7.734   3.560 -0.2031 -0.8304 -0.4181
  597WAT      O 3093   6.431   6.415   4.515  0.8882 -0.2012 -0.3435
  597WAT     H1 3094   6.482   6.387   4.581  1.1782  2.0544  0.4857
  597WAT     H2 3095   6.463   6.494   4.497 -0.9444  0.3741 -1.3100
  597WAT    EPW 3096   6.443   6.422   4.522 -0.6343 -0.9050 -0.7093
  598WAT      O 3097   7.548   7.106   3.305 -0.5551 -0.0851  0.1602
  598WAT     H1 3098   7.525   7.022   3.292 -0.5006 -0.2045  0.8085
  598WAT     H2 3099   7.588   7.127   3.230 -2.7887  0.1537 -1.0714
  598WAT    EPW 3100   7.550   7.096   3.292  0.0828 -1.0884 -0.0218
  599WAT      O 3101   7.242   5.097   3.828  0.4253 -0.2965  0.0863
  599WAT     H1 3102   7.246   5.151   3.760  1.3802 -1.1926 -0.5941
  599WAT     H2 3103   7.158   5.071   3.829  0.5688 -0.9171 -1.2823
  599WAT    EPW 3104   7.230   5.101   3.818  0.8221 -0.1218  0.1003
  600WAT      O 3105   7.565   7.435   2.940  0.0085  0.3505 -0.4583
  600WAT     H1 3106   7.581   7.519   2.953  1.7598 -0.0269  0.0993
  600WAT     H2 3107   7.629   7.410   2.885  0.8310 -1.0281  1.0134
  600WAT    EPW 3108   7.577   7.444   2.934 -0.8466 -0.1002  0.8077
  601WAT      O 3109   6.207   6.806   4.185  0.4204 -0.1708  0.4063
  601WAT     H1 3110   6.262   6.756   4.230  0.6432 -0.1654  0.1440
  601WAT     H2 3111   6.248   6.818   4.108  0.0641 -0.1533  0.2150
  601WAT    EPW 3112   6.221   6.801   4.180  0.2685 -0.7788  0.7905
  602WAT      O 3113   6.690   4.990   3.980  0.0973  0.1127  0.4660
  602WAT     H1 3114   6.648   5.062   3.954 -0.3657 -0.1865  0.3589
  602WAT     H2 3115   6.711   4.950   3.905  1.2652  0.6325  0.4984
  602WAT    EPW 3116   6.687   4.995   3.965  0.1984 -0.2369 -0.5303
  603WAT      O 3117   6.660   6.245   2.348  0.0664  0.3045 -0.1503
  603WAT     H1 3118   6.734   6.199   2.342 -0.6487 -1.0206  0.5957
  603WAT     H2 3119   6.678   6.307   2.406  0.3839 -0.4896  0.6216
  603WAT    EPW 3120   6.673   6.247   2.356  0.4441 -0.1800  0.4075
  604WAT      O 3121   0.393   6.165   3.192  0.3970  0.7611  0.1224
  604WAT     H1 3122   0.338   6.178   3.258  1.4755  1.0262  0.9989
  604WAT     H2 3123   0.345   6.182   3.121 -1.1288 -0.6675  0.7370
  604WAT    EPW 3124   0.378   6.169   3.191 -1.0581  0.3104  0.6078
  605WAT      O 3125   6.121   6.599   5.164  0.4844 -0.2449  0.1690
  605WAT     H1 3126   6.085   6.640   5.096  0.2465 -0.1760  0.3361
  605WAT     H2 3127   6.187   6.652   5.187  0.6705 -0.3514 -0.1101
  605WAT    EPW 3128   6.126   6.613   5.157 -0.0486  0.2897 -0.7515
  606WAT      O 3129   6.776   6.221   3.364  0.0970 -0.6483  0.8675
  606WAT     H1 3130   6.715   6.159   3.368  0.8385 -1.3739  1.0790
  606WAT     H2 3131   6.799   6.233   3.447 -1.0246  0.9448  1.0064
  606WAT    EPW 3132   6.770   6.214   3.377 -0.5681 -1.0384 -0.5976
  607WAT      O 3133   6.555   6.653   3.935 -0.5210 -0.4778 -0.4553
  607WAT     H1 3134   6.605   6.679   4.002  0.1003 -2.7272  0.0635
  607WAT     H2 3135   6.497   6.600   3.973  0.1999 -2.2575 -1.7206
  607WAT    EPW 3136   6.554   6.649   3.951 -0.8129  0.0562 -1.2270
  608WAT      O 3137   6.241   5.120   4.499 -0.0646 -0.0773  0.1425
  608WAT     H1 3138   6.281   5.075   4.435 -0.3823 -0.8564  0.4736
  608WAT     H2 3139   6.211   5.191   4.459  1.9376  0.7247 -0.0622
  608WAT    EPW 3140   6.243   5.124   4.484 -0.2430 -0.1959 -0.0610
  609WAT      O 3141   7.106   6.355   2.136  0.2205 -0.3938  0.1326
  609WAT     H1 3142   7.028   6.338   2.171  0.4329 -0.1528  0.7404
  609WAT     H2 3143   7.087   6.390   2.058 -0.3517  1.5931  1.0920
  609WAT    EPW 3144   7.092   6.358   2.130  0.4893 -0.1698 -1.1270
  610WAT      O 3145   0.101   6.452   4.102 -0.7090 -0.0377  0.1282
  610WAT     H1 3146   0.043   6.386   4.099 -0.3699 -0.4075  1.2185
  610WAT     H2 3147   0.168   6.418   4.145  0.4151  0.3377 -1.2698
  610WAT    EPW 3148   0.102   6.437   4.108  0.1344  0.8203  0.3200
  611WAT      O 3149   6.661   7.030   5.174 -0.2504  0.0453  0.4938
  611WAT     H1 3150   6.696   7.083   5.114 -1.3603  0.6107  0.3304
  611WAT     H2 3151   6.600   7.079   5.212 -0.8043 -0.8850  0.8296
  611WAT    EPW 3152   6.657   7.045   5.171  0.7188  1.1937 -0.1100
  612WAT      O 3153   6.688   5.770   3.589  0.3475 -0.0002 -0.0290
  612WAT     H1 3154   6.624   5.750   3.644 -0.1847  0.5135 -0.4542
  612WAT     H2 3155   6.653   5.829   3.536  1.4239  0.9423  0.2611
  612WAT    EPW 3156   6.673   5.775   3.589 -0.4315 -0.5893  0.7022
  613WAT      O 3157   5.178   5.855   3.513 -0.3989  0.2959 -0.6758
  613WAT     H1 3158   5.198   5.865   3.597 -0.8662  0.8040 -0.6200
  613WAT     H2 3159   5.178   5.936   3.481  0.8065  0.0200 -1.4167
  613WAT    EPW 3160   5.181   5.868   3.520  0.0956 -0.4169  0.1708
  614WAT      O 3161   5.832   7.526   4.181 -0.1784 -0.0604 -0.3261
  614WAT     H1 3162   5.767   7.566   4.140  0.1599  0.7418 -0.1026
  614WAT     H2 3163   5.831   7.445   4.148  0.1949  0.5953 -2.0214
  614WAT    EPW 3164   5.822   7.520   4.170  0.2363 -0.1011 -1.0191
  615WAT      O 3165   6.631   6.892   4.662  0.2234  0.0889  0.2608
  615WAT     H1 3166   6.580   6.834   4.702  0.9090  1.0001  2.6747
  615WAT     H2 3167   6.618   6.965   4.708  0.7159  1.3986 -1.5723
  615WAT    EPW 3168   6.622   6.894   4.675  0.3771 -0.6754  0.0714
  616WAT      O 3169   6.895   5.832   2.999  0.3529  0.3994  0.3678
  616WAT     H1 3170   6.932   5.773   3.051 -0.6583  0.4708  1.1854
  616WAT     H2 3171   6.955   5.896   2.994  0.6996  0.1220  0.9592
  616WAT    EPW 3172   6.909   5.833   3.006  0.3336  0.0313  0.0101
  617WAT      O 3173   6.370   3.609   5.921 -0.3624  0.7611  0.2443
  617WAT     H1 3174   6.398   3.599   5.839 -0.2802  0.1448  0.3438
  617WAT     H2 3175   6.313   3.674   5.915  0.1404  1.1730 -0.1863
  617WAT    EPW 3176   6.366   3.617   5.908  0.1260  0.4337 -0.6472
  618WAT      O 3177   7.772   6.456   3.552 -0.2102 -0.2697 -0.5863
  618WAT     H1 3178   7.719   6.473   3.619  0.0027 -0.4702 -0.3647
  618WAT     H2 3179   7.732   6.493   3.484 -1.2051 -1.3710 -0.6240
  618WAT    EPW 3180   7.759   6.464   3.551  0.0113  0.2726 -0.1118
  619WAT      O 3181   5.093   5.373   4.975  0.0954  0.2804  0.5806
  619WAT     H1 3182   5.178   5.372   4.991  0.3064 -0.4610 -0.4587
  619WAT     H2 3183   5.077   5.293   4.943 -1.1742  0.0696  1.6464
  619WAT    EPW 3184   5.103   5.361   4.973 -0.5812 -0.4114 -0.1253
  620WAT      O 3185   5.783   4.797   5.677 -0.2784  0.1098 -0.4615
  620WAT     H1 3186   5.741   4.774   5.750 -0.6941  2.7373  0.2152
  620WAT     H2 3187   5.865   4.809   5.704  0.3843 -2.1749 -1.1985
  620WAT    EPW 3188   5.789   4.795   5.692 -0.0581 -0.0924  0.3768
  621WAT      O 3189   6.676   6.884   3.081 -0.1108  0.5885 -0.4584
  621WAT     H1 3190   6.681   6.971   3.090 -0.2302  0.6405 -0.8803
  621WAT     H2 3191   6.591   6.870   3.067  0.1917  0.6358 -2.6815
  621WAT    EPW 3192   6.664   6.895   3.081 -0.9319  0.1607 -0.1190
  622WAT      O 3193   6.938   7.121   3.204 -0.0321 -0.0377  0.1833
  622WAT     H1 3194   6.990   7.078   3.149  1.2021  1.3353  0.2271
  622WAT     H2 3195   6.915   7.060   3.262  0.5782 -0.9414 -0.4836
  622WAT    EPW 3196   6.942   7.105   3.204  0.7873 -0.4996 -0.0124
  623WAT      O 3197   6.118   7.930   4.946  0.7002  0.3316 -0.3074
  623WAT     H1 3198   6.044   7.886   4.955 -0.1633  0.9450 -3.1992
  623WAT     H2 3199   6.161   7.916   5.020 -1.9325 -0.7429  1.1134
  623WAT    EPW 3200   6.114   7.922   4.958  0.1710  0.3739  0.4090
  624WAT      O 3201   6.135   4.570   5.119  0.1048 -0.5165 -0.4756
  624WAT     H1 3202   6.066   4.540   5.075 -0.0697 -0.9791  0.1113
  624WAT     H2 3203   6.142   4.652   5.091 -0.5137 -0.5453 -0.7403
  624WAT    EPW 3204   6.126   4.577   5.108  0.3384 -0.1694 -0.2408
  625WAT      O 3205   5.910   6.408   4.919 -0.6568 -0.1249 -0.3333
  625WAT     H1 3206   5.823   6.399   4.914 -0.5062 -1.5109 -0.9861
  625WAT     H2 3207   5.936   6.394   4.837  0.0691  2.1196 -0.5374
  625WAT    EPW 3208   5.901   6.404   4.906 -0.0497 -0.3125  0.3177
  626WAT      O 3209   5.725   5.332   4.751 -0.0659 -0.2273 -0.3620
  626WAT     H1 3210   5.677   5.403   4.769 -0.3249 -0.7910  1.4128
  626WAT     H2 3211   5.775   5.357   4.684 -2.7143  0.4241 -2.2750
  626WAT    EPW 3212   5.725   5.346   4.744 -0.2969 -0.0696  0.4448
  627WAT      O 3213   7.464   7.121   4.253 -0.0061 -0.0747 -0.1505
  627WAT     H1 3214   7.518   7.124   4.322  0.1781 -2.2053 -0.1374
  627WAT     H2 3215   7.386   7.108   4.289 -0.4379  1.8844 -0.2374
  627WAT    EPW 3216   7.460   7.120   4.269  0.1294 -0.2192 -0.0747
  628WAT      O 3217   6.079   6.956   3.626  0.2631 -0.8302 -0.3356
  628WAT     H1 3218   6.115   7.026   3.588 -0.1940 -0.8697 -0.8582
  628WAT     H2 3219   6.137   6.892   3.612  0.3083 -0.7383 -0.5820
  628WAT    EPW 3220   6.093   6.957   3.618  0.1060 -0.1311 -0.4728
  629WAT      O 3221   6.725   6.792   4.136  0.3289 -0.1398  0.8016
  629WAT     H1 3222   6.668   6.849   4.169 -1.1605 -0.8793 -0.4040
  629WAT     H2 3223   6.761   6.835   4.069 -1.9769 -1.0616 -1.1515
  629WAT    EPW 3224   6.722   6.807   4.131 -0.2381 -1.0525  0.7367
  630WAT      O 3225   6.004   7.503   5.360 -0.1245  0.5489  0.0258
  630WAT     H1 3226   6.012   7.419   5.381  1.8593  1.2551  2.4871
  630WAT     H2 3227   5.925   7.507   5.322 -0.7167 -2.2076  0.7528
  630WAT    EPW 3228   5.993   7.491   5.357  0.4958  0.3035 -0.0586
  631WAT      O 3229   5.544   4.566   5.518  0.1881  0.7621 -0.0251
  631WAT     H1 3230   5.533   4.573   5.604  1.3553 -0.6200  0.2705
  631WAT     H2 3231   5.483   4.620   5.486  1.5233  3.5254  1.6682
  631WAT    EPW 3232   5.533   4.575   5.526  0.6796  0.6176 -0.1736
  632WAT      O 3233   5.457   4.792   5.148  0.1510  0.4078  0.0230
  632WAT     H1 3234   5.382   4.758   5.119  0.6249 -2.7405  1.9786
  632WAT     H2 3235   5.516   4.731   5.128  1.7696  1.6821  0.6938
  632WAT    EPW 3236   5.454   4.778   5.141  0.2064 -0.6130 -0.4109
  633WAT      O 3237   6.272   6.134   6.177 -0.3323 -0.3930  0.6901
  633WAT     H1 3238   6.250   6.068   6.126 -0.4805 -1.1399  1.6863
  633WAT     H2 3239   6.240   6.112   6.255 -0.8089  1.0798  0.9481
  633WAT    EPW 3240   6.264   6.121   6.181 -0.1917 -0.3428 -0.0171
  634WAT      O 3241   5.936   4.675   3.343 -0.2415 -0.4738  0.4735
  634WAT     H1 3242   5.941   4.670   3.430 -1.4600  2.1806  0.7852
  634WAT     H2 3243   5.852   4.692   3.328  0.3586  1.6191 -0.9718
  634WAT    EPW 3244   5.925   4.677   3.354 -0.3721 -0.0858 -0.8426
  635WAT      O 3245   7.630   6.784   3.688  0.1507  0.6389  0.0958
  635WAT     H1 3246   7.678   6.803   3.758  0.6487  2.8071 -0.7441
  635WAT     H2 3247   7.600   6.862   3.662 -1.5442 -0.3303 -1.0342
  635WAT    EPW 3248   7.633   6.798   3.694  0.5800  1.1522 -0.2083
  636WAT      O 3249   5.249   6.484   5.325 -0.4203  0.1076 -0.3188
  636WAT     H1 3250   5.247   6.530   5.251  0.0297 -0.8137 -0.9193
  636WAT     H2 3251   5.235   6.402   5.299  3.2860 -0.8478  0.0844
  636WAT    EPW 3252   5.247   6.479   5.310  0.3833  0.3048 -0.5528
  637WAT      O 3253   0.104   5.642   3.109 -0.2477  0.1122  0.2751
  637WAT     H1 3254   0.044   5.676   3.162 -1.1803 -0.3517 -0.4749
  637WAT     H2 3255   0.149   5.588   3.162  0.2247  1.2481  1.0856
  637WAT    EPW 3256   0.102   5.639   3.125  0.1111  0.2100  0.4208
  638WAT      O 3257   6.398   6.651   4.365 -0.7203  0.1952  0.4548
  638WAT     H1 3258   6.483   6.669   4.369 -0.6471 -0.1477  0.4465
  638WAT     H2 3259   6.362   6.712   4.416 -0.4338  0.1197  0.7498
  638WAT    EPW 3260   6.405   6.663   4.373  0.8495 -0.2114 -0.1533
  639WAT      O 3261   5.654   6.058   5.668  0.3660  0.4310 -0.3909
  639WAT     H1 3262   5.719   6.060   5.609  0.9147 -1.1547  0.1119
  639WAT     H2 3263   5.635   6.142   5.681  0.3490  0.8485 -2.6855
  639WAT    EPW 3264   5.661   6.070   5.661  0.1665 -0.1236 -1.0434
  640WAT      O 3265   6.172   5.686   4.933 -0.0624 -0.2612 -0.6041
  640WAT     H1 3266   6.247   5.669   4.892 -0.7820 -0.1459 -2.0078
  640WAT     H2 3267   6.195   5.746   4.992  0.7676  0.5330 -1.6818
  640WAT    EPW 3268   6.187   5.692   4.936  0.4553  0.6659 -0.2834
  641WAT      O 3269   7.734   4.105   3.175 -0.3961 -0.1858 -0.1464
  641WAT     H1 3270   7.714   4.167   3.233 -0.5057 -1.8076  1.6421
  641WAT     H2 3271   7.673   4.115   3.113 -0.6775  1.1877  0.3156
  641WAT    EPW 3272   7.722   4.115   3.174  0.1718 -0.3598 -0.4302
  642WAT      O 3273   6.873   7.623   4.197  0.0346  0.1920 -0.1546
  642WAT     H1 3274   6.835   7.701   4.205 -0.7082 -0.1348 -0.3890
  642WAT     H2 3275   6.898   7.604   4.278 -1.5997 -0.2115  0.3034
  642WAT    EPW 3276   6.871   7.632   4.210  0.5144 -0.8517  0.0176
  643WAT      O 3277   0.062   4.512   2.988  0.2729  0.6336 -0.0457
  643WAT     H1 3278   0.108   4.575   3.028  0.1361  0.4974  0.3297
  643WAT     H2 3279  -0.012   4.553   2.964  0.4575  0.7751 -0.3713
  643WAT    EPW 3280   0.058   4.527   2.990 -0.4456  0.3049 -0.3652
  644WAT      O 3281   5.604   5.975   4.347 -0.2161  0.1222 -0.3911
  644WAT     H1 3282   5.541   5.941   4.396  1.6182  0.3667  2.3293
  644WAT     H2 3283   5.658   6.012   4.404  1.8860  0.8404 -2.6377
  644WAT    EPW 3284   5.603   5.975   4.363 -0.2807 -0.3402 -1.1422
  645WAT      O 3285   0.074   5.139   4.006 -0.5075  0.0518  0.0600
  645WAT     H1 3286   0.102   5.085   3.943 -0.0052 -2.4277  2.2165
  645WAT     H2 3287   0.134   5.129   4.069 -2.0173  0.8239  1.6999
  645WAT    EPW 3288   0.087   5.129   4.006  0.6951 -0.0593 -0.3314
  646WAT      O 3289   6.253   6.507   4.694 -0.4798  0.0801  0.1242
  646WAT     H1 3290   6.297   6.466   4.630  0.2956  1.8704 -0.5299
  646WAT     H2 3291   6.174   6.469   4.691  0.1975 -1.3852 -0.4003
  646WAT    EPW 3292   6.248   6.495   4.684  0.4171 -0.6555 -0.3387
  647WAT      O 3293   0.447   6.115   3.543  0.2733 -0.2988  0.2337
  647WAT     H1 3294   0.521   6.159   3.526  0.4400 -0.9949 -0.9710
  647WAT     H2 3295   0.444   6.112   3.630  0.9608  0.8995  0.3273
  647WAT    EPW 3296   0.457   6.121   3.553 -0.3290  0.1093 -0.3907
  648WAT      O 3297   6.961   5.942   3.987 -0.1928  0.0975  0.1721
  648WAT     H1 3298   7.003   5.868   3.968  0.8099  0.0844  2.1396
  648WAT     H2 3299   6.920   5.962   3.913  0.4624 -1.7883 -0.7705
  648WAT    EPW 3300   6.961   5.934   3.974 -0.2366 -0.0024 -0.1438
  649WAT      O 3301   6.164   5.881   5.696 -0.3837  0.1478 -0.5271
  649WAT     H1 3302   6.090   5.834   5.692  0.1357 -0.6369 -3.5698
  649WAT     H2 3303   6.181   5.886   5.782 -2.1244 -2.5867  0.1017
  649WAT    EPW 3304   6.156   5.875   5.708 -0.4298  0.3595 -0.1108
  650WAT      O 3305   6.651   5.920   4.506 -0.4625 -0.4856  0.2089
  650WAT     H1 3306   6.601   5.965   4.450  1.4910  0.8919 -0.5418
  650WAT     H2 3307   6.684   5.855   4.456  0.2202 -0.0601  0.0951
  650WAT    EPW 3308   6.649   5.917   4.490 -0.6521  0.0719  0.4869
  651WAT      O 3309   7.227   7.386   3.754 -0.3264  0.0333 -0.0916
  651WAT     H1 3310   7.298   7.401   3.803 -0.0902 -1.0747 -0.0851
  651WAT     H2 3311   7.228   7.452   3.696  0.9999 -0.2570 -0.4320
  651WAT    EPW 3312   7.238   7.398   3.753 -0.0605 -0.4972 -0.8981
  652WAT      O 3313   8.043   5.885   1.074 -0.2143 -0.2081 -0.2495
  652WAT     H1 3314   8.074   5.941   1.015  0.1325  0.4143  0.5072
  652WAT     H2 3315   7.979   5.843   1.031 -0.0469  0.3105 -1.0247
  652WAT    EPW 3316   8.038   5.887   1.059 -0.4778  0.3001  0.0304
  653WAT      O 3317   6.914   5.241   0.244  0.4045 -0.0541 -0.2522
  653WAT     H1 3318   6.914   5.312   0.295  0.3709  0.0601 -0.4111
  653WAT     H2 3319   6.970   5.261   0.181  2.7960 -1.3527  1.3270
  653WAT    EPW 3320   6.922   5.255   0.243  0.7195  0.1437 -0.3839
  654WAT      O 3321   7.492   7.533   1.089 -0.2046  0.4959 -0.1181
  654WAT     H1 3322   7.452   7.466   1.049  1.2544 -0.1322 -0.6059
  654WAT     H2 3323   7.448   7.603   1.061 -0.1214 -0.0557 -1.7457
  654WAT    EPW 3324   7.480   7.533   1.079 -0.3767  0.4125  0.8381
  655WAT      O 3325   7.632   6.514   0.012 -0.0149 -0.2047  0.0191
  655WAT     H1 3326   7.561   6.564   0.002 -1.0862 -1.8425 -1.3645
  655WAT     H2 3327   7.685   6.540  -0.052 -0.3075 -0.4135 -0.3117
  655WAT    EPW 3328   7.629   6.525   0.001  0.6008  0.0260  0.1579
  656WAT      O 3329   6.712   5.164   1.314  0.6087 -0.0532  0.2066
  656WAT     H1 3330   6.730   5.240   1.352  1.6202 -0.6245  0.9100
  656WAT     H2 3331   6.771   5.110   1.347 -2.1118 -1.9925  2.4076
  656WAT    EPW 3332   6.723   5.167   1.325 -0.9306  0.4089 -0.7733
  657WAT      O 3333   7.268   7.457   0.672 -0.1047 -0.5016 -0.5717
  657WAT     H1 3334   7.281   7.500   0.597 -1.8045  3.0340  0.9364
  657WAT     H2 3335   7.343   7.470   0.716  0.0861 -0.7143 -0.8315
  657WAT    EPW 3336   7.281   7.465   0.668  0.2325  0.7763  0.4453
  658WAT      O 3337   7.005   6.212   3.181 -0.3904 -0.1808  0.6546
  658WAT     H1 3338   6.943   6.195   3.239 -1.4270  2.1429  0.3136
  658WAT     H2 3339   6.978   6.170   3.109 -0.2098 -1.2742  1.2043
  658WAT    EPW 3340   6.992   6.203   3.179 -0.0973 -0.4282 -0.4362
  659WAT      O 3341   7.735   6.028   2.399  0.3843 -0.4333 -0.3827
  659WAT     H1 3342   7.718   5.942   2.403 -2.1180  0.0169  2.2970
  659WAT     H2 3343   7.784   6.042   2.470 -0.5672  0.5437  0.1017
  659WAT    EPW 3344   7.740   6.017   2.410  0.8807 -0.0382  0.8171
  660WAT      O 3345   7.261   6.528   2.322 -0.2184 -0.1157 -0.0188
  660WAT     H1 3346   7.287   6.472   2.384  0.5178 -1.3584 -1.3849
  660WAT     H2 3347   7.201   6.483   2.278 -1.2677  1.0198  0.2083
  660WAT    EPW 3348   7.256   6.513   2.324  0.3791  0.0684  0.0257
  661WAT      O 3349   0.848   5.368   2.350  0.0953  0.2646 -0.4420
  661WAT     H1 3350   0.810   5.318   2.411  1.0650  0.6071  0.4670
  661WAT     H2 3351   0.870   5.440   2.393  2.1943 -0.1160 -0.7881
  661WAT    EPW 3352   0.845   5.371   2.365  0.0335 -0.2159 -0.2838
  662WAT      O 3353   7.774   6.860   3.217 -0.0987 -0.6157 -0.5177
  662WAT     H1 3354   7.809   6.793   3.173 -0.4212 -1.7255  0.8665
  662WAT     H2 3355   7.802   6.849   3.298 -0.4531  0.7459 -0.1819
  662WAT    EPW 3356   7.783   6.849   3.222  0.6174 -0.4004  0.6729
  663WAT      O 3357   7.587   4.714   1.413  0.0415  0.4694  0.3150
  663WAT     H1 3358   7.673   4.704   1.403  0.0014 -0.1781  0.5997
  663WAT     H2 3359   7.567   4.659   1.477 -0.4435  1.2867  0.8891
  663WAT    EPW 3360   7.597   4.704   1.421  0.1307  0.1060 -0.0671
  664WAT      O 3361   7.740   6.961   2.323 -0.4942  0.5128  0.1569
  664WAT     H1 3362   7.822   6.934   2.316 -0.6087  0.2603 -0.2044
  664WAT     H2 3363   7.716   6.934   2.402 -0.7546 -0.8552 -0.3607
  664WAT    EPW 3364   7.749   6.953   2.334  0.1848 -0.5144  0.2665
  665WAT      O 3365   7.315   7.330   0.131  0.6099 -0.6310  0.0798
  665WAT     H1 3366   7.312   7.387   0.065  0.7381 -1.9965 -1.1772
  665WAT     H2 3367   7.392   7.347   0.169 -0.5268  1.7924  1.4750
  665WAT    EPW 3368   7.326   7.341   0.127 -0.0491 -0.3227  0.5794
  666WAT      O 3369   7.686   5.581   0.742 -0.3021  0.5830 -0.0483
  666WAT     H1 3370   7.726   5.504   0.753  0.0728  0.9749  1.6543
  666WAT     H2 3371   7.638   5.590   0.813 -1.2126  1.4433 -0.7417
  666WAT    EPW 3372   7.685   5.571   0.754 -0.7688 -0.0171  0.1285
  667WAT      O 3373   0.225   5.742   1.092  0.4424 -0.5029 -0.4379
  667WAT     H1 3374   0.199   5.766   1.172 -0.9352 -2.2201 -0.2950
  667WAT     H2 3375   0.158   5.767   1.041  0.8265 -0.3922 -0.8887
  667WAT    EPW 3376   0.211   5.749   1.097 -0.8052  0.2981  0.0073
  668WAT      O 3377   7.894   5.553   1.741 -0.0767 -0.1430 -0.2561
  668WAT     H1 3378   7.848   5.620   1.712 -0.6451 -0.5519 -0.3118
  668WAT     H2 3379   7.919   5.578   1.821  0.2559  0.3855 -0.5202
  668WAT    EPW 3380   7.891   5.566   1.749 -0.1137  0.5284  0.6783
  669WAT      O 3381   7.082   6.946   4.210  0.2761 -1.1010 -0.5909
  669WAT     H1 3382   7.110   7.011   4.260 -0.0861 -0.9912 -0.5257
  669WAT     H2 3383   7.139   6.944   4.144 -0.4646  0.1853 -1.3208
  669WAT    EPW 3384   7.095   6.955   4.208  0.2860  0.1713 -0.8681
  670WAT      O 3385   8.055   6.363   3.256 -0.5644 -0.8338  0.3852
  670WAT     H1 3386   8.085   6.366   3.174  2.0937 -1.8534  1.1895
  670WAT     H2 3387   8.025   6.444   3.270  2.3349  0.5600 -0.5209
  670WAT    EPW 3388   8.055   6.376   3.246 -0.3232 -0.2479 -0.2960
  671WAT      O 3389   6.809   5.220   2.829  0.3379 -0.0063 -0.0412
  671WAT     H1 3390   6.754   5.159   2.858 -1.4184  0.4767 -2.0180
  671WAT     H2 3391   6.887   5.182   2.831 -0.0300 -0.8141  2.6694
  671WAT    EPW 3392   6.812   5.206   2.833  0.0056 -0.9016  0.4588
  672WAT      O 3393   6.821   3.570   3.535 -0.1331  0.1136  0.9193
  672WAT     H1 3394   6.844   3.507   3.590  2.1890 -0.5050 -0.6217
  672WAT     H2 3395   6.890   3.623   3.535 -0.8007  1.0139 -0.1048
  672WAT    EPW 3396   6.835   3.569   3.543 -0.5112  0.1941 -0.5803
  673WAT      O 3397   7.255   6.598   1.473 -0.0301  1.1176  0.2300
  673WAT     H1 3398   7.221   6.529   1.514 -0.3722  1.9513  1.3863
  673WAT     H2 3399   7.339   6.595   1.495  0.0070  0.9266  0.0646
  673WAT    EPW 3400   7.263   6.587   1.482 -0.3757 -0.1815 -0.2248
  674WAT      O 3401   6.953   5.406   2.960  0.1464 -0.1237  0.0174
  674WAT     H1 3402   6.883   5.356   2.941  1.2997 -1.3198 -1.3813
  674WAT     H2 3403   7.011   5.349   2.991  0.4844  0.8844  1.3395
  674WAT    EPW 3404   6.951   5.390   2.962  0.6589 -0.3098 -0.3409
  675WAT      O 3405   0.330   6.575   2.079 -0.4144  0.1595 -0.0156
  675WAT     H1 3406   0.304   6.537   2.153  2.0941 -3.6567 -0.7782
  675WAT     H2 3407   0.400   6.621   2.102  0.8190 -1.6354  0.0110
  675WAT    EPW 3408   0.336   6.576   2.093  0.5406  0.4250 -0.2624
  676WAT      O 3409   6.408   7.340   2.821  0.5235 -0.1214 -0.3014
  676WAT     H1 3410   6.417   7.271   2.873  0.4073 -0.5023 -0.7913
  676WAT     H2 3411   6.399   7.306   2.741 -1.1262  0.3622 -0.3681
  676WAT    EPW 3412   6.408   7.325   2.817 -0.0864  0.6572  0.3974
  677WAT      O 3413   0.436   4.219   2.017 -0.3728 -0.1556 -0.3314
  677WAT     H1 3414   0.497   4.182   2.067 -0.7326  0.1964  0.3815
  677WAT     H2 3415   0.458   4.303   2.016  0.1996 -0.3061 -1.6021
  677WAT    EPW 3416   0.448   4.226   2.024  0.5546  0.1116 -0.9373
  678WAT      O 3417   7.012   6.381   1.052 -0.3240  0.5475  0.0870
  678WAT     H1 3418   7.048   6.302   1.057  0.9318  1.1698  1.5218
  678WAT     H2 3419   6.999   6.392   0.967  0.3104 -0.8389 -0.2176
  678WAT    EPW 3420   7.015   6.371   1.040 -0.3225  0.1164 -0.6119
  679WAT      O 3421   6.840   4.578   1.930  0.4776  0.0070  0.0811
  679WAT     H1 3422   6.767   4.573   1.978  0.4860 -1.7176 -0.0258
  679WAT     H2 3423   6.860   4.663   1.932 -2.7174  0.9962 -1.6392
  679WAT    EPW 3424   6.832   4.590   1.937  0.1339 -0.7851  0.1359
  680WAT      O 3425   0.497   6.381   1.775 -0.6083 -0.4181  0.5972
  680WAT     H1 3426   0.431   6.333   1.807 -0.1588 -0.4877  1.4672
  680WAT     H2 3427   0.463   6.418   1.704 -1.4432 -0.8217  0.7713
  680WAT    EPW 3428   0.482   6.379   1.769  0.5680 -0.0119 -0.7997
  681WAT      O 3429   6.913   4.194   1.086 -0.3578 -0.1640 -0.0198
  681WAT     H1 3430   6.834   4.229   1.072  0.0450  0.9549  0.3822
  681WAT     H2 3431   6.961   4.262   1.110  1.2001 -0.4895 -2.0319
  681WAT    EPW 3432   6.908   4.209   1.088  0.4103 -0.0246 -0.3366
  682WAT      O 3433   7.857   5.658   2.208  0.0005  0.4426 -0.2663
  682WAT     H1 3434   7.884   5.685   2.130 -2.0410  0.5943 -0.9779
  682WAT     H2 3435   7.791   5.603   2.189  0.9040 -1.2897  1.2864
  682WAT    EPW 3436   7.851   5.654   2.194  0.2309  0.0014 -0.2777
  683WAT      O 3437   7.349   6.558   0.495  0.1132  0.0949  0.2045
  683WAT     H1 3438   7.311   6.492   0.453  1.8172  0.6896 -2.5807
  683WAT     H2 3439   7.367   6.615   0.431  0.4477  2.3883  2.2013
  683WAT    EPW 3440   7.346   6.557   0.479 -0.8550  0.7292  0.8754
  684WAT      O 3441   1.028   5.681   1.790 -0.9212  0.6925  0.4145
  684WAT     H1 3442   0.985   5.619   1.834  1.7608 -1.0034  0.8736
  684WAT     H2 3443   0.985   5.685   1.714 -1.2217 -1.7815  0.3639
  684WAT    EPW 3444   1.015   5.673   1.785 -0.1364 -0.4792 -0.3488
  685WAT      O 3445   7.586   5.802   3.400  0.7887  0.0138 -0.3603
  685WAT     H1 3446   7.597   5.814   3.314  0.0061 -0.0794 -0.4797
  685WAT     H2 3447   7.580   5.715   3.407 -0.0081  0.0664 -0.3273
  685WAT    EPW 3448   7.587   5.791   3.388 -0.4009 -0.3848  0.2747
  686WAT      O 3449   7.029   3.668   1.380 -0.9636  0.5119 -0.8090
  686WAT     H1 3450   7.087   3.718   1.338 -1.0397  1.3597  0.0723
  686WAT     H2 3451   7.047   3.588   1.351 -1.0907  1.0522 -2.5521
  686WAT    EPW 3452   7.040   3.664   1.369  0.3466 -0.2296 -0.1921
  687WAT      O 3453   7.341   5.617   0.700 -0.0714 -0.0892  0.1605
  687WAT     H1 3454   7.376   5.559   0.646  1.0012  0.0617  0.6620
  687WAT     H2 3455   7.260   5.588   0.713  0.2830 -1.1774 -0.0062
  687WAT    EPW 3456   7.334   5.604   0.694  1.1755 -0.3126 -0.7777
  688WAT      O 3457   7.871   5.631   2.644  0.3328  0.1614 -0.6296
  688WAT     H1 3458   7.855   5.551   2.677  1.7641 -0.1957 -0.7668
  688WAT     H2 3459   7.792   5.656   2.615 -0.2990 -0.8759  0.1046
  688WAT    EPW 3460   7.857   5.623   2.644  0.0231 -0.0903 -1.5661
  689WAT      O 3461   7.625   6.252   3.842  0.2163  0.3524  0.3217
  689WAT     H1 3462   7.574   6.237   3.773  0.0728  1.5230  0.1597
  689WAT     H2 3463   7.570   6.284   3.902  0.9121  2.9666 -0.3152
  689WAT    EPW 3464   7.609   6.254   3.841  0.5848 -0.2605 -0.4526
  690WAT      O 3465   0.263   5.365   1.482 -0.2299 -0.1787  0.0492
  690WAT     H1 3466   0.210   5.428   1.455 -0.9397 -1.0248 -0.5728
  690WAT     H2 3467   0.261   5.306   1.417  2.3419  0.2530 -0.5433
  690WAT    EPW 3468   0.255   5.365   1.468 -0.6570  0.2544  0.4652
  691WAT      O 3469   7.208   6.579   7.974 -0.3954 -0.3198 -0.0249
  691WAT     H1 3470   7.265   6.644   7.962 -0.2809 -0.6671 -1.6258
  691WAT     H2 3471   7.256   6.517   8.013 -0.3197  0.2678  0.8373
  691WAT    EPW 3472   7.224   6.579   7.978  0.3518  0.0596  0.1163
  692WAT      O 3473   7.417   7.765   2.003 -0.2829 -0.1227 -0.1481
  692WAT     H1 3474   7.416   7.741   1.919  1.7400  1.7808 -0.8087
  692WAT     H2 3475   7.486   7.723   2.035 -0.1501  0.3258  0.1625
  692WAT    EPW 3476   7.427   7.755   1.995  0.2858  0.6086 -0.2910
  693WAT      O 3477   7.545   5.010   2.789 -0.3302 -0.0148  0.3845
  693WAT     H1 3478   7.485   4.993   2.728  0.9569  0.3887 -1.0771
  693WAT     H2 3479   7.578   4.932   2.809 -0.2308 -0.0760 -0.0171
  693WAT    EPW 3480   7.541   4.996   2.783 -0.1522  0.1440 -0.5339
  694WAT      O 3481   7.786   5.696   0.498  0.4377  0.3968  0.3644
  694WAT     H1 3482   7.711   5.735   0.476 -0.0427 -1.1000 -0.7928
  694WAT     H2 3483   7.765   5.649   0.569  0.2759 -0.0169  0.0446
  694WAT    EPW 3484   7.772   5.695   0.505 -0.2098  0.7071 -0.5188
  695WAT      O 3485   7.141   7.796   0.818  0.0018  0.4500 -0.5472
  695WAT     H1 3486   7.218   7.784   0.857 -0.2057  2.4189  0.5813
  695WAT     H2 3487   7.159   7.854   0.755 -0.0973 -1.0903 -2.0958
  695WAT    EPW 3488   7.155   7.802   0.814 -0.0385  0.9594 -0.2571
  696WAT      O 3489   7.024   4.515   2.636 -0.6054 -0.0053 -0.4033
  696WAT     H1 3490   6.974   4.574   2.595 -1.2020  0.2389  0.6390
  696WAT     H2 3491   7.086   4.564   2.673 -0.3011 -0.1850 -0.6670
  696WAT    EPW 3492   7.026   4.531   2.635  1.0143 -0.5804  0.2241
  697WAT      O 3493   7.705   5.819   1.306  0.3136  0.3781 -0.6963
  697WAT     H1 3494   7.655   5.805   1.236 -0.1233 -0.7618 -0.1669
  697WAT     H2 3495   7.741   5.897   1.290 -2.2110  1.6197 -0.7492
  697WAT    EPW 3496   7.703   5.829   1.294 -0.5245 -0.3671 -0.9796
  698WAT      O 3497   7.596   6.135   1.178  0.0890  0.7594  0.5714
  698WAT     H1 3498   7.612   6.121   1.094  1.2263 -0.4261  0.9525
  698WAT     H2 3499   7.552   6.211   1.178  0.2175  0.8709 -1.0556
  698WAT    EPW 3500   7.592   6.144   1.166 -0.1035  0.3077 -0.5709
  699WAT      O 3501   0.871   5.968   2.619 -0.0201  0.4757  0.4633
  699WAT     H1 3502   0.881   6.018   2.548  1.3783  0.8675  0.9068
  699WAT     H2 3503   0.833   6.022   2.676  0.4364  0.6980  0.5639
  699WAT    EPW 3504   0.867   5.983   2.617  0.9070  0.2892 -0.1392
  700WAT      O 3505   7.774   7.589   1.105 -0.2964  0.5154 -0.0044
  700WAT     H1 3506   7.811   7.515   1.133  0.4609  0.6742 -0.5668
  700WAT     H2 3507   7.690   7.567   1.097 -0.6419  0.5394  2.6290
  700WAT    EPW 3508   7.767   7.575   1.108  0.1698  0.5622 -0.1929
  701WAT      O 3509   0.502   5.898   0.518  0.2933 -0.3683 -0.2518
  701WAT     H1 3510   0.453   5.867   0.453 -0.3980 -2.1280  1.0285
  701WAT     H2 3511   0.583   5.878   0.494  0.0427 -0.9825 -0.6076
  701WAT    EPW 3512   0.507   5.890   0.505  0.3029 -0.3194  0.6489
  702WAT      O 3513   7.928   5.416   1.501 -0.1968 -0.3329  0.1406
  702WAT     H1 3514   7.849   5.379   1.495 -0.4379  0.2790 -0.7880
  702WAT     H2 3515   7.919   5.472   1.568 -1.1655  1.0536 -1.0592
  702WAT    EPW 3516   7.915   5.419   1.510 -0.2391  0.8188 -0.3253
  703WAT      O 3517   7.807   5.608   3.105 -0.3675 -0.8046  0.0607
  703WAT     H1 3518   7.781   5.685   3.137 -0.1743 -0.8010  0.2066
  703WAT     H2 3519   7.862   5.630   3.041 -1.3236 -0.7933 -0.7873
  703WAT    EPW 3520   7.811   5.622   3.100 -0.1230  0.6563 -0.2968
  704WAT      O 3521   7.525   5.716   1.767  0.1045  0.4027 -0.0070
  704WAT     H1 3522   7.608   5.725   1.743  0.2423  0.6779  0.5515
  704WAT     H2 3523   7.490   5.668   1.703  0.7172  0.1911 -0.1877
  704WAT    EPW 3524   7.532   5.710   1.754  0.0348  0.2674  0.5120
  705WAT      O 3525   7.187   6.155   7.998 -0.2834 -0.2474 -0.4582
  705WAT     H1 3526   7.210   6.096   7.939 -2.0891  0.8495 -2.3745
  705WAT     H2 3527   7.104   6.173   7.978 -0.0464  2.3635  0.5137
  705WAT    EPW 3528   7.178   6.148   7.987  0.0708 -1.1391 -0.5065
  706WAT      O 3529   7.877   5.136   0.894 -0.3661 -0.4955  0.3726
  706WAT     H1 3530   7.919   5.081   0.840  0.4194  0.9316 -0.5200
  706WAT     H2 3531   7.938   5.161   0.951  0.5799  2.7442 -1.8067
  706WAT    EPW 3532   7.892   5.131   0.895  0.3339  0.3733 -0.0333
  707WAT      O 3533   7.348   4.366   1.269  0.3939 -0.2542 -0.4649
  707WAT     H1 3534   7.295   4.317   1.317  0.5579 -0.8479 -0.8699
  707WAT     H2 3535   7.366   4.315   1.200  0.6682  0.3299 -0.8379
  707WAT    EPW 3536   7.343   4.351   1.266 -0.4151  0.1187 -0.6987
  708WAT      O 3537   0.612   6.128   2.485  0.3977  0.1278 -0.1117
  708WAT     H1 3538   0.695   6.120   2.459  1.4919  0.9925  2.7014
  708WAT     H2 3539   0.595   6.053   2.524  0.3796  0.5027  0.6086
  708WAT    EPW 3540   0.622   6.116   2.487 -0.1761 -0.9942  0.1191
  709WAT      O 3541   5.842   5.343   4.493 -0.3008  0.2329  0.3622
  709WAT     H1 3542   5.928   5.334   4.480 -0.4229 -0.0278 -0.3124
  709WAT     H2 3543   5.809   5.269   4.460 -0.8036  0.4404  0.3983
  709WAT    EPW 3544   5.850   5.331   4.486  0.6114  0.3172 -1.2713
  710WAT      O 3545   1.577   6.376   2.630  0.9051  0.3032 -0.1718
  710WAT     H1 3546   1.612   6.329   2.566  0.9643 -1.0541  0.8003
  710WAT     H2 3547   1.643   6.387   2.686  0.1941 -1.1448  1.0508
  710WAT    EPW 3548   1.592   6.370   2.629  0.4345 -0.5393 -0.1585
  711WAT      O 3549   7.375   5.309   3.623  0.2473  0.0695 -0.7033
  711WAT     H1 3550   7.449   5.318   3.669 -0.3732 -0.7704  0.4887
  711WAT     H2 3551   7.349   5.392   3.610  0.3437  0.3249  0.6225
  711WAT    EPW 3552   7.382   5.323   3.628  0.2837 -0.0594 -0.9567
  712WAT      O 3553   0.837   6.936   1.585  0.0407  0.5464 -0.0551
  712WAT     H1 3554   0.750   6.943   1.577 -0.1721  0.2410  1.6268
  712WAT     H2 3555   0.852   6.851   1.574  0.4801  0.8745 -2.7559
  712WAT    EPW 3556   0.826   6.925   1.582 -0.0649 -0.3744 -0.3029
  713WAT      O 3557   7.337   5.315   1.092  0.1111  0.5941  0.3113
  713WAT     H1 3558   7.375   5.394   1.097 -0.1526  0.6258  3.4282
  713WAT     H2 3559   7.372   5.271   1.158  0.3301 -2.0318 -1.4107
  713WAT    EPW 3560   7.348   5.320   1.102 -0.1485  0.2101 -0.0732
  714WAT      O 3561   7.023   7.937   0.234 -0.1574 -0.9533  0.4266
  714WAT     H1 3562   7.050   8.000   0.288 -0.7943  0.0443 -0.3853
  714WAT     H2 3563   6.944   7.916   0.265 -1.6914  1.4181 -1.4736
  714WAT    EPW 3564   7.015   7.943   0.247  0.1268 -0.2106 -0.1263
  715WAT      O 3565   6.942   6.132   7.872 -0.3150  0.1283  0.6325
  715WAT     H1 3566   6.926   6.103   7.792 -0.0468 -0.2982  0.7280
  715WAT     H2 3567   6.863   6.134   7.910 -0.4389  0.3166  0.3681
  715WAT    EPW 3568   6.928   6.128   7.866 -0.1213 -0.6253 -0.0960
  716WAT      O 3569   7.234   3.671   1.745 -0.0216 -0.2181 -0.1936
  716WAT     H1 3570   7.156   3.695   1.712 -0.3232  1.9363  1.8442
  716WAT     H2 3571   7.228   3.584   1.748 -2.2675 -0.1466 -0.3400
  716WAT    EPW 3572   7.222   3.662   1.741 -0.5633 -0.7556 -0.5701
  717WAT      O 3573   7.181   7.418   1.340 -0.5248 -0.4157 -0.4855
  717WAT     H1 3574   7.150   7.491   1.305  0.1016  0.0904  0.0086
  717WAT     H2 3575   7.262   7.439   1.364 -0.6394 -1.0045  0.4759
  717WAT    EPW 3576   7.189   7.432   1.338 -0.0545 -0.0588  0.3707
  718WAT      O 3577   6.611   5.202   7.961 -0.5469  0.0275  0.0677
  718WAT     H1 3578   6.570   5.195   7.884 -0.0102  0.6068 -0.2817
  718WAT     H2 3579   6.558   5.160   8.016 -0.2521 -1.6402 -0.8593
  718WAT    EPW 3580   6.597   5.195   7.958  0.0231  0.3630  0.4111
  719WAT      O 3581   0.120   0.517   3.019  0.5498 -0.4055  0.0948
  719WAT     H1 3582   0.136   0.484   2.939  1.8320  2.4216 -0.9714
  719WAT     H2 3583   0.038   0.547   3.013  0.6515 -0.1767 -0.1902
  719WAT    EPW 3584   0.110   0.517   3.006  0.8317  0.1941  0.4920
  720WAT      O 3585   7.644   7.889   1.398  1.2380  0.0871 -0.1960
  720WAT     H1 3586   7.720   7.901   1.357  0.8437  1.2940 -0.6217
  720WAT     H2 3587   7.626   7.968   1.431  0.2807 -0.2424  0.1059
  720WAT    EPW 3588   7.653   7.902   1.397 -0.0388  0.0711 -1.2399
  721WAT      O 3589   7.411   5.478   2.464  0.0990  0.5043  0.1434
  721WAT     H1 3590   7.439   5.515   2.538 -1.0354  0.3554  0.6683
  721WAT     H2 3591   7.329   5.455   2.483  0.0078 -0.1193 -0.9574
  721WAT    EPW 3592   7.403   5.480   2.478  0.1665  0.4590 -0.2637
  722WAT      O 3593   0.233   6.542   0.982 -0.2678  1.0200 -0.7358
  722WAT     H1 3594   0.203   6.538   0.900 -0.5535 -2.2922 -0.6272
  722WAT     H2 3595   0.319   6.529   0.973 -0.2817  0.7816 -0.5481
  722WAT    EPW 3596   0.241   6.539   0.969 -0.2271 -0.1285  0.6503
  723WAT      O 3597   7.067   6.587   0.581 -0.2235  0.8227 -0.4971
  723WAT     H1 3598   7.022   6.570   0.508  1.5993  1.9265 -1.9475
  723WAT     H2 3599   7.150   6.573   0.558  0.3335  0.0687  1.7261
  723WAT    EPW 3600   7.073   6.582   0.567 -0.0392 -0.6383  0.4379
  724WAT      O 3601   7.808   6.831   0.726 -0.1672  0.1524 -0.4027
  724WAT     H1 3602   7.868   6.806   0.784 -0.4399  0.8036  0.1786
  724WAT     H2 3603   7.734   6.797   0.756 -0.5486  1.5979  0.4155
  724WAT    EPW 3604   7.806   6.823   0.739 -0.0340  0.7480 -0.0608
  725WAT      O 3605   7.335   5.871   3.141  0.2617  0.1963 -0.4512
  725WAT     H1 3606   7.316   5.893   3.224  1.2063  0.7375 -0.3627
  725WAT     H2 3607   7.324   5.785   3.140 -0.6317  0.2970 -0.0033
  725WAT    EPW 3608   7.331   5.862   3.153 -0.2569  0.2085  0.8274
  726WAT      O 3609   7.865   5.105   0.419  0.3281 -0.7885  0.0658
  726WAT     H1 3610   7.926   5.055   0.381 -0.1737 -1.6895  0.4006
  726WAT     H2 3611   7.863   5.075   0.501  0.4684  0.2301  0.4518
  726WAT    EPW 3612   7.874   5.093   0.426 -0.0112  0.6861 -0.6467
  727WAT      O 3613   6.593   4.838   2.702  0.3571  0.1928 -0.3962
  727WAT     H1 3614   6.656   4.818   2.645  0.3919 -2.1210  0.3357
  727WAT     H2 3615   6.543   4.766   2.703 -1.3489  1.3364  0.2767
  727WAT    EPW 3616   6.595   4.824   2.694  0.5735 -0.0355 -0.7096
  728WAT      O 3617   7.039   6.765   3.401  0.1857 -0.4043 -0.0746
  728WAT     H1 3618   6.996   6.692   3.421 -0.5605  0.3682  1.2627
  728WAT     H2 3619   7.091   6.778   3.470 -2.1374  2.0883  1.3909
  728WAT    EPW 3620   7.041   6.756   3.414  0.1492  1.7418 -1.5162
  729WAT      O 3621   1.021   6.244   4.491  0.4158  0.1133  0.0790
  729WAT     H1 3622   0.964   6.256   4.426  0.8915  0.5677 -0.2622
  729WAT     H2 3623   1.020   6.320   4.534  1.3864  0.4490 -0.4431
  729WAT    EPW 3624   1.013   6.257   4.487 -0.1653  0.1973 -0.1829
  730WAT      O 3625   0.342   6.521   2.515  0.3314 -0.0258  0.5160
  730WAT     H1 3626   0.411   6.486   2.556  0.1358  1.1836  1.9505
  730WAT     H2 3627   0.316   6.585   2.569  0.8240  2.5351 -2.0727
  730WAT    EPW 3628   0.348   6.525   2.529 -1.0193 -0.3535 -0.8246
  731WAT      O 3629   7.080   5.179   2.440 -0.1013 -0.0504 -0.0651
  731WAT     H1 3630   7.133   5.242   2.470  0.2917 -1.4352  2.4757
  731WAT     H2 3631   7.008   5.223   2.418  0.9097  1.5120 -0.4872
  731WAT    EPW 3632   7.077   5.195   2.441 -0.7386 -0.2841  0.1504
  732WAT      O 3633   0.033   7.083   2.492 -0.4069 -0.0149  0.0437
  732WAT     H1 3634   0.050   7.158   2.451 -0.5480 -0.6461 -1.2081
  732WAT     H2 3635   0.108   7.063   2.531 -0.8289  1.6085  1.8221
  732WAT    EPW 3636   0.047   7.091   2.492  0.9239 -0.1619 -0.3721
  733WAT      O 3637   7.208   4.513   3.703  0.3398 -0.0222 -0.0823
  733WAT     H1 3638   7.134   4.469   3.715  0.5408 -0.2158  0.5026
  733WAT     H2 3639   7.247   4.470   3.638 -0.9053  1.2169 -1.7438
  733WAT    EPW 3640   7.203   4.500   3.695  1.2058 -0.2024  0.4306
  734WAT      O 3641   0.551   7.121   1.935 -0.1802  0.4911 -0.3052
  734WAT     H1 3642   0.578   7.131   2.017  1.1437  1.2384 -0.8119
  734WAT     H2 3643   0.548   7.034   1.925 -2.8293  0.2940  1.2714
  734WAT    EPW 3644   0.554   7.109   1.946 -0.0442 -0.6010 -0.6194
  735WAT      O 3645   6.926   6.850   7.784  0.3299  0.1460 -0.4102
  735WAT     H1 3646   6.992   6.888   7.827 -0.7623 -1.1549  2.7836
  735WAT     H2 3647   6.964   6.782   7.744  0.9017 -1.8625  3.0761
  735WAT    EPW 3648   6.941   6.846   7.785  1.0081 -0.1111 -0.4515
  736WAT      O 3649   7.453   5.371   3.238  0.5080  0.2538  0.9975
  736WAT     H1 3650   7.447   5.328   3.162 -1.2242 -1.2541  1.8994
  736WAT     H2 3651   7.421   5.314   3.296  1.2494  1.5673  2.7902
  736WAT    EPW 3652   7.448   5.356   3.235 -0.2785 -1.0428 -0.6980
  737WAT      O 3653   0.921   6.233   3.328 -0.2085 -0.2363 -0.6527
  737WAT     H1 3654   0.881   6.292   3.278  1.6899  0.2022 -1.7609
  737WAT     H2 3655   0.906   6.157   3.288  2.1256  0.2148 -2.6078
  737WAT    EPW 3656   0.913   6.230   3.315  0.1298  0.2920 -0.0527
  738WAT      O 3657   7.546   4.635   2.380 -0.4045 -0.3016 -0.5308
  738WAT     H1 3658   7.502   4.645   2.306 -0.1456 -2.5591 -1.0386
  738WAT     H2 3659   7.628   4.653   2.358 -0.3839 -0.5991 -0.6959
  738WAT    EPW 3660   7.552   4.639   2.366 -0.0630  0.1731 -0.6964
  739WAT      O 3661   1.129   5.227   3.681 -0.0680  0.5299 -0.3221
  739WAT     H1 3662   1.067   5.215   3.742 -0.6585  0.7005 -0.8694
  739WAT     H2 3663   1.084   5.220   3.606  0.1820  2.6087 -0.7256
  739WAT    EPW 3664   1.113   5.225   3.679 -1.2573 -0.2552 -0.0871
  740WAT      O 3665   6.404   5.457   3.269  0.3477 -0.4771 -0.1952
  740WAT     H1 3666   6.465   5.486   3.214  2.0058 -1.1065  1.2211
  740WAT     H2 3667   6.334   5.444   3.217  1.2555  0.6566 -1.7961
  740WAT    EPW 3668   6.402   5.460   3.253  0.5448  0.6539  0.6858
  741WAT      O 3669   0.718   6.269   2.203 -0.4262 -0.0644  0.7516
  741WAT     H1 3670   0.631   6.274   2.203 -0.5635 -1.2565 -1.5848
  741WAT     H2 3671   0.733   6.185   2.185  1.2138  0.2905  0.3409
  741WAT    EPW 3672   0.708   6.257   2.200 -0.2596 -0.3242  0.0081
  742WAT      O 3673   0.072   6.360   0.245  0.0933  0.4782 -0.1758
  742WAT     H1 3674   0.016   6.396   0.188 -0.9336 -2.4179 -1.1776
  742WAT     H2 3675   0.020   6.310   0.295  1.5515 -0.7358  0.1846
  742WAT    EPW 3676   0.056   6.358   0.244  0.7644 -0.4169 -0.2704
  743WAT      O 3677   7.526   6.388   2.510  0.2340 -0.1567  0.0175
  743WAT     H1 3678   7.514   6.474   2.499 -0.8327 -0.2743  0.1952
  743WAT     H2 3679   7.608   6.375   2.482 -1.3517 -0.0828 -5.8648
  743WAT    EPW 3680   7.537   6.399   2.504  0.1057  0.4191 -0.4933
  744WAT      O 3681   7.090   6.547   3.742  0.5456  0.0881 -0.7264
  744WAT     H1 3682   7.067   6.500   3.672 -0.8657 -1.0912  0.4534
  744WAT     H2 3683   7.035   6.518   3.804  0.6765  2.2264  0.4576
  744WAT    EPW 3684   7.078   6.536   3.740  0.6696 -0.7189 -0.4908
  745WAT      O 3685   6.923   6.528   1.371  0.3227  0.4474 -0.3859
  745WAT     H1 3686   6.845   6.514   1.407 -0.5018  3.6490 -0.6587
  745WAT     H2 3687   6.904   6.563   1.293  2.0944 -1.1810 -1.6602
  745WAT    EPW 3688   6.909   6.531   1.365 -0.0800 -1.5460 -0.8154
  746WAT      O 3689   0.069   6.447   2.992 -0.0528 -0.1909  0.1273
  746WAT     H1 3690   0.012   6.482   2.936  0.6824  0.6142 -0.1388
  746WAT     H2 3691   0.126   6.512   3.007  0.5773 -0.8543  0.6808
  746WAT    EPW 3692   0.069   6.462   2.986 -0.6653 -0.4197  0.1827
  747WAT      O 3693   7.283   5.320   2.742  0.0029  0.4727  0.0059
  747WAT     H1 3694   7.261   5.379   2.803  1.0575 -0.2230  1.1081
  747WAT     H2 3695   7.369   5.331   2.734  0.0116 -0.0766 -0.7058
  747WAT    EPW 3696   7.292   5.330   2.750 -0.8028 -0.4893 -0.5424
  748WAT      O 3697   7.630   3.628   7.814 -0.0425  0.0969 -0.3779
  748WAT     H1 3698   7.592   3.604   7.889  0.1979  0.2908 -0.1930
  748WAT     H2 3699   7.684   3.562   7.796 -0.7016 -0.3286 -0.8092
  748WAT    EPW 3700   7.632   3.615   7.823 -0.0607 -0.9260 -0.5182
  749WAT      O 3701   8.068   6.037   1.487 -0.2304  0.1148 -0.5658
  749WAT     H1 3702   8.101   5.968   1.446 -0.4349 -0.1709 -0.2610
  749WAT     H2 3703   7.981   6.027   1.478 -0.2497  0.6285 -0.9992
  749WAT    EPW 3704   8.060   6.025   1.480 -0.0811  0.3153 -1.0654
  750WAT      O 3705   7.936   7.190   3.069 -0.1547 -0.0678 -0.2053
  750WAT     H1 3706   7.947   7.131   3.133 -0.3342 -0.6733 -0.7192
  750WAT     H2 3707   7.940   7.266   3.111  0.6360 -0.4217  0.3949
  750WAT    EPW 3708   7.938   7.192   3.085  0.3066 -0.0576  0.2546
  751WAT      O 3709   6.864   6.720   1.150  0.1762 -0.7062  0.0760
  751WAT     H1 3710   6.849   6.771   1.219 -0.9621 -0.3016 -0.4542
  751WAT     H2 3711   6.811   6.751   1.089 -1.5596 -3.3347  0.0968
  751WAT    EPW 3712   6.854   6.732   1.151  0.2447 -0.3262 -1.1071
  752WAT      O 3713   7.946   6.190   2.293 -0.0248  0.4449 -0.3277
  752WAT     H1 3714   8.021   6.156   2.263  0.3504  2.0790 -1.3474
  752WAT     H2 3715   7.894   6.121   2.300  0.1324 -0.2077 -3.9997
  752WAT    EPW 3716   7.950   6.175   2.290  0.2191  0.6228 -0.5347
  753WAT      O 3717   7.977   5.251   2.948 -0.2957  0.2598 -0.4139
  753WAT     H1 3718   8.064   5.256   2.954 -0.0857  0.3478 -2.5494
  753WAT     H2 3719   7.965   5.200   2.878 -1.9284  1.2270 -0.8886
  753WAT    EPW 3720   7.988   5.244   2.938  0.3441 -0.5400 -0.6813
  754WAT      O 3721   7.166   5.951   0.626  0.4054 -0.1890 -0.4537
  754WAT     H1 3722   7.159   5.886   0.568 -1.5056  1.3630 -2.1167
  754WAT     H2 3723   7.104   6.007   0.601 -0.2588  0.7763  2.9066
  754WAT    EPW 3724   7.156   5.949   0.614  0.5074  0.9291 -0.0724
  755WAT      O 3725   0.047   5.460   2.001 -0.1983  0.0305 -0.1552
  755WAT     H1 3726   0.029   5.483   2.084 -0.2283 -0.7571  0.0699
  755WAT     H2 3727   0.112   5.402   2.010  3.4556  3.5920 -1.0178
  755WAT    EPW 3728   0.054   5.455   2.015  0.5125  0.3131 -0.5000
  756WAT      O 3729   0.043   6.977   4.095  0.2064  0.6297 -0.2425
  756WAT     H1 3730   0.039   6.897   4.060 -0.8296  0.3402  0.4885
  756WAT     H2 3731   0.108   6.970   4.154 -1.0867 -0.2553  1.1479
  756WAT    EPW 3732   0.052   6.964   4.099 -0.5391  0.8908  0.6734
  757WAT      O 3733   8.050   3.861   0.968  0.1194 -0.4030 -0.9074
  757WAT     H1 3734   8.014   3.838   1.044  0.3566  1.7282 -0.0738
  757WAT     H2 3735   8.134   3.839   0.978  0.2331  0.2295 -0.3558
  757WAT    EPW 3736   8.057   3.854   0.981 -0.4740 -0.4536  0.4567
  758WAT      O 3737   0.088   5.538   4.243 -0.4795 -0.2626  0.2169
  758WAT     H1 3738   0.023   5.498   4.285 -0.6438 -0.8005 -0.5254
  758WAT     H2 3739   0.112   5.480   4.183  0.5089  0.0440  0.3024
  758WAT    EPW 3740   0.082   5.524   4.240 -0.7388 -0.2528 -0.3968
  759WAT      O 3741   6.883   6.090   0.921 -0.7422 -0.0744  0.5365
  759WAT     H1 3742   6.959   6.097   0.963 -0.5015 -0.4749  0.1758
  759WAT     H2 3743   6.855   6.172   0.916 -0.5759  0.0232  1.1096
  759WAT    EPW 3744   6.890   6.103   0.927  0.1129 -0.7461 -0.3071
  760WAT      O 3745   0.272   6.115   1.611  0.3213 -0.5939  0.1923
  760WAT     H1 3746   0.235   6.040   1.632 -0.6014 -0.4191 -0.7393
  760WAT     H2 3747   0.216   6.152   1.556  0.4208  1.0871  1.1266
  760WAT    EPW 3748   0.259   6.110   1.606  0.4169 -0.6796 -0.2654
  761WAT      O 3749   0.252   6.571   0.429  0.0484 -0.0800 -0.1269
  761WAT     H1 3750   0.196   6.519   0.386  1.5671 -1.7604 -0.2015
  761WAT     H2 3751   0.216   6.650   0.423 -3.3319 -1.3078  1.5506
  761WAT    EPW 3752   0.238   6.575   0.422  0.4550  0.0385 -0.1909
  762WAT      O 3753   0.055   5.538   1.379  0.1519  0.7307  0.6575
  762WAT     H1 3754   0.006   5.488   1.431 -1.3163  2.1287  0.6877
  762WAT     H2 3755   0.024   5.522   1.300 -2.6595  3.8099  0.8920
  762WAT    EPW 3756   0.043   5.528   1.375  0.4813  0.2648  0.3783
  763WAT      O 3757   0.283   5.513   2.237 -0.5080 -0.4659 -0.5506
  763WAT     H1 3758   0.196   5.517   2.234 -0.5445 -0.6144  0.0572
  763WAT     H2 3759   0.299   5.493   2.321  0.0873 -1.0164 -0.7898
  763WAT    EPW 3760   0.272   5.511   2.249  0.2371  0.0540  0.1820
  764WAT      O 3761   0.613   6.802   1.955  0.1782 -0.4695  0.4198
  764WAT     H1 3762   0.614   6.715   1.951 -2.2555 -0.5309 -0.6593
  764WAT     H2 3763   0.562   6.819   2.023 -0.2781  0.1007 -0.0541
  764WAT    EPW 3764   0.606   6.792   1.965 -0.3665 -0.1604 -0.8318
  765WAT      O 3765   7.466   7.288   2.140  0.2609  0.1060 -0.3600
  765WAT     H1 3766   7.455   7.215   2.186  1.9291  0.6096  0.9577
  765WAT     H2 3767   7.395   7.336   2.160  0.0772 -0.4135  0.2600
  765WAT    EPW 3768   7.454   7.284   2.149 -0.4788 -0.1019 -0.1885
  766WAT      O 3769   6.147   6.428   1.149  0.9767  0.5638 -0.5510
  766WAT     H1 3770   6.156   6.465   1.228 -0.2211 -0.7856  0.2852
  766WAT     H2 3771   6.227   6.398   1.131  0.8118 -1.3723  1.4237
  766WAT    EPW 3772   6.160   6.429   1.158 -0.3855  0.6301 -0.6234
  767WAT      O 3773   7.656   6.189   0.913  0.8153  0.3414  0.0430
  767WAT     H1 3774   7.731   6.229   0.896  0.5992  0.3193 -1.0502
  767WAT     H2 3775   7.596   6.252   0.904  0.4475 -0.2397 -1.9795
  767WAT    EPW 3776   7.658   6.204   0.909 -0.5546  0.1329  1.0901
  768WAT      O 3777   1.013   6.187   0.872 -0.6376  0.0073 -0.0980
  768WAT     H1 3778   1.023   6.271   0.849  0.2074  0.1604  0.7674
  768WAT     H2 3779   1.025   6.189   0.959  1.7051 -1.3390 -0.3198
  768WAT    EPW 3780   1.016   6.200   0.882  0.0191  0.1596 -0.0342
  769WAT      O 3781   7.537   6.885   1.252 -0.0212 -0.4130  0.0207
  769WAT     H1 3782   7.572   6.812   1.220  0.4389 -0.1576 -0.0708
  769WAT     H2 3783   7.477   6.906   1.192 -1.0311 -1.3760  0.6547
  769WAT    EPW 3784   7.534   6.877   1.238  0.1098  0.2629 -0.1197
  770WAT      O 3785   0.395   5.981   7.771 -0.2096 -0.1699 -0.4389
  770WAT     H1 3786   0.443   6.042   7.732  0.6901 -0.9264 -0.5489
  770WAT     H2 3787   0.454   5.925   7.802 -0.9533 -0.1989  0.9986
  770WAT    EPW 3788   0.411   5.982   7.769  0.5212  0.5590 -0.8369
  771WAT      O 3789   7.275   3.276   7.766 -0.5293  0.2528  0.0656
  771WAT     H1 3790   7.212   3.322   7.805 -0.7299  0.2101 -0.2042
  771WAT     H2 3791   7.281   3.313   7.687 -0.4525  0.0377 -0.0308
  771WAT    EPW 3792   7.267   3.288   7.760  0.7105  0.1111 -0.4469
  772WAT      O 3793   7.520   6.090   0.131  0.0650 -0.2551 -0.2195
  772WAT     H1 3794   7.472   6.021   0.107 -0.2024 -0.6853  1.3976
  772WAT     H2 3795   7.578   6.056   0.187 -0.4191  0.8660  1.0312
  772WAT    EPW 3796   7.521   6.075   0.136 -0.0708 -0.2981  0.2689
  773WAT      O 3797   7.115   5.167   1.722 -0.0231 -0.2112 -0.6925
  773WAT     H1 3798   7.163   5.238   1.735  0.3665 -0.3397 -1.3510
  773WAT     H2 3799   7.059   5.167   1.788  2.0513 -1.0405  1.2344
  773WAT    EPW 3800   7.114   5.177   1.734 -1.0870  0.5840  0.7345
  774WAT      O 3801   6.875   7.355   7.886 -0.3022 -0.2208 -0.0493
  774WAT     H1 3802   6.898   7.439   7.893 -0.1677 -0.0739 -1.8911
  774WAT     H2 3803   6.790   7.356   7.908 -0.2846  0.3680  0.0220
  774WAT    EPW 3804   6.866   7.367   7.891  0.5472  0.3516  0.5068
  775WAT      O 3805   6.718   6.909   1.003  0.5137 -0.1315  0.6151
  775WAT     H1 3806   6.641   6.876   0.980  0.5407 -0.5283  1.0730
  775WAT     H2 3807   6.697   6.974   1.057  0.4681  0.4491 -0.0944
  775WAT    EPW 3808   6.704   6.914   1.007  0.4481  0.0211  0.0510
  776WAT      O 3809   5.954   6.237   1.079  0.2593 -0.1782 -0.3833
  776WAT     H1 3810   6.008   6.297   1.113  0.2562 -0.0835 -0.5464
  776WAT     H2 3811   5.994   6.161   1.098  1.0217 -0.0700 -1.4646
  776WAT    EPW 3812   5.968   6.235   1.087 -0.9840  0.2644  0.5291
  777WAT      O 3813   6.700   6.376   0.962 -0.1076 -0.6624 -0.5262
  777WAT     H1 3814   6.673   6.436   0.905 -0.6814  1.0322  1.4188
  777WAT     H2 3815   6.776   6.408   0.992  0.0647 -1.3953 -0.1558
  777WAT    EPW 3816   6.707   6.390   0.958 -0.5441 -0.2458 -0.3534
  778WAT      O 3817   0.190   7.349   0.247  0.3393  0.4347  0.5409
  778WAT     H1 3818   0.148   7.272   0.244 -0.2144  0.7217  0.7166
  778WAT     H2 3819   0.125   7.407   0.249  0.6136  1.1169 -2.9322
  778WAT    EPW 3820   0.174   7.346   0.247 -0.1372  0.0831 -1.0382
  779WAT      O 3821   7.806   6.368   0.196  0.1168  0.0882  0.0363
  779WAT     H1 3822   7.880   6.374   0.151  0.0320 -1.2233 -0.3306
  779WAT     H2 3823   7.745   6.393   0.138  0.1722  0.0595 -0.0347
  779WAT    EPW 3824   7.808   6.373   0.180  0.5222  0.0025  0.1878
  780WAT      O 3825   7.877   5.358   0.312 -0.3247 -0.2771  0.4265
  780WAT     H1 3826   7.862   5.286   0.359 -1.9313  1.2832  2.4987
  780WAT     H2 3827   7.797   5.386   0.293  0.2742  1.0414 -0.2065
  780WAT    EPW 3828   7.863   5.351   0.317 -0.2336  0.5509 -0.8346
  781WAT      O 3829   7.470   6.463   0.723  0.2504  0.2538 -0.3151
  781WAT     H1 3830   7.434   6.503   0.654  0.3032 -1.0005 -1.0869
  781WAT     H2 3831   7.414   6.399   0.742 -0.0474  0.9145  1.1798
  781WAT    EPW 3832   7.457   6.460   0.716 -0.2059 -0.6328 -1.3100
  782WAT      O 3833   6.217   6.685   0.895 -0.0478  0.9162  0.5062
  782WAT     H1 3834   6.299   6.701   0.922 -0.2177 -0.5036  2.0744
  782WAT     H2 3835   6.169   6.699   0.967 -0.8659 -0.5925  0.2938
  782WAT    EPW 3836   6.222   6.690   0.910 -0.3853  0.4431  0.1252
  783WAT      O 3837   6.040   4.908   2.238 -0.3251  0.1301  0.0310
  783WAT     H1 3838   5.955   4.921   2.252 -0.1568  0.2064  1.0843
  783WAT     H2 3839   6.044   4.827   2.206 -0.6893 -0.4763  1.4408
  783WAT    EPW 3840   6.028   4.898   2.235 -0.7305 -0.0948 -0.6465
  784WAT      O 3841   6.032   6.688   0.458 -0.3332 -0.1146  0.7774
  784WAT     H1 3842   6.083   6.746   0.418 -1.1218  0.5158  0.6438
  784WAT     H2 3843   6.085   6.649   0.515  0.4401  0.0577  0.1852
  784WAT    EPW 3844   6.047   6.691   0.460 -0.2564  0.6215  0.0506
  785WAT      O 3845   6.745   6.300   0.656 -0.1755 -0.4236 -0.2251
  785WAT     H1 3846   6.678   6.270   0.703  0.2821 -1.0338  0.0545
  785WAT     H2 3847   6.707   6.345   0.592 -0.8057  1.1009  1.1512
  785WAT    EPW 3848   6.730   6.302   0.653 -0.2577  0.4464 -0.0215
  786WAT      O 3849   7.611   4.800   0.415 -0.2511  0.2544 -0.3772
  786WAT     H1 3850   7.622   4.868   0.469  0.1870  1.5311 -1.9849
  786WAT     H2 3851   7.525   4.784   0.418 -0.2528  0.4100  0.5429
  786WAT    EPW 3852   7.600   4.808   0.423  0.0052 -0.4120  0.2057
  787WAT      O 3853   6.915   5.473   0.413  0.5525  0.3820  0.1961
  787WAT     H1 3854   6.995   5.476   0.447 -0.5049  0.1649  2.9995
  787WAT     H2 3855   6.903   5.552   0.380  1.1151  1.1985  1.8700
  787WAT    EPW 3856   6.925   5.485   0.413 -0.5706  0.0323 -0.6750
  788WAT      O 3857   7.630   5.797   7.920 -0.6843 -0.0365 -0.4231
  788WAT     H1 3858   7.700   5.840   7.890 -0.7642  0.3825 -0.0150
  788WAT     H2 3859   7.632   5.722   7.875 -0.0051 -0.0101 -0.4572
  788WAT    EPW 3860   7.641   5.792   7.909 -0.1653 -0.3446 -0.0152
  789WAT      O 3861   7.533   6.173   2.266  0.1957  0.1507 -0.0841
  789WAT     H1 3862   7.537   6.231   2.331 -0.1674 -0.3139  0.3591
  789WAT     H2 3863   7.601   6.121   2.279 -1.3281 -1.6055  1.5576
  789WAT    EPW 3864   7.543   6.174   2.277  0.5709 -0.1683 -0.0702
  790WAT      O 3865   6.581   5.208   1.069 -0.4197  0.0270 -0.3151
  790WAT     H1 3866   6.555   5.125   1.057 -1.6641  0.0115  1.9374
  790WAT     H2 3867   6.646   5.201   1.127 -0.6130  0.6332 -0.0191
  790WAT    EPW 3868   6.587   5.195   1.075 -0.2630  0.4233 -0.2103
  791WAT      O 3869   7.381   5.624   7.788  0.6456  0.1973 -0.4004
  791WAT     H1 3870   7.454   5.587   7.759  0.5642 -0.5676  0.3095
  791WAT     H2 3871   7.375   5.596   7.871 -0.3331  0.4130 -0.3752
  791WAT    EPW 3872   7.391   5.614   7.796  0.4572 -0.1878 -0.1451
  792WAT      O 3873   0.037   5.630   7.840  0.6065  0.2387 -0.1441
  792WAT     H1 3874   0.058   5.702   7.797 -1.1397  0.4059 -0.8147
  792WAT     H2 3875   0.004   5.659   7.915  0.2084  0.1431 -0.2764
  792WAT    EPW 3876   0.035   5.645   7.845  0.1422 -0.0160  0.0163
  793WAT      O 3877   7.079   5.755   0.440  0.1761 -0.9075 -0.2845
  793WAT     H1 3878   7.014   5.796   0.399  0.3018  0.4955  0.8359
  793WAT     H2 3879   7.138   5.741   0.377 -0.1573  0.0590 -0.8211
  793WAT    EPW 3880   7.078   5.759   0.425 -0.2924 -0.0001 -0.0689
  794WAT      O 3881   6.790   6.765   0.232  0.1019  0.5771 -0.1946
  794WAT     H1 3882   6.836   6.835   0.258  2.4515 -1.4869  1.6617
  794WAT     H2 3883   6.788   6.774   0.145 -0.3301  3.2663 -0.0108
  794WAT    EPW 3884   6.796   6.777   0.223 -0.3757  0.6018  0.2504
  795WAT      O 3885   6.612   6.850   2.175 -0.1130  0.4081 -0.1463
  795WAT     H1 3886   6.534   6.881   2.199 -0.4665 -0.3883 -0.2136
  795WAT     H2 3887   6.621   6.880   2.093  0.0506  1.2221  0.1663
  795WAT    EPW 3888   6.602   6.859   2.166  0.0248 -0.0820  0.3704
  796WAT      O 3889   0.680   7.502   0.425 -0.5707  0.6107  0.0940
  796WAT     H1 3890   0.646   7.557   0.366 -0.7712  1.8179  1.3048
  796WAT     H2 3891   0.764   7.497   0.402 -1.0148 -0.5407 -1.4906
  796WAT    EPW 3892   0.687   7.509   0.413 -0.0983 -0.1794 -0.2754
  797WAT      O 3893   0.179   5.458   0.368  0.0523  0.0023  0.5161
  797WAT     H1 3894   0.122   5.524   0.365  1.6548  1.5797  2.1556
  797WAT     H2 3895   0.216   5.459   0.289 -0.4493  0.5849  0.2789
  797WAT    EPW 3896   0.176   5.468   0.356  0.4054 -0.7903 -0.5113
  798WAT      O 3897   6.467   4.944   1.076 -0.6266  0.2760 -0.0425
  798WAT     H1 3898   6.432   4.887   1.019 -0.4187  0.1913 -0.0877
  798WAT     H2 3899   6.398   4.987   1.107 -1.0563 -1.5192  1.6802
  798WAT    EPW 3900   6.451   4.942   1.072 -0.6258 -0.4638  0.1358
  799WAT      O 3901   7.901   5.875   0.687 -0.0493 -0.5195  0.3990
  799WAT     H1 3902   7.888   5.815   0.625 -1.0154  0.4125 -0.3202
  799WAT     H2 3903   7.887   5.951   0.647 -1.2561  0.0935  1.8751
  799WAT    EPW 3904   7.897   5.877   0.672 -0.1323 -0.2134 -1.0385
  800WAT      O 3905   6.953   4.831   7.926 -0.4958  0.4601  0.1095
  800WAT     H1 3906   7.011   4.771   7.900 -1.5180 -0.9289  0.9532
  800WAT     H2 3907   7.001   4.904   7.931  0.9258 -0.4088 -0.2829
  800WAT    EPW 3908   6.969   4.833   7.923 -0.4296 -0.2886 -1.2920
  801WAT      O 3909   7.004   0.382   2.388 -0.2886 -0.1056 -0.4982
  801WAT     H1 3910   7.020   0.303   2.423 -2.0178 -0.7493 -1.0564
  801WAT     H2 3911   6.924   0.402   2.418  1.0463  2.6370  1.6921
  801WAT    EPW 3912   6.994   0.373   2.398  0.1923  0.6980 -0.2750
  802WAT      O 3913   1.157   5.489   0.058  0.6147 -0.3208  0.2970
  802WAT     H1 3914   1.102   5.534   0.108 -1.5209 -2.8089  0.3556
  802WAT     H2 3915   1.156   5.532  -0.018 -3.2964 -1.4255 -0.4793
  802WAT    EPW 3916   1.149   5.502   0.054 -0.0752  0.5895 -0.6136
  803WAT      O 3917   0.598   5.367   1.049 -0.2925  0.9462 -0.2568
  803WAT     H1 3918   0.526   5.415   1.061 -0.7691 -0.0437  1.1163
  803WAT     H2 3919   0.579   5.318   0.979 -0.5454  1.4115 -0.5165
  803WAT    EPW 3920   0.585   5.367   1.040 -0.0735 -0.1123  0.1250
  804WAT      O 3921   6.517   5.391   1.919 -0.3641  0.1555 -0.2103
  804WAT     H1 3922   6.476   5.360   1.990 -1.8386 -0.3447 -1.2165
  804WAT     H2 3923   6.524   5.320   1.868  1.4868  0.3134 -0.2272
  804WAT    EPW 3924   6.512   5.376   1.922  0.1140 -0.2642  0.3274
  805WAT      O 3925   7.317   5.132   0.488 -0.2708  0.1871 -0.1296
  805WAT     H1 3926   7.377   5.178   0.529  0.1049  0.3950 -0.8906
  805WAT     H2 3927   7.358   5.102   0.417  0.0800 -2.9292  1.2459
  805WAT    EPW 3928   7.332   5.134   0.483 -0.4950 -0.2097 -0.2079
  806WAT      O 3929   7.383   0.308   1.131  0.0346 -0.0388 -0.1551
  806WAT     H1 3930   7.351   0.364   1.190 -2.4391 -0.8654 -0.5589
  806WAT     H2 3931   7.368   0.348   1.055  0.4333 -0.2586 -0.3529
  806WAT    EPW 3932   7.376   0.322   1.128  0.1494  0.2249  0.2828
  807WAT      O 3933   6.846   5.805   1.259 -0.3080 -0.3125  0.0456
  807WAT     H1 3934   6.930   5.789   1.278 -0.1629 -1.7827 -1.5048
  807WAT     H2 3935   6.840   5.892   1.261  1.6070 -0.0985 -1.0416
  807WAT    EPW 3936   6.858   5.815   1.262  0.0124 -0.4056  0.4973
  808WAT      O 3937   7.428   4.769   7.352 -0.3594  0.5044  0.5341
  808WAT     H1 3938   7.515   4.771   7.362 -0.0914  0.2505 -1.2674
  808WAT     H2 3939   7.408   4.853   7.335 -0.3865  0.4863  0.4764
  808WAT    EPW 3940   7.438   4.782   7.351  0.5725 -0.0684 -0.1459
  809WAT      O 3941   6.883   4.414   7.885  0.1281 -0.0779  0.6784
  809WAT     H1 3942   6.910   4.397   7.803 -0.4380  0.8964  0.2770
  809WAT     H2 3943   6.852   4.337   7.912  0.6178 -0.4950  0.1067
  809WAT    EPW 3944   6.883   4.400   7.877  0.6806 -0.0692 -0.2756
  810WAT      O 3945   7.631   5.279   0.544  0.0478  0.6268 -0.1590
  810WAT     H1 3946   7.692   5.315   0.595  0.6713  1.2422 -1.2991
  810WAT     H2 3947   7.670   5.208   0.511  0.5077  1.4892 -1.5732
  810WAT    EPW 3948   7.645   5.274   0.547 -0.4544 -0.7111 -0.2111
  811WAT      O 3949   6.444   5.950   0.674  0.1975  0.6815  0.0857
  811WAT     H1 3950   6.510   5.900   0.701 -0.2712 -0.0337 -0.0529
  811WAT     H2 3951   6.385   5.942   0.738 -0.7318 -0.6549 -0.8754
  811WAT    EPW 3952   6.445   5.941   0.688 -0.1631 -0.0827  0.4874
  812WAT      O 3953   7.046   5.336   0.027 -0.3316  0.7935 -0.4282
  812WAT     H1 3954   7.127   5.353  -0.001 -0.5970 -1.2415 -2.7002
  812WAT     H2 3955   6.997   5.395  -0.015 -0.1231  1.9060  0.8096
  812WAT    EPW 3956   7.050   5.348   0.017  0.1490  0.1244  0.3873
  813WAT      O 3957   7.993   5.501   1.079 -0.7855 -0.0112  0.6507
  813WAT     H1 3958   7.920   5.477   1.121 -1.3905  0.5435 -0.0687
  813WAT     H2 3959   7.969   5.570   1.032  0.3774  0.6102  0.9103
  813WAT    EPW 3960   7.979   5.507   1.079  0.4335  0.1014  0.1967
  814WAT      O 3961   0.892   7.845   0.727  0.1646  0.5213  0.4041
  814WAT     H1 3962   0.957   7.903   0.735 -0.7016  1.3280  2.1604
  814WAT     H2 3963   0.932   7.768   0.738  1.0529  0.8809 -0.1671
  814WAT    EPW 3964   0.907   7.843   0.730  0.0301  0.4308 -0.1544
  815WAT      O 3965   6.742   4.262   1.844  0.3456 -0.3112  0.0746
  815WAT     H1 3966   6.714   4.340   1.817 -0.0002 -0.3112  0.4193
  815WAT     H2 3967   6.668   4.217   1.854  0.5993 -1.1139 -1.3855
  815WAT    EPW 3968   6.727   4.267   1.841 -0.1724  0.6228 -0.5707
  816WAT      O 3969   6.183   0.028   7.999  0.6603 -0.2893  0.1076
  816WAT     H1 3970   6.239   0.092   8.018 -1.5692  1.2385  2.1932
  816WAT     H2 3971   6.150   0.051   7.922  1.3986 -0.1033 -0.1601
  816WAT    EPW 3972   6.187   0.041   7.991  0.8435  0.7946 -0.7177
  817WAT      O 3973   6.517   6.093   1.444  0.1443 -0.0240  0.0528
  817WAT     H1 3974   6.529   6.007   1.432  3.4757  0.1898  0.7525
  817WAT     H2 3975   6.570   6.112   1.510  1.0404  2.8782 -1.3100
  817WAT    EPW 3976   6.527   6.083   1.452 -0.1719 -0.2331 -0.3041
  818WAT      O 3977   7.493   4.776   0.140 -0.0014  0.0420 -0.9365
  818WAT     H1 3978   7.453   4.773   0.062  0.8281  1.3612 -1.4486
  818WAT     H2 3979   7.574   4.802   0.120  0.0835  0.8953  0.4120
  818WAT    EPW 3980   7.499   4.779   0.126  0.9690 -0.3127  0.6225
  819WAT      O 3981   6.400   5.352   0.223 -0.1101  0.3649 -0.1283
  819WAT     H1 3982   6.462   5.362   0.283 -0.4301 -1.9085  0.6777
  819WAT     H2 3983   6.333   5.396   0.254 -0.0494 -0.2250  0.8694
  819WAT    EPW 3984   6.400   5.360   0.236  0.0841 -0.3142 -0.8327
  820WAT      O 3985   6.668   6.923   2.529 -0.2099  0.0828 -0.1408
  820WAT     H1 3986   6.688   6.988   2.475  0.5683 -0.8220 -0.9865
  820WAT     H2 3987   6.612   6.959   2.585  3.1855  2.6568  2.0195
  820WAT    EPW 3988   6.663   6.938   2.529 -0.2119  0.5560 -0.4622
  821WAT      O 3989   6.882   4.698   7.626 -0.0404  0.0883 -0.8905
  821WAT     H1 3990   6.820   4.653   7.667 -0.3302  0.4457 -0.9301
  821WAT     H2 3991   6.870   4.677   7.542  0.8996 -1.0716 -0.7667
  821WAT    EPW 3992   6.871   4.688   7.619  0.3937  0.0203 -0.0469
  822WAT      O 3993   6.838   2.802   1.130  0.0752  0.0352 -0.0952
  822WAT     H1 3994   6.820   2.880   1.163  0.4661 -0.1422  0.5481
  822WAT     H2 3995   6.759   2.765   1.122 -0.1360  0.5956 -0.6866
  822WAT    EPW 3996   6.823   2.808   1.133 -0.6478 -1.1314 -0.1633
  823WAT      O 3997   7.851   6.514   7.868  0.0555  0.0325  0.0420
  823WAT     H1 3998   7.898   6.456   7.822  0.2643  0.7878 -0.7267
  823WAT     H2 3999   7.829   6.574   7.808 -1.5523 -0.0971  0.4739
  823WAT    EPW 4000   7.855   6.515   7.852 -0.1870  0.3114 -0.8102
  824WAT      O 4001   5.623   5.157   0.694 -0.0372 -0.3667 -0.2291
  824WAT     H1 4002   5.648   5.222   0.745 -0.0887  0.5258 -1.2998
  824WAT     H2 4003   5.678   5.161   0.627 -0.4468 -1.0125 -0.6189
  824WAT    EPW 4004   5.635   5.167   0.691  1.3041 -1.0822  0.4471
  825WAT      O 4005   7.678   4.536   0.031  0.2696  0.7473  0.2383
  825WAT     H1 4006   7.597   4.531  -0.003  0.3250  1.3891 -0.0037
  825WAT     H2 4007   7.671   4.492   0.106 -0.4597  1.2494  0.4887
  825WAT    EPW 4008   7.665   4.529   0.037 -0.3435  0.4180 -0.8354
  826WAT      O 4009   6.138   3.413   7.715 -0.4544  0.0859 -0.3003
  826WAT     H1 4010   6.195   3.350   7.737  0.1490  1.1628  1.4328
  826WAT     H2 4011   6.124   3.399   7.631  0.1797 -1.9645 -0.1302
  826WAT    EPW 4012   6.145   3.402   7.706 -0.0569  1.4106  0.0677
  827WAT      O 4013   7.172   3.720   0.531  0.8045 -0.1299 -0.7395
  827WAT     H1 4014   7.092   3.747   0.509  0.8766 -0.3149 -1.2558
  827WAT     H2 4015   7.193   3.769   0.600  1.8415  2.8304 -2.9440
  827WAT    EPW 4016   7.163   3.731   0.538  0.3079 -0.7904  0.0070
  828WAT      O 4017   7.832   2.713   7.836 -0.3507 -0.7231  0.2358
  828WAT     H1 4018   7.752   2.739   7.812 -0.8811 -0.1390  2.4135
  828WAT     H2 4019   7.817   2.649   7.893  0.8176 -1.7709 -0.5759
  828WAT    EPW 4020   7.818   2.708   7.841  0.2482  0.8551 -0.3773
  829WAT      O 4021   6.890   3.982   0.758 -0.1872  0.3510 -0.2067
  829WAT     H1 4022   6.889   3.924   0.692  0.1434  1.4789 -1.2492
  829WAT     H2 4023   6.816   3.966   0.801 -1.0243  0.3530 -1.5744
  829WAT    EPW 4024   6.879   3.971   0.754  0.2991 -0.2587 -0.2553
  830WAT      O 4025   7.146   5.248   7.488  0.4729  0.1996 -0.1978
  830WAT     H1 4026   7.169   5.318   7.441  1.7584  0.2176  0.4053
  830WAT     H2 4027   7.220   5.226   7.529 -0.5649  0.2146  1.8368
  830WAT    EPW 4028   7.160   5.255   7.487 -0.7442  0.6011  0.5569
  831WAT      O 4029   7.654   2.982   0.685  0.2134  0.4559 -0.1994
  831WAT     H1 4030   7.688   2.931   0.623  1.2634  0.9679 -0.0755
  831WAT     H2 4031   7.600   2.929   0.728  0.2271 -0.1719 -0.9354
  831WAT    EPW 4032   7.651   2.967   0.682  0.4925  0.2577  0.4676
  832WAT      O 4033   7.898   3.217   0.426  0.1033 -0.1182 -0.1174
  832WAT     H1 4034   7.879   3.251   0.503  0.0038  2.2626 -1.1191
  832WAT     H2 4035   7.984   3.203   0.430  0.2259  0.6979  0.1725
  832WAT    EPW 4036   7.908   3.220   0.438 -0.0411  0.2898 -0.3906
  833WAT      O 4037   5.766   5.665   1.419 -0.0401 -0.4563  0.1978
  833WAT     H1 4038   5.788   5.595   1.466  1.2545 -0.8307 -0.9047
  833WAT     H2 4039   5.760   5.728   1.480  1.4713 -0.9443  0.9168
  833WAT    EPW 4040   5.768   5.664   1.435  0.5201 -0.8435  0.2589
  834WAT      O 4041   7.107   5.379   0.733  0.0951  0.6998 -0.4231
  834WAT     H1 4042   7.040   5.435   0.723 -1.6410 -1.5094 -2.4558
  834WAT     H2 4043   7.141   5.374   0.653  0.4839 -0.7543 -0.1975
  834WAT    EPW 4044   7.102   5.387   0.719 -0.1085  0.0315 -1.0487
  835WAT      O 4045   7.821   4.678   7.784  0.0076 -0.0391 -0.2928
  835WAT     H1 4046   7.893   4.659   7.829 -0.8637 -0.2651  1.0808
  835WAT     H2 4047   7.758   4.671   7.843 -0.9718  1.8226 -1.0196
  835WAT    EPW 4048   7.822   4.674   7.799  0.8980  0.2856  0.5001
  836WAT      O 4049   7.390   3.793   7.392 -0.3671 -0.3180 -0.5072
  836WAT     H1 4050   7.445   3.726   7.392  1.0033  0.7240  1.0260
  836WAT     H2 4051   7.393   3.823   7.310  1.4748 -0.2067 -0.4299
  836WAT    EPW 4052   7.398   3.787   7.380 -0.3137  0.6220 -0.7684
  837WAT      O 4053   6.983   4.509   0.894  0.1107 -0.7159 -0.0686
  837WAT     H1 4054   7.057   4.523   0.938  1.3694  0.5342 -2.3656
  837WAT     H2 4055   6.963   4.589   0.864 -2.0835 -1.0817  0.2982
  837WAT    EPW 4056   6.991   4.523   0.896 -0.4544 -0.6939 -0.2699
  838WAT      O 4057   6.682   4.800   7.913 -0.8878  0.8451  0.0221
  838WAT     H1 4058   6.768   4.805   7.926 -0.9230 -2.1951  2.5749
  838WAT     H2 4059   6.672   4.723   7.873 -2.4606  0.0077  1.8538
  838WAT    EPW 4060   6.693   4.789   7.909  0.0438 -1.3812  0.8549
  839WAT      O 4061   7.345   5.022   7.575  0.5417 -0.9899  0.1701
  839WAT     H1 4062   7.374   4.966   7.514 -1.2582 -1.1561 -0.6202
  839WAT     H2 4063   7.283   4.977   7.616  0.9583 -0.4834  1.3861
  839WAT    EPW 4064   7.340   5.007   7.572 -0.1662 -0.0096  0.1996
  840WAT      O 4065   6.524   3.223   7.225 -0.3714  0.2711 -0.3464
  840WAT     H1 4066   6.558   3.158   7.177  1.4083  0.3542  0.7069
  840WAT     H2 4067   6.579   3.290   7.210 -0.2107  0.5201  1.1660
  840WAT    EPW 4068   6.537   3.224   7.215  0.5308 -0.2376 -0.5549
  841WAT      O 4069   6.755   2.788   7.633 -0.2960  0.1039 -0.3194
  841WAT     H1 4070   6.806   2.771   7.701  0.9181 -0.2342 -1.2818
  841WAT     H2 4071   6.742   2.874   7.639  3.9166  1.1263 -2.2881
  841WAT    EPW 4072   6.760   2.798   7.644 -0.6493  0.0559  0.6712
  842WAT      O 4073   6.653   3.390   0.338 -0.9228 -0.3707 -0.6456
  842WAT     H1 4074   6.602   3.347   0.395 -2.7107  0.6068 -1.4065
  842WAT     H2 4075   6.638   3.349   0.263 -1.7815  0.8191 -1.1567
  842WAT    EPW 4076   6.643   3.378   0.336  0.0089  1.0501 -0.0895
  843WAT      O 4077   6.257   3.694   2.193 -0.0837  0.5149 -0.2943
  843WAT     H1 4078   6.234   3.772   2.224 -0.4224  0.3353 -0.0845
  843WAT     H2 4079   6.229   3.639   2.255  0.9662  0.2883  0.0015
  843WAT    EPW 4080   6.250   3.698   2.207  0.1203 -0.3376  0.0293
  844WAT      O 4081   7.681   3.201   1.152  0.1160  0.1705 -0.2525
  844WAT     H1 4082   7.595   3.216   1.146 -0.0449  0.5122  2.1048
  844WAT     H2 4083   7.715   3.279   1.168  0.8780  0.0057 -0.9889
  844WAT    EPW 4084   7.673   3.215   1.153  0.1905  0.3824 -0.1067
  845WAT      O 4085   7.241   3.538   7.296 -0.1921 -0.8198  0.4489
  845WAT     H1 4086   7.159   3.514   7.310 -0.4057 -0.3129  0.0942
  845WAT     H2 4087   7.246   3.617   7.334 -0.0104 -0.6375  0.0542
  845WAT    EPW 4088   7.230   3.546   7.304  0.3374 -0.5554 -0.4661
  846WAT      O 4089   7.225   3.960   7.858 -0.2808  0.1545 -0.5432
  846WAT     H1 4090   7.185   3.883   7.868  0.4460 -0.0768  0.8077
  846WAT     H2 4091   7.266   3.952   7.781 -0.5427 -0.6422 -0.6077
  846WAT    EPW 4092   7.225   3.948   7.848 -0.0476  0.2587  0.1307
  847WAT      O 4093   7.826   4.462   0.839  0.1123 -0.2904 -0.6147
  847WAT     H1 4094   7.743   4.438   0.847  0.4289 -0.8209  3.2947
  847WAT     H2 4095   7.821   4.540   0.801 -2.2748 -0.0054  0.1158
  847WAT    EPW 4096   7.813   4.470   0.835  0.6929  0.0286 -0.0717
  848WAT      O 4097   7.967   3.299   7.902 -0.1296 -0.3040 -0.3230
  848WAT     H1 4098   8.022   3.283   7.836  0.6219  1.8133 -0.3022
  848WAT     H2 4099   8.019   3.332   7.964 -1.0928 -0.5462  0.6423
  848WAT    EPW 4100   7.983   3.301   7.901  0.1602  1.2825 -0.5932
  849WAT      O 4101   6.586   4.402   0.644 -0.3198  0.2144  0.3044
  849WAT     H1 4102   6.633   4.349   0.695 -3.2308 -1.4748  1.5033
  849WAT     H2 4103   6.586   4.361   0.567 -0.5409 -0.3035  0.5688
  849WAT    EPW 4104   6.593   4.388   0.640  1.3455 -0.2847  0.1847
  850WAT      O 4105   7.060   4.724   0.528 -0.0021  0.5099  0.2648
  850WAT     H1 4106   7.003   4.730   0.594 -1.6904  0.2025 -1.0979
  850WAT     H2 4107   7.019   4.674   0.469  1.2312  1.1807 -1.2459
  850WAT    EPW 4108   7.046   4.717   0.529  1.0677 -0.6822 -0.2447
  851WAT      O 4109   6.223   4.918   7.909 -0.2706 -0.1629 -0.7538
  851WAT     H1 4110   6.213   4.927   7.996 -2.4310  0.5310 -1.0083
  851WAT     H2 4111   6.193   4.994   7.878 -0.7700 -0.9179 -2.1645
  851WAT    EPW 4112   6.217   4.931   7.917  0.4512 -0.1069 -0.2507
  852WAT      O 4113   5.862   4.133   7.815 -0.3457 -0.0853 -0.1320
  852WAT     H1 4114   5.823   4.082   7.756  0.3396  0.4668 -1.0846
  852WAT     H2 4115   5.910   4.078   7.862  0.3673 -0.3450 -1.1354
  852WAT    EPW 4116   5.863   4.118   7.813  0.1908  0.1337  0.1321
  853WAT      O 4117   1.194   3.361   7.558  0.0900 -0.2595 -0.2345
  853WAT     H1 4118   1.221   3.433   7.598  1.7526 -0.3876 -1.0443
  853WAT     H2 4119   1.135   3.390   7.501 -1.7165  0.0119  1.6356
  853WAT    EPW 4120   1.189   3.376   7.556 -0.7008  0.9290 -0.4801
  854WAT      O 4121   7.024   5.106   7.948 -0.5237 -0.4293  0.5043
  854WAT     H1 4122   7.106   5.099   7.918 -0.8889  0.2925 -0.7629
  854WAT     H2 4123   7.022   5.187   7.982 -0.9908 -0.0250 -0.4529
  854WAT    EPW 4124   7.036   5.117   7.949  0.5513 -0.6924 -0.2472
  855WAT      O 4125   6.368   2.331   7.824 -0.7566 -0.2156 -0.4940
  855WAT     H1 4126   6.401   2.290   7.754  0.4409 -0.8577  0.4169
  855WAT     H2 4127   6.326   2.267   7.867 -1.9004  0.2758 -0.8486
  855WAT    EPW 4128   6.367   2.315   7.820  0.2870 -0.1123 -0.5234
  856WAT      O 4129   7.015   3.456   0.971 -0.7268 -0.2847  0.2652
  856WAT     H1 4130   6.955   3.495   1.021 -1.8311 -1.2933 -0.2071
  856WAT     H2 4131   7.012   3.502   0.897 -0.2255  0.2462  0.5703
  856WAT    EPW 4132   7.005   3.468   0.967  0.5911 -0.4373  0.0447
  857WAT      O 4133   0.220   2.886   7.978 -0.9051 -0.7443 -0.0675
  857WAT     H1 4134   0.279   2.888   7.913 -1.0819 -1.3393 -0.2506
  857WAT     H2 4135   0.224   2.967   8.012  0.9716 -1.1448  0.7824
  857WAT    EPW 4136   0.230   2.898   7.973 -0.0525 -0.9863  0.0671
  858WAT      O 4137   7.051   3.493   0.238  0.4955  0.1451 -0.2565
  858WAT     H1 4138   7.136   3.476   0.238  0.4245 -0.4694 -2.1960
  858WAT     H2 4139   7.018   3.435   0.181 -1.0147  1.2726 -0.6051
  858WAT    EPW 4140   7.058   3.482   0.229 -0.1548  0.3158  0.1396
  859WAT      O 4141   7.632   4.332   0.231  0.0650  0.1210  0.1566
  859WAT     H1 4142   7.582   4.283   0.179 -0.0476 -0.3481  0.7026
  859WAT     H2 4143   7.574   4.380   0.275  0.0163 -1.1722  1.5487
  859WAT    EPW 4144   7.616   4.332   0.230  0.4396  0.1837  0.1804
  860WAT      O 4145   6.445   2.889   7.345  0.0002 -0.0811  0.2766
  860WAT     H1 4146   6.481   2.821   7.303 -0.0031 -0.1062  0.3138
  860WAT     H2 4147   6.515   2.934   7.373  0.1200 -1.6439  2.8586
  860WAT    EPW 4148   6.461   2.885   7.343  0.8501 -0.2682  0.1687
  861WAT      O 4149   6.157   3.679   7.798  0.2484  0.2931  0.2145
  861WAT     H1 4150   6.157   3.594   7.777 -0.9850  0.2640  0.2730
  861WAT     H2 4151   6.170   3.678   7.885  0.7857  0.2007  0.1374
  861WAT    EPW 4152   6.159   3.666   7.808 -0.9216 -0.7720 -0.4515
  862WAT      O 4153   7.339   3.412   7.531  0.4372 -0.3422 -0.4290
  862WAT     H1 4154   7.305   3.441   7.456 -1.1643  0.6670  0.6095
  862WAT     H2 4155   7.418   3.384   7.508 -0.1352 -0.4292 -2.5535
  862WAT    EPW 4156   7.345   3.412   7.516  0.3163 -0.1815  0.5376
  863WAT      O 4157   5.870   5.404   0.522 -0.4360  0.6274 -0.1550
  863WAT     H1 4158   5.839   5.407   0.604 -0.8760 -0.3000 -0.2731
  863WAT     H2 4159   5.862   5.320   0.501  1.8162  0.4138 -0.3604
  863WAT    EPW 4160   5.864   5.392   0.531 -0.0328 -0.7946  0.3547
  864WAT      O 4161   7.025   4.399   1.850  0.4131 -0.1816  0.1975
  864WAT     H1 4162   6.959   4.442   1.887  0.3283  0.0625 -0.2355
  864WAT     H2 4163   7.094   4.422   1.898  0.4992  1.0379 -0.4761
  864WAT    EPW 4164   7.026   4.408   1.862  0.4827 -0.1545  0.3938
  865WAT      O 4165   7.317   6.361   0.088 -0.6331 -0.4320 -0.2533
  865WAT     H1 4166   7.275   6.307   0.034  0.4481 -0.0634 -1.5061
  865WAT     H2 4167   7.396   6.324   0.097 -0.6220 -0.2191  0.6924
  865WAT    EPW 4168   7.322   6.348   0.082  0.1978  0.3199  0.6975
  866WAT      O 4169   6.235   4.923   0.657  0.1940  0.1288  0.0151
  866WAT     H1 4170   6.222   4.887   0.578  0.3340 -0.7943  0.3903
  866WAT     H2 4171   6.155   4.942   0.684  0.1151  0.1255 -0.2103
  866WAT    EPW 4172   6.222   4.920   0.649  0.2689 -1.1824 -0.2155
  867WAT      O 4173   6.121   4.272   8.023 -0.1034 -0.0795 -0.0102
  867WAT     H1 4174   6.074   4.338   7.991 -1.3199 -1.0006 -0.1933
  867WAT     H2 4175   6.201   4.306   8.033 -0.4916  1.1545 -0.9333
  867WAT    EPW 4176   6.126   4.287   8.020  0.4365 -0.6447  0.0411
  868WAT      O 4177   5.738   3.585   6.200  0.2103 -0.1392 -0.0559
  868WAT     H1 4178   5.744   3.576   6.287  0.9043  1.4183  0.0972
  868WAT     H2 4179   5.704   3.665   6.191  1.8724  0.4911 -1.2183
  868WAT    EPW 4180   5.734   3.596   6.212 -0.0251 -0.4959 -0.9182
  869WAT      O 4181   6.291   4.558   0.497  0.0688 -0.1457  0.0446
  869WAT     H1 4182   6.280   4.484   0.451  0.0607  0.2085 -0.5333
  869WAT     H2 4183   6.211   4.593   0.499  0.0368 -0.2336  0.4706
  869WAT    EPW 4184   6.277   4.552   0.490 -0.0347  0.0817 -0.0868
  870WAT      O 4185   7.783   3.441   7.697  0.1794 -0.6788 -0.4372
  870WAT     H1 4186   7.852   3.494   7.688 -0.5618  0.1440 -1.5955
  870WAT     H2 4187   7.815   3.373   7.742  1.4171  0.2628  0.1814
  870WAT    EPW 4188   7.798   3.439   7.702 -0.7380  0.7667  0.1329
  871WAT      O 4189   6.429   5.158   7.773 -0.0755  0.1587 -0.5015
  871WAT     H1 4190   6.374   5.104   7.814 -2.1712  1.8829 -0.8599
  871WAT     H2 4191   6.413   5.143   7.688 -0.3808  1.0262 -0.6065
  871WAT    EPW 4192   6.419   5.148   7.767 -0.2767  0.6439  0.3028
  872WAT      O 4193   6.104   4.908   0.371  0.7712  1.0380  0.0024
  872WAT     H1 4194   6.071   4.831   0.394 -0.7058  1.6964  0.2106
  872WAT     H2 4195   6.152   4.890   0.300  1.3206 -0.2181  0.6591
  872WAT    EPW 4196   6.106   4.894   0.364 -0.5271  0.6170 -0.2184
  873WAT      O 4197   5.846   3.051   0.463 -0.1892 -0.0524  0.1380
  873WAT     H1 4198   5.838   2.971   0.496  2.8504 -0.5038  0.1208
  873WAT     H2 4199   5.899   3.092   0.519  0.1472  1.1855 -1.0192
  873WAT    EPW 4200   5.853   3.045   0.476 -0.4160  0.0567  0.0503
  874WAT      O 4201   6.219   2.717   8.018 -0.2250 -0.4135  0.4218
  874WAT     H1 4202   6.213   2.660   7.952 -0.8670 -1.7017  1.5662
  874WAT     H2 4203   6.140   2.715   8.055  0.5797 -0.9001  2.1909
  874WAT    EPW 4204   6.207   2.708   8.013 -1.1486 -0.0153  0.3581
  875WAT      O 4205   6.692   4.629   0.122 -0.3073  0.0942  0.0509
  875WAT     H1 4206   6.759   4.683   0.133 -0.2776  0.2501 -0.7888
  875WAT     H2 4207   6.659   4.653   0.045 -0.1606 -1.2236 -0.4561
  875WAT    EPW 4208   6.697   4.641   0.112  0.1483 -0.3596 -0.5470
  876WAT      O 4209   6.270   4.535   6.580 -0.1982  0.1428 -0.4884
  876WAT     H1 4210   6.337   4.583   6.609 -1.8250  2.2469 -0.0153
  876WAT     H2 4211   6.309   4.463   6.549  2.1374  0.6115  1.1055
  876WAT    EPW 4212   6.286   4.531   6.579 -0.3468  0.2674  0.1083
  877WAT      O 4213   7.600   3.444   0.572  0.5408  0.0354  0.0919
  877WAT     H1 4214   7.609   3.358   0.569  2.1758  0.1298  1.0428
  877WAT     H2 4215   7.542   3.456   0.636  1.3515 -0.3320  0.9137
  877WAT    EPW 4216   7.593   3.433   0.581 -0.7385 -0.1847 -0.4234
  878WAT      O 4217   7.160   4.020   7.415  0.0569  0.8667  0.4424
  878WAT     H1 4218   7.205   4.003   7.488 -3.2874 -1.8454  2.1441
  878WAT     H2 4219   7.203   3.973   7.354 -0.0073 -1.2102  1.8741
  878WAT    EPW 4220   7.173   4.010   7.417  0.7150 -0.6430 -0.2312
  879WAT      O 4221   6.554   4.298   0.361  0.1205  0.0902  0.1577
  879WAT     H1 4222   6.599   4.307   0.287 -1.5987 -0.7133 -1.0446
  879WAT     H2 4223   6.471   4.305   0.336 -0.5033  0.8720  2.1878
  879WAT    EPW 4224   6.548   4.301   0.347 -0.1381  0.2716  0.0876
  880WAT      O 4225   7.488   4.579   7.834 -0.1811 -0.3963 -1.0033
  880WAT     H1 4226   7.417   4.568   7.883  0.6835 -1.7125  0.0118
  880WAT     H2 4227   7.497   4.503   7.792  1.5154 -0.8902  0.1379
  880WAT    EPW 4228   7.479   4.566   7.835 -0.8260  0.2059  0.0357
  881WAT      O 4229   7.909   3.069   8.037 -0.0543 -0.2135  0.4978
  881WAT     H1 4230   7.947   3.001   7.997  0.6985 -0.6149  1.8443
  881WAT     H2 4231   7.923   3.135   7.982  0.8388 -0.7751  0.0204
  881WAT    EPW 4232   7.917   3.068   8.023  0.5688 -0.5933  0.3849
  882WAT      O 4233   7.160   4.931   0.894  0.1915 -0.4807  0.2609
  882WAT     H1 4234   7.110   4.903   0.828 -0.1921 -0.0036  0.3451
  882WAT     H2 4235   7.173   5.015   0.875  1.5356 -0.7615 -0.1137
  882WAT    EPW 4236   7.154   4.940   0.881 -0.1211 -0.8873 -0.3104
  883WAT      O 4237   5.831   4.124   5.210 -0.5560  0.1388  0.0574
  883WAT     H1 4238   5.803   4.192   5.256  0.0264  1.5025 -1.5016
  883WAT     H2 4239   5.829   4.058   5.267 -0.4311  1.6004  1.8254
  883WAT    EPW 4240   5.827   4.124   5.225 -0.3118 -0.2795 -1.4227
  884WAT      O 4241   5.701   3.847   5.853  0.6135  0.3323  0.1411
  884WAT     H1 4242   5.643   3.790   5.821 -1.0389  2.3904 -0.7505
  884WAT     H2 4243   5.660   3.924   5.846  3.2661  1.8322  0.0124
  884WAT    EPW 4244   5.686   3.850   5.848  0.2528 -0.3960  0.1676
  885WAT      O 4245   5.890   4.208   4.152 -0.5502  0.0222 -0.5980
  885WAT     H1 4246   5.973   4.184   4.142  0.1624  2.1346 -0.3225
  885WAT     H2 4247   5.848   4.133   4.166  1.3466 -1.0695 -0.4601
  885WAT    EPW 4248   5.896   4.193   4.153 -0.0284  0.1415 -0.3815
  886WAT      O 4249   6.182   5.925   6.010  0.0375  0.0657  0.1151
  886WAT     H1 4250   6.097   5.945   6.006 -0.2331 -1.2861 -1.9110
  886WAT     H2 4251   6.183   5.838   6.014  1.3449  0.0773  0.5322
  886WAT    EPW 4252   6.170   5.915   6.010  0.7612 -0.1717 -0.2883
  887WAT      O 4253   5.574   4.261   3.654  0.0680 -0.3660 -0.0309
  887WAT     H1 4254   5.661   4.256   3.649  0.0657 -0.4088 -0.0287
  887WAT     H2 4255   5.559   4.278   3.738  0.0978  0.1091 -0.1177
  887WAT    EPW 4256   5.584   4.263   3.666  0.3129 -0.5851  0.0604
  888WAT      O 4257   5.752   6.225   7.610  0.1111  0.4660  0.0266
  888WAT     H1 4258   5.774   6.145   7.585  0.8081  1.1047 -1.5852
  888WAT     H2 4259   5.822   6.253   7.654  0.8755  0.9760 -1.4284
  888WAT    EPW 4260   5.766   6.217   7.613 -0.1505  0.2430 -0.6276
  889WAT      O 4261   6.871   3.972   7.482 -0.6764 -0.3620 -0.2242
  889WAT     H1 4262   6.955   3.955   7.468 -0.3353  1.7304 -0.9509
  889WAT     H2 4263   6.860   3.952   7.566  1.3835  2.2165  0.7932
  889WAT    EPW 4264   6.882   3.966   7.493  0.3687 -0.4748 -0.4235
  890WAT      O 4265   6.851   2.518   0.711  0.1270 -0.1402  0.0086
  890WAT     H1 4266   6.824   2.481   0.636  0.8819 -2.0004  0.5993
  890WAT     H2 4267   6.777   2.545   0.749 -0.3845 -0.3788 -0.7922
  890WAT    EPW 4268   6.836   2.516   0.705  0.1580 -0.5711 -0.3435
  891WAT      O 4269   5.732   5.515   5.968 -0.2333 -0.7588  0.6010
  891WAT     H1 4270   5.726   5.548   6.048 -0.6895  1.6927 -0.3369
  891WAT     H2 4271   5.799   5.559   5.933 -1.2912 -0.3060 -0.9491
  891WAT    EPW 4272   5.741   5.527   5.974  0.6099  0.3192  0.5298
  892WAT      O 4273   6.577   3.940   7.352  0.1025  0.0546  0.1203
  892WAT     H1 4274   6.505   3.962   7.396  1.1398 -0.3183  2.1601
  892WAT     H2 4275   6.632   3.915   7.415  1.3209 -1.6864 -1.5110
  892WAT    EPW 4276   6.575   3.940   7.368  0.3619  0.6554 -0.2103
  893WAT      O 4277   6.463   3.363   7.574 -0.4221 -0.3970  0.3394
  893WAT     H1 4278   6.435   3.368   7.657  1.3324  0.4334  0.9337
  893WAT     H2 4279   6.495   3.442   7.559  2.4977 -1.4969  0.1177
  893WAT    EPW 4280   6.464   3.375   7.584 -0.1462 -0.1639 -0.8609
  894WAT      O 4281   6.918   3.923   6.892  0.1973  1.1288  0.0307
  894WAT     H1 4282   6.901   3.919   6.977 -1.7771  1.5612 -0.2717
  894WAT     H2 4283   6.858   3.980   6.863  0.5273  0.6433 -1.6965
  894WAT    EPW 4284   6.906   3.931   6.900 -0.7148  0.6912 -0.2792
  895WAT      O 4285   6.182   3.495   6.567  1.0244  0.6185  0.0487
  895WAT     H1 4286   6.159   3.577   6.550  1.7338  1.2307  1.8507
  895WAT     H2 4287   6.265   3.490   6.540  0.6284  0.0940 -1.1707
  895WAT    EPW 4288   6.190   3.506   6.561  0.1414 -0.2655  0.7907
  896WAT      O 4289   6.563   5.174   6.769 -0.2991  0.1090  0.5840
  896WAT     H1 4290   6.509   5.186   6.836 -0.7656  1.0348  0.0612
  896WAT     H2 4291   6.564   5.252   6.729 -0.2162 -0.4798 -0.6093
  896WAT    EPW 4292   6.555   5.188   6.773  0.2932 -0.8532  0.5508
  897WAT      O 4293   6.408   2.364   5.024 -0.0812  0.4880  0.4571
  897WAT     H1 4294   6.416   2.412   4.951 -1.5023 -0.4466 -0.3795
  897WAT     H2 4295   6.425   2.420   5.088  0.2860  1.5789 -0.5632
  897WAT    EPW 4296   6.412   2.379   5.022  0.4721 -0.1370 -0.3376
  898WAT      O 4297   5.571   2.598   6.011  0.0425  1.2889 -0.6196
  898WAT     H1 4298   5.491   2.633   6.005 -0.1018  1.1113  0.2306
  898WAT     H2 4299   5.608   2.642   6.076  0.5162  1.1247 -0.7747
  898WAT    EPW 4300   5.565   2.610   6.020  0.4414  0.3386 -0.0963
  899WAT      O 4301   6.587   3.490   7.077  0.1767 -0.3344 -0.2017
  899WAT     H1 4302   6.661   3.488   7.030 -0.0745  0.3406 -0.6386
  899WAT     H2 4303   6.524   3.487   7.017 -0.1953 -2.2102  0.2087
  899WAT    EPW 4304   6.589   3.489   7.061 -0.0544  0.5161 -0.3520
  900WAT      O 4305   5.961   5.788   6.501  0.1276  0.2070 -0.5126
  900WAT     H1 4306   6.044   5.774   6.520 -0.0810  0.9198  1.0651
  900WAT     H2 4307   5.964   5.854   6.444  0.6229  0.6976  0.0722
  900WAT    EPW 4308   5.973   5.796   6.495  0.4288  0.4010  0.4254
  901WAT      O 4309   6.328   5.039   5.514  0.3604  0.3422 -0.3042
  901WAT     H1 4310   6.344   4.996   5.440  1.4244 -0.9087  0.5918
  901WAT     H2 4311   6.294   4.978   5.567 -1.7729  1.5447 -0.1760
  901WAT    EPW 4312   6.326   5.024   5.511 -0.2310  0.1362 -0.0494
  902WAT      O 4313   5.988   3.218   5.885  0.0089  0.1687  0.1814
  902WAT     H1 4314   6.051   3.193   5.830  0.3389  0.2959  0.4978
  902WAT     H2 4315   6.018   3.294   5.916 -0.6250  0.5822 -0.1896
  902WAT    EPW 4316   6.002   3.226   5.881 -0.2995  0.2596  0.6159
  903WAT      O 4317   6.499   4.373   7.679  0.0823  0.1203 -0.0499
  903WAT     H1 4318   6.415   4.357   7.666  0.1982 -0.7236  0.1815
  903WAT     H2 4319   6.520   4.321   7.746  0.8113  0.2340 -0.1785
  903WAT    EPW 4320   6.490   4.363   7.687 -0.3395 -0.5985 -0.9586
  904WAT      O 4321   5.257   5.515   6.619 -0.0306 -0.4722 -0.0318
  904WAT     H1 4322   5.288   5.513   6.537 -0.0787  0.9185 -0.1057
  904WAT     H2 4323   5.327   5.538   6.666 -0.6189  1.5157 -0.0518
  904WAT    EPW 4324   5.272   5.518   6.614  0.9220 -0.5971 -0.1420
  905WAT      O 4325   5.640   4.539   6.456 -0.5625  0.0751 -0.0070
  905WAT     H1 4326   5.696   4.606   6.450 -0.9615  0.3778 -0.4727
  905WAT     H2 4327   5.601   4.551   6.533 -0.5343  0.3005 -0.0280
  905WAT    EPW 4328   5.643   4.551   6.466 -0.1755 -0.3397 -0.5774
  906WAT      O 4329   6.737   4.977   6.871  0.0740  0.0038  0.6308
  906WAT     H1 4330   6.673   5.027   6.840  0.3129  0.3441  0.6791
  906WAT     H2 4331   6.809   5.015   6.840  0.3438  0.5295  1.8326
  906WAT    EPW 4332   6.738   4.990   6.862 -0.4921 -0.3440 -1.0901
  907WAT      O 4333   6.713   4.754   7.051 -0.2288 -0.2340  0.2936
  907WAT     H1 4334   6.717   4.811   6.985 -1.7045  0.0212  0.3783
  907WAT     H2 4335   6.794   4.753   7.082 -0.2876  2.4953  0.8342
  907WAT    EPW 4336   6.725   4.762   7.046  0.6882 -0.3808 -0.8023
  908WAT      O 4337   5.602   2.142   7.214  0.0878 -0.4043 -0.5226
  908WAT     H1 4338   5.597   2.132   7.127  0.1902  3.1380 -1.0892
  908WAT     H2 4339   5.521   2.162   7.238 -0.0277 -1.7733  0.3283
  908WAT    EPW 4340   5.590   2.144   7.205 -0.5950 -0.2426 -0.1148
  909WAT      O 4341   6.771   7.331   7.377  0.3969 -0.0479  0.6114
  909WAT     H1 4342   6.715   7.343   7.443 -0.0680  0.2295  0.1729
  909WAT     H2 4343   6.800   7.250   7.390  1.3939  0.4903  1.9610
  909WAT    EPW 4344   6.767   7.321   7.389  0.3889  0.1641 -1.0041
  910WAT      O 4345   4.414   3.936   7.126 -0.1148  0.6599 -0.0262
  910WAT     H1 4346   4.417   3.937   7.213 -1.0833  1.9251  0.0136
  910WAT     H2 4347   4.423   4.020   7.104  2.0472  0.1884 -1.2552
  910WAT    EPW 4348   4.416   3.949   7.136 -0.2432  0.1041  0.3183
  911WAT      O 4349   6.611   4.339   5.015 -0.1643 -0.2618  0.3906
  911WAT     H1 4350   6.635   4.262   4.981 -0.8471 -0.4531  0.3269
  911WAT     H2 4351   6.530   4.351   4.984 -0.3279  0.1472  0.9590
  911WAT    EPW 4352   6.603   4.329   5.006 -0.1200  0.5857 -0.3986
  912WAT      O 4353   0.478   2.737   4.067  0.5857  0.3343 -0.2252
  912WAT     H1 4354   0.515   2.727   4.146  0.4463 -0.8607 -0.3015
  912WAT     H2 4355   0.410   2.684   4.069  0.6916  0.1454 -1.2249
  912WAT    EPW 4356   0.474   2.728   4.079 -0.4134  0.6827  0.6538
  913WAT      O 4357   5.965   4.231   0.220 -0.4054  0.6239 -0.0793
  913WAT     H1 4358   6.041   4.260   0.187 -0.5823  0.2756 -0.8050
  913WAT     H2 4359   5.964   4.147   0.199 -0.9881  0.6239 -0.0640
  913WAT    EPW 4360   5.976   4.223   0.212  0.5890  0.5778 -0.3630
  914WAT      O 4361   5.772   5.099   4.361 -0.2157 -0.1897 -0.2460
  914WAT     H1 4362   5.767   5.089   4.274 -0.7944 -1.0608 -0.1253
  914WAT     H2 4363   5.690   5.090   4.388  0.0910 -0.9606  0.4812
  914WAT    EPW 4364   5.759   5.096   4.352  0.4232 -0.2397  0.3910
  915WAT      O 4365   6.450   3.464   6.493  0.1790  0.1132  0.0285
  915WAT     H1 4366   6.460   3.468   6.406 -1.7214 -0.2840 -0.2565
  915WAT     H2 4367   6.519   3.507   6.524  3.0371 -2.9480 -1.4969
  915WAT    EPW 4368   6.462   3.471   6.485  0.2273  0.2658 -0.1557
  916WAT      O 4369   6.215   7.534   7.232 -0.0327  0.2580 -0.5450
  916WAT     H1 4370   6.276   7.481   7.264  0.4885  1.0522 -0.2038
  916WAT     H2 4371   6.257   7.609   7.220 -0.9306  0.8115 -0.3202
  916WAT    EPW 4372   6.230   7.537   7.235 -0.6293 -0.5361 -0.1636
  917WAT      O 4373   6.070   3.451   6.003 -0.0806 -0.1459  0.2301
  917WAT     H1 4374   6.155   3.440   5.989  0.2319  2.0625 -0.0095
  917WAT     H2 4375   6.066   3.478   6.086 -0.5171 -0.1290  0.2067
  917WAT    EPW 4376   6.082   3.453   6.013 -0.3297  0.4689 -0.0211
  918WAT      O 4377   4.569   3.971   5.327  0.0689  0.3756  0.4217
  918WAT     H1 4378   4.500   3.969   5.379  0.6405  2.4429  1.3450
  918WAT     H2 4379   4.534   3.969   5.247 -0.9808  0.1598  0.8714
  918WAT    EPW 4380   4.554   3.971   5.323 -1.1753 -0.7078 -0.3681
  919WAT      O 4381   6.260   6.441   7.232  0.2656  0.1255 -0.3095
  919WAT     H1 4382   6.235   6.464   7.312 -0.5559 -0.4392 -0.3891
  919WAT     H2 4383   6.337   6.402   7.245  0.3507  0.4359  0.1440
  919WAT    EPW 4384   6.268   6.438   7.245 -0.0740 -0.0374 -0.2012
  920WAT      O 4385   6.154   4.975   7.050  0.2418 -0.2345 -0.1364
  920WAT     H1 4386   6.175   4.937   7.125  2.6117 -0.2064 -0.6949
  920WAT     H2 4387   6.163   4.910   6.991  2.7592  0.6747 -0.8886
  920WAT    EPW 4388   6.158   4.959   7.052 -0.9326  0.1168 -0.6064
  921WAT      O 4389   6.727   4.903   4.907 -0.2939 -0.4733 -0.3564
  921WAT     H1 4390   6.801   4.914   4.952 -0.4956  2.2034 -0.5204
  921WAT     H2 4391   6.674   4.864   4.964  0.4955 -0.1972  0.5924
  921WAT    EPW 4392   6.731   4.899   4.922  0.6573 -0.5913  0.1123
  922WAT      O 4393   5.593   2.946   4.893 -0.0913 -0.2225 -0.0193
  922WAT     H1 4394   5.519   2.989   4.877 -1.4167 -2.5028 -0.5250
  922WAT     H2 4395   5.606   2.958   4.978 -0.8731  0.4524  0.0110
  922WAT    EPW 4396   5.584   2.954   4.903 -0.7888 -0.1996  0.0166
  923WAT      O 4397   6.112   6.569   8.055  0.4797 -0.4191  0.7182
  923WAT     H1 4398   6.172   6.514   8.024  1.0772  0.6224 -0.0231
  923WAT     H2 4399   6.060   6.584   7.987  0.4345  0.0791  0.8574
  923WAT    EPW 4400   6.113   6.563   8.041 -0.5139  0.0267  0.4631
  924WAT      O 4401   7.316   5.032   7.276  0.4748 -0.2404  0.0058
  924WAT     H1 4402   7.241   5.028   7.232  1.2427  0.4981 -1.4116
  924WAT     H2 4403   7.316   5.112   7.311  1.6273  0.6925 -1.9735
  924WAT    EPW 4404   7.305   5.043   7.275  0.0558 -0.5630 -0.2529
  925WAT      O 4405   6.068   4.627   5.391  0.3709  0.0959  0.3671
  925WAT     H1 4406   5.987   4.661   5.390  1.2392  2.4325  1.9624
  925WAT     H2 4407   6.086   4.616   5.306 -2.1041 -1.9737 -0.0344
  925WAT    EPW 4408   6.059   4.630   5.379  0.0665  0.1116 -0.1955
  926WAT      O 4409   5.711   2.042   6.729  0.1847  0.6710 -0.0930
  926WAT     H1 4410   5.748   2.103   6.678 -0.2120  0.1270 -1.0494
  926WAT     H2 4411   5.626   2.061   6.725  0.2215  1.1899  1.1371
  926WAT    EPW 4412   5.704   2.054   6.721 -0.1962 -0.4620  0.0401
  927WAT      O 4413   5.887   2.894   7.433 -0.0152 -0.3881  0.0398
  927WAT     H1 4414   5.816   2.885   7.383 -0.1236  0.3022  0.0667
  927WAT     H2 4415   5.940   2.832   7.403 -0.9112 -1.4278  0.5233
  927WAT    EPW 4416   5.884   2.883   7.421  0.9557  0.0139 -0.7584
  928WAT      O 4417   6.802   4.481   6.367  0.3398 -0.5027 -0.1357
  928WAT     H1 4418   6.820   4.398   6.387 -2.3362 -0.6880  2.0272
  928WAT     H2 4419   6.844   4.527   6.427 -1.3096 -0.6140  1.1914
  928WAT    EPW 4420   6.811   4.476   6.379 -0.2239 -0.3079  0.7711
  929WAT      O 4421   5.776   5.432   6.890  0.1762 -0.2319 -0.3949
  929WAT     H1 4422   5.763   5.472   6.967 -1.2269 -0.0231 -0.7150
  929WAT     H2 4423   5.825   5.363   6.912 -0.4055 -0.3137  0.7416
  929WAT    EPW 4424   5.781   5.428   6.905 -1.1339 -0.5204 -0.4750
  930WAT      O 4425   5.828   2.503   6.176  0.9280 -0.4518 -0.2974
  930WAT     H1 4426   5.862   2.439   6.225 -1.5563 -0.1512  2.0582
  930WAT     H2 4427   5.794   2.460   6.108 -0.7439 -1.7842  1.2643
  930WAT    EPW 4428   5.828   2.487   6.173  0.6187 -0.1985  0.3125
  931WAT      O 4429   5.606   3.815   6.133  0.1866 -0.2499  0.1585
  931WAT     H1 4430   5.655   3.876   6.171 -0.2690  0.5833 -0.5556
  931WAT     H2 4431   5.636   3.813   6.051 -1.2125  0.5685 -0.4006
  931WAT    EPW 4432   5.618   3.823   6.127  0.7744  0.4243 -0.1851
  932WAT      O 4433   6.881   4.529   6.620 -0.5733 -0.5352 -0.6105
  932WAT     H1 4434   6.839   4.603   6.641 -0.7715 -0.4508 -1.3090
  932WAT     H2 4435   6.939   4.521   6.685 -0.6014  0.1907 -0.4829
  932WAT    EPW 4436   6.883   4.539   6.633  0.1346 -1.4946  0.2331
  933WAT      O 4437   6.093   4.251   6.000  0.5775 -0.7412 -0.3129
  933WAT     H1 4438   6.031   4.266   5.940  0.4437  0.2093  0.0461
  933WAT     H2 4439   6.049   4.253   6.075  1.0874  0.2272 -0.0386
  933WAT    EPW 4440   6.077   4.253   6.002 -0.9110 -0.4088  0.0358
  934WAT      O 4441   6.674   4.560   4.836  0.6779 -0.3968  0.0221
  934WAT     H1 4442   6.674   4.496   4.895  1.4477  0.2329  0.7244
  934WAT     H2 4443   6.656   4.631   4.882  1.2712  0.0999 -0.4909
  934WAT    EPW 4444   6.671   4.561   4.851  0.9294 -0.3024  0.7389
  935WAT      O 4445   7.059   4.564   6.854  0.2877 -0.5685  0.2731
  935WAT     H1 4446   7.144   4.583   6.861  0.2234 -0.1555 -0.0061
  935WAT     H2 4447   7.044   4.512   6.922  0.9981 -1.4962 -0.2602
  935WAT    EPW 4448   7.070   4.559   6.865 -0.3769  0.1008 -0.3040
  936WAT      O 4449   6.494   3.280   4.206  0.1984 -0.2866  0.1536
  936WAT     H1 4450   6.421   3.235   4.187  0.2422  0.0542 -0.8685
  936WAT     H2 4451   6.558   3.224   4.188  0.2127 -0.9928  2.1157
  936WAT    EPW 4452   6.492   3.265   4.201  0.0197  0.4213 -0.1280
  937WAT      O 4453   6.486   4.352   6.149 -0.0357 -0.5724  0.0428
  937WAT     H1 4454   6.537   4.355   6.079 -0.5225 -0.1799 -0.2991
  937WAT     H2 4455   6.406   4.369   6.118 -0.4345 -1.4801  0.5158
  937WAT    EPW 4456   6.482   4.355   6.134 -0.8991 -0.2936 -0.0017
  938WAT      O 4457   5.709   3.122   6.543 -0.1738  0.3623  0.5412
  938WAT     H1 4458   5.786   3.118   6.583  0.1855  0.0575 -0.1654
  938WAT     H2 4459   5.699   3.207   6.527  1.4172  0.1886 -1.9740
  938WAT    EPW 4460   5.719   3.134   6.547  1.3432  0.2655  0.4990
  939WAT      O 4461   6.547   5.827   7.348  1.2563 -0.3388 -0.4456
  939WAT     H1 4462   6.560   5.755   7.396 -0.1946 -0.5138 -0.2713
  939WAT     H2 4463   6.538   5.796   7.267  1.4526 -0.2707 -0.4936
  939WAT    EPW 4464   6.548   5.812   7.343  0.3335  1.3266  0.3437
  940WAT      O 4465   6.461   4.644   7.016  0.1714 -0.6454 -0.4523
  940WAT     H1 4466   6.474   4.565   7.051 -0.3714  0.5686  2.8606
  940WAT     H2 4467   6.538   4.683   7.024 -0.5062  0.4059  1.7878
  940WAT    EPW 4468   6.474   4.638   7.023 -0.0257 -0.4577  0.8560
  941WAT      O 4469   6.193   4.811   6.199  0.0876  0.3146  0.2645
  941WAT     H1 4470   6.238   4.766   6.259 -0.4857 -0.5812  0.0470
  941WAT     H2 4471   6.218   4.774   6.123 -1.3253 -0.5460  0.1634
  941WAT    EPW 4472   6.203   4.799   6.196  0.0824 -0.3814  0.1459
  942WAT      O 4473   5.000   3.495   7.177 -0.3270  0.3361  0.2968
  942WAT     H1 4474   4.942   3.430   7.176 -0.4733  0.4640  0.3848
  942WAT     H2 4475   4.967   3.551   7.234  0.2250  0.1050  0.8541
  942WAT    EPW 4476   4.987   3.494   7.185  0.4968  0.2812 -0.7300
  943WAT      O 4477   5.630   5.074   4.816  0.1764  0.0232 -0.0120
  943WAT     H1 4478   5.679   5.030   4.759  3.2051  2.5305  0.3795
  943WAT     H2 4479   5.650   5.158   4.801 -2.0714  1.0592  1.9961
  943WAT    EPW 4480   5.640   5.080   4.805 -0.4475 -0.0584 -1.3285
  944WAT      O 4481   6.166   4.208   5.284  0.3469 -0.0737 -0.2711
  944WAT     H1 4482   6.104   4.269   5.277  0.3811 -0.0107 -0.0521
  944WAT     H2 4483   6.240   4.254   5.282  0.3859 -0.1516 -0.5598
  944WAT    EPW 4484   6.168   4.224   5.283  0.1175 -0.1785 -0.4036
  945WAT      O 4485   6.187   4.423   5.628 -0.0481  0.3579  0.3043
  945WAT     H1 4486   6.162   4.483   5.570 -0.7521  0.1219  0.3535
  945WAT     H2 4487   6.272   4.412   5.611 -0.5953 -1.1090 -2.0077
  945WAT    EPW 4488   6.196   4.430   5.617 -0.1961  0.3176 -0.3001
  946WAT      O 4489   4.909   4.154   4.288 -0.5252  0.0730  0.3475
  946WAT     H1 4490   4.883   4.090   4.341 -0.3619 -0.8636 -0.6379
  946WAT     H2 4491   4.945   4.213   4.341 -1.9873  0.0238  1.4203
  946WAT    EPW 4492   4.911   4.153   4.303  0.0442 -0.0159 -0.7559
  947WAT      O 4493   5.667   3.436   3.744  0.2243 -0.3505  0.1634
  947WAT     H1 4494   5.668   3.474   3.665  3.5221 -0.1346  0.1709
  947WAT     H2 4495   5.582   3.425   3.760 -0.6285  0.7257 -2.8581
  947WAT    EPW 4496   5.655   3.440   3.734  0.7097 -0.6532 -0.0591
  948WAT      O 4497   5.977   5.599   6.304 -0.1660  0.0174  0.4583
  948WAT     H1 4498   5.969   5.640   6.381 -0.4657  0.9627 -0.0566
  948WAT     H2 4499   5.896   5.570   6.289 -0.1331 -0.0666  0.4436
  948WAT    EPW 4500   5.964   5.601   6.313 -0.0836 -0.4489 -0.7636
  949WAT      O 4501   6.170   4.608   4.039 -0.0469 -0.5596 -0.1745
  949WAT     H1 4502   6.249   4.579   4.017  0.4530  1.5475 -1.4654
  949WAT     H2 4503   6.187   4.683   4.080 -1.3661 -0.2402 -0.1657
  949WAT    EPW 4504   6.184   4.615   4.042  0.3888 -0.3380  0.2765
  950WAT      O 4505   6.272   5.108   0.248 -0.4177 -0.1037  0.6997
  950WAT     H1 4506   6.323   5.179   0.250 -1.1734  0.4616  0.4572
  950WAT     H2 4507   6.323   5.045   0.280  0.6237  0.3192 -0.0661
  950WAT    EPW 4508   6.287   5.110   0.253  0.5906  0.4816 -1.2788
  951WAT      O 4509   5.597   5.878   5.081 -0.0179 -0.2574 -0.7454
  951WAT     H1 4510   5.665   5.835   5.046  1.5905  1.9482 -0.5160
  951WAT     H2 4511   5.610   5.872   5.167 -0.3913 -0.2162 -0.6834
  951WAT    EPW 4512   5.609   5.871   5.088 -0.2802  0.4801 -0.1855
  952WAT      O 4513   6.034   5.142   5.474 -0.1435  0.3037 -0.1193
  952WAT     H1 4514   6.019   5.223   5.503 -1.9255 -0.8658  2.6125
  952WAT     H2 4515   6.121   5.138   5.470 -0.0104  2.2301  0.0996
  952WAT    EPW 4516   6.045   5.153   5.478  0.2756  0.2712 -0.3208
  953WAT      O 4517   7.656   4.417   7.310 -0.4413 -0.3355  0.0366
  953WAT     H1 4518   7.595   4.452   7.362 -2.6972  0.4659 -2.8892
  953WAT     H2 4519   7.703   4.486   7.285 -0.6013 -0.4075 -0.4702
  953WAT    EPW 4520   7.654   4.433   7.314 -0.2809  0.2742  0.4050
  954WAT      O 4521   6.592   3.703   7.543 -0.2506  0.1951 -0.2456
  954WAT     H1 4522   6.544   3.739   7.607  1.8980  0.7251  1.1669
  954WAT     H2 4523   6.533   3.686   7.481 -2.1420  1.5080  1.0631
  954WAT    EPW 4524   6.576   3.706   7.543  0.5519  0.2026  0.3860
  955WAT      O 4525   5.545   3.942   4.632  0.0818  0.3516 -0.2404
  955WAT     H1 4526   5.627   3.943   4.661 -0.1483  0.6095  0.4034
  955WAT     H2 4527   5.552   3.974   4.551  0.7642 -0.6619 -0.6051
  955WAT    EPW 4528   5.559   3.947   4.624 -0.4938  0.1192 -0.1264
  956WAT      O 4529   6.466   4.664   5.520 -0.4735 -0.3835 -0.0231
  956WAT     H1 4530   6.553   4.673   5.512 -0.5674  0.3893 -0.2727
  956WAT     H2 4531   6.455   4.578   5.531  0.2558 -0.6150 -0.9505
  956WAT    EPW 4532   6.477   4.653   5.521  0.0845  0.1750 -0.9737
  957WAT      O 4533   5.345   3.023   4.832  0.3573  0.6876 -0.5867
  957WAT     H1 4534   5.305   3.099   4.817 -0.2562  0.5863  0.4573
  957WAT     H2 4535   5.287   2.978   4.879  0.6288 -0.5132 -1.3500
  957WAT    EPW 4536   5.330   3.028   4.837  0.0565  0.0990 -0.0939
  958WAT      O 4537   4.921   4.071   6.615  0.6533  0.5889 -0.0076
  958WAT     H1 4538   4.891   4.153   6.615 -1.7630 -0.0655  3.5616
  958WAT     H2 4539   4.849   4.024   6.605  1.6153 -1.1043  0.6907
  958WAT    EPW 4540   4.906   4.076   6.613  0.4844 -0.0564  0.2620
  959WAT      O 4541   6.143   3.057   5.731  0.0479  0.6593  0.0380
  959WAT     H1 4542   6.085   3.000   5.698 -1.1244  1.7439  0.1755
  959WAT     H2 4543   6.172   3.016   5.803 -1.0782  0.3745  0.3634
  959WAT    EPW 4544   6.138   3.042   5.737 -0.3636  0.0756 -0.4129
  960WAT      O 4545   8.063   4.657   7.910 -0.5008  0.6789 -0.1605
  960WAT     H1 4546   8.082   4.736   7.941  0.6669 -0.2003  1.5349
  960WAT     H2 4547   8.121   4.646   7.845 -1.7886  1.8201 -1.5946
  960WAT    EPW 4548   8.075   4.667   7.905 -0.1026 -0.0564  0.5134
  961WAT      O 4549   7.442   4.200   7.280  0.1673  0.1074  0.5730
  961WAT     H1 4550   7.497   4.259   7.248 -0.0556  0.5983  1.0668
  961WAT     H2 4551   7.474   4.184   7.360 -0.6914  0.8183  1.0897
  961WAT    EPW 4552   7.454   4.206   7.287  0.2543  0.8222  1.0635
  962WAT      O 4553   7.095   3.774   7.653  0.2804 -0.0245 -0.2660
  962WAT     H1 4554   7.162   3.717   7.649  1.0193  0.8857 -2.2950
  962WAT     H2 4555   7.027   3.728   7.625  0.0246 -0.9168  1.6653
  962WAT    EPW 4556   7.095   3.759   7.648  0.5423 -0.0058 -1.1056
  963WAT      O 4557   6.390   5.349   6.489 -0.1539 -0.2483  0.9110
  963WAT     H1 4558   6.332   5.284   6.499 -1.5668  1.0332  1.3890
  963WAT     H2 4559   6.368   5.384   6.412  2.0478 -1.6559 -0.4643
  963WAT    EPW 4560   6.378   5.344   6.479  0.0215 -0.2894  0.1834
  964WAT      O 4561   5.542   5.630   0.426  0.2722  0.5258  0.2582
  964WAT     H1 4562   5.591   5.634   0.353  0.8700 -0.0627  0.6144
  964WAT     H2 4563   5.579   5.688   0.479  0.8515 -0.1948  0.6705
  964WAT    EPW 4564   5.555   5.639   0.423  0.4773 -0.0380  0.0628
  965WAT      O 4565   6.585   5.266   7.159 -0.0554 -0.5835 -0.0289
  965WAT     H1 4566   6.631   5.320   7.109 -0.2559 -1.0984 -0.7932
  965WAT     H2 4567   6.644   5.230   7.211 -0.2646  2.5807  2.6850
  965WAT    EPW 4568   6.600   5.269   7.159  0.3718  0.8697 -0.3019
  966WAT      O 4569   5.716   3.401   4.646  0.6333  0.1740 -0.5137
  966WAT     H1 4570   5.740   3.479   4.679  0.8665  0.2834 -0.9389
  966WAT     H2 4571   5.637   3.388   4.680  1.7665 -0.7857  1.9942
  966WAT    EPW 4572   5.708   3.411   4.656  0.1179  0.3675  0.8107
  967WAT      O 4573   5.848   3.529   7.492  0.1702  0.5963  0.0290
  967WAT     H1 4574   5.924   3.493   7.471 -0.2719  0.3105 -1.1790
  967WAT     H2 4575   5.818   3.561   7.416 -0.6980  1.1071  0.5603
  967WAT    EPW 4576   5.855   3.528   7.478  0.9020  0.2683  0.2995
  968WAT      O 4577   6.879   5.099   7.703  0.1478 -0.0911 -0.2349
  968WAT     H1 4578   6.903   5.109   7.786  1.3079 -1.2308 -0.3988
  968WAT     H2 4579   6.940   5.045   7.671 -1.6887 -1.7351 -1.1541
  968WAT    EPW 4580   6.892   5.092   7.711 -0.1259  0.2392  0.0055
  969WAT      O 4581   6.576   4.958   4.671 -0.4742 -0.4291  0.3654
  969WAT     H1 4582   6.625   4.965   4.599 -0.9573  1.9129  0.1700
  969WAT     H2 4583   6.634   4.957   4.736 -0.0791 -0.7243  0.0121
  969WAT    EPW 4584   6.591   4.959   4.670  0.0432  0.2138  0.5915
  970WAT      O 4585   1.064   4.164   6.783 -0.3180 -0.4067 -0.3075
  970WAT     H1 4586   1.030   4.084   6.786 -0.8176 -0.1672  0.6252
  970WAT     H2 4587   1.149   4.152   6.800 -0.1190 -0.8726 -1.4913
  970WAT    EPW 4588   1.072   4.151   6.786 -0.1599  0.0430 -0.5960
  971WAT      O 4589   5.628   4.218   7.966  0.2310  0.0324  0.5767
  971WAT     H1 4590   5.573   4.224   7.898 -0.7153  0.2036  1.3260
  971WAT     H2 4591   5.703   4.193   7.929 -0.3882 -0.3930 -0.4679
  971WAT    EPW 4592   5.631   4.215   7.950 -0.0957 -0.4561  0.1699
  972WAT      O 4593   6.544   4.735   5.068 -0.0805 -0.0296  0.3004
  972WAT     H1 4594   6.489   4.802   5.059 -0.4851 -0.2811  0.8982
  972WAT     H2 4595   6.492   4.665   5.063  0.2720 -0.2890  0.2286
  972WAT    EPW 4596   6.528   4.735   5.066  0.8325  0.1033 -0.2220
  973WAT      O 4597   5.790   3.952   5.432  0.5057  0.5681 -0.3266
  973WAT     H1 4598   5.729   3.993   5.480 -0.3328 -0.8456 -0.1117
  973WAT     H2 4599   5.744   3.892   5.388  1.5103  0.6946 -1.5854
  973WAT    EPW 4600   5.774   3.949   5.433 -0.0179  0.1259 -0.2765
  974WAT      O 4601   6.892   3.910   7.762 -0.1911 -0.1033  0.0483
  974WAT     H1 4602   6.863   3.843   7.810 -0.8765  0.0182 -0.1722
  974WAT     H2 4603   6.974   3.888   7.744 -0.4861 -1.0378 -0.2602
  974WAT    EPW 4604   6.900   3.897   7.766  0.6000  0.0027 -0.2375
  975WAT      O 4605   6.911   4.243   6.457  0.4264  0.0216  0.0879
  975WAT     H1 4606   6.952   4.167   6.449  1.3852  0.6427 -1.2678
  975WAT     H2 4607   6.970   4.294   6.497  0.1010  0.2962  0.2260
  975WAT    EPW 4608   6.926   4.239   6.462  0.3326 -0.3007 -0.0458
  976WAT      O 4609   5.618   3.375   6.527 -0.2424 -0.2020  0.0301
  976WAT     H1 4610   5.667   3.447   6.526 -2.1609  1.1769  0.7600
  976WAT     H2 4611   5.548   3.396   6.480 -0.8538 -1.5921  0.2564
  976WAT    EPW 4612   5.615   3.389   6.520  0.0322  0.5321 -0.5868
  977WAT      O 4613   6.401   3.812   0.058 -0.6382  0.1269 -0.2461
  977WAT     H1 4614   6.349   3.748   0.083  0.5106 -1.0247 -0.7071
  977WAT     H2 4615   6.350   3.863   0.009 -0.9504 -1.8934 -2.1264
  977WAT    EPW 4616   6.386   3.810   0.055  0.2148 -0.4155  0.7359
  978WAT      O 4617   6.420   3.776   7.756  0.2961  0.1165 -0.3482
  978WAT     H1 4618   6.337   3.753   7.770 -0.1747  2.1671  0.5701
  978WAT     H2 4619   6.415   3.860   7.733  1.9708 -0.3139 -2.6239
  978WAT    EPW 4620   6.407   3.785   7.755  0.1443 -0.3229 -0.7966
  979WAT      O 4621   5.092   3.092   5.449 -0.4139 -0.1910  0.6678
  979WAT     H1 4622   5.136   3.135   5.511 -0.0774 -0.6297  0.7445
  979WAT     H2 4623   5.096   3.009   5.477  0.8175 -0.5786 -0.5731
  979WAT    EPW 4624   5.099   3.086   5.463  0.1953 -0.2024 -0.2464
  980WAT      O 4625   6.348   5.227   5.016  0.3470  0.2864  0.0130
  980WAT     H1 4626   6.359   5.253   4.933  2.6539 -1.5435 -0.3611
  980WAT     H2 4627   6.265   5.201   5.018  0.2702  0.2408 -1.7760
  980WAT    EPW 4628   6.337   5.227   5.004  0.0641 -0.2569  0.6560
  981WAT      O 4629   6.191   3.679   6.910  0.0644 -0.4439  0.1335
  981WAT     H1 4630   6.122   3.713   6.870  0.9836  0.7985 -0.4795
  981WAT     H2 4631   6.197   3.725   6.984  0.6859  0.0033 -0.1881
  981WAT    EPW 4632   6.182   3.691   6.915  0.3629  0.0343 -1.2020
  982WAT      O 4633   6.492   4.176   5.761 -0.2343  0.0650 -0.4414
  982WAT     H1 4634   6.441   4.123   5.808 -2.8534 -0.1410 -3.1758
  982WAT     H2 4635   6.511   4.128   5.690  0.3315  1.5811 -1.3705
  982WAT    EPW 4636   6.488   4.161   5.757 -0.3850  0.3688  0.1126
  983WAT      O 4637   0.884   5.082   3.069 -0.0894  0.4137 -0.8820
  983WAT     H1 4638   0.939   5.149   3.080 -0.4524  0.5046  0.5024
  983WAT     H2 4639   0.844   5.075   3.146  1.5954 -2.9058 -0.1764
  983WAT    EPW 4640   0.886   5.091   3.082 -1.4362  0.4163 -0.3245
  984WAT      O 4641   5.680   2.618   6.843  0.7553  0.5286  0.4155
  984WAT     H1 4642   5.756   2.658   6.831  0.7178  0.9344  1.4602
  984WAT     H2 4643   5.626   2.660   6.788  1.1286  0.6779  0.1602
  984WAT    EPW 4644   5.683   2.630   6.833  0.5112 -0.0186 -0.4497
  985WAT      O 4645   6.884   3.212   7.497  0.1883  0.8774  1.0543
  985WAT     H1 4646   6.820   3.157   7.476  0.8408  1.0027 -1.7693
  985WAT     H2 4647   6.946   3.159   7.530  1.0027 -0.3421 -2.0673
  985WAT    EPW 4648   6.884   3.196   7.499 -0.0230  0.2120  0.4950
  986WAT      O 4649   6.253   2.651   5.010  0.3033 -0.6994  0.2731
  986WAT     H1 4650   6.217   2.610   4.942  0.9631 -0.7103 -0.0797
  986WAT     H2 4651   6.191   2.647   5.072 -0.4442 -0.3873 -0.4329
  986WAT    EPW 4652   6.238   2.644   5.009 -0.7589 -0.2501 -0.4103
  987WAT      O 4653   7.247   4.677   7.148 -0.1319  0.5129 -0.1173
  987WAT     H1 4654   7.256   4.591   7.161 -2.3906  0.1413 -0.6586
  987WAT     H2 4655   7.320   4.710   7.183  1.3754 -1.6888 -0.9803
  987WAT    EPW 4656   7.259   4.669   7.155 -0.0869  0.3939  0.0713
  988WAT      O 4657   6.295   3.285   5.644 -0.2946 -0.0689  0.6086
  988WAT     H1 4658   6.266   3.205   5.664  0.3503 -0.4798 -0.0402
  988WAT     H2 4659   6.343   3.271   5.573  1.6057  0.5411  1.7170
  988WAT    EPW 4660   6.298   3.271   5.637  0.6565 -0.1665  0.5643
  989WAT      O 4661   6.365   4.689   6.379  0.0036 -0.3349  0.1178
  989WAT     H1 4662   6.316   4.642   6.434 -0.1115 -0.3793 -0.0242
  989WAT     H2 4663   6.416   4.630   6.341  1.8128 -0.0670  1.9188
  989WAT    EPW 4664   6.365   4.674   6.382  0.6433 -1.4076  0.8822
  990WAT      O 4665   6.249   5.801   5.444 -0.0828 -0.6847  0.3198
  990WAT     H1 4666   6.302   5.732   5.441  1.1808  0.2534 -0.2826
  990WAT     H2 4667   6.261   5.832   5.526  1.1316  0.0924 -0.1156
  990WAT    EPW 4668   6.259   5.796   5.456  0.0991  0.2833 -0.2819
  991WAT      O 4669   6.299   3.783   5.527  0.5138  0.2477  0.1975
  991WAT     H1 4670   6.290   3.704   5.563  0.0488 -0.0348 -0.5205
  991WAT     H2 4671   6.223   3.822   5.545 -0.8698 -0.8274 -2.6754
  991WAT    EPW 4672   6.286   3.777   5.535  0.1246 -0.8988  0.8488
  992WAT      O 4673   6.178   4.051   6.567  0.1105  0.2051  0.3577
  992WAT     H1 4674   6.134   4.066   6.641 -0.3697  1.3679 -0.1492
  992WAT     H2 4675   6.242   4.110   6.568 -0.0574  0.3997 -0.2906
  992WAT    EPW 4676   6.181   4.062   6.578 -0.2811  0.4310 -0.6192
  993WAT      O 4677   6.055   3.541   5.287  0.1538 -0.0096 -0.6175
  993WAT     H1 4678   6.079   3.512   5.365 -0.3218 -0.1408 -0.5143
  993WAT     H2 4679   6.058   3.470   5.237 -0.4752 -0.1318 -0.4920
  993WAT    EPW 4680   6.059   3.526   5.291 -0.2541 -0.2627 -0.3510
  994WAT      O 4681   5.561   2.830   7.839 -0.2264 -0.2359  0.0997
  994WAT     H1 4682   5.544   2.749   7.811  1.8024 -0.2100 -1.4382
  994WAT     H2 4683   5.636   2.850   7.800 -1.2534  2.8785 -0.5718
  994WAT    EPW 4684   5.569   2.821   7.829 -0.0859  0.6434 -1.0371
  995WAT      O 4685   6.465   4.063   7.090  0.6153  0.5462 -0.0818
  995WAT     H1 4686   6.468   4.150   7.085  0.4233  0.4917 -2.5644
  995WAT     H2 4687   6.513   4.044   7.160  1.5145  2.6222 -0.0746
  995WAT    EPW 4688   6.473   4.073   7.099 -0.5528  0.2413  0.0989
  996WAT      O 4689   6.524   5.438   6.693 -0.0009 -0.5935 -0.6179
  996WAT     H1 4690   6.501   5.417   6.611  0.0029 -0.9558 -0.5253
  996WAT     H2 4691   6.494   5.520   6.701  1.8395  0.2738 -1.7028
  996WAT    EPW 4692   6.516   5.447   6.682 -0.0761 -0.5224  0.5008
  997WAT      O 4693   6.016   6.425   3.463  0.0464 -0.7534  0.5779
  997WAT     H1 4694   6.025   6.340   3.448 -0.7389 -0.4513 -2.2694
  997WAT     H2 4695   5.937   6.433   3.498  0.3595 -1.2063  1.4122
  997WAT    EPW 4696   6.006   6.414   3.466 -0.3689  1.3842  0.4665
  998WAT      O 4697   6.385   5.005   4.271 -0.0958 -0.0449  0.1767
  998WAT     H1 4698   6.390   5.088   4.244 -1.3479 -0.4267 -1.3507
  998WAT     H2 4699   6.466   4.987   4.297  0.3581  1.4424 -0.1255
  998WAT    EPW 4700   6.397   5.015   4.271 -0.5110 -0.3263 -0.2325
  999WAT      O 4701   6.780   4.417   4.071  0.1360  0.4271 -0.2166
  999WAT     H1 4702   6.720   4.435   4.133  0.6552 -1.0176  0.7540
  999WAT     H2 4703   6.772   4.331   4.059  0.8158  0.5104 -1.3815
  999WAT    EPW 4704   6.770   4.407   4.079 -0.8394  0.3391 -0.5663
 1000WAT      O 4705   6.459   4.036   4.703 -0.4611  0.0189 -0.4904
 1000WAT     H1 4706   6.438   4.014   4.785  1.3790  0.9461  0.2973
 1000WAT     H2 4707   6.412   4.108   4.688 -1.6029 -0.7420 -0.6772
 1000WAT    EPW 4708   6.449   4.043   4.713 -0.0530  0.2098 -0.1539
 1001WAT      O 4709   7.749   4.409   3.007 -0.2456 -0.0819 -0.0378
 1001WAT     H1 4710   7.717   4.490   3.012 -0.9706 -0.3868  0.3971
 1001WAT     H2 4711   7.757   4.384   3.090 -2.1372 -1.2479 -0.1439
 1001WAT    EPW 4712   7.745   4.417   3.020 -1.0555 -0.2286 -0.5925
 1002WAT      O 4713   7.910   6.045   2.620 -0.1868 -0.0532  0.3494
 1002WAT     H1 4714   7.903   5.982   2.680  1.6556 -0.2324  0.4404
 1002WAT     H2 4715   7.969   6.013   2.564 -1.4584  0.3389 -1.2986
 1002WAT    EPW 4716   7.917   6.031   2.620 -0.0790 -0.9698  0.2356
 1003WAT      O 4717   7.205   3.764   4.059 -0.3324  0.0794  0.1960
 1003WAT     H1 4718   7.138   3.716   4.086 -1.3178  1.2216 -0.1425
 1003WAT     H2 4719   7.262   3.705   4.030 -0.2568 -1.0619  2.4065
 1003WAT    EPW 4720   7.204   3.748   4.059 -0.0708 -0.6034  0.4319
 1004WAT      O 4721   6.596   3.677   4.840 -0.1404  0.0691 -1.0941
 1004WAT     H1 4722   6.587   3.600   4.800  0.8294 -1.6094  1.6286
 1004WAT     H2 4723   6.559   3.665   4.918  1.5811  1.7242  0.0950
 1004WAT    EPW 4724   6.589   3.664   4.846  0.1844 -0.7669 -0.6068
 1005WAT      O 4725   7.677   4.765   2.831  0.0060 -1.3899 -0.4508
 1005WAT     H1 4726   7.759   4.736   2.833  0.0162 -1.4824 -1.3909
 1005WAT     H2 4727   7.642   4.734   2.904  0.5502 -2.1628 -0.5047
 1005WAT    EPW 4728   7.684   4.756   2.842 -0.3956 -0.0572 -0.6234
 1006WAT      O 4729   7.661   4.337   2.307  0.1271  0.3808  0.1317
 1006WAT     H1 4730   7.708   4.364   2.375  1.1256 -0.6492 -0.1171
 1006WAT     H2 4731   7.580   4.331   2.339  0.4615  0.5438  1.0378
 1006WAT    EPW 4732   7.656   4.340   2.322 -0.7354  0.4478  0.3900
 1007WAT      O 4733   8.059   4.177   2.611 -0.4248  0.2061  0.5330
 1007WAT     H1 4734   8.101   4.253   2.612 -1.0227  0.5490  0.1745
 1007WAT     H2 4735   8.112   4.123   2.654  2.2716 -0.3641 -3.0215
 1007WAT    EPW 4736   8.073   4.180   2.618  1.0829 -1.0954 -1.4624
 1008WAT      O 4737   6.914   4.713   3.878  0.0500  0.0448  0.4557
 1008WAT     H1 4738   6.852   4.674   3.925 -0.7818  1.6669  0.7592
 1008WAT     H2 4739   6.899   4.685   3.796 -0.3630 -0.4623  0.7013
 1008WAT    EPW 4740   6.903   4.703   3.873  0.0890 -0.1042 -0.0088
 1009WAT      O 4741   0.340   4.146   4.130  0.2044  0.3244 -0.4472
 1009WAT     H1 4742   0.297   4.170   4.058  1.6997  1.4206 -1.0257
 1009WAT     H2 4743   0.339   4.217   4.179 -0.1106 -0.1760  0.2929
 1009WAT    EPW 4744   0.333   4.160   4.127 -0.4512 -0.2386 -0.6952
 1010WAT      O 4745   7.557   4.813   4.120 -0.2037  0.2040 -0.2792
 1010WAT     H1 4746   7.490   4.813   4.176  0.3786 -0.4365  0.4239
 1010WAT     H2 4747   7.528   4.763   4.054  0.1979 -1.5241  0.7954
 1010WAT    EPW 4748   7.543   4.806   4.118 -0.2149 -0.4539 -0.3469
 1011WAT      O 4749   0.419   4.022   2.795 -0.0200  0.7187  0.1503
 1011WAT     H1 4750   0.364   4.079   2.832 -0.7577  0.4938 -0.5773
 1011WAT     H2 4751   0.366   3.961   2.762  0.7155  0.0312  0.1928
 1011WAT    EPW 4752   0.403   4.021   2.796 -0.6378 -0.9391 -0.8588
 1012WAT      O 4753   0.176   2.370   4.199  0.5201  0.1302  0.1520
 1012WAT     H1 4754   0.203   2.438   4.151  0.2417 -0.0501 -0.2703
 1012WAT     H2 4755   0.249   2.336   4.230  0.7833 -0.2178 -0.7970
 1012WAT    EPW 4756   0.190   2.375   4.196  0.8643 -0.1426  0.0662
 1013WAT      O 4757   5.968   2.949   4.453 -0.1405 -0.3500  1.0419
 1013WAT     H1 4758   5.934   2.954   4.533 -1.2008  1.2515  0.5305
 1013WAT     H2 4759   6.021   3.018   4.448 -0.1159 -0.4098  0.3446
 1013WAT    EPW 4760   5.971   2.960   4.464 -0.2895 -0.1858  0.3139
 1014WAT      O 4761   6.193   5.372   4.126 -0.1398 -0.0030  0.3317
 1014WAT     H1 4762   6.173   5.325   4.055 -0.9655  0.3016  0.3498
 1014WAT     H2 4763   6.278   5.354   4.139  0.6437  1.5642 -1.9852
 1014WAT    EPW 4764   6.203   5.362   4.117  0.0476 -0.5277 -0.2891
 1015WAT      O 4765   7.428   4.906   3.730 -0.7490 -0.6885  0.1312
 1015WAT     H1 4766   7.384   4.969   3.771 -0.6439 -0.1498 -0.5402
 1015WAT     H2 4767   7.431   4.841   3.787  0.5747  0.4981  1.5219
 1015WAT    EPW 4768   7.422   4.906   3.744  0.3529 -0.7083 -0.3627
 1016WAT      O 4769   6.400   4.759   4.576 -0.3585 -0.4349  0.9234
 1016WAT     H1 4770   6.335   4.774   4.631 -0.7091  2.2268 -0.0817
 1016WAT     H2 4771   6.468   4.799   4.613 -0.8181  2.2648 -0.8686
 1016WAT    EPW 4772   6.401   4.767   4.589 -0.5742  0.0685  0.3873
 1017WAT      O 4773   6.264   2.903   5.369 -0.7411  0.1575  0.1592
 1017WAT     H1 4774   6.341   2.914   5.330 -0.2170  0.5140  1.2306
 1017WAT     H2 4775   6.228   2.983   5.365 -0.4493  0.3317  0.8544
 1017WAT    EPW 4776   6.270   2.917   5.363 -0.2070  1.4432  0.3102
 1018WAT      O 4777   6.628   6.117   4.127  0.6494 -0.5147 -0.3493
 1018WAT     H1 4778   6.602   6.161   4.056  1.3354  0.1862 -0.1840
 1018WAT     H2 4779   6.644   6.180   4.185  1.6599 -0.9811 -0.1003
 1018WAT    EPW 4780   6.626   6.133   4.125  0.3343  0.1699  0.1049
 1019WAT      O 4781   6.271   3.855   4.204 -0.2401 -0.2712  0.1483
 1019WAT     H1 4782   6.259   3.861   4.118 -1.9499 -0.5679  0.3269
 1019WAT     H2 4783   6.339   3.907   4.219  0.8029 -1.0539 -1.5062
 1019WAT    EPW 4784   6.279   3.863   4.194  0.6183  0.5106 -0.1571
 1020WAT      O 4785   7.623   4.531   3.744  0.2313  0.0295 -0.6333
 1020WAT     H1 4786   7.648   4.468   3.799  0.6358  0.8972  0.2067
 1020WAT     H2 4787   7.692   4.584   3.742  0.3244 -0.1081 -2.1990
 1020WAT    EPW 4788   7.637   4.529   3.752  0.5817 -0.0558  0.8164
 1021WAT      O 4789   7.121   6.175   4.024 -0.3091 -0.2597  0.1540
 1021WAT     H1 4790   7.155   6.158   3.945  0.9917 -0.4863  0.7454
 1021WAT     H2 4791   7.072   6.105   4.041 -0.2725 -0.3917 -0.2756
 1021WAT    EPW 4792   7.119   6.162   4.014  0.3458 -0.3526 -0.5149
 1022WAT      O 4793   0.617   3.548   2.817 -0.5506 -0.0735  0.1269
 1022WAT     H1 4794   0.674   3.536   2.752 -0.1292 -0.1693  0.5082
 1022WAT     H2 4795   0.613   3.635   2.825  0.6505 -0.0919  1.0551
 1022WAT    EPW 4796   0.625   3.559   2.809  0.5122 -0.1435  0.0663
 1023WAT      O 4797   5.805   5.270   3.943  0.3902 -0.0834  0.5913
 1023WAT     H1 4798   5.755   5.251   3.874  0.2393 -2.1186  1.1937
 1023WAT     H2 4799   5.770   5.343   3.974  0.2439  0.6875 -1.2640
 1023WAT    EPW 4800   5.793   5.278   3.938 -0.6495  0.1210 -0.2400
 1024WAT      O 4801   6.695   4.491   3.789 -0.2074  0.0799 -0.5559
 1024WAT     H1 4802   6.632   4.548   3.769 -0.1999  0.2959 -0.0034
 1024WAT     H2 4803   6.684   4.478   3.875 -1.0983 -1.8590 -0.9160
 1024WAT    EPW 4804   6.684   4.498   3.799 -0.9261 -0.1348 -0.3675
 1025WAT      O 4805   0.462   4.732   2.170  0.0627 -0.4021 -0.6430
 1025WAT     H1 4806   0.408   4.735   2.102 -1.4816  0.0730  0.5381
 1025WAT     H2 4807   0.519   4.796   2.154 -0.5758  0.0291 -1.2545
 1025WAT    EPW 4808   0.462   4.742   2.158 -0.0310  0.6051 -0.4267
 1026WAT      O 4809   7.601   3.802   3.902 -0.6154 -0.9740  0.5433
 1026WAT     H1 4810   7.587   3.878   3.941  0.3502 -0.0201 -0.8649
 1026WAT     H2 4811   7.661   3.764   3.952  1.7973  0.9157 -0.7219
 1026WAT    EPW 4812   7.608   3.808   3.915  0.6719 -1.0621 -0.0628
 1027WAT      O 4813   7.184   4.793   3.623 -0.6839  0.2747 -0.1979
 1027WAT     H1 4814   7.257   4.814   3.667 -0.4024  0.4314 -0.7348
 1027WAT     H2 4815   7.170   4.710   3.646 -0.5531  0.3596  0.2050
 1027WAT    EPW 4816   7.193   4.784   3.633  0.0399  0.0971 -1.2199
 1028WAT      O 4817   8.027   4.786   3.621  0.2449  0.3148 -0.4150
 1028WAT     H1 4818   8.105   4.757   3.645 -0.2453  0.0298  0.8957
 1028WAT     H2 4819   8.043   4.866   3.591  0.7492  1.2327  2.1250
 1028WAT    EPW 4820   8.041   4.793   3.620 -0.0678 -0.1928  0.4432
 1029WAT      O 4821   7.852   3.468   3.606 -0.3265 -0.6851  0.5077
 1029WAT     H1 4822   7.899   3.476   3.532 -1.2614 -0.9588 -0.1328
 1029WAT     H2 4823   7.878   3.536   3.654 -1.5139  1.0002 -1.0939
 1029WAT    EPW 4824   7.863   3.479   3.602 -0.0299 -0.7187 -0.4533
 1030WAT      O 4825   5.505   5.166   4.520  0.4468 -0.8922 -0.0427
 1030WAT     H1 4826   5.452   5.101   4.497  0.2466 -0.8554  0.3052
 1030WAT     H2 4827   5.479   5.186   4.601 -0.8545  1.0250 -0.8788
 1030WAT    EPW 4828   5.493   5.159   4.529  0.6244 -0.2755 -0.0197
 1031WAT      O 4829   7.747   4.344   3.891  0.2097  0.1985 -0.1419
 1031WAT     H1 4830   7.690   4.356   3.956  0.1970 -0.8394  0.0577
 1031WAT     H2 4831   7.710   4.281   3.843  0.5395  0.4841 -0.7819
 1031WAT    EPW 4832   7.733   4.337   3.894  0.3150 -0.3587  0.3315
 1032WAT      O 4833   6.414   4.882   5.296 -0.2226  0.2695 -0.2726
 1032WAT     H1 4834   6.336   4.863   5.262 -0.2217 -0.3824  0.0624
 1032WAT     H2 4835   6.456   4.806   5.292  0.1393  0.4417  0.2149
 1032WAT    EPW 4836   6.408   4.868   5.290  0.3604  0.4880  0.2702
 1033WAT      O 4837   6.614   5.975   3.397  0.1870 -0.3592 -0.1484
 1033WAT     H1 4838   6.535   6.000   3.424 -0.5366 -2.7584  0.1817
 1033WAT     H2 4839   6.597   5.932   3.323  1.2853 -0.1863 -0.5113
 1033WAT    EPW 4840   6.600   5.972   3.390 -0.2317 -0.1775 -0.1995
 1034WAT      O 4841   4.848   5.004   5.046  0.0751  0.3426  0.1858
 1034WAT     H1 4842   4.916   5.028   4.997  0.0506 -1.3532 -0.7465
 1034WAT     H2 4843   4.790   4.975   4.988 -0.4330 -0.5865  1.1251
 1034WAT    EPW 4844   4.849   5.003   5.031  0.1087 -0.4887 -0.0130
 1035WAT      O 4845   6.851   3.825   4.185 -0.0448 -0.5197  0.1024
 1035WAT     H1 4846   6.851   3.826   4.272 -0.7356 -1.0206  0.1252
 1035WAT     H2 4847   6.876   3.905   4.163 -0.8802 -0.0467  0.7815
 1035WAT    EPW 4848   6.854   3.837   4.195 -1.0533  0.5604 -1.0965
 1036WAT      O 4849   7.870   4.441   3.551 -0.6272  0.1640  0.2248
 1036WAT     H1 4850   7.950   4.434   3.586 -1.0185  0.3513  1.1821
 1036WAT     H2 4851   7.817   4.416   3.615 -1.3966  0.9780 -0.0786
 1036WAT    EPW 4852   7.874   4.436   3.565 -0.3327  0.2965 -0.4553
 1037WAT      O 4853   8.086   5.329   3.438 -0.1644  0.1402 -0.2276
 1037WAT     H1 4854   8.061   5.248   3.458  1.3162 -0.0206  1.1523
 1037WAT     H2 4855   8.038   5.348   3.367 -0.8143 -1.7760 -0.3683
 1037WAT    EPW 4856   8.075   5.320   3.430 -0.1448  0.4395 -0.5822
 1038WAT      O 4857   6.574   3.834   4.521 -0.2747 -0.8071 -0.0940
 1038WAT     H1 4858   6.638   3.828   4.580  0.2119  1.3361 -0.3322
 1038WAT     H2 4859   6.508   3.867   4.566 -0.5304 -0.9823 -0.3364
 1038WAT    EPW 4860   6.574   3.838   4.536  0.7506  0.1657  0.0682
 1039WAT      O 4861   7.696   5.559   3.754  0.1637  0.5325 -0.2289
 1039WAT     H1 4862   7.764   5.554   3.808 -2.2213  0.4658  3.0372
 1039WAT     H2 4863   7.656   5.482   3.763 -1.0356  1.0126 -1.0851
 1039WAT    EPW 4864   7.700   5.547   3.763  0.2934  0.0215  0.3982
 1040WAT      O 4865   7.348   4.340   3.867  0.0962  0.4197 -0.1879
 1040WAT     H1 4866   7.305   4.411   3.841  0.0814  0.0231 -1.3077
 1040WAT     H2 4867   7.286   4.289   3.900 -0.1828  0.2009 -1.0225
 1040WAT    EPW 4868   7.332   4.343   3.868 -0.1196  0.2082 -0.2354
 1041WAT      O 4869   6.680   4.046   4.365 -0.0025  0.0133  0.3362
 1041WAT     H1 4870   6.706   4.102   4.427  0.5616  0.4321 -0.2664
 1041WAT     H2 4871   6.669   3.971   4.408  0.8402  0.1824  0.8698
 1041WAT    EPW 4872   6.682   4.043   4.381  0.0131  0.5910 -0.4952
 1042WAT      O 4873   6.615   3.690   4.056 -0.4683  0.1179  0.5201
 1042WAT     H1 4874   6.557   3.640   4.097  0.3002 -0.6634  0.6931
 1042WAT     H2 4875   6.664   3.723   4.121 -0.3155  0.2513  0.3399
 1042WAT    EPW 4876   6.614   3.687   4.072 -0.2009 -0.4780 -0.9283
 1043WAT      O 4877   7.872   3.974   3.492  0.1553 -0.7846  0.3217
 1043WAT     H1 4878   7.867   3.906   3.438  0.6809 -0.2903 -0.3701
 1043WAT     H2 4879   7.935   3.951   3.548  0.1781 -0.9615  0.2240
 1043WAT    EPW 4880   7.881   3.961   3.492 -0.4826  0.9218  0.2554
 1044WAT      O 4881   0.788   4.669   3.447  0.1024 -0.4160  0.2441
 1044WAT     H1 4882   0.870   4.641   3.454  0.3285  0.0644 -0.4168
 1044WAT     H2 4883   0.753   4.649   3.524  0.7907 -0.7710  0.4738
 1044WAT    EPW 4884   0.795   4.662   3.459 -0.3664 -0.0931 -0.6556
 1045WAT      O 4885   6.607   4.106   3.952  0.5690  0.8455 -0.4498
 1045WAT     H1 4886   6.532   4.122   3.910  0.7791  1.2214 -0.6861
 1045WAT     H2 4887   6.585   4.045   4.011  0.0827  0.9339 -0.5360
 1045WAT    EPW 4888   6.593   4.099   3.955  0.3326 -0.8281  0.1236
 1046WAT      O 4889   7.128   2.918   2.343  0.2430  0.3029  0.0957
 1046WAT     H1 4890   7.092   2.998   2.340  0.0060  0.2314  0.8029
 1046WAT     H2 4891   7.065   2.866   2.313 -0.8520 -0.0001  2.6291
 1046WAT    EPW 4892   7.113   2.922   2.338  0.1385  0.0546  0.2691
 1047WAT      O 4893   6.329   4.301   4.661 -0.0252  0.0589  0.1513
 1047WAT     H1 4894   6.289   4.301   4.738  0.1906 -1.5927  0.3105
 1047WAT     H2 4895   6.371   4.377   4.659  0.2824 -0.0344  1.8461
 1047WAT    EPW 4896   6.329   4.312   4.672  0.1406 -0.2486  0.5043
 1048WAT      O 4897   6.961   4.996   3.916  0.1295  0.2045  0.3048
 1048WAT     H1 4898   6.926   4.996   3.996  0.6815  0.0299  0.5538
 1048WAT     H2 4899   6.959   4.912   3.893 -0.6034  0.3349 -0.1291
 1048WAT    EPW 4900   6.956   4.983   3.925  0.6637 -0.3089 -0.2441
 1049WAT      O 4901   6.217   4.790   5.573  0.2086 -0.0162  0.0924
 1049WAT     H1 4902   6.296   4.757   5.556  0.3673  0.8457 -1.0063
 1049WAT     H2 4903   6.168   4.760   5.508  0.3066  1.6486 -0.8062
 1049WAT    EPW 4904   6.221   4.781   5.561  1.0981  0.5960  0.0451
 1050WAT      O 4905   7.166   4.670   3.982 -0.3471  0.1071 -0.1321
 1050WAT     H1 4906   7.092   4.683   3.937 -0.0955 -0.9899 -0.9012
 1050WAT     H2 4907   7.150   4.595   4.024  0.4698 -0.3576 -0.6314
 1050WAT    EPW 4908   7.153   4.661   3.982 -0.5066 -0.1747 -0.9954
 1051WAT      O 4909   6.856   5.319   4.240 -0.1111  0.2902 -0.7754
 1051WAT     H1 4910   6.922   5.353   4.194  2.7794 -1.0812  1.9944
 1051WAT     H2 4911   6.828   5.386   4.288 -0.5114  0.7552 -1.6195
 1051WAT    EPW 4912   6.861   5.334   4.240  0.1472 -0.7060  0.7851
 1052WAT      O 4913   7.531   4.073   3.960  0.0040  0.5533  0.2719
 1052WAT     H1 4914   7.448   4.062   3.985  0.0939 -1.3582 -0.0795
 1052WAT     H2 4915   7.546   4.158   3.972 -1.5340  0.6528  1.7712
 1052WAT    EPW 4916   7.521   4.084   3.965  0.8108 -0.3030 -0.4629
 1053WAT      O 4917   5.752   5.305   5.369 -0.0090 -0.9534  0.0206
 1053WAT     H1 4918   5.764   5.272   5.289 -2.4897 -2.2429  0.0722
 1053WAT     H2 4919   5.711   5.240   5.412  0.1645  0.1462  1.9690
 1053WAT    EPW 4920   5.747   5.290   5.363  0.4802  0.2902 -0.3216
 1054WAT      O 4921   5.754   2.470   4.616 -0.1223  0.0248 -0.2418
 1054WAT     H1 4922   5.805   2.538   4.633  0.1989 -0.3051  0.1443
 1054WAT     H2 4923   5.727   2.484   4.534  1.2480 -0.2027 -0.7678
 1054WAT    EPW 4924   5.757   2.482   4.606 -0.1802  0.2036 -0.1910
 1055WAT      O 4925   6.663   2.979   4.476  0.1548  0.0267  1.2307
 1055WAT     H1 4926   6.613   2.942   4.415  1.7949 -1.7718  0.8894
 1055WAT     H2 4927   6.624   2.957   4.551  0.5156 -1.5668  0.9868
 1055WAT    EPW 4928   6.650   2.971   4.478  0.0164 -0.0011 -0.2892
 1056WAT      O 4929   8.077   4.710   4.073  0.3397 -0.2655 -0.2109
 1056WAT     H1 4930   8.036   4.634   4.060 -1.3675  0.6038 -0.0941
 1056WAT     H2 4931   8.012   4.768   4.083  1.5444  1.4538 -1.5907
 1056WAT    EPW 4932   8.061   4.707   4.073 -1.0228 -0.4637  0.7872
 1057WAT      O 4933   7.142   5.716   3.543  0.4711  0.0577 -0.7145
 1057WAT     H1 4934   7.165   5.639   3.509 -0.4039 -0.5011 -0.0677
 1057WAT     H2 4935   7.079   5.744   3.490 -0.6231 -0.6333  0.1825
 1057WAT    EPW 4936   7.136   5.709   3.530 -0.2641 -0.6875  0.4405
 1058WAT      O 4937   0.658   2.877   3.349 -0.6142 -0.0046 -0.1835
 1058WAT     H1 4938   0.594   2.818   3.346  0.6948 -1.5025 -2.3252
 1058WAT     H2 4939   0.691   2.875   3.268  1.0577  1.9312  0.3623
 1058WAT    EPW 4940   0.654   2.868   3.336  0.0414 -0.5261 -0.2661
 1059WAT      O 4941   7.683   5.088   3.389  0.3482  0.8515 -0.1060
 1059WAT     H1 4942   7.692   5.045   3.464  2.3391  0.1868 -0.6570
 1059WAT     H2 4943   7.692   5.172   3.411 -1.5978  0.9096  0.6940
 1059WAT    EPW 4944   7.686   5.094   3.403  0.7350  0.0420 -1.0934
 1060WAT      O 4945   5.417   5.721   3.027  0.3096  0.1747 -0.4313
 1060WAT     H1 4946   5.343   5.711   3.071  0.0441  0.3291 -0.8434
 1060WAT     H2 4947   5.473   5.749   3.088 -0.4847  2.0998 -0.5368
 1060WAT    EPW 4948   5.415   5.723   3.043 -0.1408  0.1212  0.1171
 1061WAT      O 4949   0.861   2.110   4.170 -0.1567 -0.3380  0.2841
 1061WAT     H1 4950   0.804   2.046   4.153 -0.9284  0.2717  0.5063
 1061WAT     H2 4951   0.918   2.072   4.224  1.5154 -1.8951 -2.3261
 1061WAT    EPW 4952   0.861   2.095   4.175  1.0813 -0.6469 -0.4562
 1062WAT      O 4953   7.896   5.112   2.737  0.0620 -0.1164  0.4441
 1062WAT     H1 4954   7.929   5.031   2.735 -0.0509 -0.1821  1.1384
 1062WAT     H2 4955   7.931   5.150   2.667  3.4893  0.5837  2.3430
 1062WAT    EPW 4956   7.906   5.105   2.726  0.6460  0.8850 -0.4516
 1063WAT      O 4957   0.314   3.030   2.595  0.9100  0.4328 -0.3673
 1063WAT     H1 4958   0.290   3.078   2.526  1.0277 -1.1793 -1.5825
 1063WAT     H2 4959   0.275   2.953   2.582  2.8546 -0.7095  0.0746
 1063WAT    EPW 4960   0.305   3.026   2.583 -0.0042  0.4365 -1.0425
 1064WAT      O 4961   0.290   5.660   3.488  0.0880 -0.1884  0.0976
 1064WAT     H1 4962   0.369   5.698   3.486 -1.5568  3.8260  1.2512
 1064WAT     H2 4963   0.288   5.622   3.567  0.3750  1.0798  0.7459
 1064WAT    EPW 4964   0.301   5.660   3.499  1.2798 -0.2689 -0.0836
 1065WAT      O 4965   7.702   4.950   3.628 -0.3000 -0.1173 -0.9127
 1065WAT     H1 4966   7.626   4.946   3.672  0.9173  0.8716  1.4529
 1065WAT     H2 4967   7.749   4.885   3.662  1.5335  2.1167  1.1627
 1065WAT    EPW 4968   7.698   4.940   3.639 -0.7136  0.6505 -0.5277
 1066WAT      O 4969   6.989   4.008   2.871  0.4510 -0.1710 -0.0030
 1066WAT     H1 4970   6.903   4.019   2.861  0.3949  0.1315  0.8138
 1066WAT     H2 4971   7.024   4.080   2.836  0.5875 -1.6211 -3.3012
 1066WAT    EPW 4972   6.982   4.020   2.864  0.1935 -0.7855 -0.1113
 1067WAT      O 4973   0.416   3.737   3.783 -0.0423  0.3984 -0.0570
 1067WAT     H1 4974   0.384   3.728   3.703  0.9995 -1.0790 -0.3514
 1067WAT     H2 4975   0.429   3.655   3.810  0.0604  0.8707  1.4522
 1067WAT    EPW 4976   0.413   3.724   3.775 -0.3229 -0.6696 -0.2868
 1068WAT      O 4977   7.156   3.596   2.538  0.0536 -0.0884  0.7201
 1068WAT     H1 4978   7.103   3.625   2.601  1.1950  0.3215  1.5312
 1068WAT     H2 4979   7.102   3.579   2.472 -0.9153  1.8246  0.9549
 1068WAT    EPW 4980   7.140   3.598   2.538 -0.8886 -0.4457 -0.0720
 1069WAT      O 4981   6.791   3.939   1.755  0.1624 -0.1290 -0.1224
 1069WAT     H1 4982   6.791   3.935   1.843 -0.9891  1.4015 -0.0252
 1069WAT     H2 4983   6.707   3.945   1.735  0.4382 -0.1092 -1.3360
 1069WAT    EPW 4984   6.779   3.939   1.765 -0.2252  0.2519 -0.0209
 1070WAT      O 4985   5.777   3.672   5.299 -0.0178  0.6736 -0.1645
 1070WAT     H1 4986   5.862   3.660   5.312 -0.4409 -0.4949  2.0404
 1070WAT     H2 4987   5.773   3.715   5.223  2.6223  2.6488  0.6974
 1070WAT    EPW 4988   5.789   3.677   5.290  0.3101  0.5235 -0.1290
 1071WAT      O 4989   7.688   4.167   3.461  0.3104 -0.2470 -0.1710
 1071WAT     H1 4990   7.729   4.090   3.466  1.5033  0.3675 -0.1049
 1071WAT     H2 4991   7.636   4.166   3.531 -0.2701 -1.2979 -0.5908
 1071WAT    EPW 4992   7.687   4.156   3.472 -0.2533  0.2940 -0.0668
 1072WAT      O 4993   6.518   4.010   3.381  0.0597  0.3501  0.1309
 1072WAT     H1 4994   6.439   4.011   3.420  0.9381  2.2910  2.0635
 1072WAT     H2 4995   6.527   3.927   3.356 -2.3335 -0.0705  0.3775
 1072WAT    EPW 4996   6.507   3.998   3.383  0.2838 -0.0107 -0.5346
 1073WAT      O 4997   6.941   6.392   3.948  0.3171 -0.0007  0.4708
 1073WAT     H1 4998   6.981   6.317   3.965  0.4723  0.1528  0.7911
 1073WAT     H2 4999   6.934   6.430   4.026 -1.5196 -0.5528  0.6365
 1073WAT    EPW 5000   6.946   6.386   3.962  0.2681 -0.4847  0.6110
 1074WAT      O 5001   0.039   5.115   2.277 -0.2894  0.4410  0.6183
 1074WAT     H1 5002  -0.007   5.144   2.208 -0.4291 -0.2602  0.4079
 1074WAT     H2 5003   0.012   5.032   2.286  1.6361 -0.3133 -0.1227
 1074WAT    EPW 5004   0.028   5.107   2.268  0.1211  0.5599 -0.9060
 1075WAT      O 5005   7.989   5.243   2.502 -0.1770 -0.3252 -0.2606
 1075WAT     H1 5006   8.025   5.213   2.429  0.0943 -0.6855  0.0167
 1075WAT     H2 5007   7.932   5.303   2.474  1.3483  1.0119 -0.6925
 1075WAT    EPW 5008   7.986   5.248   2.487 -0.9772 -1.0070  0.2990
 1076WAT      O 5009   6.607   4.249   3.627 -0.4325 -0.2482 -0.2281
 1076WAT     H1 5010   6.655   4.303   3.677  0.2185  0.7325 -1.8206
 1076WAT     H2 5011   6.529   4.250   3.665  0.6271 -1.5503  2.2115
 1076WAT    EPW 5012   6.603   4.257   3.640  0.3166 -0.4645 -0.2542
 1077WAT      O 5013   0.351   5.382   2.476 -0.4352 -0.4362  0.2074
 1077WAT     H1 5014   0.415   5.390   2.535 -1.3543  0.4957  1.1064
 1077WAT     H2 5015   0.278   5.389   2.524 -1.2671  2.9535 -1.2842
 1077WAT    EPW 5016   0.349   5.384   2.492 -0.1321  0.2076 -0.0318
 1078WAT      O 5017   0.262   3.182   3.901 -0.8006 -0.4111 -0.4724
 1078WAT     H1 5018   0.318   3.230   3.854  0.4907 -0.4009  0.9924
 1078WAT     H2 5019   0.236   3.237   3.963 -1.4930 -0.7936 -0.4158
 1078WAT    EPW 5020   0.267   3.197   3.903  0.5826  0.5035  0.2544
 1079WAT      O 5021   7.477   3.902   1.583  0.1187  0.2807 -0.3618
 1079WAT     H1 5022   7.470   3.827   1.627 -2.9201  1.1928  0.9801
 1079WAT     H2 5023   7.422   3.891   1.516 -0.6334  1.3810  0.0510
 1079WAT    EPW 5024   7.468   3.889   1.579  0.7895  0.4748 -0.1158
 1080WAT      O 5025   0.824   3.637   2.062  0.2999 -0.2638  0.4484
 1080WAT     H1 5026   0.754   3.661   2.016 -0.5437 -2.7488  0.3021
 1080WAT     H2 5027   0.891   3.666   2.015 -0.5789 -0.7949 -1.1869
 1080WAT    EPW 5028   0.823   3.645   2.048  0.2782  0.5125 -0.4700
 1081WAT      O 5029   6.195   3.789   5.261 -0.2685 -0.0554  0.5522
 1081WAT     H1 5030   6.138   3.723   5.261 -1.8184  1.2218  1.7794
 1081WAT     H2 5031   6.229   3.787   5.341  0.3481  0.0825  0.2984
 1081WAT    EPW 5032   6.192   3.779   5.273 -0.1984  0.2738  1.1954
 1082WAT      O 5033   6.080   5.565   5.368 -0.6913  0.1931  0.1623
 1082WAT     H1 5034   6.089   5.650   5.383  0.6548  0.2458 -0.7599
 1082WAT     H2 5035   6.019   5.561   5.306 -0.2144  0.5568 -0.3411
 1082WAT    EPW 5036   6.072   5.577   5.361 -1.2705  0.0039  0.1507
 1083WAT      O 5037   6.977   3.610   4.103 -0.5002 -0.1490 -0.1234
 1083WAT     H1 5038   6.926   3.681   4.107 -1.7391 -1.0099 -0.1605
 1083WAT     H2 5039   6.982   3.584   4.186  1.0539  0.6901  0.0956
 1083WAT    EPW 5040   6.970   3.617   4.116  0.9214  0.0187  0.0273
 1084WAT      O 5041   5.369   4.345   5.479  0.3465  0.0038 -0.7450
 1084WAT     H1 5042   5.423   4.407   5.508  1.1328 -0.1903 -1.7341
 1084WAT     H2 5043   5.410   4.271   5.499 -0.8800 -0.2604  0.9968
 1084WAT    EPW 5044   5.383   4.344   5.486 -0.5955 -0.5014 -0.0273
 1085WAT      O 5045   5.313   2.947   4.106  0.1913 -0.0598  0.1356
 1085WAT     H1 5046   5.258   2.904   4.054  0.7292 -0.2752 -0.2665
 1085WAT     H2 5047   5.385   2.957   4.057  0.7629 -0.3953  0.8648
 1085WAT    EPW 5048   5.316   2.942   4.091  0.7567  0.5720  0.7977
 1086WAT      O 5049   7.072   4.937   4.339  0.5768  0.6229  0.8471
 1086WAT     H1 5050   6.992   4.944   4.305  0.3899  0.0143  1.1378
 1086WAT     H2 5051   7.121   4.988   4.288  0.3900 -0.5622 -0.5788
 1086WAT    EPW 5052   7.067   4.946   4.327  0.0678 -0.4919 -0.4931
 1087WAT      O 5053   0.057   3.020   2.904 -0.4615  0.4781  0.0256
 1087WAT     H1 5054   0.107   2.971   2.850  1.2912 -0.2090  2.1138
 1087WAT     H2 5055  -0.011   3.042   2.854  1.7227  1.1676 -2.9333
 1087WAT    EPW 5056   0.055   3.016   2.888  0.3779  0.1651 -0.4430
 1088WAT      O 5057   5.520   5.288   4.250  0.3527 -0.1114 -0.3151
 1088WAT     H1 5058   5.533   5.260   4.332  1.8603 -0.0424 -0.5050
 1088WAT     H2 5059   5.442   5.254   4.229  0.2883 -0.7698  0.8712
 1088WAT    EPW 5060   5.510   5.279   4.259  0.9655 -0.7512  0.2142
 1089WAT      O 5061   6.437   5.285   5.417  0.3260 -0.0455 -0.1174
 1089WAT     H1 5062   6.481   5.243   5.355 -1.9117  0.0537 -1.9032
 1089WAT     H2 5063   6.394   5.221   5.459 -0.8807  0.1647 -0.9942
 1089WAT    EPW 5064   6.437   5.269   5.414  0.3275  0.3995  0.6168
 1090WAT      O 5065   5.533   4.791   3.683  0.0786  0.5688 -0.0022
 1090WAT     H1 5066   5.491   4.790   3.607 -0.8847  2.0859  0.4586
 1090WAT     H2 5067   5.472   4.816   3.740  1.2615  1.5152  0.9155
 1090WAT    EPW 5068   5.518   4.795   3.680 -0.3285 -0.6328 -0.0028
 1091WAT      O 5069   7.078   4.413   4.068 -0.1611 -0.0613  0.3327
 1091WAT     H1 5070   7.065   4.337   4.026 -0.2248 -0.2440  0.6742
 1091WAT     H2 5071   6.997   4.437   4.090 -0.1073 -0.0892  0.5596
 1091WAT    EPW 5072   7.064   4.405   4.065 -0.1035  0.7812 -0.8164
 1092WAT      O 5073   6.373   4.246   4.155  0.2684 -0.7155  0.0752
 1092WAT     H1 5074   6.334   4.229   4.231  0.6523 -1.8822  0.0378
 1092WAT     H2 5075   6.428   4.179   4.145  1.0019 -0.0233 -0.7185
 1092WAT    EPW 5076   6.376   4.233   4.165 -0.3534  0.0873 -0.5561
 1093WAT      O 5077   7.583   3.474   3.213  0.2406  0.4896  0.1576
 1093WAT     H1 5078   7.597   3.467   3.128 -1.5351 -0.1951 -0.1193
 1093WAT     H2 5079   7.602   3.395   3.244  3.9780  1.4909  1.0163
 1093WAT    EPW 5080   7.588   3.462   3.205 -0.4742  0.0307  0.0825
 1094WAT      O 5081   1.303   5.550   3.851 -0.3519 -0.2069 -0.2186
 1094WAT     H1 5082   1.230   5.519   3.887 -0.2659  0.9126  0.9951
 1094WAT     H2 5083   1.298   5.524   3.768 -0.9321 -2.2218  0.4029
 1094WAT    EPW 5084   1.292   5.542   3.844  0.1885  1.0154 -0.5537
 1095WAT      O 5085   6.421   2.559   5.212  0.0687  0.0937  0.1947
 1095WAT     H1 5086   6.493   2.607   5.217  0.4951 -0.5173  0.1313
 1095WAT     H2 5087   6.376   2.594   5.146  1.1411 -0.5981 -0.9461
 1095WAT    EPW 5088   6.425   2.571   5.203  1.3213 -0.5711  0.4308
 1096WAT      O 5089   5.409   5.228   3.772  0.6334  0.2365  0.0453
 1096WAT     H1 5090   5.370   5.162   3.730 -0.7931  0.4707  0.9626
 1096WAT     H2 5091   5.443   5.190   3.842 -0.2469  0.4610  0.6091
 1096WAT    EPW 5092   5.408   5.213   3.776 -0.3745  0.4053 -0.5932
 1097WAT      O 5093   7.392   5.143   3.394 -0.7249 -0.8553  0.7329
 1097WAT     H1 5094   7.471   5.117   3.419 -0.8321 -1.7107  0.2121
 1097WAT     H2 5095   7.363   5.190   3.461  1.0252  1.2255  0.1307
 1097WAT    EPW 5096   7.399   5.146   3.407  0.7710  0.2344  0.0026
 1098WAT      O 5097   7.379   3.929   2.608 -0.0314  0.0573  0.2446
 1098WAT     H1 5098   7.321   3.989   2.582  0.1710 -0.1245 -0.6387
 1098WAT     H2 5099   7.453   3.973   2.615  0.8520 -0.5653 -3.3097
 1098WAT    EPW 5100   7.381   3.944   2.605  0.0146  0.2996 -0.0913
 1099WAT      O 5101   5.084   4.767   4.416 -0.1483 -0.1898 -0.1114
 1099WAT     H1 5102   5.094   4.853   4.405  0.9005 -0.2221  0.5321
 1099WAT     H2 5103   4.998   4.756   4.408 -0.2397  0.8350 -0.7704
 1099WAT    EPW 5104   5.073   4.778   4.413 -0.0388 -0.7482 -0.7860
 1100WAT      O 5105   0.442   4.690   2.433 -0.5722 -0.9699  0.1210
 1100WAT     H1 5106   0.467   4.607   2.441 -1.4687 -1.2740 -0.0403
 1100WAT     H2 5107   0.445   4.704   2.347  0.3879 -0.5640  0.2151
 1100WAT    EPW 5108   0.446   4.680   2.421 -0.2463 -0.0643  0.6595
 1101WAT      O 5109   6.095   5.621   6.055  0.1597 -0.7087  0.1948
 1101WAT     H1 5110   6.073   5.627   6.139 -1.5177  0.4146 -0.2685
 1101WAT     H2 5111   6.139   5.546   6.050  1.2032 -0.2924  2.2369
 1101WAT    EPW 5112   6.098   5.611   6.066 -0.2454 -0.9442  0.0234
 1102WAT      O 5113   6.029   3.143   4.960 -0.2295  0.7678 -0.2286
 1102WAT     H1 5114   5.983   3.180   4.896 -1.3857  0.8982  0.6543
 1102WAT     H2 5115   6.067   3.075   4.921 -1.2749  0.5760 -0.9551
 1102WAT    EPW 5116   6.028   3.139   4.945  0.4262 -0.8906 -1.0175
 1103WAT      O 5117   5.808   5.970   4.553 -0.2676  0.5628 -0.1133
 1103WAT     H1 5118   5.814   6.011   4.629 -0.6202 -0.9078  0.7488
 1103WAT     H2 5119   5.890   5.954   4.531 -0.1776  0.6103  0.1840
 1103WAT    EPW 5120   5.821   5.974   4.561  0.4966 -0.0857 -0.9667
 1104WAT      O 5121   5.137   3.803   3.801  0.4359 -0.3225  0.6782
 1104WAT     H1 5122   5.087   3.868   3.771 -0.2280 -1.0535  0.1822
 1104WAT     H2 5123   5.135   3.743   3.738  0.7610 -0.9744  1.2631
 1104WAT    EPW 5124   5.129   3.804   3.787 -0.2814  0.4731  0.1978
 1105WAT      O 5125   5.482   5.851   5.556 -0.3836  0.6821 -0.3868
 1105WAT     H1 5126   5.539   5.892   5.608  0.9084  0.1813 -1.3777
 1105WAT     H2 5127   5.487   5.768   5.581 -1.3024  0.7462  0.0620
 1105WAT    EPW 5128   5.491   5.845   5.568 -0.3564 -0.8608 -0.3013
 1106WAT      O 5129   7.030   6.352   3.550 -0.2212 -0.4241  0.1039
 1106WAT     H1 5130   7.076   6.286   3.586  1.5872  1.0902  0.7311
 1106WAT     H2 5131   7.073   6.368   3.476  0.0939  0.7788  0.5202
 1106WAT    EPW 5132   7.043   6.344   3.544 -0.8368 -1.2727 -0.0501
 1107WAT      O 5133   8.009   4.754   1.768 -0.5691 -0.4176 -0.0456
 1107WAT     H1 5134   7.987   4.839   1.768  0.7679 -0.0331  0.8278
 1107WAT     H2 5135   7.968   4.722   1.698 -1.8152  0.7518  0.1060
 1107WAT    EPW 5136   8.000   4.762   1.758  0.2415  0.2605  0.6074
 1108WAT      O 5137   6.704   4.119   4.809  0.3838  0.0044  0.2365
 1108WAT     H1 5138   6.627   4.088   4.781 -0.8553  1.5405  1.7213
 1108WAT     H2 5139   6.735   4.163   4.740 -0.2103 -0.3908 -0.2913
 1108WAT    EPW 5140   6.697   4.121   4.795  0.3705  0.0574  0.1116
 1109WAT      O 5141   6.206   4.239   4.387 -0.0941 -0.2099  0.0887
 1109WAT     H1 5142   6.249   4.259   4.460 -0.3371 -0.1361  0.2127
 1109WAT     H2 5143   6.142   4.187   4.415 -0.8355  0.6727  0.0813
 1109WAT    EPW 5144   6.203   4.234   4.402 -0.0991 -0.4862  0.8410
 1110WAT      O 5145   7.902   5.810   3.930 -0.5392 -0.0415  0.0852
 1110WAT     H1 5146   7.974   5.825   3.882 -1.1480  0.1647 -0.8030
 1110WAT     H2 5147   7.891   5.724   3.925 -0.0516 -0.1404  0.6808
 1110WAT    EPW 5148   7.911   5.800   3.922 -0.3249 -0.2189  1.0374
 1111WAT      O 5149   7.292   3.914   2.853 -0.1445 -0.2087 -0.1591
 1111WAT     H1 5150   7.205   3.916   2.860 -0.1962  1.4413 -0.8021
 1111WAT     H2 5151   7.306   3.921   2.767  0.5951  3.3564  0.1146
 1111WAT    EPW 5152   7.282   3.915   2.842  0.8393  0.5555  0.3970
 1112WAT      O 5153   6.852   3.352   2.871  0.2222  0.1440 -0.5953
 1112WAT     H1 5154   6.918   3.301   2.844  1.2251  0.3746  1.2304
 1112WAT     H2 5155   6.893   3.414   2.917 -1.1763  1.2212 -0.7568
 1112WAT    EPW 5156   6.868   3.354   2.874  0.2141 -0.4320  0.1788
 1113WAT      O 5157   6.690   4.834   0.655 -0.5355  0.1299 -0.2837
 1113WAT     H1 5158   6.688   4.803   0.574  1.8644  0.7505 -0.6667
 1113WAT     H2 5159   6.648   4.910   0.649  1.8657  1.4450 -1.6460
 1113WAT    EPW 5160   6.683   4.841   0.642  0.7239 -0.2419 -0.2351
 1114WAT      O 5161   7.618   4.520   1.602 -0.4363 -0.1132  0.6174
 1114WAT     H1 5162   7.700   4.549   1.616 -0.5281 -0.0623  1.0669
 1114WAT     H2 5163   7.574   4.549   1.672 -1.0292  0.5575 -0.0114
 1114WAT    EPW 5164   7.624   4.529   1.615  0.4080 -0.6178 -0.7766
 1115WAT      O 5165   6.742   3.083   2.128  0.2255  0.3616 -0.1092
 1115WAT     H1 5166   6.777   3.114   2.054  0.8068 -0.5927 -0.2483
 1115WAT     H2 5167   6.742   2.997   2.116  0.0184  0.2143  0.8696
 1115WAT    EPW 5168   6.747   3.075   2.115  0.6659 -0.3977 -0.1377
 1116WAT      O 5169   6.608   4.170   1.025  0.3260  0.0671  0.0317
 1116WAT     H1 5170   6.595   4.200   1.106 -0.9482  0.1191 -0.1684
 1116WAT     H2 5171   6.644   4.237   0.984 -0.9224  0.7688  0.0374
 1116WAT    EPW 5172   6.612   4.184   1.031  0.6734 -0.1973  0.1045
 1117WAT      O 5173   6.003   4.910   4.387  0.1399  0.3181  0.1661
 1117WAT     H1 5174   6.024   4.988   4.353 -0.9195 -0.1004 -1.5850
 1117WAT     H2 5175   5.924   4.894   4.353  0.0337 -1.2031  1.0766
 1117WAT    EPW 5176   5.994   4.919   4.377 -0.1140  0.2945 -0.9428
 1118WAT      O 5177   0.717   5.248   2.550 -0.5344 -1.2373 -0.1826
 1118WAT     H1 5178   0.662   5.180   2.548 -1.4949 -0.6623  2.4661
 1118WAT     H2 5179   0.686   5.297   2.614  0.6297  1.3265 -1.4581
 1118WAT    EPW 5180   0.704   5.245   2.559 -0.4464 -0.7068  0.2002
 1119WAT      O 5181   7.020   3.998   2.263  0.0217 -0.2330  0.1632
 1119WAT     H1 5182   7.097   3.966   2.289 -0.9144 -0.8761  2.4076
 1119WAT     H2 5183   7.034   4.084   2.259  0.9669 -0.3719  0.1131
 1119WAT    EPW 5184   7.034   4.006   2.266  0.4437 -0.6401 -0.3185
 1120WAT      O 5185   0.421   4.696   1.235 -0.4771  0.1129  0.2104
 1120WAT     H1 5186   0.424   4.783   1.231  1.6638  0.1098  0.7246
 1120WAT     H2 5187   0.349   4.680   1.282 -0.9023  1.5784  0.0981
 1120WAT    EPW 5188   0.411   4.706   1.241  0.3539  0.3733  0.1186
 1121WAT      O 5189   6.476   5.858   3.130 -0.0671 -0.0026  0.1118
 1121WAT     H1 5190   6.525   5.786   3.121 -1.0677 -0.4470 -2.5223
 1121WAT     H2 5191   6.398   5.826   3.151 -0.0508  0.5041  1.0163
 1121WAT    EPW 5192   6.472   5.843   3.132 -0.1445 -0.2177  0.0253
 1122WAT      O 5193   0.363   5.050   1.049 -0.5663 -0.4746  0.2951
 1122WAT     H1 5194   0.352   4.992   0.984 -0.7131 -0.5026  0.3434
 1122WAT     H2 5195   0.431   5.018   1.093 -0.2324 -0.2610 -0.0528
 1122WAT    EPW 5196   0.371   5.036   1.046  0.1049  0.1101 -1.0940
 1123WAT      O 5197   6.924   5.176   1.935 -0.1649 -0.1227 -0.1981
 1123WAT     H1 5198   6.951   5.137   2.008 -0.8163 -0.5152 -0.1584
 1123WAT     H2 5199   6.856   5.127   1.910  0.4131 -0.3642 -1.4027
 1123WAT    EPW 5200   6.918   5.163   1.942 -0.8552 -0.1360 -1.0022
 1124WAT      O 5201   0.025   3.684   2.602  0.3988 -0.9067  0.0525
 1124WAT     H1 5202  -0.034   3.628   2.632 -1.2441  0.4230 -0.5692
 1124WAT     H2 5203   0.060   3.643   2.534 -0.4188 -1.3830 -0.0915
 1124WAT    EPW 5204   0.022   3.669   2.597 -0.0747  0.9548  0.5146
 1125WAT      O 5205   6.791   3.628   1.066  0.1346 -0.0814  0.6017
 1125WAT     H1 5206   6.783   3.706   1.028  0.2561 -0.9027 -1.1956
 1125WAT     H2 5207   6.759   3.642   1.146 -1.1194  1.4777 -0.0998
 1125WAT    EPW 5208   6.785   3.642   1.072 -0.1397  0.5604 -0.0602
 1126WAT      O 5209   0.226   2.308   2.287 -0.1782  0.1015  0.0283
 1126WAT     H1 5210   0.149   2.278   2.313 -0.6747  1.1245 -0.2134
 1126WAT     H2 5211   0.246   2.257   2.219 -0.9460  0.2256 -0.3011
 1126WAT    EPW 5212   0.218   2.296   2.281  0.0583 -0.5421 -0.1770
 1127WAT      O 5213   7.042   3.379   2.124  0.2546 -0.0430 -0.1305
 1127WAT     H1 5214   7.038   3.330   2.053 -3.0455 -1.7047  0.9791
 1127WAT     H2 5215   6.991   3.448   2.104  0.8444  0.4481  0.0174
 1127WAT    EPW 5216   7.034   3.382   2.111 -0.0875 -0.7314 -0.1604
 1128WAT      O 5217   7.443   5.890   1.238 -0.2349 -0.1220  0.1075
 1128WAT     H1 5218   7.489   5.964   1.232 -0.2245 -0.2064 -1.2398
 1128WAT     H2 5219   7.443   5.873   1.323 -1.0606  1.9452  0.5745
 1128WAT    EPW 5220   7.450   5.898   1.249 -0.7486  0.0354 -1.3003
 1129WAT      O 5221   7.073   4.133   7.165 -0.0681 -0.3876  0.2526
 1129WAT     H1 5222   7.120   4.148   7.236 -2.0352  0.8517  1.3681
 1129WAT     H2 5223   7.002   4.092   7.195 -1.5480  1.2933 -0.7599
 1129WAT    EPW 5224   7.070   4.129   7.180 -0.0627  0.0691 -0.1889
 1130WAT      O 5225   7.122   5.229   3.065  0.3298 -0.1874  0.5038
 1130WAT     H1 5226   7.207   5.220   3.045 -0.0632  0.5481 -1.7439
 1130WAT     H2 5227   7.098   5.147   3.086  1.5674 -0.3963  1.2516
 1130WAT    EPW 5228   7.131   5.215   3.065  0.4102  0.3279  0.3594
 1131WAT      O 5229   0.388   3.475   2.250  0.4838 -0.5114  0.4502
 1131WAT     H1 5230   0.375   3.392   2.229 -0.7141 -0.7442  1.9212
 1131WAT     H2 5231   0.459   3.473   2.301  1.7613 -0.3048 -1.2573
 1131WAT    EPW 5232   0.397   3.463   2.255 -0.2494  0.5073  0.1303
 1132WAT      O 5233   0.124   4.644   1.546  0.2134 -0.0273 -0.1067
 1132WAT     H1 5234   0.116   4.571   1.594  0.2497  0.3040  0.4075
 1132WAT     H2 5235   0.130   4.707   1.606 -0.3773  0.4632 -0.5583
 1132WAT    EPW 5236   0.124   4.642   1.562  1.1458  0.3635 -0.2930
 1133WAT      O 5237   0.139   4.375   2.109 -0.3368 -0.2062  0.2803
 1133WAT     H1 5238   0.115   4.455   2.083  0.6069  1.1957  3.2275
 1133WAT     H2 5239   0.064   4.339   2.136 -1.1349 -1.2704 -2.9785
 1133WAT    EPW 5240   0.124   4.382   2.109 -0.2538 -0.3303 -0.1254
 1134WAT      O 5241   1.095   4.196   3.108 -0.3065  0.6125  0.0482
 1134WAT     H1 5242   1.121   4.254   3.048 -1.3245  2.1795  1.0649
 1134WAT     H2 5243   1.016   4.224   3.132 -0.2790 -0.4360  1.5282
 1134WAT    EPW 5244   1.087   4.209   3.103 -0.0337  0.2626 -0.1318
 1135WAT      O 5245   7.709   3.952   1.440 -0.5001  0.1233  0.2643
 1135WAT     H1 5246   7.752   4.004   1.496 -1.0127 -0.1173  0.8780
 1135WAT     H2 5247   7.636   3.931   1.482 -1.8821  1.5658 -1.2537
 1135WAT    EPW 5248   7.705   3.957   1.454  0.4676  0.3248  0.0837
 1136WAT      O 5249   7.808   4.261   2.539 -0.1689 -0.2761 -0.0787
 1136WAT     H1 5250   7.887   4.228   2.549 -0.8790 -1.5769  1.7821
 1136WAT     H2 5251   7.795   4.308   2.612 -1.3731 -0.7204  0.0223
 1136WAT    EPW 5252   7.817   4.263   2.551  0.1037  0.0576  0.4951
 1137WAT      O 5253   6.922   4.591   3.333  0.3348 -0.1469  0.1012
 1137WAT     H1 5254   6.895   4.665   3.294  1.4286 -0.0101 -0.4345
 1137WAT     H2 5255   6.858   4.535   3.314 -1.1339  0.9301  1.5492
 1137WAT    EPW 5256   6.909   4.594   3.324  0.7865 -0.3681 -0.8238
 1138WAT      O 5257   8.060   4.172   3.354  1.1818 -0.3441 -0.3626
 1138WAT     H1 5258   7.984   4.133   3.371  1.8128 -1.8677 -0.8817
 1138WAT     H2 5259   8.038   4.255   3.340 -0.5918 -1.0040 -1.9043
 1138WAT    EPW 5260   8.046   4.179   3.354 -0.6546  0.2255 -0.0272
 1139WAT      O 5261   7.055   4.548   0.148 -0.0591 -0.2412 -0.4462
 1139WAT     H1 5262   7.019   4.471   0.125  0.9694 -0.9968  0.3884
 1139WAT     H2 5263   7.111   4.526   0.211  0.7096  1.1243 -0.6225
 1139WAT    EPW 5264   7.058   4.533   0.154  0.1380  0.3530  0.5116
 1140WAT      O 5265   7.360   2.752   2.347  0.1986 -0.7855 -0.1249
 1140WAT     H1 5266   7.379   2.718   2.425  1.8538  0.5515  0.1108
 1140WAT     H2 5267   7.288   2.798   2.362  0.2576 -0.8828  0.5007
 1140WAT    EPW 5268   7.353   2.753   2.361  0.2012 -1.1993 -0.2986
 1141WAT      O 5269   6.488   3.845   3.780 -0.0223 -0.5612  0.2130
 1141WAT     H1 5270   6.531   3.819   3.852 -1.3632 -0.7834  0.9630
 1141WAT     H2 5271   6.523   3.795   3.717  1.2743 -0.2658  0.6604
 1141WAT    EPW 5272   6.500   3.834   3.781  1.1862  1.0522 -0.2904
 1142WAT      O 5273   7.587   3.543   1.378 -0.3864  0.1742 -0.0222
 1142WAT     H1 5274   7.647   3.550   1.315  0.9713  0.1405  1.2133
 1142WAT     H2 5275   7.633   3.558   1.451 -1.7322 -0.6257  1.0262
 1142WAT    EPW 5276   7.603   3.546   1.379  0.4488 -0.4110  0.0003
 1143WAT      O 5277   7.712   3.757   1.882  0.2462 -0.2856 -0.2800
 1143WAT     H1 5278   7.630   3.777   1.906 -0.1413 -0.1790 -1.6030
 1143WAT     H2 5279   7.760   3.822   1.915 -0.3640  0.2785 -0.4851
 1143WAT    EPW 5280   7.707   3.769   1.890  0.8554  0.3221  0.5247
 1144WAT      O 5281   7.282   4.766   4.233  0.4088  0.2349  0.4470
 1144WAT     H1 5282   7.242   4.756   4.156  0.7188 -1.7533  0.4859
 1144WAT     H2 5283   7.228   4.817   4.278 -1.1579 -0.8469 -0.1507
 1144WAT    EPW 5284   7.268   4.772   4.228  0.0131 -0.5428  0.1870
 1145WAT      O 5285   6.975   4.249   2.582  0.5786  0.4946  0.3584
 1145WAT     H1 5286   6.926   4.239   2.510 -2.2346  0.8683  2.0659
 1145WAT     H2 5287   6.999   4.332   2.579  1.3555  0.2511 -0.6251
 1145WAT    EPW 5288   6.971   4.260   2.571 -0.7370  0.3309 -0.2723
 1146WAT      O 5289   0.100   2.872   2.439  0.3944 -0.0669 -0.0585
 1146WAT     H1 5290   0.055   2.946   2.427  0.0236 -0.4211 -0.9018
 1146WAT     H2 5291   0.163   2.877   2.379 -1.3001 -1.7238 -2.0932
 1146WAT    EPW 5292   0.103   2.884   2.428 -0.8116  1.4748 -0.0161
 1147WAT      O 5293   7.771   5.159   2.118 -0.1645 -0.3933  0.0749
 1147WAT     H1 5294   7.746   5.088   2.161 -1.3329 -0.6553 -0.9772
 1147WAT     H2 5295   7.697   5.190   2.085  0.2684  1.4888  0.7261
 1147WAT    EPW 5296   7.756   5.153   2.119 -0.1618 -0.1064  1.0299
 1148WAT      O 5297   7.573   5.528   3.441  0.1829  0.0417 -0.0306
 1148WAT     H1 5298   7.517   5.494   3.383 -0.1454  1.8310 -0.8339
 1148WAT     H2 5299   7.524   5.538   3.513  0.0403 -0.3311 -0.0761
 1148WAT    EPW 5300   7.557   5.525   3.443  0.1093  0.1496  0.0008
 1149WAT      O 5301   6.519   2.610   2.071  0.2676 -0.3277 -0.7272
 1149WAT     H1 5302   6.459   2.623   2.133  1.1089 -0.9680  0.2417
 1149WAT     H2 5303   6.517   2.523   2.059  1.6153 -0.4696 -0.0450
 1149WAT    EPW 5304   6.510   2.599   2.078  0.7384 -0.3215  0.1016
 1150WAT      O 5305   7.901   4.684   1.285  0.1618 -0.2477  0.2948
 1150WAT     H1 5306   7.860   4.692   1.208  0.2034 -2.6948 -0.0534
 1150WAT     H2 5307   7.977   4.725   1.272  1.2989 -2.7612 -1.9579
 1150WAT    EPW 5308   7.906   4.691   1.272  0.1233 -0.0337  0.0918
 1151WAT      O 5309   6.695   5.631   2.507 -0.9072  0.0278  0.7666
 1151WAT     H1 5310   6.736   5.558   2.531  0.9371  0.2703 -1.3527
 1151WAT     H2 5311   6.726   5.691   2.563  1.7776  0.1916 -0.7070
 1151WAT    EPW 5312   6.706   5.629   2.519  0.4953 -0.4884 -0.0994
 1152WAT      O 5313   7.761   5.338   3.444  0.6269  0.0080  1.0798
 1152WAT     H1 5314   7.701   5.398   3.422  1.8726  1.0140  0.2708
 1152WAT     H2 5315   7.826   5.352   3.387  2.7134  0.6142  3.3960
 1152WAT    EPW 5316   7.762   5.349   3.432  0.1963  0.7365 -0.2929
 1153WAT      O 5317   7.391   4.954   2.132 -0.1390  0.3920  0.7990
 1153WAT     H1 5318   7.374   5.040   2.132  1.3183  0.7132  1.2213
 1153WAT     H2 5319   7.471   4.949   2.167  0.0460 -1.0920  0.2421
 1153WAT    EPW 5320   7.400   4.966   2.137 -0.1008 -0.5684  0.1416
 1154WAT      O 5321   6.218   4.595   2.514 -0.4214 -0.4311  0.4491
 1154WAT     H1 5322   6.157   4.556   2.564  1.3353 -1.4387  1.9059
 1154WAT     H2 5323   6.225   4.541   2.445 -2.2495  0.5234 -0.5537
 1154WAT    EPW 5324   6.210   4.581   2.511 -0.0612  0.1016  0.0284
 1155WAT      O 5325   7.548   3.121   2.299  0.3157  0.0290 -0.2499
 1155WAT     H1 5326   7.627   3.086   2.310  0.7178  0.9687 -0.0760
 1155WAT     H2 5327   7.542   3.130   2.212 -0.2739 -1.5142 -0.4060
 1155WAT    EPW 5328   7.559   3.117   2.288  0.0210  0.0659 -0.0363
 1156WAT      O 5329   7.522   3.011   1.678  0.2649 -0.4218 -0.1116
 1156WAT     H1 5330   7.481   2.981   1.607  0.1386  1.1021 -0.7242
 1156WAT     H2 5331   7.457   3.044   1.727  0.5298  0.0749 -0.0905
 1156WAT    EPW 5332   7.506   3.012   1.675 -0.1900  0.2739  0.0227
 1157WAT      O 5333   6.589   4.671   1.468 -0.2300 -0.0043 -0.0517
 1157WAT     H1 5334   6.642   4.624   1.418 -0.1448 -1.6267  1.5034
 1157WAT     H2 5335   6.575   4.743   1.420  0.6603 -1.0127 -1.9381
 1157WAT    EPW 5336   6.595   4.675   1.454  0.4080 -0.1557 -0.3483
 1158WAT      O 5337   7.290   4.677   3.064  0.1494 -0.0361  0.5380
 1158WAT     H1 5338   7.263   4.606   3.108  3.1432 -1.6447  0.0712
 1158WAT     H2 5339   7.261   4.662   2.983 -0.2107 -0.1454  0.6835
 1158WAT    EPW 5340   7.282   4.664   3.059  0.4602 -0.1997 -0.6243
 1159WAT      O 5341   7.436   4.890   1.862 -0.0072  0.4768  0.1594
 1159WAT     H1 5342   7.447   4.902   1.948 -0.8012 -1.1929  0.5243
 1159WAT     H2 5343   7.356   4.923   1.848  0.2559  1.0536 -0.0223
 1159WAT    EPW 5344   7.426   4.897   1.873  0.0462  0.4346  0.0266
 1160WAT      O 5345   6.134   4.229   3.354 -0.3205 -0.9902 -0.3975
 1160WAT     H1 5346   6.157   4.149   3.380 -0.2442 -2.1614 -3.5507
 1160WAT     H2 5347   6.048   4.223   3.342 -0.5441 -0.1271  0.6187
 1160WAT    EPW 5348   6.125   4.217   3.356 -0.0400  0.4072  0.3481
 1161WAT      O 5349   7.977   1.312   0.466 -0.5903  0.8447 -0.1406
 1161WAT     H1 5350   7.919   1.253   0.437 -0.7795  0.3361  1.2167
 1161WAT     H2 5351   7.978   1.372   0.403  0.0116 -0.8551 -1.8583
 1161WAT    EPW 5352   7.969   1.312   0.452  0.7280 -0.3801 -0.7124
 1162WAT      O 5353   7.428   4.324   2.954  0.1905  0.0951 -0.8538
 1162WAT     H1 5354   7.472   4.381   3.004  1.9900 -1.4746 -0.5196
 1162WAT     H2 5355   7.345   4.342   2.970  0.7075  1.2358  0.8243
 1162WAT    EPW 5356   7.422   4.335   2.964  0.5779  0.6971  0.0593
 1163WAT      O 5357   7.333   4.121   3.506  0.0791  0.0565 -0.9616
 1163WAT     H1 5358   7.257   4.087   3.479  0.3264 -1.4004  0.0918
 1163WAT     H2 5359   7.393   4.079   3.459  0.5176 -2.5123  1.5698
 1163WAT    EPW 5360   7.331   4.110   3.495  0.2302  0.3440 -0.2017
 1164WAT      O 5361   6.725   2.805   2.024  0.1548 -0.6149  0.5266
 1164WAT     H1 5362   6.676   2.734   2.032  2.4311 -2.3049  0.3902
 1164WAT     H2 5363   6.773   2.789   1.953  1.2341  0.7210  0.9072
 1164WAT    EPW 5364   6.725   2.792   2.015 -0.7437  0.0245 -1.1524
 1165WAT      O 5365   7.768   5.423   2.795  0.3351  0.2692 -0.0786
 1165WAT     H1 5366   7.701   5.379   2.761  0.7362 -0.3843 -0.0213
 1165WAT     H2 5367   7.821   5.361   2.824 -0.5283  0.7555  2.8797
 1165WAT    EPW 5368   7.766   5.408   2.794 -0.0225 -0.1899  1.1065
 1166WAT      O 5369   7.633   4.767   3.292  0.2167  0.5265  0.3110
 1166WAT     H1 5370   7.613   4.704   3.348 -1.2370 -0.6482 -1.4138
 1166WAT     H2 5371   7.579   4.832   3.313 -2.6376 -1.0299 -1.5196
 1166WAT    EPW 5372   7.622   4.767   3.303 -0.3093 -0.2548 -0.8503
 1167WAT      O 5373   6.641   5.640   1.908  0.4197  0.3170 -0.1083
 1167WAT     H1 5374   6.644   5.662   1.993  0.4504  0.6914 -0.2073
 1167WAT     H2 5375   6.626   5.554   1.910  2.5042 -0.0932  0.3203
 1167WAT    EPW 5376   6.640   5.631   1.921  0.5056 -0.2567 -0.6172
 1168WAT      O 5377   6.893   4.765   3.581  0.2580 -0.6978 -0.1805
 1168WAT     H1 5378   6.932   4.694   3.549  0.6605 -0.1616 -0.8796
 1168WAT     H2 5379   6.919   4.829   3.529  0.1843  0.0346  0.6613
 1168WAT    EPW 5380   6.902   4.764   3.569 -0.5426 -0.1280  0.3971
 1169WAT      O 5381   0.200   6.043   3.418 -0.2716  0.4835  0.5520
 1169WAT     H1 5382   0.148   6.104   3.450  1.5247  3.1088 -1.1499
 1169WAT     H2 5383   0.274   6.053   3.463  0.9945  1.6128 -1.6263
 1169WAT    EPW 5384   0.203   6.053   3.430 -0.7962  0.4523 -0.7334
 1170WAT      O 5385   7.756   3.598   2.335 -0.0975  0.0978 -0.0808
 1170WAT     H1 5386   7.711   3.526   2.352  0.1597 -0.0670 -0.0853
 1170WAT     H2 5387   7.804   3.576   2.265 -1.2886  0.8224 -1.1615
 1170WAT    EPW 5388   7.757   3.584   2.327  0.4709 -0.3458  0.2832
 1171WAT      O 5389   6.332   5.217   2.680 -0.1392 -0.1653 -0.1043
 1171WAT     H1 5390   6.373   5.142   2.662  1.2882  0.7326 -0.7119
 1171WAT     H2 5391   6.329   5.257   2.602 -0.4854  0.6052  0.3012
 1171WAT    EPW 5392   6.337   5.212   2.666  0.4813 -0.1626 -0.3731
 1172WAT      O 5393   6.455   3.311   1.121 -1.0049  0.3653 -0.0284
 1172WAT     H1 5394   6.371   3.331   1.109 -1.3291 -0.8601  0.0602
 1172WAT     H2 5395   6.467   3.324   1.207 -0.8741  1.3202 -0.1830
 1172WAT    EPW 5396   6.444   3.316   1.132  0.2329 -0.4043  0.6121
 1173WAT      O 5397   7.393   4.991   0.258 -0.0287  0.4052  0.1383
 1173WAT     H1 5398   7.311   4.963   0.271  0.1819  0.0281  0.7158
 1173WAT     H2 5399   7.432   4.923   0.220 -0.2653  0.9942 -1.2020
 1173WAT    EPW 5400   7.387   4.977   0.254  0.7065 -0.3314 -0.8477
 1174WAT      O 5401   7.973   4.932   0.737  0.1662 -0.2550 -0.5306
 1174WAT     H1 5402   8.054   4.940   0.705  0.6361  0.8077  0.8483
 1174WAT     H2 5403   7.980   4.867   0.795  0.6344  1.3724  1.3087
 1174WAT    EPW 5404   7.986   4.924   0.740 -0.1999  0.0549  0.0173
 1175WAT      O 5405   5.769   3.507   2.257 -0.8475  0.0473  0.1253
 1175WAT     H1 5406   5.774   3.593   2.273 -0.9345 -0.2050  1.6608
 1175WAT     H2 5407   5.766   3.503   2.170  0.8963  1.5269 -0.0819
 1175WAT    EPW 5408   5.770   3.519   2.247  0.0101 -0.0608  0.3328
 1176WAT      O 5409   7.144   5.747   1.243 -0.5851 -0.0651 -0.7151
 1176WAT     H1 5410   7.224   5.782   1.237 -0.9722  0.8559 -0.7322
 1176WAT     H2 5411   7.145   5.682   1.186  0.3506 -0.4572 -0.2654
 1176WAT    EPW 5412   7.156   5.743   1.234  0.1491  0.0155  0.0019
 1177WAT      O 5413   7.179   4.156   1.578 -0.7113  0.1077 -0.3520
 1177WAT     H1 5414   7.194   4.101   1.512 -0.8903 -1.4077  0.8232
 1177WAT     H2 5415   7.260   4.180   1.602 -0.4968 -1.1808  0.3409
 1177WAT    EPW 5416   7.193   4.151   1.572  0.0876 -0.3274  0.1363
 1178WAT      O 5417   8.032   5.147   1.532  0.6792  0.0443 -0.7564
 1178WAT     H1 5418   8.105   5.144   1.579 -0.5365 -0.2610  1.2383
 1178WAT     H2 5419   8.012   5.232   1.530 -0.6487 -0.1069  1.7180
 1178WAT    EPW 5420   8.039   5.159   1.539 -0.3646 -0.2879 -0.1604
 1179WAT      O 5421   0.813   4.900   1.107  0.9624  0.2703  0.2050
 1179WAT     H1 5422   0.771   4.913   1.032  0.6390 -2.0417 -0.0856
 1179WAT     H2 5423   0.805   4.977   1.149 -2.9030  0.2314 -0.1348
 1179WAT    EPW 5424   0.806   4.914   1.102 -0.4614 -0.1029  0.4672
 1180WAT      O 5425   6.914   5.141   3.481  0.4342 -0.6816  0.2033
 1180WAT     H1 5426   6.828   5.137   3.466  0.5691  0.5684 -1.0707
 1180WAT     H2 5427   6.946   5.077   3.431  0.1240 -2.7436  2.4314
 1180WAT    EPW 5428   6.906   5.131   3.472  0.1852 -0.3760 -0.1355
 1181WAT      O 5429   7.837   3.579   0.574 -0.2614  0.1878  0.1496
 1181WAT     H1 5430   7.767   3.531   0.594  0.0211 -0.6243 -0.7146
 1181WAT     H2 5431   7.898   3.519   0.556  0.3550  0.8797 -0.1346
 1181WAT    EPW 5432   7.836   3.563   0.574  0.3870  0.3467  0.3041
 1182WAT      O 5433   7.360   4.929   3.111  0.1297 -0.3844  0.4284
 1182WAT     H1 5434   7.360   4.848   3.079  0.9516 -0.4637  0.6224
 1182WAT     H2 5435   7.329   4.918   3.192 -0.7151 -0.3593  0.1178
 1182WAT    EPW 5436   7.355   4.915   3.118 -1.1294  0.5994 -0.6142
 1183WAT      O 5437   7.166   4.806   2.179 -0.2571 -0.0378  0.1439
 1183WAT     H1 5438   7.227   4.859   2.147 -1.2174  1.3734  0.5668
 1183WAT     H2 5439   7.180   4.807   2.265  0.1563 -1.0578  0.1042
 1183WAT    EPW 5440   7.177   4.814   2.187 -0.1054  0.4230 -0.4072
 1184WAT      O 5441   6.077   3.885   2.793 -0.4033 -0.2512  0.0994
 1184WAT     H1 5442   6.108   3.857   2.717 -0.0004  1.2949 -0.3503
 1184WAT     H2 5443   6.026   3.952   2.770  1.3749  1.6294  1.2788
 1184WAT    EPW 5444   6.074   3.891   2.779  0.1928  0.4519 -0.7045
 1185WAT      O 5445   7.475   4.618   1.835  0.6642 -0.4298  0.3543
 1185WAT     H1 5446   7.456   4.702   1.844 -0.6901 -0.7574  0.8231
 1185WAT     H2 5447   7.492   4.592   1.917 -2.0591 -1.2704  0.7557
 1185WAT    EPW 5448   7.474   4.627   1.849 -0.9342  0.6985  0.3251
 1186WAT      O 5449   7.337   5.201   4.087  0.2658  0.3496 -0.4291
 1186WAT     H1 5450   7.423   5.187   4.078  0.0959 -0.4667 -0.8411
 1186WAT     H2 5451   7.302   5.160   4.019 -0.4584  0.7308 -0.2989
 1186WAT    EPW 5452   7.345   5.193   4.075  0.2120 -0.2185  0.4701
 1187WAT      O 5453   7.361   5.250   2.196 -0.0399 -0.7979 -0.4423
 1187WAT     H1 5454   7.284   5.290   2.190 -0.2911 -1.4293 -1.6410
 1187WAT     H2 5455   7.414   5.302   2.149  0.6800  0.4915  1.6331
 1187WAT    EPW 5456   7.358   5.264   2.188  0.2400 -0.4557 -1.1865
 1188WAT      O 5457   6.218   5.424   3.697  0.3403  0.1194 -0.0739
 1188WAT     H1 5458   6.190   5.394   3.620  0.9056  0.8371 -0.5701
 1188WAT     H2 5459   6.173   5.377   3.755  0.3494 -0.8705 -0.8369
 1188WAT    EPW 5460   6.207   5.412   3.694  0.4017 -0.1032 -0.0005
 1189WAT      O 5461   7.559   5.272   2.691  0.3359  0.5135 -0.2935
 1189WAT     H1 5462   7.571   5.189   2.718  2.0873  0.8497  0.1189
 1189WAT     H2 5463   7.573   5.267   2.605 -0.4300  0.2433 -0.4075
 1189WAT    EPW 5464   7.563   5.259   2.682 -0.2117  0.7410 -0.3140
 1190WAT      O 5465   0.185   3.412   2.812 -0.2942 -0.1408  0.5281
 1190WAT     H1 5466   0.209   3.446   2.735 -2.3741  0.5014  0.0842
 1190WAT     H2 5467   0.112   3.368   2.792 -0.1301 -1.0948  1.9196
 1190WAT    EPW 5468   0.178   3.410   2.797  0.1707 -0.0077  0.0340
 1191WAT      O 5469   1.325   5.269   1.251 -0.1328  0.6833  0.1665
 1191WAT     H1 5470   1.398   5.301   1.216  0.2202  1.8806  1.8951
 1191WAT     H2 5471   1.271   5.338   1.252 -0.0790  0.7473  2.0145
 1191WAT    EPW 5472   1.328   5.284   1.246  0.5722 -0.9765 -0.5353
 1192WAT      O 5473   7.389   4.329   2.364  0.0183  0.1140  0.1524
 1192WAT     H1 5474   7.336   4.269   2.398 -0.1061 -0.1307 -0.4779
 1192WAT     H2 5475   7.335   4.382   2.321  0.1549  0.5361  0.4924
 1192WAT    EPW 5476   7.373   4.328   2.363 -0.0625  0.1435 -1.1287
 1193WAT      O 5477   7.051   5.728   2.656 -0.2929  0.7663  0.6823
 1193WAT     H1 5478   6.967   5.747   2.668 -0.6705 -0.0658 -0.4475
 1193WAT     H2 5479   7.054   5.702   2.572  0.9131 -0.0742  0.9608
 1193WAT    EPW 5480   7.039   5.727   2.645  0.7711 -0.0165 -0.1947
 1194WAT      O 5481   7.137   4.901   2.433  0.2764  0.5992 -0.4354
 1194WAT     H1 5482   7.055   4.878   2.454  0.5356  0.5915  0.6192
 1194WAT     H2 5483   7.134   4.988   2.432  0.1497  0.5938 -0.8751
 1194WAT    EPW 5484   7.124   4.911   2.436 -0.2541 -0.1761 -0.0133
 1195WAT      O 5485   6.555   4.299   1.277  0.0137 -0.0347  0.9121
 1195WAT     H1 5486   6.622   4.282   1.331  1.0554  1.5893  0.2108
 1195WAT     H2 5487   6.571   4.381   1.251 -0.5996 -0.6614 -1.6524
 1195WAT    EPW 5488   6.568   4.309   1.281 -0.4628 -0.1831  0.2017
 1196WAT      O 5489   7.647   4.941   2.228  0.5496 -0.2036  0.0609
 1196WAT     H1 5490   7.615   4.947   2.309  2.2470  1.2138  0.6885
 1196WAT     H2 5491   7.710   4.881   2.234  0.6596 -0.1196 -0.2191
 1196WAT    EPW 5492   7.651   4.933   2.241 -0.8290 -1.1024 -0.1669
 1197WAT      O 5493   0.032   2.288   2.010 -0.4187 -0.3185  0.4288
 1197WAT     H1 5494  -0.009   2.360   2.036  0.2689  0.3666 -0.3006
 1197WAT     H2 5495   0.111   2.318   1.985 -0.6384 -1.0809 -1.3170
 1197WAT    EPW 5496   0.038   2.303   2.010 -0.0282 -0.3463 -0.1985
 1198WAT      O 5497   7.394   6.727   3.812  0.2905 -0.1723 -0.0752
 1198WAT     H1 5498   7.339   6.777   3.767  1.5907  2.4641  1.0543
 1198WAT     H2 5499   7.472   6.747   3.779  1.1103  0.5702  2.1254
 1198WAT    EPW 5500   7.398   6.737   3.801  0.1567  0.3645 -0.3939
 1199WAT      O 5501   8.089   2.965   3.280 -0.3916  0.5555  0.1988
 1199WAT     H1 5502   8.058   2.902   3.227 -0.8754  0.4871  0.5529
 1199WAT     H2 5503   8.173   2.970   3.258 -0.8398  1.4290 -1.4951
 1199WAT    EPW 5504   8.097   2.956   3.269 -0.1668  0.7104 -0.2365
 1200WAT      O 5505   0.138   5.011   1.319 -0.5183 -0.3637 -0.5945
 1200WAT     H1 5506   0.168   5.083   1.281  0.0418 -0.7632 -0.9171
 1200WAT     H2 5507   0.071   5.040   1.367 -0.2914  0.3707 -0.7077
 1200WAT    EPW 5508   0.133   5.026   1.321  0.3291  0.7714  0.3565
 1201WAT      O 5509   6.697   4.549   2.940 -0.3705  0.5790  0.5220
 1201WAT     H1 5510   6.647   4.615   2.913 -2.3707 -0.8283  0.5752
 1201WAT     H2 5511   6.679   4.543   3.025 -1.4775 -1.0043  0.2144
 1201WAT    EPW 5512   6.687   4.558   2.949 -0.1214 -0.0073 -0.3009
 1202WAT      O 5513   5.759   4.943   2.250 -0.6106 -0.1891 -0.2073
 1202WAT     H1 5514   5.718   4.872   2.219 -0.6399 -0.1330 -0.2970
 1202WAT     H2 5515   5.746   4.938   2.336  0.0567 -0.7192 -0.1217
 1202WAT    EPW 5516   5.751   4.932   2.258 -0.5935 -0.7688  0.3772
 1203WAT      O 5517   0.361   4.942   2.603  1.0010 -0.4943 -0.0584
 1203WAT     H1 5518   0.391   4.876   2.556 -2.4421 -1.0996 -1.6716
 1203WAT     H2 5519   0.339   5.002   2.544 -0.2443  0.1627  1.0049
 1203WAT    EPW 5520   0.362   4.941   2.588  0.7972 -0.6681 -0.3640
 1204WAT      O 5521   7.893   3.362   1.895  0.4753 -0.8841  0.0221
 1204WAT     H1 5522   7.923   3.388   1.972 -1.1940  0.9315  0.1294
 1204WAT     H2 5523   7.851   3.288   1.913 -1.0363  0.1981  1.1695
 1204WAT    EPW 5524   7.891   3.355   1.909  0.3296  0.5916 -0.4881
 1205WAT      O 5525   7.354   2.410   2.197 -0.3582 -0.0285  0.1846
 1205WAT     H1 5526   7.305   2.482   2.204  0.1364  0.1471  2.8230
 1205WAT     H2 5527   7.331   2.363   2.268 -0.9085 -2.6759 -1.5816
 1205WAT    EPW 5528   7.343   2.413   2.209 -0.1530 -0.5149 -0.4585
 1206WAT      O 5529   6.616   4.465   3.229  0.2017  0.3691 -0.2201
 1206WAT     H1 5530   6.630   4.381   3.249  2.2594  0.8112  0.3849
 1206WAT     H2 5531   6.531   4.466   3.208 -0.5196 -1.4148  2.1051
 1206WAT    EPW 5532   6.605   4.452   3.229  0.0889  0.1857 -0.7218
 1207WAT      O 5533   6.983   4.347   1.518 -0.3172  0.0317 -0.3257
 1207WAT     H1 5534   7.053   4.298   1.536 -1.6173 -1.8962 -0.2060
 1207WAT     H2 5535   7.010   4.428   1.536  1.7509 -0.6665  0.0631
 1207WAT    EPW 5536   6.998   4.352   1.523  0.3769  0.3752 -0.0859
 1208WAT      O 5537   7.711   4.998   1.084 -0.4508 -0.4179  0.2183
 1208WAT     H1 5538   7.727   5.071   1.039 -0.7967 -0.6018 -0.2097
 1208WAT     H2 5539   7.731   5.019   1.166 -1.0273  0.3145  0.1807
 1208WAT    EPW 5540   7.716   5.012   1.090  0.8619 -0.4896 -0.5696
 1209WAT      O 5541   7.456   3.246   1.406  0.3224 -0.0932 -0.5689
 1209WAT     H1 5542   7.481   3.329   1.416  1.3917 -0.5692  1.2264
 1209WAT     H2 5543   7.526   3.200   1.431 -0.6691 -1.5275 -0.2970
 1209WAT    EPW 5544   7.470   3.251   1.411 -0.6900 -0.7315  0.8780
 1210WAT      O 5545   6.829   4.860   1.086 -0.3370  0.0131  0.0354
 1210WAT     H1 5546   6.859   4.853   1.167  2.1589 -1.8913 -0.9413
 1210WAT     H2 5547   6.828   4.947   1.072 -0.2761  0.3421  1.8606
 1210WAT    EPW 5548   6.833   4.872   1.096  0.1409 -0.1883  0.4542
 1211WAT      O 5549   6.569   4.789   2.307  0.4645  0.6361 -0.5357
 1211WAT     H1 5550   6.632   4.839   2.273  1.6902 -0.7094 -0.3210
 1211WAT     H2 5551   6.605   4.755   2.379 -1.1213  1.2025  0.5785
 1211WAT    EPW 5552   6.583   4.791   2.313  0.0927  0.3248 -0.1421
 1212WAT      O 5553   6.982   3.151   2.260  0.6022  0.1539  0.1443
 1212WAT     H1 5554   6.907   3.114   2.234  0.2482  0.9829 -0.0430
 1212WAT     H2 5555   6.994   3.215   2.202  2.2056 -0.8279 -0.6742
 1212WAT    EPW 5556   6.973   3.155   2.248  0.5549 -0.1682 -0.3406
 1213WAT      O 5557   0.049   4.616   1.966  0.9261 -0.2029  0.5970
 1213WAT     H1 5558   0.127   4.653   1.954  0.1941  1.6640  1.1889
 1213WAT     H2 5559   0.001   4.649   1.900  0.7271 -1.7027 -0.0430
 1213WAT    EPW 5560   0.053   4.627   1.954 -0.1473 -0.7137 -0.6096
 1214WAT      O 5561   7.027   2.894   1.602  0.0788 -0.2177 -0.3431
 1214WAT     H1 5562   7.054   2.893   1.519 -1.3843 -1.1154 -0.8600
 1214WAT     H2 5563   6.961   2.952   1.602 -0.0823 -0.3926  0.1294
 1214WAT    EPW 5564   7.021   2.902   1.590  0.0055  0.3975  0.0275
 1215WAT      O 5565   6.713   6.432   2.541  0.1155 -0.1751  0.9199
 1215WAT     H1 5566   6.736   6.514   2.562  1.0775 -0.2772  0.3257
 1215WAT     H2 5567   6.675   6.403   2.614 -0.9728  1.0544  0.8792
 1215WAT    EPW 5568   6.711   6.440   2.555 -0.2339  0.6782  0.3457
 1216WAT      O 5569   7.293   3.374   2.285  0.1450 -0.1890 -0.0708
 1216WAT     H1 5570   7.274   3.341   2.363  1.0610 -0.5210  0.0231
 1216WAT     H2 5571   7.216   3.379   2.245 -0.1741 -1.2380  0.3869
 1216WAT    EPW 5572   7.279   3.370   2.291 -0.5817 -0.1148  1.1432
 1217WAT      O 5573   5.518   5.050   3.455 -0.0673  0.2878  0.1782
 1217WAT     H1 5574   5.465   4.982   3.448 -1.1771  1.1640 -0.1821
 1217WAT     H2 5575   5.560   5.052   3.378 -0.7870  0.6144 -0.2106
 1217WAT    EPW 5576   5.517   5.040   3.443  0.0703  0.9748  0.0147
 1218WAT      O 5577   7.223   4.912   3.357 -0.0718  0.0821 -0.5214
 1218WAT     H1 5578   7.234   4.891   3.441 -1.2390  2.4981  0.3196
 1218WAT     H2 5579   7.247   4.995   3.353  0.6026 -0.1691 -2.7704
 1218WAT    EPW 5580   7.228   4.921   3.369  0.3287  0.0881 -0.2243
 1219WAT      O 5581   5.544   5.941   4.089  0.3366 -0.3034 -0.3432
 1219WAT     H1 5582   5.571   5.940   4.172  0.2327 -0.8833 -0.3088
 1219WAT     H2 5583   5.614   5.911   4.045 -0.1045 -1.4815 -0.2896
 1219WAT    EPW 5584   5.559   5.936   4.094  0.7048 -0.9378 -0.3888
 1220WAT      O 5585   5.962   6.878   0.758 -0.2708  0.1830 -0.0532
 1220WAT     H1 5586   5.889   6.874   0.710  0.3256  1.0653 -1.0599
 1220WAT     H2 5587   5.986   6.794   0.764 -1.2688 -0.1097  0.1748
 1220WAT    EPW 5588   5.955   6.865   0.752  0.2608 -0.4796 -0.0275
 1221WAT      O 5589   6.810   3.985   2.022 -0.0972 -0.6020 -0.1649
 1221WAT     H1 5590   6.758   3.917   2.042  2.5766 -2.9948 -0.6872
 1221WAT     H2 5591   6.877   3.976   2.077 -0.0441  2.3086  0.4175
 1221WAT    EPW 5592   6.812   3.973   2.033 -1.0325  0.7209  0.0085
 1222WAT      O 5593   6.683   6.265   3.656  0.3086 -0.4678  0.2055
 1222WAT     H1 5594   6.702   6.341   3.695 -0.2332  0.4902 -1.3282
 1222WAT     H2 5595   6.749   6.213   3.680  1.4901  0.9161  0.1056
 1222WAT    EPW 5596   6.696   6.269   3.665  0.1470  0.3817  0.3794
 1223WAT      O 5597   6.762   4.232   2.117  0.3207 -0.1907 -0.3264
 1223WAT     H1 5598   6.768   4.273   2.040  0.5448  0.0260 -0.1963
 1223WAT     H2 5599   6.737   4.151   2.095  0.0304 -0.0305 -0.5976
 1223WAT    EPW 5600   6.760   4.226   2.102 -0.0103  0.0285  0.3435
 1224WAT      O 5601   7.898   5.029   1.759  0.0175 -0.0902 -0.4131
 1224WAT     H1 5602   7.941   5.044   1.685 -0.5091 -1.3978 -1.0143
 1224WAT     H2 5603   7.814   5.028   1.735 -0.4170  2.1212  0.6917
 1224WAT    EPW 5604   7.892   5.031   1.745 -0.0556 -0.5090 -0.6506
 1225WAT      O 5605   5.730   4.978   0.888 -0.4518 -0.3127 -0.1586
 1225WAT     H1 5606   5.694   5.026   0.825 -2.3699 -0.8364  0.4846
 1225WAT     H2 5607   5.772   5.036   0.937 -1.2447  0.4710 -0.3917
 1225WAT    EPW 5608   5.731   4.993   0.886  1.3177 -0.8381  0.1068
 1226WAT      O 5609   0.407   3.758   0.720  0.2110 -0.0676 -0.3145
 1226WAT     H1 5610   0.443   3.765   0.641 -0.4507 -0.1417 -0.6280
 1226WAT     H2 5611   0.436   3.681   0.749  0.8250  0.1660 -0.2875
 1226WAT    EPW 5612   0.417   3.747   0.713  0.0992 -0.5071 -0.8663
 1227WAT      O 5613   0.166   4.866   7.677 -0.5015  0.3807  0.6055
 1227WAT     H1 5614   0.105   4.917   7.641  0.3567 -0.2074 -1.8961
 1227WAT     H2 5615   0.241   4.908   7.660  0.1442 -1.1555 -0.6790
 1227WAT    EPW 5616   0.168   4.880   7.669  0.4679  0.3610  0.0485
 1228WAT      O 5617   6.624   4.460   2.486 -0.0557  0.2784 -0.0432
 1228WAT     H1 5618   6.700   4.500   2.500 -0.5135  0.9417  0.5608
 1228WAT     H2 5619   6.565   4.514   2.520 -0.7488 -0.5689  0.1395
 1228WAT    EPW 5620   6.627   4.474   2.493  0.0457 -0.1680 -0.1344
 1229WAT      O 5621   6.413   5.663   1.079 -0.2351  0.0042  0.0350
 1229WAT     H1 5622   6.388   5.744   1.100 -1.6286 -0.3951 -0.0538
 1229WAT     H2 5623   6.500   5.666   1.088 -0.2825  1.4611  0.1912
 1229WAT    EPW 5624   6.422   5.675   1.083  0.0300  0.1073  0.5573
 1230WAT      O 5625   6.685   4.355   0.144  0.3978 -0.4093  0.1546
 1230WAT     H1 5626   6.693   4.442   0.150 -0.8561 -0.3610  1.9186
 1230WAT     H2 5627   6.669   4.342   0.059  1.5941  0.9539 -0.3371
 1230WAT    EPW 5628   6.684   4.366   0.132 -0.2350 -0.1783 -0.2231
 1231WAT      O 5629   7.922   2.423   2.759  0.2336 -0.0361  0.0115
 1231WAT     H1 5630   7.936   2.373   2.829  2.1761 -0.2182 -0.4487
 1231WAT     H2 5631   7.874   2.489   2.790  0.0068 -0.7559  1.2334
 1231WAT    EPW 5632   7.917   2.426   2.774  0.7553 -0.6166  0.4549
 1232WAT      O 5633   7.427   4.051   1.975  0.1946 -0.2646  0.0911
 1232WAT     H1 5634   7.479   4.093   2.032 -2.5408  1.1355  1.7634
 1232WAT     H2 5635   7.425   4.105   1.907  0.1612  0.1599  0.4216
 1232WAT    EPW 5636   7.435   4.066   1.974 -0.0687 -0.5092 -0.0085
 1233WAT      O 5637   6.441   2.617   1.747  0.4562  0.1352  0.0238
 1233WAT     H1 5638   6.370   2.641   1.791 -0.3907 -1.6209 -0.3193
 1233WAT     H2 5639   6.412   2.606   1.665  1.4635  0.8637 -0.4589
 1233WAT    EPW 5640   6.426   2.619   1.741  0.4491 -0.4275 -1.2349
 1234WAT      O 5641   7.810   4.265   8.030  0.2416  0.2757  0.5565
 1234WAT     H1 5642   7.760   4.211   7.983 -0.6590  0.9966  0.6384
 1234WAT     H2 5643   7.761   4.338   8.036  0.3994  0.2894  2.4048
 1234WAT    EPW 5644   7.795   4.268   8.024 -0.7963 -1.2302  0.1887
 1235WAT      O 5645   6.894   3.813   0.553  0.3107 -0.2801  0.4457
 1235WAT     H1 5646   6.900   3.891   0.514 -0.5009 -0.4063  0.0509
 1235WAT     H2 5647   6.811   3.790   0.541  0.4147 -0.9880  0.9886
 1235WAT    EPW 5648   6.883   3.821   0.546  1.1198  0.1482 -0.4564
 1236WAT      O 5649   7.395   5.241   1.349  0.3270 -0.0863 -0.5969
 1236WAT     H1 5650   7.397   5.154   1.343  0.3671 -0.1329 -0.0145
 1236WAT     H2 5651   7.329   5.256   1.405  3.1594 -0.0092  3.0725
 1236WAT    EPW 5652   7.385   5.230   1.357 -0.4874 -0.1348  0.2041
 1237WAT      O 5653   6.957   4.314   0.513  0.2497 -0.0981 -0.8390
 1237WAT     H1 5654   6.989   4.297   0.593 -0.2837  1.1567 -0.3397
 1237WAT     H2 5655   7.028   4.336   0.467  0.2900  1.5072 -0.0584
 1237WAT    EPW 5656   6.972   4.315   0.518  0.0473 -0.3514  0.0575
 1238WAT      O 5657   7.799   4.429   0.442 -0.0456 -0.0976 -0.4037
 1238WAT     H1 5658   7.782   4.386   0.369 -1.8195  1.9993 -1.3470
 1238WAT     H2 5659   7.829   4.506   0.414 -0.6022  0.6939  1.0801
 1238WAT    EPW 5660   7.801   4.434   0.427  0.7536 -0.1388 -0.1447
 1239WAT      O 5661   7.593   3.317   7.512 -0.5190 -0.0013 -0.6120
 1239WAT     H1 5662   7.655   3.359   7.557 -1.4657  2.3956 -1.3756
 1239WAT     H2 5663   7.579   3.244   7.559  0.0486  1.3317  1.8026
 1239WAT    EPW 5664   7.600   3.312   7.526  1.1248  0.6015  0.5541
 1240WAT      O 5665   6.892   5.373   1.409  0.4648 -0.3064 -0.2297
 1240WAT     H1 5666   6.889   5.436   1.470  0.0335 -0.5103 -0.0324
 1240WAT     H2 5667   6.886   5.417   1.334 -1.1735 -0.1707 -0.0651
 1240WAT    EPW 5668   6.891   5.389   1.407 -0.3273  0.2408 -0.5626
 1241WAT      O 5669   7.193   2.522   1.505 -0.2647  0.0680  0.4506
 1241WAT     H1 5670   7.235   2.521   1.581 -1.4061  2.1032  1.1549
 1241WAT     H2 5671   7.252   2.556   1.450 -0.1151  0.4947  0.8679
 1241WAT    EPW 5672   7.208   2.527   1.508 -0.5175 -0.7498  0.1634
 1242WAT      O 5673   7.658   4.533   2.106 -0.1478 -0.4598  0.1084
 1242WAT     H1 5674   7.727   4.502   2.062  2.0892  1.1432  2.2307
 1242WAT     H2 5675   7.657   4.487   2.179  0.1372  1.0263  1.0960
 1242WAT    EPW 5676   7.668   4.522   2.110 -0.3126  0.0666 -0.0908
 1243WAT      O 5677   0.112   3.190   0.373 -0.0210  0.2213  0.0353
 1243WAT     H1 5678   0.137   3.272   0.355 -0.4439  0.4854  0.6098
 1243WAT     H2 5679   0.135   3.180   0.457 -0.9154  0.1178  0.2714
 1243WAT    EPW 5680   0.119   3.201   0.383  0.5481  0.1086 -0.7112
 1244WAT      O 5681   7.386   3.384   2.026  0.4351  0.3662 -0.0995
 1244WAT     H1 5682   7.460   3.429   2.014 -1.3699  3.2836 -1.3526
 1244WAT     H2 5683   7.379   3.380   2.113  2.8119 -1.5644  0.1299
 1244WAT    EPW 5684   7.396   3.390   2.037  0.6549 -0.7205 -0.2712
 1245WAT      O 5685   6.947   4.257   0.142 -0.3446 -0.7915 -0.3454
 1245WAT     H1 5686   6.924   4.175   0.123 -1.3361  0.1002 -3.6111
 1245WAT     H2 5687   6.871   4.295   0.163  0.1413 -0.6658  1.3769
 1245WAT    EPW 5688   6.933   4.251   0.142 -0.0883 -0.5388 -0.0332
 1246WAT      O 5689   7.130   4.826   1.258 -0.5516 -0.2041  0.1496
 1246WAT     H1 5690   7.118   4.771   1.192  0.9793 -0.1491 -0.2175
 1246WAT     H2 5691   7.148   4.902   1.219 -0.1247 -0.0546  0.6168
 1246WAT    EPW 5692   7.131   4.829   1.242 -0.2347  0.2994 -0.4703
 1247WAT      O 5693   6.479   4.919   1.966  0.0122 -0.7812 -0.4574
 1247WAT     H1 5694   6.406   4.963   1.948  0.0992 -0.0775  0.7692
 1247WAT     H2 5695   6.463   4.886   2.046  0.3873 -2.0652 -0.8796
 1247WAT    EPW 5696   6.465   4.920   1.975  0.2653  1.2341 -0.6906
 1248WAT      O 5697   6.841   5.284   2.366 -0.0302  0.6398 -0.4791
 1248WAT     H1 5698   6.761   5.249   2.368  0.1641  0.1616 -0.8924
 1248WAT     H2 5699   6.827   5.367   2.343 -0.3535  0.3723 -1.2726
 1248WAT    EPW 5700   6.827   5.291   2.363 -0.2477 -0.4270  0.2332
 1249WAT      O 5701   6.958   2.790   0.461 -0.2119  0.1655  0.1118
 1249WAT     H1 5702   6.989   2.710   0.477 -0.2199  0.6646  3.1746
 1249WAT     H2 5703   7.016   2.843   0.499 -0.7110  1.6140 -1.0263
 1249WAT    EPW 5704   6.971   2.786   0.469 -0.2286  0.1116  0.0839
 1250WAT      O 5705   7.004   3.927   1.055 -0.4084  0.2020 -0.5778
 1250WAT     H1 5706   6.935   3.900   1.010 -0.1756 -1.5059  0.0268
 1250WAT     H2 5707   6.979   4.005   1.086 -1.6954  0.0316 -1.1417
 1250WAT    EPW 5708   6.990   3.935   1.053  0.5040 -0.1924 -0.5039
 1251WAT      O 5709   6.438   3.603   7.314 -0.1526 -0.3017  0.3669
 1251WAT     H1 5710   6.481   3.625   7.241 -0.8605  0.1881  0.0867
 1251WAT     H2 5711   6.383   3.541   7.287  0.5006 -1.0618  0.7628
 1251WAT    EPW 5712   6.436   3.597   7.299 -0.8429  0.1541 -0.4590
 1252WAT      O 5713   6.686   3.679   0.346 -0.1488 -0.1409 -0.1424
 1252WAT     H1 5714   6.762   3.684   0.303 -0.1254  1.2686 -0.0113
 1252WAT     H2 5715   6.672   3.594   0.355  0.9090 -0.4303 -1.0721
 1252WAT    EPW 5716   6.695   3.667   0.341  0.0451 -0.0992 -0.6956
 1253WAT      O 5717   6.521   2.923   0.861 -0.0495 -0.0956  0.3573
 1253WAT     H1 5718   6.498   2.939   0.779 -0.7327  1.3996  0.8014
 1253WAT     H2 5719   6.608   2.925   0.859 -0.0633  0.0562 -0.2994
 1253WAT    EPW 5720   6.530   2.926   0.849 -0.3704  0.1500  0.0144
 1254WAT      O 5721   7.304   3.386   0.255  0.0355  0.8387 -0.2417
 1254WAT     H1 5722   7.334   3.309   0.282 -1.2664  0.3042 -0.2275
 1254WAT     H2 5723   7.376   3.435   0.249  0.8749 -0.3210 -0.0952
 1254WAT    EPW 5724   7.319   3.382   0.258  0.5169 -0.4844  0.5658
 1255WAT      O 5725   7.296   4.183   0.759 -0.0665  0.4209 -0.3809
 1255WAT     H1 5726   7.214   4.210   0.769  0.7162  2.6123  1.1913
 1255WAT     H2 5727   7.328   4.184   0.841  1.6549  0.2188 -0.9972
 1255WAT    EPW 5728   7.289   4.187   0.773  0.4148  0.9706  0.1569
 1256WAT      O 5729   7.914   2.492   1.196 -0.0271  0.3635 -0.1283
 1256WAT     H1 5730   7.938   2.431   1.139 -1.2974 -0.1052 -0.1945
 1256WAT     H2 5731   7.977   2.553   1.189  0.2623 -0.0589 -1.4331
 1256WAT    EPW 5732   7.927   2.492   1.186  0.4137  0.1150 -0.3095
 1257WAT      O 5733   7.715   1.820   0.131 -0.7962  0.2633 -0.2074
 1257WAT     H1 5734   7.768   1.825   0.200 -0.7225  0.2611 -0.2644
 1257WAT     H2 5735   7.761   1.856   0.067 -1.0928  0.8340 -0.1193
 1257WAT    EPW 5736   7.729   1.826   0.132  0.0409 -0.4755 -0.0122
 1258WAT      O 5737   0.550   5.633   0.858  0.3250  0.4895  0.0035
 1258WAT     H1 5738   0.591   5.622   0.781 -3.0208 -1.8208 -1.7109
 1258WAT     H2 5739   0.502   5.705   0.845 -0.4964 -0.0881 -0.2916
 1258WAT    EPW 5740   0.549   5.642   0.844 -0.2740  0.1407 -0.3259
 1259WAT      O 5741   7.783   3.468   1.164 -0.5877 -0.6235 -0.4133
 1259WAT     H1 5742   7.712   3.508   1.133 -0.6157 -0.7583 -0.5282
 1259WAT     H2 5743   7.838   3.470   1.096 -0.7901 -1.2673 -0.6031
 1259WAT    EPW 5744   7.781   3.474   1.149  0.7347  0.3593 -0.0886
 1260WAT      O 5745   0.030   6.200   7.985  0.3242  0.0152 -0.0099
 1260WAT     H1 5746   0.115   6.187   8.001  0.2735  0.4195  0.6003
 1260WAT     H2 5747   0.009   6.269   8.033 -0.0655  0.7081 -1.1265
 1260WAT    EPW 5748   0.039   6.208   7.994 -0.2413  0.7253  1.5281
 1261WAT      O 5749   7.551   2.281   0.742  0.2842 -0.2129 -0.1650
 1261WAT     H1 5750   7.573   2.363   0.759 -1.6448  0.0743  1.1855
 1261WAT     H2 5751   7.627   2.245   0.717  0.9514  2.2411 -2.1144
 1261WAT    EPW 5752   7.566   2.288   0.741  0.3927  0.5347 -0.2066
 1262WAT      O 5753   7.118   4.937   0.256  0.3917  0.1315  0.0963
 1262WAT     H1 5754   7.070   5.009   0.243  1.1480  0.7466  0.6206
 1262WAT     H2 5755   7.065   4.872   0.233  0.1171  0.9156 -1.6244
 1262WAT    EPW 5756   7.103   4.938   0.251 -0.3299 -0.3837 -0.1235
 1263WAT      O 5757   7.517   4.395   0.892 -0.3824  0.5420 -0.3386
 1263WAT     H1 5758   7.543   4.312   0.902  2.7536  1.3531 -0.8075
 1263WAT     H2 5759   7.526   4.429   0.971 -2.7271  0.2792  0.1205
 1263WAT    EPW 5760   7.522   4.388   0.905 -0.3025 -0.4960 -0.1823
 1264WAT      O 5761   0.640   3.510   7.650  0.2079  0.2293  0.2494
 1264WAT     H1 5762   0.622   3.588   7.614  0.0344  0.1998  0.2728
 1264WAT     H2 5763   0.714   3.525   7.695  0.9903  0.0284 -0.9050
 1264WAT    EPW 5764   0.649   3.524   7.651  0.1269 -0.3232  0.4746
 1265WAT      O 5765   6.566   3.340   7.908  0.2279  0.6944  0.2092
 1265WAT     H1 5766   6.630   3.342   7.849  2.3476  1.3996  2.3897
 1265WAT     H2 5767   6.556   3.424   7.931 -0.9466  0.5057  0.4686
 1265WAT    EPW 5768   6.574   3.353   7.903 -0.6753 -0.0382  0.4908
 1266WAT      O 5769   6.325   3.210   7.795 -0.5504 -0.0907  0.5681
 1266WAT     H1 5770   6.399   3.231   7.836  0.2034 -0.7817 -0.3722
 1266WAT     H2 5771   6.318   3.124   7.809 -1.1173 -0.0471  0.5644
 1266WAT    EPW 5772   6.335   3.200   7.803  0.3483 -0.0207 -0.9775
 1267WAT      O 5773   6.640   3.227   0.819  0.1262 -0.3579 -0.0702
 1267WAT     H1 5774   6.724   3.216   0.801  0.0558  0.5575 -1.0817
 1267WAT     H2 5775   6.640   3.269   0.896  0.6293  0.5138 -0.5357
 1267WAT    EPW 5776   6.652   3.232   0.828  0.0761  0.1062 -0.3342
 1268WAT      O 5777   0.041   2.770   1.233 -0.2146  0.2898 -0.0091
 1268WAT     H1 5778  -0.017   2.817   1.188  0.3085  0.0275 -0.9749
 1268WAT     H2 5779   0.095   2.740   1.172  0.1454 -0.6011  0.7274
 1268WAT    EPW 5780   0.040   2.772   1.218 -0.3218  0.2833 -0.0133
 1269WAT      O 5781   6.893   3.710   0.166 -0.1710  0.6526 -0.0151
 1269WAT     H1 5782   6.878   3.712   0.080 -1.4052  2.1776  0.1773
 1269WAT     H2 5783   6.949   3.644   0.176  1.4910  1.6235 -2.2090
 1269WAT    EPW 5784   6.899   3.700   0.155 -0.5224 -0.2728  0.5810
 1270WAT      O 5785   5.905   3.229   1.602 -0.2761 -0.4215  0.1192
 1270WAT     H1 5786   5.896   3.312   1.627 -2.3657 -0.5170 -0.1079
 1270WAT     H2 5787   5.970   3.231   1.544 -0.6328  1.1386 -0.2613
 1270WAT    EPW 5788   5.913   3.241   1.597 -0.9650  0.2648 -0.2869
 1271WAT      O 5789   7.594   2.742   0.046 -0.0415 -0.2573  0.9232
 1271WAT     H1 5790   7.598   2.676   0.102 -1.7134 -1.7061 -0.5292
 1271WAT     H2 5791   7.575   2.811   0.096  0.2555 -1.1533  2.3044
 1271WAT    EPW 5792   7.592   2.742   0.062  0.4574  0.4893 -0.7388
 1272WAT      O 5793   7.755   4.076   2.223 -0.5675 -0.4639  0.1610
 1272WAT     H1 5794   7.711   4.151   2.225  0.7029  0.3268 -0.8323
 1272WAT     H2 5795   7.728   4.035   2.296 -0.2809  1.5199  1.4420
 1272WAT    EPW 5796   7.744   4.081   2.234  1.1567  0.6580 -0.2217
 1273WAT      O 5797   7.291   4.452   1.962 -0.2175  0.1538 -0.0077
 1273WAT     H1 5798   7.318   4.512   1.904  0.9193  0.0832  0.4144
 1273WAT     H2 5799   7.361   4.401   1.972  0.1187  0.9537  2.4331
 1273WAT    EPW 5800   7.306   4.454   1.955 -0.0943  0.5463  0.1332
 1274WAT      O 5801   6.827   3.294   1.474 -0.6232 -0.4313 -0.0047
 1274WAT     H1 5802   6.762   3.351   1.460  1.0013  1.1452 -1.6038
 1274WAT     H2 5803   6.839   3.256   1.396 -1.9222 -3.4139  1.0836
 1274WAT    EPW 5804   6.819   3.296   1.460 -0.0375 -0.0698  0.5933
 1275WAT      O 5805   7.452   4.612   0.727  0.5109 -0.2727 -0.5677
 1275WAT     H1 5806   7.433   4.676   0.783  0.9668  1.8111 -2.6431
 1275WAT     H2 5807   7.482   4.548   0.778  2.3909  2.0330  1.4738
 1275WAT    EPW 5808   7.453   4.612   0.742 -0.1828 -0.0303 -0.8545
 1276WAT      O 5809   7.018   4.238   0.777  0.4853  0.2752 -0.5280
 1276WAT     H1 5810   6.987   4.173   0.825  0.9034 -0.9886 -1.8785
 1276WAT     H2 5811   6.998   4.309   0.822 -1.0929 -0.7070  0.3993
 1276WAT    EPW 5812   7.011   4.239   0.790  1.1831 -0.3630 -0.1088
 1277WAT      O 5813   7.363   3.997   7.602  0.5150 -0.8358  0.1114
 1277WAT     H1 5814   7.418   4.062   7.584  1.4966 -1.2077  1.5962
 1277WAT     H2 5815   7.394   3.930   7.555  0.6564 -0.7421  0.0709
 1277WAT    EPW 5816   7.376   3.997   7.592 -0.1952  0.5780 -0.4146
 1278WAT      O 5817   6.849   4.005   0.141 -0.4935 -0.0173  0.7567
 1278WAT     H1 5818   6.886   3.926   0.136 -1.8055 -0.6090 -0.9889
 1278WAT     H2 5819   6.775   3.990   0.184 -0.9050  0.1563  0.1339
 1278WAT    EPW 5820   6.844   3.991   0.146  0.7648  0.0007  0.6026
 1279WAT      O 5821   6.482   5.022   0.663  0.1741  0.2383 -0.7199
 1279WAT     H1 5822   6.495   5.021   0.576  0.3224 -4.0054 -0.8626
 1279WAT     H2 5823   6.403   4.986   0.672  1.0408 -1.4398  0.8709
 1279WAT    EPW 5824   6.472   5.016   0.651  0.2767  0.2265 -0.1871
 1280WAT      O 5825   6.239   2.714   6.987 -0.5534  0.2579  0.4888
 1280WAT     H1 5826   6.223   2.798   7.002 -1.8793 -0.0143  0.7769
 1280WAT     H2 5827   6.164   2.684   6.954  0.0702 -0.6995 -0.1164
 1280WAT    EPW 5828   6.226   2.722   6.985 -0.3344  0.1160  0.3418
 1281WAT      O 5829   5.936   1.215   0.723  0.3844  0.3203  0.3784
 1281WAT     H1 5830   5.939   1.216   0.810 -0.9882 -0.7223  0.4668
 1281WAT     H2 5831   5.978   1.289   0.700 -0.1638  1.1596  1.9347
 1281WAT    EPW 5832   5.943   1.226   0.732 -0.5401  0.7892 -0.0285
 1282WAT      O 5833   6.050   3.367   6.792 -0.0953 -0.0694 -0.0508
 1282WAT     H1 5834   5.979   3.418   6.794  0.7724  1.1430  1.4466
 1282WAT     H2 5835   6.099   3.404   6.730 -0.2405 -0.1777 -0.2321
 1282WAT    EPW 5836   6.047   3.380   6.783 -0.9757  0.1858 -0.6913
 1283WAT      O 5837   7.135   2.563   0.174 -0.0540 -0.3757 -0.3652
 1283WAT     H1 5838   7.118   2.481   0.153  0.0712  0.0767 -2.5296
 1283WAT     H2 5839   7.160   2.559   0.258 -0.3571 -2.4610 -0.3317
 1283WAT    EPW 5840   7.136   2.551   0.183  0.0200 -0.6999  0.1935
 1284WAT      O 5841   4.729   3.223   6.212 -0.0610  0.2658  0.1858
 1284WAT     H1 5842   4.791   3.265   6.256 -1.0955  2.2709 -0.1340
 1284WAT     H2 5843   4.658   3.273   6.223 -0.6037  0.4526 -2.9695
 1284WAT    EPW 5844   4.728   3.237   6.220  0.4089 -0.1259 -0.4257
 1285WAT      O 5845   6.702   2.350   0.256  0.3983 -0.1339 -0.2419
 1285WAT     H1 5846   6.677   2.433   0.266 -0.3820 -0.5089  1.2543
 1285WAT     H2 5847   6.765   2.355   0.195  2.0108  1.8584  1.4316
 1285WAT    EPW 5848   6.708   2.363   0.248 -0.4141  0.4031  0.8078
 1286WAT      O 5849   7.373   1.795   7.947 -0.0670  0.3695  0.6990
 1286WAT     H1 5850   7.320   1.862   7.962  0.8416  1.5439 -0.9567
 1286WAT     H2 5851   7.319   1.730   7.926 -0.9445  0.7552  1.6959
 1286WAT    EPW 5852   7.357   1.795   7.946  0.1730 -0.0708 -0.7206
 1287WAT      O 5853   5.258   2.882   0.911 -0.6084  0.7023 -0.0834
 1287WAT     H1 5854   5.183   2.925   0.918 -1.2714  0.2970 -3.0729
 1287WAT     H2 5855   5.238   2.802   0.939 -1.1719  0.7433 -0.3476
 1287WAT    EPW 5856   5.244   2.876   0.916  0.4352  0.0304  0.2829
 1288WAT      O 5857   0.006   2.555   0.536 -0.2340  0.1028 -0.3017
 1288WAT     H1 5858   0.009   2.493   0.475  1.3370  0.2219 -0.3838
 1288WAT     H2 5859   0.005   2.629   0.490  1.5309  0.2120 -0.2368
 1288WAT    EPW 5860   0.007   2.557   0.520  0.0288  1.0522  0.6867
 1289WAT      O 5861   6.732   4.407   0.920 -0.5341 -0.2229 -0.3858
 1289WAT     H1 5862   6.683   4.479   0.915 -0.3596 -0.1251 -0.7204
 1289WAT     H2 5863   6.813   4.439   0.931 -0.3206 -0.3406 -1.5488
 1289WAT    EPW 5864   6.737   4.422   0.921  0.4314 -0.6836  0.4783
 1290WAT      O 5865   7.873   2.494   8.007 -0.4653  0.2162 -0.1625
 1290WAT     H1 5866   7.825   2.421   8.013 -0.0681  0.0486  1.3600
 1290WAT     H2 5867   7.946   2.467   7.967  0.1487 -0.5167  1.3677
 1290WAT    EPW 5868   7.877   2.479   8.002 -0.7926 -0.6778 -0.8593
 1291WAT      O 5869   7.292   2.343   1.162 -0.2069 -0.4438  0.3693
 1291WAT     H1 5870   7.264   2.345   1.079  0.3532 -0.5659  0.1716
 1291WAT     H2 5871   7.336   2.268   1.167 -0.1346 -0.3790  0.7465
 1291WAT    EPW 5872   7.295   2.332   1.150  0.2630 -0.3252  0.8285
 1292WAT      O 5873   7.086   3.076   7.739 -0.2513 -0.2532 -0.1417
 1292WAT     H1 5874   7.154   3.130   7.740 -0.1654 -0.2811  2.8052
 1292WAT     H2 5875   7.121   2.998   7.759 -0.9219 -0.6082 -0.3122
 1292WAT    EPW 5876   7.101   3.072   7.742 -0.5210 -0.6722 -0.2781
 1293WAT      O 5877   6.537   4.847   7.666 -0.3461  0.4263 -0.3161
 1293WAT     H1 5878   6.480   4.785   7.688  1.1780 -1.8851 -2.3576
 1293WAT     H2 5879   6.599   4.840   7.727  1.3135 -2.3672 -2.0807
 1293WAT    EPW 5880   6.538   4.837   7.678 -0.8128  0.1507 -0.3697
 1294WAT      O 5881   6.962   3.468   7.355 -0.2695 -0.0919  0.5146
 1294WAT     H1 5882   6.945   3.386   7.377 -0.5288 -0.3028 -0.4081
 1294WAT     H2 5883   6.926   3.515   7.419 -0.0912 -0.6988  1.0599
 1294WAT    EPW 5884   6.954   3.463   7.368  0.1973 -0.2696  0.2611
 1295WAT      O 5885   5.379   2.719   0.216  0.4261  0.3855 -0.1332
 1295WAT     H1 5886   5.337   2.795   0.229 -2.5052 -0.8353 -1.5838
 1295WAT     H2 5887   5.442   2.740   0.159  1.4357  2.1507  1.4961
 1295WAT    EPW 5888   5.382   2.733   0.209  0.4240 -0.1179 -0.3349
 1296WAT      O 5889   0.208   2.811   0.457  0.1439 -0.8244  0.3090
 1296WAT     H1 5890   0.235   2.804   0.374  1.1993  2.5138  0.2279
 1296WAT     H2 5891   0.122   2.826   0.450  0.0333 -1.6184 -0.0930
 1296WAT    EPW 5892   0.199   2.812   0.444 -0.6496  0.1401 -0.7396
 1297WAT      O 5893   0.343   2.312   3.150  0.0344 -0.1424 -0.1578
 1297WAT     H1 5894   0.401   2.374   3.134  0.2850 -0.9721 -2.8970
 1297WAT     H2 5895   0.295   2.309   3.078 -0.1012 -2.9428 -0.0569
 1297WAT    EPW 5896   0.345   2.320   3.137 -0.3225 -0.1815 -0.0702
 1298WAT      O 5897   6.474   4.678   6.723  0.1708  0.1961 -0.0395
 1298WAT     H1 5898   6.449   4.708   6.800  0.8450 -1.2439  0.7857
 1298WAT     H2 5899   6.555   4.709   6.714  0.3775 -0.2559  0.2065
 1298WAT    EPW 5900   6.482   4.687   6.733  0.1573  0.2115 -0.9218
 1299WAT      O 5901   6.044   3.713   0.568  0.0566  0.1854 -0.1793
 1299WAT     H1 5902   5.973   3.700   0.617  0.5729 -1.2617  0.2497
 1299WAT     H2 5903   6.045   3.643   0.516 -0.4664  1.6744 -2.3016
 1299WAT    EPW 5904   6.033   3.701   0.568 -0.7844  0.5519 -0.3645
 1300WAT      O 5905   6.544   1.994   0.871 -0.2761 -0.5797 -0.7888
 1300WAT     H1 5906   6.560   2.017   0.788  1.5839  1.3527  0.0190
 1300WAT     H2 5907   6.621   2.003   0.910 -0.7564 -2.8139  0.9310
 1300WAT    EPW 5908   6.558   1.999   0.864 -0.2200 -0.0370  0.0085
 1301WAT      O 5909   6.755   1.656   7.887  0.3035 -0.0618  0.1363
 1301WAT     H1 5910   6.681   1.634   7.928  0.6766  0.3812  1.0849
 1301WAT     H2 5911   6.733   1.654   7.803 -0.5146 -0.9249  0.3557
 1301WAT    EPW 5912   6.741   1.653   7.881  0.4762 -0.4674  0.2575
 1302WAT      O 5913   5.520   2.065   0.161 -0.6431  0.2153  0.5312
 1302WAT     H1 5914   5.546   2.129   0.108 -1.5015  0.1023 -0.0530
 1302WAT     H2 5915   5.595   2.037   0.198 -0.1928  1.1390  0.3393
 1302WAT    EPW 5916   5.535   2.070   0.158  0.9987  0.2119 -0.4025
 1303WAT      O 5917   4.081   3.702   0.318  0.3013 -0.4258 -0.2946
 1303WAT     H1 5918   4.135   3.697   0.250  0.4413  1.9479 -0.4411
 1303WAT     H2 5919   4.011   3.742   0.285 -1.2894 -2.7047  0.0885
 1303WAT    EPW 5920   4.079   3.707   0.303 -0.0292 -1.3084  0.5744
 1304WAT      O 5921   7.059   1.975   1.475 -0.2966 -0.4834  0.4367
 1304WAT     H1 5922   7.125   2.001   1.526 -0.2765 -0.2269  0.2788
 1304WAT     H2 5923   7.041   2.045   1.427 -1.8146  0.0187  1.6558
 1304WAT    EPW 5924   7.066   1.989   1.476  0.0242  0.1822 -0.4552
 1305WAT      O 5925   6.597   3.914   0.212 -0.4810  0.0027  0.7554
 1305WAT     H1 5926   6.614   3.856   0.275 -0.6103 -0.7278  0.1311
 1305WAT     H2 5927   6.541   3.872   0.160  0.0017  0.4093 -0.1143
 1305WAT    EPW 5928   6.591   3.900   0.213  0.7969  0.4851  0.1247
 1306WAT      O 5929   7.738   0.726   0.891  0.1634  0.1371 -0.4562
 1306WAT     H1 5930   7.779   0.798   0.917  1.5802 -1.1024  0.9703
 1306WAT     H2 5931   7.797   0.663   0.904 -0.6599 -1.1951 -2.5505
 1306WAT    EPW 5932   7.753   0.727   0.897  0.6418  1.2697 -0.1780
 1307WAT      O 5933   0.439   2.352   0.886  0.0868 -0.5504  0.3551
 1307WAT     H1 5934   0.355   2.371   0.879  0.1381  1.0665  2.7477
 1307WAT     H2 5935   0.478   2.408   0.832 -0.3654 -2.7138 -2.4080
 1307WAT    EPW 5936   0.433   2.363   0.877  1.0910 -0.1641  0.3634
 1308WAT      O 5937   7.351   2.589   0.003 -0.2651  0.1137 -0.1177
 1308WAT     H1 5938   7.308   2.570   0.076 -0.5605 -0.7862 -0.5020
 1308WAT     H2 5939   7.434   2.594   0.029 -0.0568 -2.3823 -0.0230
 1308WAT    EPW 5940   7.357   2.587   0.017  0.0166  0.5705  0.6942
 1309WAT      O 5941   5.910   2.548   7.750  0.0345 -0.2791 -0.0755
 1309WAT     H1 5942   5.884   2.490   7.690  1.8269  0.4347 -1.6327
 1309WAT     H2 5943   5.996   2.539   7.753  0.1758  0.9521  1.1146
 1309WAT    EPW 5944   5.919   2.538   7.742  0.1091  0.4083 -0.0552
 1310WAT      O 5945   6.080   3.347   0.743 -0.6058  0.3297  0.2857
 1310WAT     H1 5946   6.081   3.315   0.824  0.4511  0.8737  0.4924
 1310WAT     H2 5947   6.130   3.418   0.747  0.4972 -0.3118 -1.1097
 1310WAT    EPW 5948   6.087   3.353   0.755 -0.1991  0.0144  0.4175
 1311WAT      O 5949   0.397   2.463   7.969  0.1754 -0.4035  0.1469
 1311WAT     H1 5950   0.446   2.407   8.013 -0.4369 -0.8213  0.3186
 1311WAT     H2 5951   0.450   2.530   7.952  1.0199 -1.1929 -0.3782
 1311WAT    EPW 5952   0.412   2.465   7.973  0.4585 -1.0026 -1.3535
 1312WAT      O 5953   6.425   1.864   7.832  0.7077  0.2708 -0.1382
 1312WAT     H1 5954   6.446   1.896   7.910  0.3576  0.9237 -0.3068
 1312WAT     H2 5955   6.372   1.924   7.798 -0.0579 -0.5375 -0.4195
 1312WAT    EPW 5956   6.420   1.877   7.838 -0.8291 -0.5599 -0.3369
 1313WAT      O 5957   7.508   2.121   0.964  0.3777 -0.0350  0.0802
 1313WAT     H1 5958   7.498   2.043   0.926 -1.0477 -0.1664  0.6622
 1313WAT     H2 5959   7.527   2.174   0.897 -0.2107 -0.5945 -0.5452
 1313WAT    EPW 5960   7.510   2.117   0.949 -0.4047  0.7575 -0.5088
 1314WAT      O 5961   5.806   1.564   0.799  0.3468  0.5334  0.0946
 1314WAT     H1 5962   5.759   1.531   0.733  0.7908  1.2105 -0.5863
 1314WAT     H2 5963   5.767   1.533   0.870 -0.8936  0.7743 -0.4497
 1314WAT    EPW 5964   5.794   1.554   0.800  0.1805 -0.0426 -0.9015
 1315WAT      O 5965   7.486   1.769   1.479  0.0938 -0.0237 -0.1883
 1315WAT     H1 5966   7.523   1.691   1.463 -0.9793 -0.6557  0.2537
 1315WAT     H2 5967   7.552   1.817   1.511  1.0050 -0.4266 -1.3782
 1315WAT    EPW 5968   7.501   1.764   1.482  0.5337 -0.1525 -0.2193
 1316WAT      O 5969   6.548   1.577   0.021  0.1442  0.4537  0.3654
 1316WAT     H1 5970   6.590   1.506   0.049  0.0868  1.0657  2.1578
 1316WAT     H2 5971   6.581   1.641   0.070 -0.2568  1.5698 -0.7679
 1316WAT    EPW 5972   6.559   1.576   0.033 -0.4843  0.1600  0.9813
 1317WAT      O 5973   6.002   1.990   6.465 -0.0514 -0.1058 -0.2733
 1317WAT     H1 5974   6.037   2.051   6.413  0.1306 -0.4679 -0.5841
 1317WAT     H2 5975   5.952   2.035   6.520  0.7529  0.3937  0.0500
 1317WAT    EPW 5976   6.000   2.005   6.465 -0.5708  0.3409  0.0743
 1318WAT      O 5977   7.717   2.465   0.409 -0.0647  0.2598 -0.2079
 1318WAT     H1 5978   7.779   2.497   0.356 -1.4127  0.7110 -1.5849
 1318WAT     H2 5979   7.735   2.380   0.413  1.5030  0.5874  0.6559
 1318WAT    EPW 5980   7.729   2.457   0.402  0.1696  0.1324 -0.3873
 1319WAT      O 5981   6.687   2.369   0.535  0.0858  0.5050  0.2949
 1319WAT     H1 5982   6.606   2.403   0.529 -0.2854 -0.2370  1.0382
 1319WAT     H2 5983   6.703   2.341   0.454 -0.6668  0.0673  0.2914
 1319WAT    EPW 5984   6.677   2.370   0.522 -0.4587 -0.4505  0.0260
 1320WAT      O 5985   6.579   2.629   0.762 -0.3120 -0.0441  0.0937
 1320WAT     H1 5986   6.499   2.609   0.789 -0.2167 -0.7547 -0.1277
 1320WAT     H2 5987   6.565   2.677   0.690 -0.5434  0.5657  0.5376
 1320WAT    EPW 5988   6.565   2.634   0.755 -0.2924 -0.8526 -0.6340
 1321WAT      O 5989   6.571   1.474   7.578  0.0484  0.4822  0.6268
 1321WAT     H1 5990   6.581   1.559   7.592 -3.1163  1.0400  0.0856
 1321WAT     H2 5991   6.528   1.470   7.502  0.5355 -1.6420  0.3805
 1321WAT    EPW 5992   6.566   1.486   7.569  0.2086  0.1017 -0.4880
 1322WAT      O 5993   7.864   1.902   0.351 -0.1710  0.3608 -0.3484
 1322WAT     H1 5994   7.802   1.882   0.410  1.1034 -0.0931  0.8996
 1322WAT     H2 5995   7.931   1.928   0.400  0.6411  0.8218 -1.6636
 1322WAT    EPW 5996   7.865   1.903   0.367 -0.1597  0.2112 -0.0480
 1323WAT      O 5997   6.913   5.145   1.028  0.3838 -0.6253  0.2230
 1323WAT     H1 5998   6.930   5.152   0.943  0.2432 -0.3166  0.2188
 1323WAT     H2 5999   6.980   5.098   1.058  1.2776  0.5867  0.2016
 1323WAT    EPW 6000   6.926   5.139   1.020 -0.3931  0.2182  0.0825
 1324WAT      O 6001   5.946   2.714   0.025 -0.4622 -0.3347  0.3320
 1324WAT     H1 6002   5.942   2.783   0.078  0.2578 -0.3656  0.4375
 1324WAT     H2 6003   5.946   2.749  -0.055 -0.2551 -0.2209  0.3818
 1324WAT    EPW 6004   5.946   2.729   0.021  0.0239 -0.1496 -0.4863
 1325WAT      O 6005   6.439   1.841   0.387  0.2324 -0.0643  0.0005
 1325WAT     H1 6006   6.505   1.799   0.349 -0.9182 -1.1322 -0.9214
 1325WAT     H2 6007   6.477   1.906   0.429  1.8822 -0.7595 -0.3551
 1325WAT    EPW 6008   6.454   1.844   0.387 -0.1198  0.0567 -0.1144
 1326WAT      O 6009   7.113   2.564   0.721  0.0623 -0.4677 -0.2660
 1326WAT     H1 6010   7.131   2.642   0.756 -3.0441  0.2169  0.0907
 1326WAT     H2 6011   7.026   2.559   0.726  0.1114 -3.8259 -0.6125
 1326WAT    EPW 6012   7.103   2.575   0.727 -0.0675 -0.8195 -0.1807
 1327WAT      O 6013   5.211   3.002   7.636 -0.1107 -0.4256  0.3978
 1327WAT     H1 6014   5.170   3.062   7.589  1.7686  0.8936  0.3366
 1327WAT     H2 6015   5.225   3.042   7.713 -1.4568 -1.8827  1.4784
 1327WAT    EPW 6016   5.207   3.017   7.641  0.2849 -0.2534 -0.6428
 1328WAT      O 6017   5.722   1.468   0.551 -0.8180  0.2717 -0.3055
 1328WAT     H1 6018   5.667   1.421   0.502 -1.9706 -0.8194  1.8890
 1328WAT     H2 6019   5.800   1.435   0.531 -1.4416 -1.4825 -0.0576
 1328WAT    EPW 6020   5.725   1.456   0.541  0.2870  0.1463  0.2137
 1329WAT      O 6021   6.159   2.348   7.422  0.4469  0.3596 -0.5015
 1329WAT     H1 6022   6.192   2.272   7.449  0.1155 -0.1502 -1.4984
 1329WAT     H2 6023   6.194   2.359   7.343  1.1365  1.6631 -0.0463
 1329WAT    EPW 6024   6.169   2.339   7.414 -0.3318  0.8009 -0.2860
 1330WAT      O 6025   6.074   2.982   1.256  0.1428  0.4847  0.4944
 1330WAT     H1 6026   6.102   2.900   1.247  2.0589  1.1522 -0.0166
 1330WAT     H2 6027   5.995   2.981   1.218  0.6994 -0.8293 -0.7166
 1330WAT    EPW 6028   6.066   2.970   1.249  0.2853 -0.7224  0.4428
 1331WAT      O 6029   6.698   3.521   0.756  0.0581 -0.2727  0.3771
 1331WAT     H1 6030   6.704   3.437   0.776  0.9725  0.0566  1.6370
 1331WAT     H2 6031   6.779   3.543   0.732 -0.4508 -0.0284 -1.1772
 1331WAT    EPW 6032   6.711   3.512   0.756 -0.1188  0.1452 -0.0181
 1332WAT      O 6033   6.177   2.448   1.143  0.0945 -0.0586 -0.0248
 1332WAT     H1 6034   6.214   2.414   1.072 -1.8978  0.8802 -1.6073
 1332WAT     H2 6035   6.164   2.379   1.195 -0.2538 -1.0880 -1.4387
 1332WAT    EPW 6036   6.181   2.433   1.141  0.1077 -0.6327 -0.1606
 1333WAT      O 6037   6.342   2.545   0.174  1.0163 -0.3982  0.7221
 1333WAT     H1 6038   6.379   2.486   0.121  0.1587 -1.2899  1.0809
 1333WAT     H2 6039   6.337   2.616   0.125  0.7526 -1.0481 -0.2205
 1333WAT    EPW 6040   6.346   2.547   0.159 -0.0474 -0.6392  0.1550
 1334WAT      O 6041   7.944   3.896   7.887 -0.1231  0.2848  0.4104
 1334WAT     H1 6042   7.942   3.927   7.968 -0.3148 -0.2296  0.6075
 1334WAT     H2 6043   7.989   3.822   7.894 -1.2397 -0.4281  0.2912
 1334WAT    EPW 6044   7.950   3.890   7.900  0.6499  0.3164 -0.4064
 1335WAT      O 6045   0.160   3.457   0.378 -0.3150 -0.3966  0.2815
 1335WAT     H1 6046   0.115   3.495   0.314 -0.5901 -0.4848  0.4225
 1335WAT     H2 6047   0.107   3.464   0.448 -0.1576 -0.5936  0.4218
 1335WAT    EPW 6048   0.145   3.464   0.379  0.2566  0.1346  0.1819
 1336WAT      O 6049   6.212   2.962   7.067 -0.1052  0.1504  0.1704
 1336WAT     H1 6050   6.215   3.048   7.054 -2.0707  0.4631  1.3885
 1336WAT     H2 6051   6.235   2.953   7.150  1.9257 -0.7490 -0.4236
 1336WAT    EPW 6052   6.216   2.973   7.077  0.3345 -0.0973  0.1857
 1337WAT      O 6053   6.109   1.498   7.744 -0.1468 -0.1920  0.2402
 1337WAT     H1 6054   6.155   1.431   7.775 -0.2482  0.1349  1.1042
 1337WAT     H2 6055   6.086   1.543   7.815  1.1559  1.5881 -0.3771
 1337WAT    EPW 6056   6.113   1.495   7.759 -0.0854 -0.2877  0.1963
 1338WAT      O 6057   7.035   2.425   7.846  0.4188 -0.3632  0.1941
 1338WAT     H1 6058   7.075   2.496   7.816 -0.5230  0.5437  1.0290
 1338WAT     H2 6059   6.976   2.408   7.784 -0.1330  0.2795  0.5358
 1338WAT    EPW 6060   7.032   2.433   7.832  0.5182  0.8525 -0.1341
 1339WAT      O 6061   7.362   2.587   1.265 -0.0708  0.6167 -0.3270
 1339WAT     H1 6062   7.447   2.577   1.283 -0.0688  0.8959 -0.1694
 1339WAT     H2 6063   7.335   2.506   1.247 -0.2430  0.1594  1.7346
 1339WAT    EPW 6064   7.370   2.574   1.265  0.2049  0.5113  0.2435
 1340WAT      O 6065   5.454   2.993   7.521  0.2244  0.2877 -0.2242
 1340WAT     H1 6066   5.498   3.034   7.584  0.2122 -0.5662  0.3590
 1340WAT     H2 6067   5.372   2.990   7.551 -0.1141  1.2476 -0.9900
 1340WAT    EPW 6068   5.448   2.999   7.534 -0.3277 -0.3729  0.0709
 1341WAT      O 6069   7.538   1.251   1.557  0.0002  0.5015 -0.3952
 1341WAT     H1 6070   7.601   1.293   1.513 -0.1105  0.2691 -0.7795
 1341WAT     H2 6071   7.468   1.259   1.506 -1.0034  2.9513  1.1560
 1341WAT    EPW 6072   7.537   1.258   1.543  0.5284 -0.1154  0.2738
 1342WAT      O 6073   4.821   2.450   6.463 -0.3998 -0.0520 -0.6396
 1342WAT     H1 6074   4.804   2.508   6.527 -0.1815 -0.3749 -0.2833
 1342WAT     H2 6075   4.814   2.373   6.503 -1.4475 -0.3187 -1.2921
 1342WAT    EPW 6076   4.817   2.447   6.479  0.2599 -0.0090 -0.5835
 1343WAT      O 6077   5.608   1.122   5.235 -0.3832  0.2401 -0.8026
 1343WAT     H1 6078   5.575   1.052   5.275 -0.7482  1.6793  1.5608
 1343WAT     H2 6079   5.540   1.155   5.191 -0.4059 -0.3864 -1.2584
 1343WAT    EPW 6080   5.593   1.116   5.234 -0.0039  0.4301 -1.2313
 1344WAT      O 6081   4.623   2.018   5.382 -0.8354  0.3234 -0.2823
 1344WAT     H1 6082   4.637   2.013   5.296 -0.0079  2.4322 -0.3125
 1344WAT     H2 6083   4.594   2.099   5.395 -1.5053 -0.1204  1.3787
 1344WAT    EPW 6084   4.621   2.029   5.372 -0.0851 -0.1462 -0.3519
 1345WAT      O 6085   5.492   2.328   6.050  0.2020  0.3113  0.2556
 1345WAT     H1 6086   5.522   2.409   6.039  2.4599 -0.4814 -0.0550
 1345WAT     H2 6087   5.448   2.312   5.976  0.5538  0.9389 -0.0945
 1345WAT    EPW 6088   5.490   2.338   6.037  0.4989 -0.4158 -0.4488
 1346WAT      O 6089   5.355   2.181   6.232  0.2490 -0.4595  0.2941
 1346WAT     H1 6090   5.411   2.215   6.174  0.3508 -0.3577  0.4524
 1346WAT     H2 6091   5.400   2.181   6.306 -0.5896  1.3899  0.8583
 1346WAT    EPW 6092   5.370   2.186   6.234  0.2842 -0.6973 -0.3264
 1347WAT      O 6093   6.877   3.223   4.304 -0.0402  0.0962 -0.0644
 1347WAT     H1 6094   6.894   3.306   4.283 -1.8087  0.4541 -0.2623
 1347WAT     H2 6095   6.810   3.229   4.360 -0.5218 -1.1919 -0.4572
 1347WAT    EPW 6096   6.869   3.236   4.309  0.3727  0.6086  0.2660
 1348WAT      O 6097   5.427   3.558   0.450  0.1962 -0.1762 -0.1757
 1348WAT     H1 6098   5.350   3.527   0.424 -0.4599  0.7342  0.5748
 1348WAT     H2 6099   5.425   3.545   0.537  1.1267 -0.6304 -0.2125
 1348WAT    EPW 6100   5.415   3.551   0.459 -0.0367  0.4483  0.0578
 1349WAT      O 6101   6.217   3.602   0.288 -0.3816 -0.3898  0.0068
 1349WAT     H1 6102   6.149   3.621   0.237  1.6601  1.1438 -2.3495
 1349WAT     H2 6103   6.233   3.678   0.328 -1.0584 -1.2074  1.9890
 1349WAT    EPW 6104   6.209   3.616   0.287  0.2452 -0.6993 -0.2561
 1350WAT      O 6105   5.809   1.671   5.739  0.0666  0.4041  0.2887
 1350WAT     H1 6106   5.850   1.600   5.769 -1.4598 -0.3813  0.5985
 1350WAT     H2 6107   5.761   1.697   5.806 -1.3223  0.2160 -0.5942
 1350WAT    EPW 6108   5.808   1.664   5.753 -0.3315  0.1418 -0.1486
 1351WAT      O 6109   6.637   2.517   7.920 -0.0816  0.3676  0.1393
 1351WAT     H1 6110   6.663   2.478   7.846 -0.3124 -2.4552  1.3855
 1351WAT     H2 6111   6.711   2.545   7.956  0.0747  1.3756 -0.9084
 1351WAT    EPW 6112   6.652   2.515   7.914  0.6252 -0.6770 -0.3007
 1352WAT      O 6113   6.802   3.651   6.897  0.5420  0.2471  0.1074
 1352WAT     H1 6114   6.865   3.601   6.929  1.1859 -0.6810 -2.3537
 1352WAT     H2 6115   6.840   3.729   6.886  0.8300  0.0845 -0.0491
 1352WAT    EPW 6116   6.817   3.655   6.900  0.4882  0.5286  0.1571
 1353WAT      O 6117   5.975   2.791   5.869  0.0559  0.5110 -0.7235
 1353WAT     H1 6118   5.903   2.759   5.831  1.1614 -1.7302 -1.0339
 1353WAT     H2 6119   5.963   2.773   5.954 -0.6838  2.1426 -0.4239
 1353WAT    EPW 6120   5.962   2.784   5.876  0.1444  0.3993  0.0311
 1354WAT      O 6121   6.507   4.444   6.416 -0.0854  0.2752  0.0842
 1354WAT     H1 6122   6.591   4.462   6.427 -0.3122  0.2572  2.2553
 1354WAT     H2 6123   6.502   4.419   6.332  2.3040 -1.0157  0.2450
 1354WAT    EPW 6124   6.519   4.443   6.405 -0.6518 -0.9423  0.0516
 1355WAT      O 6125   6.026   3.898   5.574 -0.0686 -0.2112 -0.0560
 1355WAT     H1 6126   5.957   3.920   5.526 -1.5687  0.5273  2.3005
 1355WAT     H2 6127   6.067   3.974   5.586 -0.1416 -0.2548  0.4757
 1355WAT    EPW 6128   6.022   3.913   5.569 -0.8423  0.5414 -0.5107
 1356WAT      O 6129   5.915   2.791   6.412 -0.4388  0.1438 -0.2423
 1356WAT     H1 6130   5.837   2.829   6.403 -0.0261  0.8197 -1.0933
 1356WAT     H2 6131   5.971   2.857   6.412  0.0795 -0.2072  1.8964
 1356WAT    EPW 6132   5.912   2.806   6.411 -0.0430 -0.0308 -0.5399
 1357WAT      O 6133   5.852   0.815   4.310 -0.4886  0.2342  0.2304
 1357WAT     H1 6134   5.810   0.878   4.353  0.1991  2.2223 -1.7828
 1357WAT     H2 6135   5.936   0.834   4.324 -0.2514 -0.9281  0.4677
 1357WAT    EPW 6136   5.858   0.827   4.319 -1.1023 -0.0190 -0.0147
 1358WAT      O 6137   6.124   1.751   5.015 -0.3829 -0.2515  0.0988
 1358WAT     H1 6138   6.144   1.825   5.056  0.3134 -0.2887 -0.1484
 1358WAT     H2 6139   6.164   1.759   4.937  1.3275 -1.6597  0.7497
 1358WAT    EPW 6140   6.133   1.763   5.009  1.1469 -0.3095  0.0537
 1359WAT      O 6141   6.372   3.225   5.369 -0.0813  0.6680  0.1296
 1359WAT     H1 6142   6.427   3.162   5.343  1.4511  2.3850 -1.1564
 1359WAT     H2 6143   6.294   3.194   5.349  0.6427 -0.7186 -0.7169
 1359WAT    EPW 6144   6.369   3.211   5.362 -0.3180 -0.5065  0.0778
 1360WAT      O 6145   5.722   1.788   6.216  0.2862 -0.2644 -0.4437
 1360WAT     H1 6146   5.795   1.740   6.226  0.0177 -0.7710 -0.8889
 1360WAT     H2 6147   5.684   1.783   6.294  1.3730  1.0944  0.2054
 1360WAT    EPW 6148   5.727   1.780   6.229 -0.3233 -0.2171 -1.1223
 1361WAT      O 6149   6.175   0.744   5.129  0.1079  0.1398  0.1252
 1361WAT     H1 6150   6.108   0.689   5.125 -0.1761  0.4717  0.2554
 1361WAT     H2 6151   6.242   0.698   5.097  0.1733 -0.7242  1.4340
 1361WAT    EPW 6152   6.175   0.729   5.123 -1.1248 -0.0696  0.1828
 1362WAT      O 6153   7.249   3.468   0.544  0.2335 -0.5177  0.1047
 1362WAT     H1 6154   7.295   3.441   0.475  1.0939 -0.9966  0.8393
 1362WAT     H2 6155   7.231   3.551   0.526  5.5399  1.4239  1.7234
 1362WAT    EPW 6156   7.253   3.476   0.531 -0.5017  0.1126 -0.3176
 1363WAT      O 6157   6.442   3.219   6.212  0.3582 -0.1866 -0.0518
 1363WAT     H1 6158   6.513   3.173   6.233 -0.1548 -1.5104 -1.0789
 1363WAT     H2 6159   6.384   3.158   6.190 -0.5226  0.9348 -0.9687
 1363WAT    EPW 6160   6.444   3.203   6.212  0.2398 -0.0684 -0.8369
 1364WAT      O 6161   5.728   2.150   7.549  0.5015  0.1054  0.0217
 1364WAT     H1 6162   5.805   2.191   7.543  0.6002  0.2201  1.5347
 1364WAT     H2 6163   5.733   2.087   7.489  0.9510  1.3383 -1.3079
 1364WAT    EPW 6164   5.740   2.147   7.539 -0.2010 -0.2878 -0.6465
 1365WAT      O 6165   6.499   2.898   4.712  0.1729 -0.2983  0.1011
 1365WAT     H1 6166   6.455   2.945   4.772  0.6284 -2.0712  1.9597
 1365WAT     H2 6167   6.437   2.848   4.677  0.1572 -0.4437  0.3295
 1365WAT    EPW 6168   6.483   2.898   4.716 -0.2110  0.1965 -0.0213
 1366WAT      O 6169   5.549   3.658   5.520 -0.3405  0.8402  0.3220
 1366WAT     H1 6170   5.588   3.684   5.446  0.8359  0.3432  0.7419
 1366WAT     H2 6171   5.602   3.595   5.550 -2.0761 -0.7079  0.3229
 1366WAT    EPW 6172   5.563   3.653   5.513  0.8543 -0.4550  0.4803
 1367WAT      O 6173   5.802   1.718   7.533  0.0798 -0.0816 -0.0284
 1367WAT     H1 6174   5.741   1.766   7.492 -0.1318  0.7247  1.1935
 1367WAT     H2 6175   5.872   1.771   7.535 -0.0527  0.0803  1.0259
 1367WAT    EPW 6176   5.803   1.733   7.527  0.2635  0.3748 -0.1010
 1368WAT      O 6177   6.903   3.180   0.803 -0.3946 -0.0147  0.3506
 1368WAT     H1 6178   6.964   3.205   0.746 -1.8648  1.1500 -0.7958
 1368WAT     H2 6179   6.935   3.205   0.880  0.1731  1.4143 -0.3211
 1368WAT    EPW 6180   6.917   3.187   0.806 -0.1851 -0.3887  0.1177
 1369WAT      O 6181   5.136   0.937   5.639  0.0031 -0.3769  0.5092
 1369WAT     H1 6182   5.150   0.970   5.718  2.9807  0.0355 -0.0615
 1369WAT     H2 6183   5.195   0.977   5.589  0.7904 -3.2833 -1.1481
 1369WAT    EPW 6184   5.147   0.948   5.643 -0.0726 -1.0279 -0.8555
 1370WAT      O 6185   6.370   4.528   4.975  0.3219 -0.3998  0.3375
 1370WAT     H1 6186   6.301   4.530   5.028  0.8117 -3.0015  1.1967
 1370WAT     H2 6187   6.350   4.586   4.913 -1.1536  1.2743  2.2511
 1370WAT    EPW 6188   6.357   4.537   4.973 -0.0759  0.0681 -0.5274
 1371WAT      O 6189   5.697   1.326   5.428 -0.1234 -0.2781 -0.1257
 1371WAT     H1 6190   5.640   1.282   5.379 -0.8834  0.1602  0.3603
 1371WAT     H2 6191   5.648   1.385   5.470  0.4398 -0.8556  1.4254
 1371WAT    EPW 6192   5.682   1.328   5.427 -0.2029 -0.8155 -0.3517
 1372WAT      O 6193   4.854   2.970   4.817  0.2360 -0.1509 -0.1908
 1372WAT     H1 6194   4.843   2.995   4.734 -1.0453  0.0101  0.0206
 1372WAT     H2 6195   4.804   2.898   4.824 -0.7415  0.6006  0.7959
 1372WAT    EPW 6196   4.845   2.963   4.806  0.3003 -0.2019 -0.6345
 1373WAT      O 6197   6.825   0.915   3.804  0.4915  0.3354 -0.2532
 1373WAT     H1 6198   6.813   0.836   3.769  0.8672  0.4799 -0.7243
 1373WAT     H2 6199   6.848   0.897   3.886 -0.2117 -0.0171 -0.1300
 1373WAT    EPW 6200   6.827   0.901   3.811  0.1664 -0.1235  0.2337
 1374WAT      O 6201   6.210   2.522   5.406 -0.0685  0.1870  0.0781
 1374WAT     H1 6202   6.214   2.549   5.489 -0.9368  1.1918 -0.1834
 1374WAT     H2 6203   6.284   2.553   5.371  0.8753 -1.2407  0.7294
 1374WAT    EPW 6204   6.222   2.531   5.413  0.6546 -0.2675 -0.2825
 1375WAT      O 6205   6.625   3.080   7.483 -0.0048 -0.2498  0.1616
 1375WAT     H1 6206   6.588   3.154   7.454  2.2921  0.7626 -0.3538
 1375WAT     H2 6207   6.604   3.079   7.567 -0.2430  0.8789  0.1325
 1375WAT    EPW 6208   6.616   3.091   7.491  0.1700  0.2019 -0.6899
 1376WAT      O 6209   4.751   0.902   4.929  0.0591  0.0373 -0.6258
 1376WAT     H1 6210   4.823   0.859   4.904  1.1216  0.8868  0.7439
 1376WAT     H2 6211   4.711   0.846   4.983 -1.7426 -1.4301 -3.2973
 1376WAT    EPW 6212   4.756   0.888   4.933  0.1064  0.1282 -0.2993
 1377WAT      O 6213   4.619   2.938   6.232  0.2860 -0.1508  0.2227
 1377WAT     H1 6214   4.650   3.017   6.254  1.3845 -0.6908  0.7235
 1377WAT     H2 6215   4.533   2.946   6.242  0.4711  0.6499  1.4122
 1377WAT    EPW 6216   4.611   2.951   6.237  0.2447 -0.4065  0.3443
 1378WAT      O 6217   5.766   2.443   7.247  0.5718 -0.2236 -0.6493
 1378WAT     H1 6218   5.700   2.491   7.216 -0.4175  1.5141  3.4758
 1378WAT     H2 6219   5.743   2.362   7.228 -2.0273  0.4454 -0.7340
 1378WAT    EPW 6220   5.753   2.438   7.240  0.0180 -0.7048 -0.1513
 1379WAT      O 6221   5.922   2.635   7.119 -0.6863  0.4310  0.4576
 1379WAT     H1 6222   5.892   2.555   7.135  1.1462 -0.8660 -1.9581
 1379WAT     H2 6223   5.949   2.663   7.197  0.2329 -2.0438  1.1033
 1379WAT    EPW 6224   5.921   2.627   7.133 -0.3377 -0.1618  0.1114
 1380WAT      O 6225   5.176   1.326   5.679 -0.4399  0.4055  0.0602
 1380WAT     H1 6226   5.145   1.342   5.759 -0.2879  0.1099  0.1780
 1380WAT     H2 6227   5.262   1.338   5.687 -0.2993 -0.6279  0.1949
 1380WAT    EPW 6228   5.184   1.330   5.692  0.4217 -0.0415  0.6051
 1381WAT      O 6229   6.063   2.443   6.712 -0.0605  0.1501  0.1612
 1381WAT     H1 6230   6.143   2.443   6.677  0.6216 -2.9641  1.3569
 1381WAT     H2 6231   6.017   2.492   6.657  2.9678  3.8985  0.5211
 1381WAT    EPW 6232   6.068   2.450   6.699  0.7175  0.1176 -0.7087
 1382WAT      O 6233   5.179   4.313   7.038 -0.2832 -0.4112  0.1228
 1382WAT     H1 6234   5.164   4.384   6.990 -0.3297 -1.1898 -1.0411
 1382WAT     H2 6235   5.207   4.346   7.114 -1.3027  0.8705 -0.0181
 1382WAT    EPW 6236   5.181   4.328   7.042  0.1657  1.1961 -0.5677
 1383WAT      O 6237   4.479   3.020   5.234  0.2843 -0.2148 -0.2463
 1383WAT     H1 6238   4.407   3.029   5.185  0.6376  0.8547 -0.5785
 1383WAT     H2 6239   4.482   3.093   5.281  1.0261 -0.3637 -0.0489
 1383WAT    EPW 6240   4.469   3.032   5.234 -0.4833 -0.3792 -0.4115
 1384WAT      O 6241   5.541   2.116   4.939 -0.4988  0.0724  0.2206
 1384WAT     H1 6242   5.608   2.106   4.994  0.4392 -0.1496 -0.9354
 1384WAT     H2 6243   5.531   2.203   4.936  0.6843  0.2054 -0.6772
 1384WAT    EPW 6244   5.549   2.128   4.947 -0.5756  0.5702  0.0704
 1385WAT      O 6245   5.841   3.545   6.783  0.1678  0.1953 -0.0855
 1385WAT     H1 6246   5.874   3.625   6.774 -1.1051  0.6557 -1.0895
 1385WAT     H2 6247   5.766   3.559   6.826 -0.4384 -0.3258 -0.9327
 1385WAT    EPW 6248   5.835   3.559   6.788  0.3981 -0.3820 -0.5004
 1386WAT      O 6249   6.417   2.943   0.605 -0.3463  0.1307 -0.2641
 1386WAT     H1 6250   6.377   2.865   0.606 -0.2357  0.0744 -0.1805
 1386WAT     H2 6251   6.392   2.978   0.529  0.2947 -0.3483 -0.7031
 1386WAT    EPW 6252   6.407   2.936   0.594  0.3635 -0.4423 -0.3019
 1387WAT      O 6253   5.644   0.801   6.546  0.0547  0.4487 -0.5425
 1387WAT     H1 6254   5.573   0.752   6.535  0.9925 -1.2391  0.6449
 1387WAT     H2 6255   5.614   0.870   6.591 -0.6298 -0.8216  1.0176
 1387WAT    EPW 6256   5.629   0.804   6.551 -0.1139  0.2614  1.0059
 1388WAT      O 6257   5.857   1.830   5.512 -0.2985  0.3902 -0.3303
 1388WAT     H1 6258   5.835   1.776   5.577 -0.3800 -0.2588 -0.8943
 1388WAT     H2 6259   5.862   1.778   5.442  0.8080  0.9029 -0.6535
 1388WAT    EPW 6260   5.854   1.814   5.511  0.1067 -0.6322 -0.4545
 1389WAT      O 6261   5.977   3.849   5.836 -0.7056  0.7551  0.0618
 1389WAT     H1 6262   5.891   3.858   5.843 -0.9608 -1.2700  0.1198
 1389WAT     H2 6263   5.993   3.866   5.751 -1.5786 -1.3932 -0.5907
 1389WAT    EPW 6264   5.967   3.853   5.824  0.5860  0.7409 -0.3197
 1390WAT      O 6265   6.743   4.222   7.474  0.1305  0.0091 -1.1371
 1390WAT     H1 6266   6.689   4.216   7.542  1.4056  0.7687 -0.0361
 1390WAT     H2 6267   6.790   4.150   7.478  0.2741  0.1007 -1.1732
 1390WAT    EPW 6268   6.742   4.211   7.484 -0.5038  0.1174 -1.0503
 1391WAT      O 6269   5.007   1.469   5.497 -0.0368  0.5485 -0.3449
 1391WAT     H1 6270   5.057   1.511   5.439  0.3104  1.2417  0.4412
 1391WAT     H2 6271   5.065   1.433   5.552 -0.3778  0.4194 -0.0671
 1391WAT    EPW 6272   5.023   1.470   5.496 -0.8852  0.9339  0.4742
 1392WAT      O 6273   7.492   2.460   3.867 -0.8612 -0.0814 -0.1036
 1392WAT     H1 6274   7.442   2.486   3.800 -1.6069 -0.0283  0.4476
 1392WAT     H2 6275   7.556   2.414   3.830 -0.5928  0.9401 -0.9459
 1392WAT    EPW 6276   7.494   2.457   3.852 -0.8155 -0.0550 -0.1633
 1393WAT      O 6277   6.177   3.532   5.556 -0.1088 -0.0626  0.1384
 1393WAT     H1 6278   6.129   3.552   5.627  0.7438  0.0667  0.6880
 1393WAT     H2 6279   6.211   3.454   5.576 -1.0666 -0.7353 -0.7718
 1393WAT    EPW 6280   6.175   3.524   5.569 -0.7718 -0.8759  0.3001
 1394WAT      O 6281   7.696   2.274   8.020  0.4240  0.2794 -0.4295
 1394WAT     H1 6282   7.620   2.262   8.062  0.8850 -0.0228  0.3343
 1394WAT     H2 6283   7.685   2.228   7.946  0.1749 -0.4782  0.0615
 1394WAT    EPW 6284   7.683   2.265   8.015  0.0963  0.0587  0.3685
 1395WAT      O 6285   6.738   4.265   4.558  0.3745 -0.6656  0.0632
 1395WAT     H1 6286   6.670   4.319   4.572  0.2649 -0.9476  0.6180
 1395WAT     H2 6287   6.806   4.319   4.553  0.2269 -0.4505  0.3460
 1395WAT    EPW 6288   6.738   4.281   4.559  0.0741 -0.2991 -0.4745
 1396WAT      O 6289   5.450   2.507   6.314 -0.0609 -0.9619  0.2832
 1396WAT     H1 6290   5.373   2.505   6.356  0.1859 -0.6803  0.7645
 1396WAT     H2 6291   5.429   2.540   6.236 -0.1503  1.0099  1.0803
 1396WAT    EPW 6292   5.435   2.512   6.309 -0.2799  0.8324  0.0313
 1397WAT      O 6293   5.595   3.526   6.923  0.5077 -0.2563  0.2316
 1397WAT     H1 6294   5.551   3.536   6.998 -1.7926  1.0129 -1.1525
 1397WAT     H2 6295   5.577   3.444   6.899 -2.9600  0.7079 -1.1974
 1397WAT    EPW 6296   5.586   3.516   6.930 -0.2388  0.1378 -0.2814
 1398WAT      O 6297   5.625   2.061   5.777  0.5752  0.1635  0.1552
 1398WAT     H1 6298   5.645   1.987   5.819  0.5602  1.0199  1.7242
 1398WAT     H2 6299   5.673   2.121   5.817  0.7792  0.9973 -1.2687
 1398WAT    EPW 6300   5.635   2.059   5.789  0.4567  0.5792 -0.0316
 1399WAT      O 6301   7.168   2.789   1.220 -0.1160 -0.1867  0.5052
 1399WAT     H1 6302   7.222   2.722   1.232 -0.2811 -0.3780  0.1983
 1399WAT     H2 6303   7.206   2.835   1.156 -0.3647 -0.3798  0.2135
 1399WAT    EPW 6304   7.182   2.786   1.212  0.0375 -0.4669  0.6402
 1400WAT      O 6305   5.648   3.649   0.309  0.3391  0.5627  0.3897
 1400WAT     H1 6306   5.668   3.571   0.277 -0.5007  0.8161 -0.8387
 1400WAT     H2 6307   5.579   3.633   0.361 -0.7615  0.6424 -0.9850
 1400WAT    EPW 6308   5.640   3.635   0.312 -0.2207  0.7957 -0.6747
 1401WAT      O 6309   6.103   3.147   5.360  0.2735  0.1403  0.3869
 1401WAT     H1 6310   6.041   3.135   5.300  0.3393  0.2057  0.3052
 1401WAT     H2 6311   6.065   3.202   5.417  0.7119  1.2576 -0.3598
 1401WAT    EPW 6312   6.088   3.153   5.360  0.5386  0.6481 -0.3006
 1402WAT      O 6313   6.443   5.207   4.727  0.1810 -0.4238  0.0326
 1402WAT     H1 6314   6.489   5.137   4.703  1.7733 -0.0528  1.7341
 1402WAT     H2 6315   6.373   5.204   4.675  0.3705 -3.0364 -0.2333
 1402WAT    EPW 6316   6.439   5.196   4.716  1.0035 -1.2835 -0.3251
 1403WAT      O 6317   6.749   0.657   3.697  0.3058  0.0859 -0.3329
 1403WAT     H1 6318   6.683   0.632   3.748  0.6767  2.2602  1.3484
 1403WAT     H2 6319   6.817   0.612   3.729  0.0816 -0.4085 -0.5420
 1403WAT    EPW 6320   6.749   0.647   3.710  0.1155 -0.7762  0.6113
 1404WAT      O 6321   6.932   5.221   3.755  0.1999  0.0919 -0.2366
 1404WAT     H1 6322   6.898   5.142   3.771  1.2062 -0.2329  0.3443
 1404WAT     H2 6323   6.956   5.216   3.671 -1.4950  0.4672 -0.7946
 1404WAT    EPW 6324   6.930   5.208   3.745  0.5538 -0.7825  0.6248
 1405WAT      O 6325   5.842   2.479   5.696  0.1158  0.2181  0.6154
 1405WAT     H1 6326   5.924   2.489   5.668 -0.3121 -1.4427 -1.5004
 1405WAT     H2 6327   5.821   2.557   5.728  2.3747  0.7891  0.8883
 1405WAT    EPW 6328   5.851   2.492   5.697  0.5053 -0.4217  0.4817
 1406WAT      O 6329   5.291   1.609   4.715 -0.4078  0.4963 -0.2486
 1406WAT     H1 6330   5.245   1.539   4.693  2.1756 -1.4191  0.0033
 1406WAT     H2 6331   5.348   1.579   4.774  1.9220  2.3840 -1.3701
 1406WAT    EPW 6332   5.292   1.594   4.721  0.5655 -0.7585 -0.6394
 1407WAT      O 6333   5.789   3.017   5.791 -0.2717  0.3238 -0.3634
 1407WAT     H1 6334   5.847   3.076   5.820 -0.4446  1.0281 -1.3701
 1407WAT     H2 6335   5.822   2.941   5.818  0.1249  0.8527  0.6963
 1407WAT    EPW 6336   5.803   3.015   5.799  0.3896  0.0154 -0.4492
 1408WAT      O 6337   6.558   3.657   6.661  0.6815  0.2604  0.3472
 1408WAT     H1 6338   6.511   3.730   6.649  0.1334 -0.1213  0.1390
 1408WAT     H2 6339   6.610   3.677   6.728  0.1291  0.6523  0.6714
 1408WAT    EPW 6340   6.559   3.671   6.669 -0.1535 -1.0849  0.2347
 1409WAT      O 6341   6.447   4.386   5.532  0.2364 -0.0892  0.0708
 1409WAT     H1 6342   6.492   4.335   5.586  0.2615 -2.7014 -2.2174
 1409WAT     H2 6343   6.461   4.351   5.454 -1.3668  2.3213 -1.4318
 1409WAT    EPW 6344   6.456   4.373   5.529  1.0359  0.2045  0.4242
 1410WAT      O 6345   6.702   2.374   3.922  0.3014 -0.5025 -0.0676
 1410WAT     H1 6346   6.701   2.432   3.988  0.4388  1.2571 -1.5351
 1410WAT     H2 6347   6.618   2.352   3.913  0.0992  0.2925 -0.1801
 1410WAT    EPW 6348   6.689   2.379   3.931  0.2627  0.5565  0.2361
 1411WAT      O 6349   5.208   2.977   7.308  0.2976 -0.4526 -0.2439
 1411WAT     H1 6350   5.219   2.914   7.367 -1.0344  0.1896  0.7290
 1411WAT     H2 6351   5.290   2.997   7.284  0.7581 -2.2342 -0.2824
 1411WAT    EPW 6352   5.222   2.970   7.313  0.0495 -1.4335  0.2339
 1412WAT      O 6353   6.175   2.234   5.072  0.1090 -0.5081  0.1700
 1412WAT     H1 6354   6.237   2.295   5.068 -0.8157  0.4442 -0.1367
 1412WAT     H2 6355   6.149   2.226   4.990  0.2642 -1.3877  0.1953
 1412WAT    EPW 6356   6.180   2.241   5.059 -0.2959  0.0880  0.0381
 1413WAT      O 6357   5.685   7.732   5.125  0.3432  0.2236 -0.4627
 1413WAT     H1 6358   5.710   7.676   5.188  0.1583  1.0087  0.3348
 1413WAT     H2 6359   5.633   7.683   5.075  1.6467 -0.8122 -0.8657
 1413WAT    EPW 6360   5.681   7.716   5.127  0.1597  0.8517 -0.1314
 1414WAT      O 6361   5.814   3.028   5.493 -0.2218  0.2247 -0.3101
 1414WAT     H1 6362   5.817   3.113   5.473 -1.0584  0.2831 -0.2257
 1414WAT     H2 6363   5.796   3.028   5.578 -3.0023 -0.0118 -0.8184
 1414WAT    EPW 6364   5.812   3.040   5.503  0.6570 -0.1234  0.1873
 1415WAT      O 6365   6.102   2.623   5.650 -0.1984 -0.0122 -0.0414
 1415WAT     H1 6366   6.110   2.618   5.736 -1.6136  0.6864  0.1593
 1415WAT     H2 6367   6.078   2.706   5.636  2.4751  0.6908 -1.3643
 1415WAT    EPW 6368   6.100   2.635   5.660 -0.1604  0.8020 -0.4399
 1416WAT      O 6369   5.719   2.714   5.800  0.3004 -0.6441  0.4586
 1416WAT     H1 6370   5.674   2.683   5.869  0.6940 -2.4106 -0.0136
 1416WAT     H2 6371   5.660   2.714   5.736 -0.2483  1.6342  0.8705
 1416WAT    EPW 6372   5.704   2.709   5.801 -0.0618 -0.3368  0.0072
 1417WAT      O 6373   5.184   0.822   5.272  0.3345 -0.6652 -0.4291
 1417WAT     H1 6374   5.194   0.855   5.192 -0.8153  1.8208  0.3608
 1417WAT     H2 6375   5.098   0.820   5.284  0.4878  0.8818  1.4105
 1417WAT    EPW 6376   5.173   0.826   5.262  0.0284  0.2077  0.5649
 1418WAT      O 6377   4.851   1.524   6.741 -0.1998  0.2958 -0.7922
 1418WAT     H1 6378   4.909   1.461   6.724 -0.5201 -0.3730  0.4528
 1418WAT     H2 6379   4.774   1.486   6.727 -0.4849 -0.2610  1.7246
 1418WAT    EPW 6380   4.849   1.509   6.736  0.0427 -0.3077  0.8640
 1419WAT      O 6381   6.214   1.265   7.927  0.1587  0.1441  0.4249
 1419WAT     H1 6382   6.242   1.307   7.999 -0.1035  0.0551  0.5797
 1419WAT     H2 6383   6.265   1.298   7.864 -0.0746  0.7398  0.5353
 1419WAT    EPW 6384   6.226   1.276   7.929 -0.2289  0.3376  0.0783
 1420WAT      O 6385   6.532   2.654   7.234  0.0533 -0.1868 -0.2026
 1420WAT     H1 6386   6.557   2.628   7.154 -0.8103 -1.9582  0.0717
 1420WAT     H2 6387   6.602   2.637   7.284  0.9520  1.8027 -0.6881
 1420WAT    EPW 6388   6.546   2.648   7.229 -0.1023  0.2748 -0.6190
 1421WAT      O 6389   6.824   2.668   0.033 -0.4176 -0.0381 -0.4884
 1421WAT     H1 6390   6.891   2.620   0.064  0.5120  1.1064 -0.6746
 1421WAT     H2 6391   6.761   2.655   0.091 -0.5167 -2.1776 -0.9714
 1421WAT    EPW 6392   6.824   2.659   0.046 -0.0836 -0.1833 -0.0117
 1422WAT      O 6393   5.768   2.255   5.939 -0.1172 -0.3424  0.4568
 1422WAT     H1 6394   5.783   2.316   5.879 -0.9498 -0.5396  0.0452
 1422WAT     H2 6395   5.692   2.279   5.975  0.6309  0.0955  1.8443
 1422WAT    EPW 6396   5.759   2.268   5.936 -0.5281 -0.4425 -0.7035
 1423WAT      O 6397   5.656   1.840   5.950 -0.2710  0.4046  0.2867
 1423WAT     H1 6398   5.569   1.841   5.957 -0.1844  0.0358  1.6534
 1423WAT     H2 6399   5.683   1.824   6.031  1.0785  0.3815 -0.1445
 1423WAT    EPW 6400   5.648   1.838   5.963 -0.3887 -1.2494 -0.5953
 1424WAT      O 6401   6.199   3.932   7.129 -0.2264  0.0972 -0.1156
 1424WAT     H1 6402   6.276   3.974   7.130  0.3191 -0.6300  3.3218
 1424WAT     H2 6403   6.143   3.991   7.160  0.1937 -0.9409  2.9700
 1424WAT    EPW 6404   6.202   3.947   7.134 -0.0827 -0.5711  0.3280
 1425WAT      O 6405   6.956   2.849   4.497  0.1706 -0.0388 -0.2815
 1425WAT     H1 6406   6.970   2.804   4.423 -0.0924 -1.8324  0.7039
 1425WAT     H2 6407   6.880   2.889   4.483 -0.4949 -1.3668 -0.5415
 1425WAT    EPW 6408   6.947   2.848   4.484  0.1598 -0.4197  0.2242
 1426WAT      O 6409   6.067   3.032   6.344 -0.0657 -0.2698 -0.5964
 1426WAT     H1 6410   6.084   3.093   6.404  0.1786 -0.4853 -0.4418
 1426WAT     H2 6411   6.026   3.075   6.281 -0.3271 -0.0434 -0.2698
 1426WAT    EPW 6412   6.063   3.047   6.344  0.1912  0.0271  0.7754
 1427WAT      O 6413   6.412   3.192   6.852 -0.6060 -0.1449 -0.5959
 1427WAT     H1 6414   6.411   3.278   6.864  0.7392 -0.0350 -1.0779
 1427WAT     H2 6415   6.428   3.184   6.767  0.8879 -0.8513 -0.2719
 1427WAT    EPW 6416   6.414   3.204   6.841 -0.0457 -0.7306  0.5321
 1428WAT      O 6417   5.532   0.454   4.540 -0.0789  0.0589 -0.1637
 1428WAT     H1 6418   5.590   0.519   4.528  0.8547 -0.6807  0.1938
 1428WAT     H2 6419   5.525   0.418   4.461  0.8721 -0.5752  0.0178
 1428WAT    EPW 6420   5.540   0.459   4.526  0.0292  0.1912 -0.3202
 1429WAT      O 6421   6.331   3.462   6.178  0.0713  0.0730 -0.4060
 1429WAT     H1 6422   6.368   3.387   6.204  2.0464  1.4682  1.1171
 1429WAT     H2 6423   6.362   3.473   6.097  1.0529 -0.0151 -0.0579
 1429WAT    EPW 6424   6.341   3.452   6.169  0.1895  0.0746  0.4579
 1430WAT      O 6425   6.473   2.797   0.149 -0.6314 -0.4309 -0.3831
 1430WAT     H1 6426   6.527   2.865   0.159 -0.0435 -1.0897  1.4252
 1430WAT     H2 6427   6.395   2.831   0.164 -0.2889 -0.2017  1.0576
 1430WAT    EPW 6428   6.470   2.812   0.153 -0.0037 -0.1399 -0.0361
 1431WAT      O 6429   5.979   3.582   5.779 -0.6178 -0.2373  0.4417
 1431WAT     H1 6430   5.989   3.531   5.850 -1.4050  1.0458  1.5133
 1431WAT     H2 6431   5.982   3.663   5.811  1.7596  0.5208 -1.3534
 1431WAT    EPW 6432   5.981   3.586   5.794 -0.2547 -0.2910  0.2282
 1432WAT      O 6433   4.932   3.009   6.126  0.2152 -0.6315 -0.4141
 1432WAT     H1 6434   4.845   3.003   6.136  0.1314  1.9085  1.0027
 1432WAT     H2 6435   4.941   3.035   6.043 -0.4344 -0.2092 -0.3615
 1432WAT    EPW 6436   4.920   3.012   6.115 -0.0640 -0.3198  0.8389
 1433WAT      O 6437   6.317   2.679   0.642  0.2229  0.0149 -0.2162
 1433WAT     H1 6438   6.296   2.621   0.704  1.1287  0.6898  0.7617
 1433WAT     H2 6439   6.338   2.629   0.574  0.1531 -0.7859  0.3360
 1433WAT    EPW 6440   6.317   2.663   0.641  0.4049  0.3243  0.3564
 1434WAT      O 6441   5.375   1.658   5.438 -0.2304 -0.7773 -0.3247
 1434WAT     H1 6442   5.399   1.652   5.354  0.7886 -1.6661  0.0016
 1434WAT     H2 6443   5.385   1.743   5.456  1.4225 -0.8656 -0.6075
 1434WAT    EPW 6444   5.380   1.670   5.428 -0.5202 -0.1918  0.4766
 1435WAT      O 6445   5.018   2.768   6.460 -0.1727  0.2487  0.7434
 1435WAT     H1 6446   4.961   2.746   6.522  1.0265  1.3945  2.3476
 1435WAT     H2 6447   5.057   2.840   6.492  1.7815 -0.1706 -0.4927
 1435WAT    EPW 6448   5.016   2.776   6.474 -0.6015 -0.2707 -0.8127
 1436WAT      O 6449   5.038   2.153   6.394  0.3169  0.4938  0.1122
 1436WAT     H1 6450   5.084   2.176   6.323  0.3163  1.8953  0.5395
 1436WAT     H2 6451   5.055   2.067   6.403  0.9160  0.4674 -1.1293
 1436WAT    EPW 6452   5.047   2.143   6.385  0.0310 -0.7943 -0.0544
 1437WAT      O 6453   6.411   3.704   5.107 -0.2590  0.0569 -0.3400
 1437WAT     H1 6454   6.402   3.622   5.134 -2.6952  0.8306  1.5825
 1437WAT     H2 6455   6.361   3.750   5.161  2.1580  3.0833 -0.3288
 1437WAT    EPW 6456   6.402   3.699   5.119 -0.0435  0.2667 -0.6880
 1438WAT      O 6457   6.077   1.186   5.058  0.1962  0.0807  0.3378
 1438WAT     H1 6458   5.996   1.154   5.065  0.3447 -0.3034  0.3347
 1438WAT     H2 6459   6.080   1.249   5.118  0.3752 -0.9284  1.4315
 1438WAT    EPW 6460   6.066   1.190   5.068 -0.3218  0.4557  0.6982
 1439WAT      O 6461   5.319   2.969   6.348 -0.0429  0.0972 -0.1302
 1439WAT     H1 6462   5.317   3.037   6.402  0.8052  1.0855 -1.2802
 1439WAT     H2 6463   5.354   3.002   6.275 -0.0310 -1.4710 -0.8758
 1439WAT    EPW 6464   5.324   2.984   6.345  0.5369 -0.6336  0.1472
 1440WAT      O 6465   5.697   2.972   6.105 -0.4137 -0.1572 -0.1218
 1440WAT     H1 6466   5.766   2.939   6.062 -0.0216  1.2396 -0.6382
 1440WAT     H2 6467   5.706   2.940   6.185 -0.2074 -1.4698 -0.6428
 1440WAT    EPW 6468   5.709   2.963   6.110 -0.4880 -0.7775 -0.1838
 1441WAT      O 6469   5.582   3.343   4.074 -0.0672  0.4746  0.0847
 1441WAT     H1 6470   5.504   3.380   4.065 -0.5845 -0.3636  0.8615
 1441WAT     H2 6471   5.615   3.381   4.146 -1.2050 -1.4858  1.7377
 1441WAT    EPW 6472   5.576   3.354   4.083 -0.2300 -0.0601  0.0047
 1442WAT      O 6473   5.997   2.270   6.250 -0.1395  0.6141  0.0471
 1442WAT     H1 6474   5.949   2.206   6.215  1.8349 -0.6736 -0.4581
 1442WAT     H2 6475   6.054   2.291   6.186 -0.2994  2.4396  0.4375
 1442WAT    EPW 6476   5.999   2.264   6.235  0.7206 -0.1570 -0.1175
 1443WAT      O 6477   5.664   2.910   6.373 -0.4118  0.3881  0.0696
 1443WAT     H1 6478   5.590   2.870   6.395 -1.3541  2.8254  1.7858
 1443WAT     H2 6479   5.664   2.981   6.423  3.1912  0.4370  0.2588
 1443WAT    EPW 6480   5.653   2.914   6.383  0.1572  0.4180  0.3078
 1444WAT      O 6481   6.631   2.616   0.280 -0.2500 -0.3663  0.1800
 1444WAT     H1 6482   6.572   2.663   0.238  2.1526  1.0048 -1.9304
 1444WAT     H2 6483   6.636   2.654   0.359 -0.2999  1.1976 -0.5400
 1444WAT    EPW 6484   6.623   2.628   0.286  0.6510  0.9513  0.3146
 1445WAT      O 6485   6.482   0.271   4.478 -0.6930 -0.2107  0.0296
 1445WAT     H1 6486   6.527   0.307   4.544 -1.6390  1.3431 -0.1304
 1445WAT     H2 6487   6.526   0.295   4.407 -1.3997  0.7863 -0.0870
 1445WAT    EPW 6488   6.495   0.280   4.477 -0.7098  0.6756 -1.0132
 1446WAT      O 6489   7.575   2.829   7.802  0.6046  0.7565 -0.7591
 1446WAT     H1 6490   7.500   2.790   7.778  0.0059  2.7044 -2.4665
 1446WAT     H2 6491   7.572   2.829   7.889 -0.8559 -0.2124 -0.7762
 1446WAT    EPW 6492   7.563   2.823   7.811  1.0881  0.2691  0.3521
 1447WAT      O 6493   6.243   2.287   7.157 -0.3681  0.4148 -0.5736
 1447WAT     H1 6494   6.284   2.364   7.153 -0.3105  0.3731 -0.7621
 1447WAT     H2 6495   6.172   2.299   7.107  0.0390  0.0972 -1.2415
 1447WAT    EPW 6496   6.238   2.300   7.149  0.3958 -0.2669 -0.3458
 1448WAT      O 6497   5.992   4.494   7.936  0.1062  0.2848  0.4206
 1448WAT     H1 6498   5.910   4.482   7.962  0.5176 -0.6169  1.3311
 1448WAT     H2 6499   6.002   4.581   7.940 -0.1591  0.2599  2.3583
 1448WAT    EPW 6500   5.981   4.505   7.940  0.5523  0.3301 -0.3753
 1449WAT      O 6501   6.235   0.975   4.965  0.2109 -0.0857 -0.5069
 1449WAT     H1 6502   6.199   1.044   5.004  0.7862  1.2692 -2.2675
 1449WAT     H2 6503   6.207   0.908   5.014 -1.5106  1.2331  0.4608
 1449WAT    EPW 6504   6.225   0.975   4.978  0.6689 -0.2026  1.0967
 1450WAT      O 6505   7.213   3.131   0.089 -0.1381 -0.2504  0.3302
 1450WAT     H1 6506   7.206   3.113   0.174 -0.1128  0.6556  0.5372
 1450WAT     H2 6507   7.216   3.053   0.051 -1.3153 -0.6759  1.0667
 1450WAT    EPW 6508   7.213   3.117   0.096  0.2475 -0.3146 -0.2433
 1451WAT      O 6509   6.678   5.264   3.882  0.5240 -0.3202 -0.5726
 1451WAT     H1 6510   6.758   5.282   3.851 -0.1929  3.3341 -0.7708
 1451WAT     H2 6511   6.626   5.282   3.814 -0.5660 -3.5456 -0.7530
 1451WAT    EPW 6512   6.682   5.269   3.867  0.1566 -0.3562 -0.5679
 1452WAT      O 6513   6.401   1.018   4.740  0.4261  0.3204 -0.7246
 1452WAT     H1 6514   6.357   1.091   4.721  1.6461  1.3487  0.1950
 1452WAT     H2 6515   6.377   1.002   4.823 -1.5207 -1.6284 -1.5746
 1452WAT    EPW 6516   6.391   1.026   4.750  0.5763 -0.2635 -0.2780
 1453WAT      O 6517   5.583   1.525   5.586  0.3652 -0.7739 -0.0186
 1453WAT     H1 6518   5.625   1.580   5.638  1.6790 -1.5235 -0.2311
 1453WAT     H2 6519   5.508   1.566   5.567  0.9976  0.5940  0.3922
 1453WAT    EPW 6520   5.578   1.539   5.591  0.1614 -0.7260 -0.9302
 1454WAT      O 6521   6.925   3.857   4.455 -0.1144  0.4253  0.2370
 1454WAT     H1 6522   6.898   3.851   4.538  0.0929 -0.4794  0.2593
 1454WAT     H2 6523   6.964   3.934   4.451  1.2397 -0.1452  1.4245
 1454WAT    EPW 6524   6.927   3.867   4.467  0.0408  0.7274 -0.1834
 1455WAT      O 6525   6.440   4.137   0.114 -0.3871 -0.2838 -0.2585
 1455WAT     H1 6526   6.377   4.083   0.086  0.1611 -0.8878 -0.3524
 1455WAT     H2 6527   6.479   4.091   0.177  2.1500 -1.3734 -2.4424
 1455WAT    EPW 6528   6.437   4.122   0.119  0.4089  1.2114 -0.1893
 1456WAT      O 6529   0.152   4.082   3.563 -0.0476 -0.4340  0.8073
 1456WAT     H1 6530   0.099   4.033   3.611  0.5225 -1.4045  0.4724
 1456WAT     H2 6531   0.098   4.123   3.508 -0.4713 -1.3646  0.5088
 1456WAT    EPW 6532   0.136   4.081   3.562  0.5352 -0.4028 -0.3657
 1457WAT      O 6533   7.517   2.284   2.929 -0.6172 -0.7475  0.3433
 1457WAT     H1 6534   7.563   2.253   2.861 -1.5306 -0.1986 -0.5561
 1457WAT     H2 6535   7.487   2.360   2.899 -0.4646 -0.1688  1.6297
 1457WAT    EPW 6536   7.519   2.290   2.914 -0.1998 -0.6715  0.3534
 1458WAT      O 6537   0.472   3.453   3.152  0.2137 -0.2491 -0.3516
 1458WAT     H1 6538   0.485   3.510   3.216  0.0560  0.3358 -0.8376
 1458WAT     H2 6539   0.417   3.493   3.099  1.9787  0.1770 -1.9774
 1458WAT    EPW 6540   0.466   3.467   3.154  0.0426  0.0880 -0.4986
 1459WAT      O 6541   0.054   3.991   3.945  0.0533  0.1673  0.2424
 1459WAT     H1 6542   0.086   4.071   3.935  0.0531  0.2136  0.6244
 1459WAT     H2 6543   0.106   3.955   4.005 -0.7744  0.3338  1.0681
 1459WAT    EPW 6544   0.066   3.997   3.952 -0.5283 -0.1672 -0.1167
 1460WAT      O 6545   6.774   1.737   3.232  0.3602  0.7686 -0.7814
 1460WAT     H1 6546   6.783   1.823   3.221 -1.3257  0.9441 -1.1043
 1460WAT     H2 6547   6.689   1.723   3.218 -0.1140 -0.4503  2.4084
 1460WAT    EPW 6548   6.763   1.748   3.229 -0.6225  0.4856 -0.2968
 1461WAT      O 6549   0.104   2.381   3.569 -0.6130  0.4544 -0.3345
 1461WAT     H1 6550   0.061   2.316   3.529 -1.9700  1.0918  0.0289
 1461WAT     H2 6551   0.079   2.373   3.653  0.1340  0.7320 -0.0793
 1461WAT    EPW 6552   0.094   2.370   3.576 -0.6423 -0.5442 -0.2511
 1462WAT      O 6553   6.991   2.498   4.208  0.2592 -0.1588 -0.0415
 1462WAT     H1 6554   7.027   2.575   4.189  0.7605 -0.5540 -0.7392
 1462WAT     H2 6555   7.059   2.442   4.202  0.0443 -0.5744  1.0592
 1462WAT    EPW 6556   7.007   2.501   4.205  0.0015  0.2421  0.6114
 1463WAT      O 6557   7.200   2.681   3.669  0.2918  0.1992 -0.4703
 1463WAT     H1 6558   7.192   2.757   3.627  1.0364 -0.4869 -1.9331
 1463WAT     H2 6559   7.157   2.694   3.743 -0.0907  1.8564 -0.9382
 1463WAT    EPW 6560   7.192   2.694   3.673 -0.6805  0.3929  0.0728
 1464WAT      O 6561   7.644   3.051   3.126 -0.6732 -0.3226  0.8857
 1464WAT     H1 6562   7.635   3.001   3.197 -2.1535 -1.1954  0.1562
 1464WAT     H2 6563   7.562   3.075   3.108 -0.1337  1.3484  0.4640
 1464WAT    EPW 6564   7.630   3.047   3.134 -0.2932 -0.7060  0.2191
 1465WAT      O 6565   6.451   2.539   4.811 -0.1570  0.2330 -0.1114
 1465WAT     H1 6566   6.480   2.602   4.863  0.3389 -1.5107  1.8445
 1465WAT     H2 6567   6.371   2.566   4.789  0.0857  1.5814  0.5439
 1465WAT    EPW 6568   6.443   2.553   4.815  0.3533  0.9795 -0.5426
 1466WAT      O 6569   6.001   4.460   4.491 -0.5613 -0.3405  0.2674
 1466WAT     H1 6570   6.079   4.437   4.458 -0.7217  1.7908 -1.8009
 1466WAT     H2 6571   5.945   4.406   4.451 -0.4811  0.5128 -1.0349
 1466WAT    EPW 6572   6.005   4.448   4.480  0.3506  0.1829 -0.1611
 1467WAT      O 6573   7.929   3.905   2.848  0.0991  0.1353 -0.1076
 1467WAT     H1 6574   7.925   3.931   2.931  0.9740  0.3478 -0.1136
 1467WAT     H2 6575   7.849   3.919   2.818 -0.3458 -0.3410  0.8150
 1467WAT    EPW 6576   7.917   3.911   2.856  0.5767  0.3171 -0.0338
 1468WAT      O 6577   7.815   4.715   3.770  0.3628 -0.2199 -0.1572
 1468WAT     H1 6578   7.853   4.734   3.846  2.4409 -0.1122 -1.1530
 1468WAT     H2 6579   7.882   4.716   3.713 -1.2739  0.8931 -2.2054
 1468WAT    EPW 6580   7.831   4.718   3.773  1.0751  0.1447 -0.0745
 1469WAT      O 6581   0.929   2.672   4.021  0.4701  0.0663 -0.2637
 1469WAT     H1 6582   1.012   2.648   4.018  0.3050 -0.4920 -0.4391
 1469WAT     H2 6583   0.885   2.597   4.014 -0.0481  0.2607  0.6669
 1469WAT    EPW 6584   0.935   2.658   4.020  0.3718 -0.1296 -0.1052
 1470WAT      O 6585   0.204   0.048   3.636 -0.1857 -0.3712  0.5208
 1470WAT     H1 6586   0.125   0.012   3.650 -0.0264 -1.8983 -1.9248
 1470WAT     H2 6587   0.257  -0.001   3.685 -0.4847 -0.8335  0.3956
 1470WAT    EPW 6588   0.200   0.035   3.645  0.4838  0.7067  0.1875
 1471WAT      O 6589   7.381   2.194   4.320  0.1171 -0.5876 -0.0216
 1471WAT     H1 6590   7.444   2.236   4.275 -0.1285  0.1345  0.2920
 1471WAT     H2 6591   7.398   2.215   4.403 -0.9265  0.1871  0.0193
 1471WAT    EPW 6592   7.393   2.204   4.325  0.1098  0.2430 -0.9052
 1472WAT      O 6593   7.983   3.662   3.751 -0.0770  0.0651 -0.2032
 1472WAT     H1 6594   7.963   3.662   3.836 -0.6740 -1.7812 -0.3142
 1472WAT     H2 6595   8.044   3.601   3.745 -1.2048 -0.9903 -1.3378
 1472WAT    EPW 6596   7.989   3.653   3.763 -0.2816 -0.3049 -0.3919
 1473WAT      O 6597   7.089   3.299   3.947  0.0039  0.2515 -0.1113
 1473WAT     H1 6598   7.135   3.247   3.893 -1.3966 -1.7688  0.5010
 1473WAT     H2 6599   7.135   3.296   4.021 -0.2562 -0.4936  0.0360
 1473WAT    EPW 6600   7.103   3.291   3.950 -0.1190  0.8063 -0.5947
 1474WAT      O 6601   0.886   3.614   3.491  0.2306 -0.4910  0.1056
 1474WAT     H1 6602   0.962   3.577   3.514  0.0049  0.1332  2.0565
 1474WAT     H2 6603   0.898   3.698   3.508 -0.2503 -0.0706 -1.5094
 1474WAT    EPW 6604   0.899   3.621   3.497  0.5488  0.9098  0.1856
 1475WAT      O 6605   7.533   2.314   4.127  0.7658 -0.0225  0.0135
 1475WAT     H1 6606   7.608   2.284   4.095  0.0563 -2.4905  0.4191
 1475WAT     H2 6607   7.493   2.349   4.058  0.4470 -2.7153 -1.2887
 1475WAT    EPW 6608   7.538   2.315   4.112 -0.4745 -1.2976  0.7202
 1476WAT      O 6609   7.415   0.463   4.007 -0.1097 -0.1048 -0.6678
 1476WAT     H1 6610   7.365   0.527   4.039 -0.5489 -0.7973  0.0541
 1476WAT     H2 6611   7.390   0.457   3.924 -1.6560 -0.8257 -0.1787
 1476WAT    EPW 6612   7.404   0.472   4.000 -0.1716 -1.1351 -0.3887
 1477WAT      O 6613   7.460   2.074   3.230  0.0853 -0.2724  0.0215
 1477WAT     H1 6614   7.516   2.025   3.277  0.5887  0.6651  0.4275
 1477WAT     H2 6615   7.462   2.038   3.151 -0.8413 -1.9491  0.6973
 1477WAT    EPW 6616   7.468   2.061   3.226 -0.1502 -0.5347 -0.5607
 1478WAT      O 6617   5.889   2.227   6.622 -0.8524 -0.4090  0.1932
 1478WAT     H1 6618   5.873   2.295   6.675 -0.5521  1.0963 -1.5551
 1478WAT     H2 6619   5.944   2.259   6.563  0.2076 -2.5207 -0.0659
 1478WAT    EPW 6620   5.895   2.242   6.621  0.4141  0.5525 -0.0324
 1479WAT      O 6621   7.512   1.782   2.842 -0.0229  0.0314  0.1032
 1479WAT     H1 6622   7.481   1.861   2.822 -1.1985 -0.8931 -1.9753
 1479WAT     H2 6623   7.545   1.793   2.922 -0.3133  2.5677 -0.0463
 1479WAT    EPW 6624   7.512   1.795   2.851 -1.1215 -0.2454 -0.7772
 1480WAT      O 6625   6.640   3.274   4.442  0.3449 -0.0756  0.1101
 1480WAT     H1 6626   6.647   3.191   4.468 -0.5037 -0.4462 -0.7877
 1480WAT     H2 6627   6.574   3.273   4.385  1.1203  0.9857 -0.8731
 1480WAT    EPW 6628   6.632   3.262   4.437 -0.0352 -0.4174 -0.2646
 1481WAT      O 6629   7.684   1.674   4.068 -0.5139  0.3995  0.1359
 1481WAT     H1 6630   7.770   1.665   4.078 -0.2739  1.1709 -0.9801
 1481WAT     H2 6631   7.677   1.743   4.014 -1.7670 -0.5118 -0.9387
 1481WAT    EPW 6632   7.695   1.683   4.061  0.4337 -0.1647 -0.7335
 1482WAT      O 6633   7.652   3.704   3.423 -0.2087 -0.8676  0.5347
 1482WAT     H1 6634   7.667   3.755   3.492 -2.0849 -0.7814  0.9267
 1482WAT     H2 6635   7.696   3.631   3.442  0.2281 -0.4270  1.2715
 1482WAT    EPW 6636   7.661   3.701   3.436  0.5206 -0.4510  0.6210
 1483WAT      O 6637   6.399   3.057   4.927  0.2767  0.0419  0.6839
 1483WAT     H1 6638   6.409   3.144   4.920 -0.3913 -0.0161 -1.7595
 1483WAT     H2 6639   6.312   3.047   4.924  0.3589 -0.7247  0.8777
 1483WAT    EPW 6640   6.387   3.069   4.926  0.2550  0.0247 -0.1083
 1484WAT      O 6641   0.181   3.350   3.416 -0.2379 -0.4603 -0.1802
 1484WAT     H1 6642   0.215   3.429   3.404  1.7710 -1.3490 -0.7660
 1484WAT     H2 6643   0.095   3.362   3.402 -0.1915  1.8463  1.1651
 1484WAT    EPW 6644   0.173   3.363   3.412  0.0551 -0.2894 -0.1567
 1485WAT      O 6645   7.308   1.013   3.713  0.2454 -0.5899  0.3618
 1485WAT     H1 6646   7.229   1.026   3.680 -0.5902  0.9269  2.7036
 1485WAT     H2 6647   7.357   1.073   3.673 -0.2352 -0.2564  0.2614
 1485WAT    EPW 6648   7.304   1.024   3.702 -0.9833  0.2651  0.3576
 1486WAT      O 6649   7.505   3.942   3.350 -0.0682 -0.0520 -0.3626
 1486WAT     H1 6650   7.543   3.961   3.274 -0.5707  1.6976 -0.2124
 1486WAT     H2 6651   7.548   3.871   3.377  0.3256 -0.5347 -2.1154
 1486WAT    EPW 6652   7.517   3.934   3.343  0.9438 -0.8528 -0.6546
 1487WAT      O 6653   6.657   1.781   3.574  0.3756 -0.0487  0.1024
 1487WAT     H1 6654   6.616   1.842   3.528  1.5908  1.2114  0.6046
 1487WAT     H2 6655   6.734   1.773   3.532  0.4690 -0.7866  0.4044
 1487WAT    EPW 6656   6.663   1.789   3.561 -0.8826  0.2401  0.0756
 1488WAT      O 6657   0.204   1.802   3.722  0.3624 -0.8006  0.0392
 1488WAT     H1 6658   0.204   1.889   3.731  1.1519 -0.5784 -1.7150
 1488WAT     H2 6659   0.277   1.786   3.676 -0.7604 -2.1813 -1.3466
 1488WAT    EPW 6660   0.215   1.813   3.717  0.6502 -0.3353  0.2175
 1489WAT      O 6661   6.703   4.956   4.427  0.3158  0.2190  0.8410
 1489WAT     H1 6662   6.741   4.988   4.356 -2.1776  0.1294 -0.6314
 1489WAT     H2 6663   6.697   4.870   4.410 -0.5273  0.2331  1.0223
 1489WAT    EPW 6664   6.708   4.948   4.414 -0.4927 -1.1058 -0.3086
 1490WAT      O 6665   0.617   0.541   3.278  0.3346  0.0467 -0.2971
 1490WAT     H1 6666   0.538   0.505   3.283  1.6840 -3.0349  1.2789
 1490WAT     H2 6667   0.626   0.582   3.354  0.5364 -0.2666 -0.1514
 1490WAT    EPW 6668   0.607   0.542   3.290  0.7558 -0.0072  0.5166
 1491WAT      O 6669   7.073   2.606   3.921  0.2381 -0.3504 -0.3689
 1491WAT     H1 6670   6.988   2.624   3.922  0.3720  0.3447  1.3618
 1491WAT     H2 6671   7.076   2.519   3.911 -0.6923 -0.4758  0.3720
 1491WAT    EPW 6672   7.061   2.596   3.920  0.2752  0.1565 -0.8988
 1492WAT      O 6673   7.680   3.257   3.618  0.2425 -0.2966 -0.6267
 1492WAT     H1 6674   7.664   3.258   3.704 -3.0695  1.0898 -1.0889
 1492WAT     H2 6675   7.744   3.316   3.609 -1.0593  1.4610  0.7432
 1492WAT    EPW 6676   7.687   3.266   3.629  0.2787  0.0315  0.0156
 1493WAT      O 6677   6.443   1.614   4.952  0.2136  0.3637 -0.4021
 1493WAT     H1 6678   6.387   1.659   4.903  1.9049  0.5270 -2.2998
 1493WAT     H2 6679   6.503   1.672   4.974  0.3415 -0.0995  0.5282
 1493WAT    EPW 6680   6.443   1.629   4.948  0.4617  0.1299  0.5263
 1494WAT      O 6681   7.954   0.115   3.260 -0.0569 -0.3576  0.0974
 1494WAT     H1 6682   7.992   0.171   3.315  1.1456 -0.1631 -0.8965
 1494WAT     H2 6683   7.876   0.152   3.244  0.2251  0.3936  0.4171
 1494WAT    EPW 6684   7.948   0.129   3.266  0.1135 -0.2747  0.7434
 1495WAT      O 6685   0.359   2.309   3.631  0.3911  0.0178  0.3766
 1495WAT     H1 6686   0.285   2.343   3.599  0.7614  0.0162 -0.5065
 1495WAT     H2 6687   0.352   2.322   3.717 -0.7759 -0.2686  0.3349
 1495WAT    EPW 6688   0.347   2.316   3.639 -0.1216  0.6026 -0.4493
 1496WAT      O 6689   7.297   4.394   3.468  0.0198 -0.1052  0.1693
 1496WAT     H1 6690   7.373   4.436   3.476 -0.3565  0.8967 -1.2475
 1496WAT     H2 6691   7.320   4.310   3.475  0.7534  0.2058  3.3531
 1496WAT    EPW 6692   7.312   4.388   3.470 -0.2515  0.2900 -0.4332
 1497WAT      O 6693   0.164   3.829   3.444  0.1576  0.1768 -0.0551
 1497WAT     H1 6694   0.179   3.910   3.472  2.3430  0.2763 -1.2427
 1497WAT     H2 6695   0.197   3.829   3.363 -2.2215 -1.1829 -1.1098
 1497WAT    EPW 6696   0.171   3.841   3.436  0.0209  0.3704 -0.2198
 1498WAT      O 6697   0.232   3.878   4.131 -0.1084 -0.3435  0.5641
 1498WAT     H1 6698   0.307   3.837   4.115  0.3608  1.2322 -1.8404
 1498WAT     H2 6699   0.257   3.961   4.146 -1.2611 -0.1654  1.7091
 1498WAT    EPW 6700   0.247   3.884   4.131  0.8228  0.3129 -1.2061
 1499WAT      O 6701   7.705   1.310   3.436 -0.2277 -0.3652  0.3658
 1499WAT     H1 6702   7.708   1.397   3.430 -0.0615 -0.2176  2.1070
 1499WAT     H2 6703   7.788   1.286   3.432 -0.0121 -0.1798  2.3631
 1499WAT    EPW 6704   7.718   1.320   3.435  0.3127 -0.3249 -0.4488
 1500WAT      O 6705   6.624   2.715   3.611 -0.5462  0.2142 -0.2648
 1500WAT     H1 6706   6.677   2.678   3.552 -0.1004  1.6568 -0.8218
 1500WAT     H2 6707   6.664   2.699   3.687 -0.7039 -0.9672 -0.4076
 1500WAT    EPW 6708   6.638   2.707   3.613  0.9497  0.1775 -1.1290
 1501WAT      O 6709   7.800   2.009   3.614  0.8380 -0.5849 -0.7747
 1501WAT     H1 6710   7.747   2.049   3.671  0.3065 -1.3952 -0.6884
 1501WAT     H2 6711   7.862   1.975   3.664  1.5788  0.5303 -0.8931
 1501WAT    EPW 6712   7.802   2.010   3.630 -0.7710 -0.1062 -0.1519
 1502WAT      O 6713   6.746   1.509   3.956  0.1070  0.7995  0.1176
 1502WAT     H1 6714   6.685   1.447   3.966 -1.7581  2.8179  2.8416
 1502WAT     H2 6715   6.804   1.490   4.018 -0.4424  1.6555  0.9238
 1502WAT    EPW 6716   6.745   1.497   3.967 -0.4678 -0.7003 -2.0691
 1503WAT      O 6717   6.735   1.918   4.392  0.1752 -0.2257  0.4090
 1503WAT     H1 6718   6.730   1.892   4.309  0.0912 -1.6565  0.8341
 1503WAT     H2 6719   6.821   1.924   4.407  0.4349 -3.8705  1.2858
 1503WAT    EPW 6720   6.747   1.915   4.382 -0.0401  0.1515 -0.1815
 1504WAT      O 6721   0.885   3.890   3.539 -0.2186  0.5141  0.1389
 1504WAT     H1 6722   0.929   3.922   3.472  0.5098 -2.8218 -1.1771
 1504WAT     H2 6723   0.937   3.905   3.608  1.0459  0.2739 -0.7347
 1504WAT    EPW 6724   0.899   3.897   3.539  0.2597 -0.4290 -0.0111
 1505WAT      O 6725   7.184   4.062   3.151 -0.0692 -0.0464 -0.2917
 1505WAT     H1 6726   7.268   4.041   3.144  0.1389  0.0027  1.5356
 1505WAT     H2 6727   7.169   4.111   3.080  0.9120 -1.5893 -1.6196
 1505WAT    EPW 6728   7.194   4.066   3.139  0.1969  0.3348 -0.5040
 1506WAT      O 6729   1.415   0.482   2.926 -0.5372 -0.7274 -0.2458
 1506WAT     H1 6730   1.487   0.523   2.955 -0.7967 -1.7475  2.0976
 1506WAT     H2 6731   1.444   0.403   2.904 -0.3088  0.0749 -3.3266
 1506WAT    EPW 6732   1.430   0.477   2.927 -0.7936  0.2453 -0.2740
 1507WAT      O 6733   7.447   4.704   3.893 -0.1442  0.7089 -0.3157
 1507WAT     H1 6734   7.495   4.644   3.851  1.5977  2.0052 -0.3104
 1507WAT     H2 6735   7.368   4.669   3.897  0.1044 -0.3078 -2.9138
 1507WAT    EPW 6736   7.443   4.690   3.888 -0.0015 -0.3807 -0.3827
 1508WAT      O 6737   5.652   2.141   4.338  0.9579 -0.4619  0.6533
 1508WAT     H1 6738   5.736   2.151   4.315  0.6503 -1.3792 -1.0763
 1508WAT     H2 6739   5.611   2.202   4.290  0.5872 -0.3132  1.1551
 1508WAT    EPW 6740   5.659   2.151   4.327 -0.4430  0.1724  0.0012
 1509WAT      O 6741   0.192   2.946   3.773 -0.5917 -0.1520 -0.1492
 1509WAT     H1 6742   0.143   2.981   3.709 -1.4235 -0.6462  0.1944
 1509WAT     H2 6743   0.238   3.014   3.803 -0.4791  0.1645 -1.0069
 1509WAT    EPW 6744   0.191   2.961   3.768  0.5336 -1.0278  0.8586
 1510WAT      O 6745   6.976   1.576   3.814  0.1171  0.0382  0.0997
 1510WAT     H1 6746   6.996   1.491   3.810  0.2914  0.1245 -1.2214
 1510WAT     H2 6747   6.904   1.578   3.862  0.1239 -0.8559  0.1615
 1510WAT    EPW 6748   6.969   1.563   3.821 -0.5151 -0.3981 -0.4906
 1511WAT      O 6749   6.886   2.419   4.451  0.6057 -0.3615 -0.0660
 1511WAT     H1 6750   6.931   2.445   4.382  0.9053  1.5861  0.8053
 1511WAT     H2 6751   6.927   2.346   4.476  1.6123 -0.0927 -0.8837
 1511WAT    EPW 6752   6.899   2.412   4.445  0.3607 -0.0604 -0.4458
 1512WAT      O 6753   6.024   2.872   5.548 -0.5892 -0.1362  0.0178
 1512WAT     H1 6754   6.091   2.886   5.493 -0.3206  0.8524  0.5721
 1512WAT     H2 6755   5.962   2.925   5.517 -0.7148 -0.1773  0.2034
 1512WAT    EPW 6756   6.024   2.882   5.535  0.5428 -0.6373 -0.7586
 1513WAT      O 6757   5.818   2.361   4.956 -0.0634 -0.6368 -0.0835
 1513WAT     H1 6758   5.783   2.296   5.002 -1.0334  0.4028  0.7040
 1513WAT     H2 6759   5.754   2.385   4.901  0.2353 -0.2677 -0.2817
 1513WAT    EPW 6760   5.803   2.355   4.955 -0.8947 -0.2676  0.4678
 1514WAT      O 6761   0.186   2.078   3.689  1.0719  0.0242 -0.2025
 1514WAT     H1 6762   0.206   2.099   3.607  0.9002 -0.5713 -0.3987
 1514WAT     H2 6763   0.164   2.155   3.725 -2.2874 -0.1286 -1.6643
 1514WAT    EPW 6764   0.186   2.093   3.682 -0.2616  0.2212  0.1123
 1515WAT      O 6765   1.080   1.990   4.007  0.2428  0.1473 -0.1998
 1515WAT     H1 6766   1.164   1.983   4.030 -0.8109 -0.7360  4.2475
 1515WAT     H2 6767   1.063   2.075   4.018  0.3110  0.1348  0.0159
 1515WAT    EPW 6768   1.090   2.002   4.012 -0.4089 -1.1844 -0.2588
 1516WAT      O 6769   7.834   3.963   1.977  0.0396 -0.2820  0.0669
 1516WAT     H1 6770   7.810   4.014   1.911  2.9846 -0.0143 -0.9716
 1516WAT     H2 6771   7.783   3.989   2.042 -1.1489  1.3596 -1.4031
 1516WAT    EPW 6772   7.823   3.975   1.977 -0.0208 -0.2245 -0.5810
 1517WAT      O 6773   7.043   1.299   4.316  0.3892  0.3126  0.2517
 1517WAT     H1 6774   7.123   1.327   4.335  0.2447  0.0538  1.3057
 1517WAT     H2 6775   6.993   1.341   4.374 -0.2528  0.4853 -0.4029
 1517WAT    EPW 6776   7.047   1.309   4.327  0.1826 -0.7216 -0.4784
 1518WAT      O 6777   0.393   4.199   3.676 -0.2254 -0.1960  0.0186
 1518WAT     H1 6778   0.320   4.170   3.638 -0.7357  0.9821  0.0368
 1518WAT     H2 6779   0.427   4.128   3.713 -1.0283 -0.8872 -0.5346
 1518WAT    EPW 6780   0.387   4.184   3.676  0.5722  0.6650  0.2570
 1519WAT      O 6781   7.943   2.306   3.004 -0.4801 -0.4447 -0.0251
 1519WAT     H1 6782   8.030   2.308   3.013 -0.4996  0.7392  0.1144
 1519WAT     H2 6783   7.923   2.222   3.017  0.3882 -0.3427  2.4638
 1519WAT    EPW 6784   7.953   2.294   3.007  0.2061 -0.1714  0.2770
 1520WAT      O 6785   7.121   1.072   3.986  0.0096  0.0557  0.2417
 1520WAT     H1 6786   7.142   1.053   3.903 -0.6357  2.0968 -0.4420
 1520WAT     H2 6787   7.163   1.147   4.001  2.1425 -1.4675  2.6698
 1520WAT    EPW 6788   7.130   1.080   3.976 -1.0400 -0.7518 -0.4250
 1521WAT      O 6789   0.695   2.571   4.251 -0.1975  0.4410  0.4076
 1521WAT     H1 6790   0.661   2.506   4.299  0.2571 -1.9091 -2.1577
 1521WAT     H2 6791   0.768   2.592   4.295 -0.9391  0.0685  1.9038
 1521WAT    EPW 6792   0.701   2.564   4.265  0.1591 -0.9706 -0.6754
 1522WAT      O 6793   1.006   1.459   2.521 -0.1614 -0.1362 -0.1265
 1522WAT     H1 6794   0.991   1.419   2.597  0.3633  0.0264  0.0661
 1522WAT     H2 6795   0.944   1.428   2.469 -0.3773 -0.4325  0.3036
 1522WAT    EPW 6796   0.995   1.448   2.524 -0.0020 -0.7318 -0.2550
 1523WAT      O 6797   7.641   3.874   3.642  0.2666  0.2255 -0.6670
 1523WAT     H1 6798   7.711   3.923   3.625 -0.7949  1.6013 -1.2109
 1523WAT     H2 6799   7.657   3.842   3.722  1.1669  1.1153 -0.4721
 1523WAT    EPW 6800   7.654   3.876   3.651  0.4247 -0.2339  0.1619
 1524WAT      O 6801   8.053   3.917   3.698 -0.1861  0.3123  0.6808
 1524WAT     H1 6802   8.029   3.835   3.716 -0.1337  0.3784  1.0594
 1524WAT     H2 6803   8.078   3.948   3.776  0.8642  0.3338  0.3437
 1524WAT    EPW 6804   8.053   3.910   3.712 -0.1680  0.2166  0.1950
 1525WAT      O 6805   7.107   1.826   3.751 -0.0858 -0.0248  0.3497
 1525WAT     H1 6806   7.067   1.848   3.677  0.3489  1.1670  0.4482
 1525WAT     H2 6807   7.073   1.747   3.770  1.0014 -1.1356 -1.9611
 1525WAT    EPW 6808   7.096   1.817   3.743 -1.0223  1.1034  0.4560
 1526WAT      O 6809   0.567   3.069   3.870  0.5714  0.1814  0.6017
 1526WAT     H1 6810   0.604   2.995   3.899 -2.9904 -1.3845  1.8061
 1526WAT     H2 6811   0.577   3.064   3.784 -0.1657 -2.2123  0.5607
 1526WAT    EPW 6812   0.574   3.057   3.862 -0.1059 -0.8067 -0.2405
 1527WAT      O 6813   6.581   2.045   2.955  0.2595  0.1109  0.4933
 1527WAT     H1 6814   6.658   2.017   2.926  0.3974 -0.0088  0.9757
 1527WAT     H2 6815   6.528   2.035   2.886  0.7545  0.5527  0.0430
 1527WAT    EPW 6816   6.584   2.039   2.940  0.5453  0.2322 -0.1186
 1528WAT      O 6817   7.843   1.731   3.209 -0.4804 -0.2363  0.1216
 1528WAT     H1 6818   7.887   1.797   3.247  0.7197 -0.2164 -1.2292
 1528WAT     H2 6819   7.906   1.681   3.175 -1.3862 -1.9241  0.8012
 1528WAT    EPW 6820   7.859   1.734   3.210 -0.5998 -0.8360  0.3143
 1529WAT      O 6821   5.874   3.179   4.738 -0.2908 -0.9088  0.7339
 1529WAT     H1 6822   5.835   3.102   4.725  2.0567 -1.9694 -0.8606
 1529WAT     H2 6823   5.828   3.234   4.688 -0.9681 -1.6463  0.5301
 1529WAT    EPW 6824   5.861   3.176   4.728  1.9509  0.0732 -0.5081
 1530WAT      O 6825   0.600   2.443   3.831  0.2599  0.1188 -0.3518
 1530WAT     H1 6826   0.636   2.416   3.757  0.3473  2.7433 -1.3782
 1530WAT     H2 6827   0.568   2.521   3.811 -0.5986  0.4990  2.1339
 1530WAT    EPW 6828   0.601   2.450   3.817  0.5444 -0.1677 -0.3295
 1531WAT      O 6829   0.298   7.909   3.830  0.1546  0.6051  0.0351
 1531WAT     H1 6830   0.381   7.887   3.849  0.9930  3.1853 -0.1502
 1531WAT     H2 6831   0.290   7.987   3.868 -1.8006  0.9612 -1.0280
 1531WAT    EPW 6832   0.309   7.917   3.838 -0.0807 -0.4634  0.0888
 1532WAT      O 6833   5.203   3.984   4.015 -0.1859  0.0696  0.1324
 1532WAT     H1 6834   5.286   3.962   4.030  0.5648  1.6369 -1.3383
 1532WAT     H2 6835   5.184   3.941   3.941 -0.0860  1.0813 -0.4885
 1532WAT    EPW 6836   5.213   3.974   4.006  0.5689 -0.4779 -0.2892
 1533WAT      O 6837   6.605   2.030   4.588 -0.3283  0.0248  0.3488
 1533WAT     H1 6838   6.603   2.114   4.563  0.8819  0.2821  1.0317
 1533WAT     H2 6839   6.625   1.987   4.515 -0.9329  0.3318  0.0008
 1533WAT    EPW 6840   6.607   2.036   4.574 -0.0540 -0.1678  0.0745
 1534WAT      O 6841   8.061   2.984   3.566 -0.5813 -1.0172 -0.5449
 1534WAT     H1 6842   8.060   2.991   3.479 -0.3601 -1.3195 -0.5762
 1534WAT     H2 6843   7.979   2.999   3.589 -0.4608 -0.0495 -0.7281
 1534WAT    EPW 6844   8.049   2.987   3.556  0.1557  0.4814 -0.7812
 1535WAT      O 6845   7.012   0.772   3.518  0.1881 -0.3681 -0.1889
 1535WAT     H1 6846   7.033   0.841   3.567  1.2009 -0.2624 -0.7452
 1535WAT     H2 6847   7.081   0.761   3.466  0.3914 -2.2892  0.3941
 1535WAT    EPW 6848   7.025   0.780   3.517  0.8670 -0.5510 -0.3187
 1536WAT      O 6849   0.755   3.682   3.766 -0.2762 -0.2812  0.0106
 1536WAT     H1 6850   0.785   3.636   3.699 -0.4529 -2.5532  1.3978
 1536WAT     H2 6851   0.668   3.673   3.760 -0.3859  0.7643 -0.2571
 1536WAT    EPW 6852   0.747   3.674   3.756  0.3286 -0.4854  0.1238
 1537WAT      O 6853   0.348   7.854   2.884  0.5434 -0.3563  0.8813
 1537WAT     H1 6854   0.407   7.789   2.893 -2.3275 -3.0249  2.2134
 1537WAT     H2 6855   0.335   7.880   2.966 -0.4939 -0.1775  0.6607
 1537WAT    EPW 6856   0.355   7.848   2.897  0.2689 -0.8100 -0.3892
 1538WAT      O 6857   0.202   3.658   3.968  0.0377  0.1678  0.2664
 1538WAT     H1 6858   0.278   3.678   3.930  0.6290  0.3840  1.5125
 1538WAT     H2 6859   0.182   3.730   4.013 -0.1495 -0.4172  1.1359
 1538WAT    EPW 6860   0.210   3.672   3.969 -0.7555 -0.1820 -0.0406
 1539WAT      O 6861   0.647   3.068   3.602  0.0855 -0.3524 -0.4736
 1539WAT     H1 6862   0.611   3.030   3.533 -2.2259 -0.5531  0.7436
 1539WAT     H2 6863   0.722   3.024   3.614  0.9502  0.1811 -3.2109
 1539WAT    EPW 6864   0.653   3.056   3.594 -0.1057 -0.4745 -0.0728
 1540WAT      O 6865   0.271   2.037   3.401 -0.4027 -0.3953  0.6243
 1540WAT     H1 6866   0.273   1.955   3.430  1.0068  0.1079  2.0921
 1540WAT     H2 6867   0.355   2.056   3.387 -0.4192  1.4940  2.5553
 1540WAT    EPW 6868   0.284   2.027   3.403 -1.1068 -0.5639 -0.5748
 1541WAT      O 6869   6.639   2.288   4.470  0.1317 -0.1213 -0.4592
 1541WAT     H1 6870   6.713   2.330   4.490  0.2379  0.0023 -1.0899
 1541WAT     H2 6871   6.648   2.270   4.385 -0.9772  0.7446 -0.7856
 1541WAT    EPW 6872   6.651   2.291   4.460 -0.2387 -0.5808 -0.7133
 1542WAT      O 6873   6.992   1.742   4.272  0.5789 -0.0494  0.3690
 1542WAT     H1 6874   6.970   1.662   4.245 -2.3747  0.8326 -0.1861
 1542WAT     H2 6875   6.989   1.790   4.199  1.7494  0.6998  0.7838
 1542WAT    EPW 6876   6.988   1.737   4.257 -0.2961  0.2266 -0.4148
 1543WAT      O 6877   5.521   2.210   5.365  0.0020  0.1643 -0.1346
 1543WAT     H1 6878   5.449   2.164   5.346  0.9264 -0.1977 -3.4223
 1543WAT     H2 6879   5.582   2.148   5.377  0.3905  0.4782 -0.4533
 1543WAT    EPW 6880   5.519   2.194   5.364 -0.6115 -0.4605 -1.0017
 1544WAT      O 6881   6.143   7.995   4.534 -0.0978  0.4337  0.2244
 1544WAT     H1 6882   6.215   8.026   4.496  0.3588 -1.0914 -0.2406
 1544WAT     H2 6883   6.173   7.940   4.595 -0.8046 -1.1097 -0.7382
 1544WAT    EPW 6884   6.158   7.991   4.537  0.1637 -0.2522  0.3418
 1545WAT      O 6885   7.243   2.851   3.955 -0.3717  0.1210  0.2456
 1545WAT     H1 6886   7.320   2.821   3.925 -0.3929 -0.9639  1.2341
 1545WAT     H2 6887   7.197   2.779   3.970 -0.7280  0.6577  1.9023
 1545WAT    EPW 6888   7.248   2.836   3.953  0.7965  0.2852 -0.3001
 1546WAT      O 6889   0.127   1.659   3.941  0.3856 -0.3397  0.1899
 1546WAT     H1 6890   0.150   1.711   3.874 -1.0872  0.1615  0.0298
 1546WAT     H2 6891   0.118   1.581   3.905 -1.5382  0.1449 -0.5036
 1546WAT    EPW 6892   0.129   1.655   3.926  0.4401  0.8745  0.3124
 1547WAT      O 6893   7.163   3.479   3.722  0.0899  0.6406  0.2070
 1547WAT     H1 6894   7.167   3.564   3.706  0.7164  0.6303  0.2888
 1547WAT     H2 6895   7.162   3.475   3.809  2.1600  0.4985  0.2586
 1547WAT    EPW 6896   7.163   3.491   3.733 -0.6713 -0.1837 -0.7026
 1548WAT      O 6897   7.247   1.683   4.029  0.7905  0.1396  0.1534
 1548WAT     H1 6898   7.216   1.764   4.034 -0.6258 -0.4342  1.7616
 1548WAT     H2 6899   7.310   1.681   4.090  0.5343 -0.0791  0.4122
 1548WAT    EPW 6900   7.252   1.695   4.039  0.7648  0.1057 -0.5435
 1549WAT      O 6901   7.588   2.162   3.752 -0.1446 -0.0389 -0.3515
 1549WAT     H1 6902   7.507   2.165   3.720 -0.1243  0.5463 -0.3521
 1549WAT     H2 6903   7.627   2.232   3.717 -0.5490  1.5273  2.0582
 1549WAT    EPW 6904   7.582   2.173   3.742  0.2066  0.6423 -0.5540
 1550WAT      O 6905   6.125   2.548   4.773 -0.4002 -0.1027 -0.0533
 1550WAT     H1 6906   6.046   2.582   4.790 -0.3102 -0.4071  1.0199
 1550WAT     H2 6907   6.107   2.473   4.732 -0.6327  0.2631 -0.6450
 1550WAT    EPW 6908   6.110   2.542   4.769  0.4624 -0.1117  0.0657
 1551WAT      O 6909   6.049   2.247   4.536 -0.1345  0.1096  0.1012
 1551WAT     H1 6910   6.082   2.240   4.617  0.6636  0.5088 -0.1833
 1551WAT     H2 6911   5.972   2.287   4.549  0.1711  0.5500  0.6203
 1551WAT    EPW 6912   6.043   2.252   4.550 -0.2645  1.2011 -0.7350
 1552WAT      O 6913   0.557   2.477   2.764 -0.1724  0.2396 -0.1144
 1552WAT     H1 6914   0.591   2.553   2.738 -0.3062  0.2103 -0.3786
 1552WAT     H2 6915   0.626   2.433   2.794 -0.2790  0.9710  1.3192
 1552WAT    EPW 6916   0.572   2.482   2.765 -0.2759  0.6251  0.3395
 1553WAT      O 6917   0.415   1.365   3.023  0.4695  0.3210  0.5880
 1553WAT     H1 6918   0.423   1.369   2.936  2.1937 -1.0425  0.6250
 1553WAT     H2 6919   0.356   1.301   3.035 -1.0708  1.6519  0.4506
 1553WAT    EPW 6920   0.407   1.356   3.012  0.0586  1.2618 -0.1504
 1554WAT      O 6921   6.244   3.187   4.130  0.0927  0.8544 -0.0595
 1554WAT     H1 6922   6.255   3.203   4.045  0.7693  1.4689  0.1313
 1554WAT     H2 6923   6.162   3.157   4.135 -0.2972  1.7533 -0.7950
 1554WAT    EPW 6924   6.234   3.185   4.118  0.5544  0.2603 -1.1170
 1555WAT      O 6925   0.095   3.952   2.741 -0.1586 -0.3386 -0.2476
 1555WAT     H1 6926   0.018   3.943   2.781 -0.9101  0.9711 -1.2964
 1555WAT     H2 6927   0.101   3.880   2.692  0.4172 -1.5850  1.5408
 1555WAT    EPW 6928   0.084   3.940   2.740  0.4798  0.6090  0.5167
 1556WAT      O 6929   6.374   3.335   2.975 -0.5510  0.0535 -0.3142
 1556WAT     H1 6930   6.314   3.339   3.038 -1.5304 -1.1582 -1.1208
 1556WAT     H2 6931   6.373   3.415   2.940 -2.7155 -0.2649 -1.1704
 1556WAT    EPW 6932   6.365   3.347   2.979  0.2057  0.2168  0.0800
 1557WAT      O 6933   6.783   2.606   3.806 -0.7394  0.5594  0.5581
 1557WAT     H1 6934   6.773   2.655   3.878 -2.7081  1.2605 -0.1092
 1557WAT     H2 6935   6.754   2.528   3.830  0.6747  0.1836  1.1112
 1557WAT    EPW 6936   6.777   2.602   3.820  0.1812 -0.4158  0.5505
 1558WAT      O 6937   6.469   2.833   4.340 -0.0908 -0.2472 -0.3253
 1558WAT     H1 6938   6.514   2.772   4.383  2.3377  1.3100 -0.4917
 1558WAT     H2 6939   6.492   2.820   4.256 -1.0349 -0.2630 -0.5940
 1558WAT    EPW 6940   6.479   2.822   4.334 -0.4720  0.3784  0.7835
 1559WAT      O 6941   0.808   7.611   4.266 -0.0069 -0.0265 -0.3082
 1559WAT     H1 6942   0.866   7.627   4.203  1.0036  1.9835  1.0082
 1559WAT     H2 6943   0.734   7.644   4.234 -0.2193 -1.5887 -1.5408
 1559WAT    EPW 6944   0.806   7.618   4.252  0.4636  0.2682 -0.7530
 1560WAT      O 6945   6.822   3.266   3.952  0.3632  0.1504 -0.6501
 1560WAT     H1 6946   6.793   3.338   3.915 -0.7139 -0.4279 -0.9657
 1560WAT     H2 6947   6.908   3.281   3.962  0.2552  1.2284 -1.2139
 1560WAT    EPW 6948   6.831   3.279   3.948 -0.7001  0.7411 -0.0571
 1561WAT      O 6949   6.937   1.837   3.505  0.0048 -0.6293  0.3876
 1561WAT     H1 6950   6.943   1.893   3.438 -1.4484  0.7118  1.3121
 1561WAT     H2 6951   6.957   1.760   3.469  3.5403  0.5623 -0.6603
 1561WAT    EPW 6952   6.941   1.834   3.489  0.0486  0.2714 -0.5037
 1562WAT      O 6953   6.169   4.003   5.105  0.0657  0.3870  0.5895
 1562WAT     H1 6954   6.159   4.082   5.141  0.1769  0.1488  1.1436
 1562WAT     H2 6955   6.192   3.953   5.172 -0.9052 -0.3184  0.4092
 1562WAT    EPW 6956   6.171   4.008   5.120 -0.0520  0.1806 -0.1299
 1563WAT      O 6957   7.967   3.218   3.237 -0.0258 -0.1267  0.6400
 1563WAT     H1 6958   7.958   3.225   3.150  0.9400  0.6697  0.5834
 1563WAT     H2 6959   8.001   3.138   3.247  2.8984  0.8939 -0.0423
 1563WAT    EPW 6960   7.971   3.207   3.225  0.0799 -0.4518  0.7089
 1564WAT      O 6961   6.358   3.335   4.868 -0.2145 -0.1793  0.3650
 1564WAT     H1 6962   6.431   3.372   4.837  0.8924 -2.0905  0.5711
 1564WAT     H2 6963   6.310   3.322   4.796  1.2042 -2.1477 -0.3021
 1564WAT    EPW 6964   6.361   3.339   4.853 -0.4716 -0.1861 -0.2386
 1565WAT      O 6965   6.449   4.603   4.302 -0.0905  0.0029  0.8677
 1565WAT     H1 6966   6.439   4.540   4.361 -0.3140  0.1337  0.9664
 1565WAT     H2 6967   6.387   4.661   4.321 -0.3254 -0.0704  0.3543
 1565WAT    EPW 6968   6.439   4.602   4.313  0.3447  0.0929 -0.2714
 1566WAT      O 6969   7.759   2.194   4.028  0.0105  0.4029  0.2755
 1566WAT     H1 6970   7.840   2.182   4.061  0.9536 -1.1289 -2.3296
 1566WAT     H2 6971   7.728   2.113   4.020 -1.6132  0.9442  0.6474
 1566WAT    EPW 6972   7.767   2.180   4.032  0.6962  0.5670  0.1974
 1567WAT      O 6973   7.281   1.437   4.317  0.5544 -0.1180  0.8333
 1567WAT     H1 6974   7.300   1.520   4.299  0.0779 -0.0722  0.5145
 1567WAT     H2 6975   7.360   1.400   4.327  0.7640  0.3986  1.1239
 1567WAT    EPW 6976   7.296   1.444   4.316  0.6627 -0.6170  0.3231
 1568WAT      O 6977   7.133   3.085   4.352  0.1030 -0.0868 -0.0505
 1568WAT     H1 6978   7.052   3.109   4.328  0.6761  0.3939 -1.6142
 1568WAT     H2 6979   7.120   3.009   4.394 -1.0983 -0.3108 -0.7707
 1568WAT    EPW 6980   7.119   3.077   4.355 -0.0583  0.2739 -1.0038
 1569WAT      O 6981   6.567   2.876   4.092 -0.1410 -0.2370  0.2540
 1569WAT     H1 6982   6.508   2.904   4.034  0.5483 -0.9069 -0.7981
 1569WAT     H2 6983   6.599   2.950   4.125 -0.6955  0.1554 -0.0595
 1569WAT    EPW 6984   6.563   2.891   4.088 -0.4592  0.2381 -0.0938
 1570WAT      O 6985   6.713   2.583   1.713  0.2220 -0.4695 -0.4692
 1570WAT     H1 6986   6.751   2.653   1.677  0.4066 -0.7759 -0.8798
 1570WAT     H2 6987   6.633   2.611   1.733  0.0108 -0.3675 -1.3956
 1570WAT    EPW 6988   6.707   2.598   1.710 -0.5122  0.2315 -0.4784
 1571WAT      O 6989   7.736   1.115   0.636 -0.3392  0.2591 -0.2315
 1571WAT     H1 6990   7.746   1.193   0.673 -0.1915  0.3422 -0.4457
 1571WAT     H2 6991   7.670   1.079   0.681 -0.5461  0.5886 -0.2700
 1571WAT    EPW 6992   7.728   1.121   0.648  0.5337 -0.4898 -0.2260
 1572WAT      O 6993   7.394   2.101   2.529  0.1289 -0.2757  0.1864
 1572WAT     H1 6994   7.352   2.174   2.507  1.3414  1.2397  2.5196
 1572WAT     H2 6995   7.390   2.052   2.456 -1.9607  1.4725 -0.9947
 1572WAT    EPW 6996   7.387   2.104   2.515 -0.1238 -0.1515  0.1063
 1573WAT      O 6997   7.943   2.468   2.366 -0.2923  0.3123 -0.0832
 1573WAT     H1 6998   7.873   2.490   2.413 -0.0334 -0.5509  0.7354
 1573WAT     H2 6999   8.009   2.483   2.421 -0.0209 -1.2748  0.0456
 1573WAT    EPW 7000   7.943   2.474   2.381 -0.5088  0.0270 -0.2610
 1574WAT      O 7001   0.895   1.958   3.226 -0.6149 -0.4236  0.0219
 1574WAT     H1 7002   0.980   1.971   3.242 -0.5625  1.5517 -1.4724
 1574WAT     H2 7003   0.860   2.037   3.236 -2.3014 -1.2007  0.5855
 1574WAT    EPW 7004   0.902   1.972   3.230 -0.2256  0.3891 -0.0927
 1575WAT      O 7005   7.486   3.141   1.994 -0.2042  0.0421  0.1450
 1575WAT     H1 7006   7.461   3.223   2.011  1.3631  0.4158  0.8359
 1575WAT     H2 7007   7.414   3.094   2.008 -1.3446  1.3644 -1.0039
 1575WAT    EPW 7008   7.472   3.147   1.999  0.0795  0.2168 -1.0703
 1576WAT      O 7009   0.537   2.677   3.701 -0.5025 -0.4362 -0.1010
 1576WAT     H1 7010   0.601   2.724   3.737 -1.2361  0.5626 -0.0856
 1576WAT     H2 7011   0.542   2.697   3.616 -0.9778 -0.1406 -0.0579
 1576WAT    EPW 7012   0.547   2.687   3.694  0.3669  0.6583  0.5241
 1577WAT      O 7013   0.766   1.376   2.340 -0.0611 -0.3897 -0.3856
 1577WAT     H1 7014   0.726   1.305   2.371  0.0153  0.2188  1.1706
 1577WAT     H2 7015   0.706   1.411   2.287 -0.7446 -0.7057  0.1530
 1577WAT    EPW 7016   0.751   1.370   2.337  0.5757 -1.2863  0.5600
 1578WAT      O 7017   7.473   2.666   2.591 -0.1160  0.7250 -0.3966
 1578WAT     H1 7018   7.511   2.741   2.617  2.5249 -0.8422  0.5979
 1578WAT     H2 7019   7.535   2.626   2.545 -1.3725 -0.9956 -0.6818
 1578WAT    EPW 7020   7.487   2.671   2.588  0.2903 -0.1646  0.0139
 1579WAT      O 7021   7.809   0.973   3.739  0.4161 -0.0280  0.4867
 1579WAT     H1 7022   7.785   1.057   3.738 -0.4902 -0.2723 -0.5023
 1579WAT     H2 7023   7.881   0.972   3.690 -0.3138 -0.0108 -0.6185
 1579WAT    EPW 7024   7.816   0.985   3.732  0.1466  0.1128 -0.1607
 1580WAT      O 7025   7.985   2.377   1.716 -0.1223  0.0839  0.3054
 1580WAT     H1 7026   7.949   2.436   1.663  1.7025 -0.5156 -1.7353
 1580WAT     H2 7027   8.056   2.416   1.747  0.3061 -0.5378  0.1219
 1580WAT    EPW 7028   7.990   2.392   1.713  0.6485 -0.6671 -0.5427
 1581WAT      O 7029   0.722   0.468   3.706 -0.2154  0.6371  0.3354
 1581WAT     H1 7030   0.769   0.446   3.776 -2.6348 -0.8198  1.6262
 1581WAT     H2 7031   0.703   0.552   3.720  2.0672  1.3497 -0.3527
 1581WAT    EPW 7032   0.726   0.477   3.718  0.1758 -0.3831  0.0015
 1582WAT      O 7033   0.578   3.584   3.398 -0.3737 -0.0070 -0.3767
 1582WAT     H1 7034   0.632   3.652   3.392  0.9885 -0.8344  1.4241
 1582WAT     H2 7035   0.632   3.515   3.397 -1.4865 -0.9321  0.2964
 1582WAT    EPW 7036   0.594   3.584   3.397  0.4056 -0.2262  0.1118
 1583WAT      O 7037   0.374   3.450   1.819  0.1455 -0.4122  0.3041
 1583WAT     H1 7038   0.396   3.371   1.848 -1.4375 -1.0296 -0.0489
 1583WAT     H2 7039   0.288   3.443   1.804  0.0038  1.3188  0.0691
 1583WAT    EPW 7040   0.364   3.438   1.821  0.0330  0.5495 -0.2371
 1584WAT      O 7041   6.868   1.505   1.286  0.3753  0.4518 -0.1130
 1584WAT     H1 7042   6.847   1.423   1.311 -1.6071  0.6133 -1.0954
 1584WAT     H2 7043   6.825   1.515   1.211  1.3957  2.0851 -0.5136
 1584WAT    EPW 7044   6.859   1.494   1.279 -0.4304 -0.7512  0.7082
 1585WAT      O 7045   0.042   7.131   0.832  0.2732 -0.7372 -0.1339
 1585WAT     H1 7046   0.064   7.065   0.778  0.0460  1.2176 -2.8112
 1585WAT     H2 7047  -0.045   7.129   0.832  0.2547 -0.2442 -0.5488
 1585WAT    EPW 7048   0.033   7.121   0.824 -0.4593 -0.3546 -0.3859
 1586WAT      O 7049   0.663   0.594   2.449 -0.0988 -0.1876 -0.1667
 1586WAT     H1 7050   0.588   0.581   2.407 -0.9403  2.8248  0.1392
 1586WAT     H2 7051   0.647   0.568   2.530 -0.9806  0.7565 -0.0191
 1586WAT    EPW 7052   0.650   0.588   2.454 -0.1634  0.1687  0.5327
 1587WAT      O 7053   7.196   4.482   2.208 -0.4670 -0.3808 -0.2794
 1587WAT     H1 7054   7.207   4.564   2.236 -1.4475 -0.3030 -0.0804
 1587WAT     H2 7055   7.226   4.485   2.125 -0.7960  0.2594 -0.3856
 1587WAT    EPW 7056   7.202   4.495   2.200 -0.1675 -0.1671 -0.5139
 1588WAT      O 7057   0.254   0.892   0.916 -0.2687  0.2805  0.2872
 1588WAT     H1 7058   0.203   0.953   0.953 -1.9210 -0.4325 -0.7200
 1588WAT     H2 7059   0.221   0.817   0.946 -0.5304 -0.2353 -1.2037
 1588WAT    EPW 7060   0.241   0.890   0.926 -0.9877  0.4320  0.1350
 1589WAT      O 7061   7.705   1.458   2.947  0.4672 -0.4495 -0.3279
 1589WAT     H1 7062   7.627   1.483   2.917  1.3435  0.8677 -1.6746
 1589WAT     H2 7063   7.761   1.506   2.899  2.1235 -1.9418  0.0270
 1589WAT    EPW 7064   7.702   1.469   2.935 -0.2102 -0.5208  0.1370
 1590WAT      O 7065   0.128   1.593   3.308  0.6166  0.6569  0.6188
 1590WAT     H1 7066   0.202   1.604   3.264 -0.2389  1.5536 -0.6669
 1590WAT     H2 7067   0.127   1.507   3.326  1.9737  0.6494  0.7305
 1590WAT    EPW 7068   0.139   1.582   3.305 -1.2270 -0.9710  0.1052
 1591WAT      O 7069   6.644   3.045   2.872  0.1324 -0.1690 -0.5768
 1591WAT     H1 7070   6.598   3.056   2.799 -0.9970 -0.1000  0.1176
 1591WAT     H2 7071   6.601   2.982   2.914 -0.0449  0.7065  0.6313
 1591WAT    EPW 7072   6.631   3.037   2.867  0.3073 -1.0014 -0.0807
 1592WAT      O 7073   0.137   0.311   3.367  0.2007 -0.3345 -0.2972
 1592WAT     H1 7074   0.058   0.322   3.404  1.1011 -0.0032  1.6808
 1592WAT     H2 7075   0.190   0.304   3.436  1.9985  0.0715 -1.5913
 1592WAT    EPW 7076   0.133   0.311   3.383 -0.2587  0.4038  0.1371
 1593WAT      O 7077   0.488   2.115   3.248  0.1822  0.2707  0.2904
 1593WAT     H1 7078   0.574   2.120   3.231  0.5110 -0.0816  1.7339
 1593WAT     H2 7079   0.454   2.180   3.201  1.3653  1.0477  0.4722
 1593WAT    EPW 7080   0.496   2.125   3.239  0.8735  0.2922 -0.2714
 1594WAT      O 7081   0.703   3.146   2.766  0.0146 -0.3108 -0.1205
 1594WAT     H1 7082   0.636   3.153   2.821 -0.3943 -0.1267 -0.6372
 1594WAT     H2 7083   0.746   3.076   2.795 -0.5026 -0.5432  0.0970
 1594WAT    EPW 7084   0.700   3.137   2.779 -0.0433  0.2022 -0.1089
 1595WAT      O 7085   7.023   7.751   3.445 -0.6770 -0.3723 -0.7749
 1595WAT     H1 7086   7.049   7.806   3.508  0.2663 -0.7621 -0.8164
 1595WAT     H2 7087   7.045   7.672   3.476 -1.7483 -0.7257 -0.8447
 1595WAT    EPW 7088   7.030   7.747   3.459 -0.0900  0.0125 -0.3807
 1596WAT      O 7089   0.139   2.768   2.814 -0.0493  0.1861 -0.0348
 1596WAT     H1 7090   0.120   2.715   2.881 -2.4854 -1.2856 -1.7264
 1596WAT     H2 7091   0.066   2.768   2.767  1.2612  1.8542 -2.2595
 1596WAT    EPW 7092   0.125   2.760   2.817 -0.7988  0.1442 -0.5415
 1597WAT      O 7093   0.891   1.604   3.558 -0.7632  0.2844 -0.1219
 1597WAT     H1 7094   0.898   1.539   3.500  0.2526 -0.4127  0.7520
 1597WAT     H2 7095   0.964   1.598   3.605 -0.5730  2.1644 -0.1090
 1597WAT    EPW 7096   0.903   1.594   3.556 -0.1501 -0.4415  0.4282
 1598WAT      O 7097   0.226   1.965   2.313  0.0886 -0.2931 -0.2189
 1598WAT     H1 7098   0.239   1.976   2.227 -1.4934 -0.5397 -0.5207
 1598WAT     H2 7099   0.155   2.014   2.329  0.7263  0.2630  1.0967
 1598WAT    EPW 7100   0.217   1.974   2.302  1.1075 -0.2015  0.8217
 1599WAT      O 7101   7.273   0.867   1.024 -0.2161 -0.2548  0.1365
 1599WAT     H1 7102   7.210   0.858   0.965  0.2656  0.4570 -0.5098
 1599WAT     H2 7103   7.345   0.840   0.982 -0.1582 -1.6232  1.0563
 1599WAT    EPW 7104   7.274   0.862   1.009 -0.3217 -0.3230 -0.8205
 1600WAT      O 7105   7.317   2.492   1.783 -0.2088 -0.2547 -0.4389
 1600WAT     H1 7106   7.389   2.528   1.751 -0.2619 -1.7130 -2.3665
 1600WAT     H2 7107   7.345   2.414   1.812 -0.7187 -0.1253  0.4416
 1600WAT    EPW 7108   7.332   2.486   1.783  0.4236  0.5805 -1.3201
 1601WAT      O 7109   0.116   0.984   1.227  0.2558 -0.9080 -0.2540
 1601WAT     H1 7110   0.111   1.046   1.289  0.4216 -0.6119 -0.5362
 1601WAT     H2 7111   0.164   0.922   1.265  0.9018 -0.4547 -0.3028
 1601WAT    EPW 7112   0.122   0.984   1.242 -0.1014  0.3922  0.9057
 1602WAT      O 7113   0.520   1.400   1.462  0.3677  0.2480 -0.1517
 1602WAT     H1 7114   0.475   1.337   1.420  2.1873  0.4506 -2.6675
 1602WAT     H2 7115   0.552   1.359   1.532 -0.4718 -0.9509 -0.4199
 1602WAT    EPW 7116   0.518   1.384   1.466 -0.3841  0.6403 -0.5958
 1603WAT      O 7117   7.661   2.740   1.856 -0.8144  0.2885 -0.4804
 1603WAT     H1 7118   7.701   2.816   1.841  0.3599 -0.0364  0.7235
 1603WAT     H2 7119   7.629   2.749   1.937  0.8394 -1.0280  0.3993
 1603WAT    EPW 7120   7.662   2.752   1.866 -0.4018  0.1739 -0.1901
 1604WAT      O 7121   0.180   7.854   2.306 -0.0331 -0.3018  0.1854
 1604WAT     H1 7122   0.260   7.828   2.283  0.3218  2.1529 -1.6683
 1604WAT     H2 7123   0.169   7.817   2.384  3.6967  0.7500  1.4328
 1604WAT    EPW 7124   0.190   7.844   2.314  0.0197  0.0398 -0.5413
 1605WAT      O 7125   8.034   0.820   3.119 -0.0061  0.5039 -0.3739
 1605WAT     H1 7126   7.990   0.763   3.070 -0.1271  1.1153 -0.9959
 1605WAT     H2 7127   8.020   0.792   3.200 -0.5177 -0.0322 -0.6387
 1605WAT    EPW 7128   8.025   0.807   3.124 -1.0393 -0.6028  0.1259
 1606WAT      O 7129   0.859   0.948   3.391  0.7108 -0.9500 -0.1359
 1606WAT     H1 7130   0.862   0.994   3.465 -1.6867 -1.0556  0.1230
 1606WAT     H2 7131   0.845   1.009   3.330  1.1823 -1.0034 -0.2988
 1606WAT    EPW 7132   0.857   0.964   3.393  0.3856 -0.0185  0.2233
 1607WAT      O 7133   7.629   3.765   3.144 -0.3231  0.1728  0.2674
 1607WAT     H1 7134   7.702   3.751   3.099 -0.9663 -1.9716 -0.2247
 1607WAT     H2 7135   7.632   3.707   3.208 -0.5774  1.5735  1.6130
 1607WAT    EPW 7136   7.640   3.755   3.147 -0.3919 -0.2125  0.4098
 1608WAT      O 7137   7.381   0.426   1.972  0.3823  0.5317 -0.3474
 1608WAT     H1 7138   7.340   0.475   1.913 -1.0509  0.0140  0.1834
 1608WAT     H2 7139   7.322   0.416   2.035  1.8868  1.1451  1.2504
 1608WAT    EPW 7140   7.366   0.432   1.973  0.2723  0.3949 -0.7524
 1609WAT      O 7141   6.412   2.365   1.955 -0.1766 -0.2095  0.8417
 1609WAT     H1 7142   6.370   2.435   1.923  1.7349  2.7502  4.0964
 1609WAT     H2 7143   6.377   2.355   2.035  1.7052 -0.9524  1.6194
 1609WAT    EPW 7144   6.400   2.374   1.962 -0.0970 -0.3788 -0.5128
 1610WAT      O 7145   7.902   3.803   2.469  0.1633  0.2164 -0.7796
 1610WAT     H1 7146   7.878   3.732   2.423 -1.5007 -1.0313  1.8093
 1610WAT     H2 7147   7.968   3.774   2.518 -0.8965  0.2497  0.7051
 1610WAT    EPW 7148   7.908   3.788   2.469  1.3453  0.1934  0.8323
 1611WAT      O 7149   8.008   1.290   1.372 -0.1168  0.5145  0.0282
 1611WAT     H1 7150   7.963   1.238   1.426  1.0741  0.5847  1.1439
 1611WAT     H2 7151   8.084   1.249   1.363 -0.2320  0.5832 -1.5250
 1611WAT    EPW 7152   8.013   1.276   1.379  0.3935  0.2227 -0.7819
 1612WAT      O 7153   7.164   2.582   3.190 -0.0135  0.4132 -0.0792
 1612WAT     H1 7154   7.206   2.610   3.119  0.1039  1.3850  0.3530
 1612WAT     H2 7155   7.200   2.628   3.255 -0.0272 -0.5547  0.6381
 1612WAT    EPW 7156   7.175   2.593   3.189 -0.1853 -0.2692  0.1430
 1613WAT      O 7157   7.714   2.958   3.909 -0.1867  0.1170 -0.2093
 1613WAT     H1 7158   7.773   2.907   3.947 -0.1370 -1.5040 -2.2742
 1613WAT     H2 7159   7.640   2.912   3.916 -0.8246  1.2216  0.6093
 1613WAT    EPW 7160   7.712   2.943   3.916 -0.0034 -0.1870 -0.3838
 1614WAT      O 7161   0.203   1.854   4.092  0.0522  0.3945 -0.3552
 1614WAT     H1 7162   0.129   1.898   4.077 -1.5069 -1.7436  0.5562
 1614WAT     H2 7163   0.182   1.771   4.074  1.0459 -0.8541  3.3029
 1614WAT    EPW 7164   0.189   1.848   4.087  0.1287  0.3821  0.4573
 1615WAT      O 7165   1.024   0.686   2.978  0.0421  0.2961  0.7868
 1615WAT     H1 7166   1.061   0.672   3.056 -1.1866 -0.4055  1.2645
 1615WAT     H2 7167   0.954   0.735   2.996  0.0373  0.5740  0.0513
 1615WAT    EPW 7168   1.019   0.691   2.992  0.0531 -0.2773  0.0916
 1616WAT      O 7169   7.756   1.643   1.636 -0.6897 -0.0993 -0.6464
 1616WAT     H1 7170   7.733   1.611   1.714 -0.3395 -1.3572 -1.0355
 1616WAT     H2 7171   7.843   1.637   1.635 -0.6269  0.6495 -0.8463
 1616WAT    EPW 7172   7.765   1.638   1.647  0.1968  0.1472  0.1710
 1617WAT      O 7173   8.057   4.000   2.388  0.1346 -0.0344 -0.2918
 1617WAT     H1 7174   8.008   3.928   2.381  0.0277  0.0881 -0.7955
 1617WAT     H2 7175   8.018   4.044   2.453 -0.8691  0.4072 -1.1594
 1617WAT    EPW 7176   8.044   3.996   2.397  0.5522  0.0134 -0.2714
 1618WAT      O 7177   6.837   3.947   3.124  0.0029 -0.2220  0.2646
 1618WAT     H1 7178   6.881   4.002   3.073  0.2809 -0.8021 -0.1312
 1618WAT     H2 7179   6.797   3.894   3.067 -0.1733 -0.4952  0.6374
 1618WAT    EPW 7180   6.838   3.947   3.108  0.4440 -0.4068 -0.8242
 1619WAT      O 7181   8.038   2.221   4.142  0.0465 -0.9971 -0.2898
 1619WAT     H1 7182   8.115   2.262   4.132 -0.6069  0.9014  1.6552
 1619WAT     H2 7183   8.034   2.207   4.228 -2.7111  1.0457  0.0618
 1619WAT    EPW 7184   8.049   2.225   4.153 -0.1926 -0.5904  0.2422
 1620WAT      O 7185   7.450   2.900   1.407 -0.2385  0.0171  0.1767
 1620WAT     H1 7186   7.472   2.853   1.337  1.6514  3.2870 -1.6884
 1620WAT     H2 7187   7.368   2.924   1.392  0.8152  2.6719 -2.4482
 1620WAT    EPW 7188   7.441   2.897   1.394 -0.3545  0.3235 -0.2330
 1621WAT      O 7189   7.945   2.101   1.769  0.1384 -0.3075 -0.1961
 1621WAT     H1 7190   7.978   2.181   1.756  1.9084 -0.7480  1.2067
 1621WAT     H2 7191   7.975   2.055   1.701 -1.7553  0.3923 -1.5872
 1621WAT    EPW 7192   7.954   2.106   1.757 -0.1732 -0.3373 -0.6143
 1622WAT      O 7193   1.155   2.977   4.392 -0.3251 -0.4664 -0.2450
 1622WAT     H1 7194   1.234   2.949   4.369 -0.0127  0.8167 -0.8537
 1622WAT     H2 7195   1.125   3.016   4.319 -0.6894  0.7758  0.5332
 1622WAT    EPW 7196   1.162   2.979   4.378 -1.5262  0.9486 -0.5083
 1623WAT      O 7197   7.077   1.870   1.206 -0.0832  0.8854  0.3267
 1623WAT     H1 7198   7.057   1.885   1.290  0.5954 -0.9573  0.8571
 1623WAT     H2 7199   7.083   1.784   1.201  4.6470  0.9971 -0.3997
 1623WAT    EPW 7200   7.075   1.860   1.218  0.1205 -0.8606 -0.1646
 1624WAT      O 7201   6.865   1.908   2.139 -0.6653  0.2630 -0.6978
 1624WAT     H1 7202   6.815   1.957   2.191  0.5923  2.3510 -1.3225
 1624WAT     H2 7203   6.829   1.829   2.144 -2.0864  0.9608  1.3272
 1624WAT    EPW 7204   6.852   1.903   2.148  0.2077 -0.0828 -0.3206
 1625WAT      O 7205   7.652   1.738   3.648 -0.1263  0.5425  0.4123
 1625WAT     H1 7206   7.571   1.769   3.659  0.4910  1.9482  1.1536
 1625WAT     H2 7207   7.698   1.808   3.625  1.0749 -0.0780  0.8570
 1625WAT    EPW 7208   7.646   1.753   3.646  0.1292  0.3995  0.1239
 1626WAT      O 7209   7.466   3.196   2.863 -0.4788  0.1695  0.0244
 1626WAT     H1 7210   7.401   3.218   2.809  0.4863  0.8965 -0.8682
 1626WAT     H2 7211   7.488   3.271   2.900  2.2103  0.6781 -2.3312
 1626WAT    EPW 7212   7.460   3.210   2.861 -0.0225  0.5306 -0.6377
 1627WAT      O 7213   7.577   1.822   3.131  0.3374 -0.3030  0.3846
 1627WAT     H1 7214   7.654   1.787   3.152  0.3133 -1.5363 -1.3505
 1627WAT     H2 7215   7.529   1.811   3.203  1.1679 -1.4512  0.7915
 1627WAT    EPW 7216   7.581   1.815   3.145  0.2612 -0.2730  0.1083
 1628WAT      O 7217   7.377   2.034   2.803  0.3066  0.0146  0.4642
 1628WAT     H1 7218   7.357   2.065   2.723 -0.7274 -0.3391  0.5741
 1628WAT     H2 7219   7.415   2.102   2.842 -0.1522  0.5258  0.0350
 1628WAT    EPW 7220   7.380   2.048   2.797 -0.0763 -0.3681  0.2598
 1629WAT      O 7221   0.499   0.038   4.131  0.2883 -0.5612 -0.3186
 1629WAT     H1 7222   0.579   0.052   4.162 -0.1471 -1.8650  1.5564
 1629WAT     H2 7223   0.507  -0.038   4.089  0.6427  0.7152 -2.7279
 1629WAT    EPW 7224   0.512   0.029   4.129 -0.0294 -0.0631  0.9696
 1630WAT      O 7225   7.745   2.745   2.170  0.5531 -0.2450 -0.3479
 1630WAT     H1 7226   7.664   2.774   2.154  0.1379 -1.2640 -0.1698
 1630WAT     H2 7227   7.735   2.658   2.175  1.6914 -0.4052 -0.5279
 1630WAT    EPW 7228   7.732   2.736   2.168  0.0169  0.5121 -0.7472
 1631WAT      O 7229   7.374   1.901   2.321 -0.7191  0.0866  0.0527
 1631WAT     H1 7230   7.395   1.926   2.240  0.2369  1.6132  0.7130
 1631WAT     H2 7231   7.287   1.895   2.319 -0.9211  2.3281 -0.5426
 1631WAT    EPW 7232   7.364   1.904   2.309  0.1508 -0.5167  0.5683
 1632WAT      O 7233   0.089   2.313   3.200  0.1333 -0.3590  0.2447
 1632WAT     H1 7234   0.172   2.302   3.223 -0.0500 -3.8678 -0.2355
 1632WAT     H2 7235   0.046   2.306   3.275  0.2197  1.1466  0.4516
 1632WAT    EPW 7236   0.095   2.310   3.214  0.2338  1.1163 -0.0859
 1633WAT      O 7237   7.453   4.061   3.015  0.2871 -0.1360  0.2123
 1633WAT     H1 7238   7.429   4.015   2.945  1.3638 -0.0632 -0.2134
 1633WAT     H2 7239   7.429   4.142   2.995 -0.1285 -0.2375  0.2786
 1633WAT    EPW 7240   7.446   4.066   3.002 -0.0482  0.2917  0.1900
 1634WAT      O 7241   6.788   1.921   1.578 -0.1773  0.3293 -0.1807
 1634WAT     H1 7242   6.873   1.926   1.596 -0.5013 -0.1780  1.7096
 1634WAT     H2 7243   6.781   1.965   1.503  1.7408  0.3766 -0.3949
 1634WAT    EPW 7244   6.800   1.928   1.569 -0.8200  0.2044 -0.7919
 1635WAT      O 7245   0.274   0.957   2.383 -0.3610 -0.6858 -0.7792
 1635WAT     H1 7246   0.279   0.902   2.315 -1.3362  0.3645 -1.7379
 1635WAT     H2 7247   0.320   1.026   2.356 -1.5128  0.1077 -0.7447
 1635WAT    EPW 7248   0.282   0.959   2.369 -0.2890 -1.1015 -0.4605
 1636WAT      O 7249   7.438   1.784   0.985 -0.7394 -0.4886 -0.2220
 1636WAT     H1 7250   7.407   1.826   1.055 -1.1395  1.7523 -1.6254
 1636WAT     H2 7251   7.366   1.751   0.948 -0.7898  0.0102 -0.5827
 1636WAT    EPW 7252   7.422   1.786   0.990 -0.3599 -0.0037  0.0414
 1637WAT      O 7253   0.564   2.117   2.863  0.4309 -0.6792 -0.2879
 1637WAT     H1 7254   0.549   2.051   2.919 -0.3576  0.9840  1.5459
 1637WAT     H2 7255   0.573   2.076   2.787 -1.1291 -2.8518  0.5770
 1637WAT    EPW 7256   0.563   2.101   2.860  0.4599 -0.0903 -0.0620
 1638WAT      O 7257   0.113   1.062   2.026  0.9755  0.4205 -0.3060
 1638WAT     H1 7258   0.128   0.983   1.992  0.0262 -0.0118  0.2620
 1638WAT     H2 7259   0.066   1.046   2.097 -0.5063  1.5756 -0.9601
 1638WAT    EPW 7260   0.108   1.048   2.031  0.3226  0.2519 -0.1746
 1639WAT      O 7261   0.467   3.200   3.258  0.4572  0.4405  0.0039
 1639WAT     H1 7262   0.482   3.155   3.185  0.0979 -0.6735  0.5951
 1639WAT     H2 7263   0.454   3.282   3.229  1.6147  0.2747 -1.0397
 1639WAT    EPW 7264   0.467   3.206   3.243 -0.1298 -0.1422 -0.2738
 1640WAT      O 7265   0.260   1.729   2.790  0.6881 -0.2196  0.3719
 1640WAT     H1 7266   0.189   1.747   2.836 -0.0402 -1.4123 -0.2272
 1640WAT     H2 7267   0.247   1.768   2.714 -0.6206 -2.5452 -0.7120
 1640WAT    EPW 7268   0.248   1.737   2.786 -0.4392  0.4390 -0.5011
 1641WAT      O 7269   7.238   2.038   1.676  0.0963  0.5221  0.4186
 1641WAT     H1 7270   7.245   1.973   1.733  0.0954 -0.1586 -0.3411
 1641WAT     H2 7271   7.316   2.076   1.678 -0.5765  1.9989  2.5791
 1641WAT    EPW 7272   7.250   2.034   1.685 -0.7704 -0.6533 -0.3965
 1642WAT      O 7273   0.358   2.236   2.515  0.3423 -0.1592 -0.6896
 1642WAT     H1 7274   0.288   2.236   2.566  1.1581 -0.2595  0.4639
 1642WAT     H2 7275   0.326   2.252   2.435 -1.1147 -1.4123 -0.3928
 1642WAT    EPW 7276   0.343   2.238   2.510  0.0598  0.2238  0.1854
 1643WAT      O 7277   0.576   2.254   3.479  0.0779 -0.6789  0.0584
 1643WAT     H1 7278   0.544   2.233   3.400 -0.1317 -2.1443  0.5068
 1643WAT     H2 7279   0.505   2.271   3.526  0.0635 -1.8077  0.4670
 1643WAT    EPW 7280   0.561   2.254   3.474  1.0518  0.0150 -0.2245
 1644WAT      O 7281   7.762   2.457   1.931  0.3887 -0.0463  0.1363
 1644WAT     H1 7282   7.838   2.488   1.961  0.4422 -0.6172  0.6057
 1644WAT     H2 7283   7.734   2.521   1.878  1.6040 -0.2041 -0.7350
 1644WAT    EPW 7284   7.769   2.471   1.928  0.6167 -0.7600 -0.0351
 1645WAT      O 7285   7.594   1.170   2.372  0.4599 -0.5106 -0.0506
 1645WAT     H1 7286   7.612   1.084   2.377 -0.1213 -0.6532 -0.4114
 1645WAT     H2 7287   7.666   1.203   2.334  0.8507 -0.7763  0.4381
 1645WAT    EPW 7288   7.608   1.162   2.367 -0.2410  0.0379 -0.5314
 1646WAT      O 7289   0.001   1.904   2.560  0.6097 -0.7488  0.0617
 1646WAT     H1 7290   0.023   1.829   2.599  1.8411 -0.0806  0.7223
 1646WAT     H2 7291   0.029   1.894   2.478  1.8707 -0.6039  0.4408
 1646WAT    EPW 7292   0.009   1.892   2.554 -0.3881 -0.1641 -0.5496
 1647WAT      O 7293   7.692   2.407   3.141  0.1827 -0.2478  0.7802
 1647WAT     H1 7294   7.760   2.427   3.089  2.2366 -1.0484  3.0000
 1647WAT     H2 7295   7.634   2.374   3.085  1.0511  1.5760 -1.4081
 1647WAT    EPW 7296   7.694   2.405   3.125  0.6666  0.5379  0.3495
 1648WAT      O 7297   1.373   3.289   4.073  0.1522  0.1507 -0.2250
 1648WAT     H1 7298   1.306   3.344   4.084  0.5563  0.3570  1.4288
 1648WAT     H2 7299   1.441   3.342   4.063  0.2344 -0.0668 -0.8736
 1648WAT    EPW 7300   1.373   3.305   4.073 -0.4518 -0.3374  0.4451
 1649WAT      O 7301   7.979   1.217   3.402  0.0099  0.0061 -0.1756
 1649WAT     H1 7302   7.954   1.139   3.432 -2.2323  0.4718 -0.6021
 1649WAT     H2 7303   8.000   1.200   3.319  2.3410 -0.5883  0.4764
 1649WAT    EPW 7304   7.978   1.203   3.394 -0.1906  0.1769 -0.2118
 1650WAT      O 7305   7.276   2.355   2.463  0.2357 -0.0696  0.3242
 1650WAT     H1 7306   7.189   2.356   2.452  0.2045  0.2549  0.5782
 1650WAT     H2 7307   7.287   2.393   2.541  0.3841 -2.8789  1.8120
 1650WAT    EPW 7308   7.265   2.360   2.473 -0.4949  0.5802 -0.6956
 1651WAT      O 7309   0.432   2.221   4.222  0.7501 -0.0205 -0.6736
 1651WAT     H1 7310   0.461   2.163   4.164  2.3639  0.4618 -0.3976
 1651WAT     H2 7311   0.503   2.240   4.269 -0.1484  0.8469  0.3838
 1651WAT    EPW 7312   0.447   2.215   4.221  0.1341  0.6745 -0.2368
 1652WAT      O 7313   0.724   3.327   3.356 -0.2267 -0.2879  0.0056
 1652WAT     H1 7314   0.666   3.265   3.376  1.1528 -1.6165  0.0974
 1652WAT     H2 7315   0.732   3.320   3.269  0.2156 -0.5144  0.0628
 1652WAT    EPW 7316   0.717   3.317   3.346  0.4204 -0.3396 -0.8044
 1653WAT      O 7317   0.550   2.598   3.427 -0.1251  0.1430  0.4715
 1653WAT     H1 7318   0.575   2.548   3.361 -2.5797  0.2967 -0.6799
 1653WAT     H2 7319   0.474   2.562   3.453 -0.5905  1.6885  1.3898
 1653WAT    EPW 7320   0.543   2.585   3.421 -0.4953  0.5108 -0.1382
 1654WAT      O 7321   7.294   3.002   3.130 -0.1611 -0.4821 -0.4631
 1654WAT     H1 7322   7.328   2.989   3.050 -0.2537 -0.2150 -0.5463
 1654WAT     H2 7323   7.209   3.011   3.115  0.0952  2.7189 -0.7499
 1654WAT    EPW 7324   7.286   3.001   3.116 -0.0230  0.8968  0.1096
 1655WAT      O 7325   7.986   4.489   3.906 -0.0484  0.2506  0.5255
 1655WAT     H1 7326   8.040   4.426   3.881  0.1597  0.3256  0.7787
 1655WAT     H2 7327   7.908   4.449   3.908  0.2303 -0.2886  1.6941
 1655WAT    EPW 7328   7.982   4.474   3.903 -0.0601 -0.1509 -0.4821
 1656WAT      O 7329   0.419   1.792   4.294 -0.8548  0.2545 -0.1367
 1656WAT     H1 7330   0.360   1.811   4.233 -0.5094 -0.2775 -0.6399
 1656WAT     H2 7331   0.377   1.808   4.369 -0.9182  1.9653 -0.5140
 1656WAT    EPW 7332   0.404   1.797   4.296  0.0343 -0.2412  0.0891
 1657WAT      O 7333   0.229   2.243   2.900  0.0993  0.0187  0.3477
 1657WAT     H1 7334   0.288   2.179   2.902  1.9023  1.5244 -0.4635
 1657WAT     H2 7335   0.185   2.229   2.826  0.6439 -0.1625  0.0538
 1657WAT    EPW 7336   0.231   2.232   2.890  0.3026  0.3497 -0.3590
 1658WAT      O 7337   7.899   1.710   1.070 -0.2029 -0.3779 -0.1205
 1658WAT     H1 7338   7.958   1.649   1.088  0.6776  0.4268 -0.2272
 1658WAT     H2 7339   7.926   1.743   0.994 -1.1461 -0.4238 -0.4929
 1658WAT    EPW 7340   7.912   1.706   1.061 -0.6727  0.2482 -0.4427
 1659WAT      O 7341   0.673   3.068   1.782 -0.1846 -0.0380  0.3299
 1659WAT     H1 7342   0.619   3.093   1.846 -1.0291 -1.2523  0.1328
 1659WAT     H2 7343   0.650   3.119   1.715 -0.2263  0.3006  0.5961
 1659WAT    EPW 7344   0.662   3.079   1.782  0.4286  0.6587 -0.5915
 1660WAT      O 7345   7.178   1.909   2.018  0.0476  0.2762 -0.0648
 1660WAT     H1 7346   7.138   1.983   2.042 -0.2509 -0.6408  2.5880
 1660WAT     H2 7347   7.262   1.931   2.017 -0.1046  0.8716 -0.1311
 1660WAT    EPW 7348   7.184   1.923   2.022 -0.3440 -0.3035  0.4419
 1661WAT      O 7349   8.055   3.277   2.655  0.4950  0.5077 -0.0106
 1661WAT     H1 7350   8.021   3.218   2.601  0.0569  1.7964 -1.2341
 1661WAT     H2 7351   7.987   3.329   2.674  1.0107  1.0397  0.4145
 1661WAT    EPW 7352   8.040   3.276   2.650 -0.1734 -0.2019 -0.9138
 1662WAT      O 7353   7.255   2.323   3.072  0.2045 -0.2615  0.6504
 1662WAT     H1 7354   7.339   2.300   3.075  0.3340  0.1351  0.2176
 1662WAT     H2 7355   7.252   2.399   3.115  0.2301  0.1602 -0.0726
 1662WAT    EPW 7356   7.267   2.331   3.078 -0.2008  0.1010  0.0046
 1663WAT      O 7357   7.658   1.481   1.876 -0.0185 -0.3181  0.5967
 1663WAT     H1 7358   7.626   1.540   1.933 -0.3574 -0.2706  0.3613
 1663WAT     H2 7359   7.589   1.431   1.857  0.0207 -0.1696  0.0264
 1663WAT    EPW 7360   7.643   1.483   1.881 -0.2930 -0.1856 -0.0073
 1664WAT      O 7361   0.606   1.540   3.700  0.2648  0.0296 -0.2794
 1664WAT     H1 7362   0.568   1.461   3.698  0.1874  0.0663 -0.2792
 1664WAT     H2 7363   0.679   1.529   3.653  0.6771 -0.2599  0.4167
 1664WAT    EPW 7364   0.611   1.526   3.693  0.3871  0.1787 -0.2047
 1665WAT      O 7365   7.941   2.720   3.917 -0.2235  0.3459 -0.5866
 1665WAT     H1 7366   7.970   2.698   3.838 -1.8956 -0.0083 -1.1532
 1665WAT     H2 7367   8.013   2.745   3.960  1.0049 -1.2545 -1.5979
 1665WAT    EPW 7368   7.956   2.720   3.912  0.6189  0.1936 -0.5195
 1666WAT      O 7369   7.016   0.834   0.938  0.5304  0.0714 -0.1042
 1666WAT     H1 7370   6.991   0.772   0.994 -0.9021  0.0588 -0.6929
 1666WAT     H2 7371   7.032   0.789   0.865 -3.7762  0.4801 -1.6167
 1666WAT    EPW 7372   7.015   0.818   0.935  0.9929 -0.0017 -0.3696
 1667WAT      O 7373   1.037   3.756   1.901 -0.2136 -0.9037  0.3421
 1667WAT     H1 7374   1.111   3.713   1.919 -0.4219 -0.1179  3.8987
 1667WAT     H2 7375   1.046   3.831   1.943 -1.1914  1.3658 -3.0839
 1667WAT    EPW 7376   1.049   3.761   1.910 -0.0679 -0.3278 -0.3024
 1668WAT      O 7377   7.306   2.806   3.305 -0.1515 -0.1711  0.3700
 1668WAT     H1 7378   7.391   2.814   3.325  0.1802 -0.7910 -0.7724
 1668WAT     H2 7379   7.292   2.872   3.249 -0.3876 -0.1803  0.4170
 1668WAT    EPW 7380   7.316   2.817   3.300  0.2571  0.1903 -0.0968
 1669WAT      O 7381   6.801   1.615   2.134  0.3243 -0.2170 -0.0517
 1669WAT     H1 7382   6.783   1.612   2.049  0.6764 -1.0629 -0.1109
 1669WAT     H2 7383   6.885   1.595   2.139  0.3450 -0.0320  0.4855
 1669WAT    EPW 7384   6.811   1.611   2.122  0.1397  0.1192 -0.4712
 1670WAT      O 7385   7.519   2.839   0.858  0.7347 -0.2612  0.9584
 1670WAT     H1 7386   7.544   2.756   0.849  1.5678  0.0226  0.4021
 1670WAT     H2 7387   7.435   2.838   0.836  0.6397 -1.0139  1.3272
 1670WAT    EPW 7388   7.511   2.826   0.853  0.4393 -0.5556 -0.5082
 1671WAT      O 7389   0.109   0.256   3.109  0.3420  0.3583 -0.7078
 1671WAT     H1 7390   0.117   0.325   3.057  2.3944  0.8547  0.1854
 1671WAT     H2 7391   0.114   0.290   3.189  0.9949 -0.7633 -0.2485
 1671WAT    EPW 7392   0.111   0.271   3.113 -0.5595  0.4211 -0.2941
 1672WAT      O 7393   0.507   1.272   3.704  0.0915  0.3162 -0.3902
 1672WAT     H1 7394   0.430   1.311   3.717  1.2933  3.6405 -2.0019
 1672WAT     H2 7395   0.497   1.233   3.626 -0.1259  0.2291 -0.3208
 1672WAT    EPW 7396   0.494   1.272   3.694  0.6869  0.1084 -0.3505
 1673WAT      O 7397   0.278   0.756   2.170 -0.4761  0.0699  0.3017
 1673WAT     H1 7398   0.208   0.725   2.128 -0.1354 -0.6745  0.2665
 1673WAT     H2 7399   0.332   0.688   2.172 -0.1738  0.3190  1.2593
 1673WAT    EPW 7400   0.276   0.742   2.164 -0.3202  0.4554  0.5438
 1674WAT      O 7401   0.660   2.713   2.663  0.1320  0.1479  0.4803
 1674WAT     H1 7402   0.685   2.791   2.694  2.2899 -0.4919  0.5717
 1674WAT     H2 7403   0.713   2.701   2.595 -3.0184  0.5371 -2.2381
 1674WAT    EPW 7404   0.672   2.723   2.658 -0.5444  1.5462 -0.4750
 1675WAT      O 7405   8.031   1.116   3.137 -0.3897 -0.2015 -0.9318
 1675WAT     H1 7406   8.041   1.034   3.110 -0.2771 -0.0407 -1.3910
 1675WAT     H2 7407   7.988   1.154   3.071 -0.6001  0.0669 -0.6458
 1675WAT    EPW 7408   8.026   1.109   3.123 -0.3187  0.3801  0.0388
 1676WAT      O 7409   1.150   2.437   4.583  0.8649  0.1564  0.2883
 1676WAT     H1 7410   1.163   2.503   4.638 -0.1176 -0.4891  1.3403
 1676WAT     H2 7411   1.086   2.465   4.532 -0.0115 -0.1986  1.1567
 1676WAT    EPW 7412   1.143   2.451   4.584 -0.3615 -0.0505  0.1257
 1677WAT      O 7413   6.976   3.733   2.751 -0.1312 -0.7678 -0.1363
 1677WAT     H1 7414   6.994   3.672   2.811 -1.6728 -1.1441 -0.0129
 1677WAT     H2 7415   6.987   3.808   2.795 -0.4707 -1.0200  0.3950
 1677WAT    EPW 7416   6.980   3.735   2.767  0.3643  0.2542 -0.1853
 1678WAT      O 7417   1.185   2.084   3.380  0.3339  0.0015 -0.1302
 1678WAT     H1 7418   1.266   2.095   3.411  0.2959 -0.0623 -0.0105
 1678WAT     H2 7419   1.141   2.151   3.413  0.0759 -0.5607  0.6895
 1678WAT    EPW 7420   1.191   2.095   3.389 -0.3514  0.7297 -0.5692
 1679WAT      O 7421   7.464   2.680   1.663 -0.3751 -0.0343  0.4438
 1679WAT     H1 7422   7.518   2.728   1.713  2.5312 -0.5168 -1.9215
 1679WAT     H2 7423   7.431   2.738   1.607 -0.5822 -0.0575  0.5444
 1679WAT    EPW 7424   7.467   2.696   1.662  0.7231 -0.1613  0.8648
 1680WAT      O 7425   0.097   1.564   1.627  0.4835  0.2904  0.0159
 1680WAT     H1 7426   0.130   1.504   1.682  0.1860 -0.4929 -0.6432
 1680WAT     H2 7427   0.158   1.571   1.565  0.3355  0.3706 -0.1216
 1680WAT    EPW 7428   0.111   1.556   1.626 -0.1245 -1.0249  0.3980
 1681WAT      O 7429   7.028   1.638   3.279 -0.2598  0.5275  0.2602
 1681WAT     H1 7430   6.959   1.682   3.246 -1.3588 -0.6953  0.8456
 1681WAT     H2 7431   6.992   1.569   3.319  1.4047 -1.0033 -0.7206
 1681WAT    EPW 7432   7.012   1.634   3.280 -0.0937 -0.5659  0.6362
 1682WAT      O 7433   6.795   3.899   2.389  0.6345 -0.0967 -0.1552
 1682WAT     H1 7434   6.869   3.923   2.349 -0.5877  1.2655 -1.7627
 1682WAT     H2 7435   6.807   3.922   2.472  1.4354  1.5559 -0.6986
 1682WAT    EPW 7436   6.808   3.906   2.395 -0.7662  0.2242 -0.2896
 1683WAT      O 7437   6.847   3.182   1.886 -0.0732 -0.3004  0.2675
 1683WAT     H1 7438   6.836   3.260   1.850 -2.2308  0.0368  1.4625
 1683WAT     H2 7439   6.850   3.127   1.818 -1.4253  0.5646 -0.5270
 1683WAT    EPW 7440   6.846   3.185   1.871 -0.3594  0.3324  0.3384
 1684WAT      O 7441   7.939   3.079   2.473 -0.5156  0.4543 -0.4562
 1684WAT     H1 7442   7.941   3.087   2.386  1.1917  0.1014 -0.4957
 1684WAT     H2 7443   7.882   3.015   2.488 -0.6067  0.3226 -1.3410
 1684WAT    EPW 7444   7.931   3.071   2.463  0.0253 -0.0979 -0.2358
 1685WAT      O 7445   6.857   2.348   1.328  0.2752 -0.6093 -0.4101
 1685WAT     H1 7446   6.788   2.361   1.380 -0.1733  0.0012 -1.1311
 1685WAT     H2 7447   6.896   2.426   1.326 -1.0014  0.0748 -2.7608
 1685WAT    EPW 7448   6.853   2.361   1.335  0.1230 -0.4964 -0.1299
 1686WAT      O 7449   8.045   1.956   1.543 -0.1697 -0.3131 -0.0793
 1686WAT     H1 7450   8.028   1.903   1.476 -0.3707  0.9844 -1.0827
 1686WAT     H2 7451   8.120   1.994   1.521 -1.5587  2.1749 -0.9601
 1686WAT    EPW 7452   8.054   1.954   1.530  0.4654 -0.1275 -0.2025
 1687WAT      O 7453   6.194   2.927   1.916 -0.0422  0.0337 -0.2259
 1687WAT     H1 7454   6.139   2.986   1.884 -3.0855 -2.7508 -0.6487
 1687WAT     H2 7455   6.183   2.933   2.002  0.0338  0.3595 -0.2368
 1687WAT    EPW 7456   6.184   2.937   1.924  0.6761 -0.3523  1.0234
 1688WAT      O 7457   7.405   3.549   0.747 -0.0325  0.3759 -0.2068
 1688WAT     H1 7458   7.432   3.626   0.717 -0.3670  0.5653 -0.0181
 1688WAT     H2 7459   7.350   3.521   0.686  1.7089 -0.7198 -1.3802
 1688WAT    EPW 7460   7.401   3.556   0.734  0.4432  0.1522  0.2145
 1689WAT      O 7461   7.429   2.804   0.465 -0.2978  0.0511  0.0099
 1689WAT     H1 7462   7.492   2.755   0.499 -0.6890  0.5358  1.5195
 1689WAT     H2 7463   7.465   2.837   0.393  1.5956  1.2173  1.4134
 1689WAT    EPW 7464   7.444   2.802   0.460 -0.0833 -0.0328  1.1038
 1690WAT      O 7465   7.591   1.866   2.593  0.2472  0.2575  0.0552
 1690WAT     H1 7466   7.523   1.920   2.604  0.8702  1.0641  0.0248
 1690WAT     H2 7467   7.589   1.816   2.664  0.7732  1.5733  1.0248
 1690WAT    EPW 7468   7.581   1.867   2.605 -0.4330  0.2442 -0.5564
 1691WAT      O 7469   6.798   0.682   0.157 -0.3830  0.5058 -0.6044
 1691WAT     H1 7470   6.780   0.621   0.097  0.1313  0.0147 -0.2703
 1691WAT     H2 7471   6.800   0.637   0.232 -2.5662  1.3533  0.0399
 1691WAT    EPW 7472   6.796   0.666   0.159  0.4677  0.2520  0.7988
 1692WAT      O 7473   7.166   0.899   0.012  0.3646 -0.1735  0.0053
 1692WAT     H1 7474   7.191   0.970   0.057 -0.4379 -0.6722  1.2901
 1692WAT     H2 7475   7.095   0.926  -0.031  0.1462 -0.1478  0.3757
 1692WAT    EPW 7476   7.159   0.914   0.013 -0.0739 -0.2675  0.4790
 1693WAT      O 7477   0.090   3.475   1.802  0.6375 -0.4588  0.3280
 1693WAT     H1 7478   0.084   3.478   1.715 -0.7660 -1.8889  0.3342
 1693WAT     H2 7479   0.033   3.536   1.828 -0.1848 -1.1718  0.2365
 1693WAT    EPW 7480   0.080   3.485   1.793  0.6716 -0.5332  1.8090
 1694WAT      O 7481   6.844   1.854   0.544  0.8551  0.4725 -0.3715
 1694WAT     H1 7482   6.839   1.941   0.557  3.2319  0.3121  3.3642
 1694WAT     H2 7483   6.930   1.841   0.533  0.7764 -1.4732  0.8778
 1694WAT    EPW 7484   6.856   1.865   0.544 -0.4545 -0.6042  0.1584
 1695WAT      O 7485   0.806   2.431   1.250 -0.3053 -0.0277 -0.3285
 1695WAT     H1 7486   0.797   2.344   1.253  0.1861 -0.1000 -0.8506
 1695WAT     H2 7487   0.739   2.456   1.199  0.0280 -0.1788 -0.8459
 1695WAT    EPW 7488   0.795   2.422   1.243  0.7544  0.5723  0.1300
 1696WAT      O 7489   7.773   2.941   1.272  0.5991 -0.0409 -0.0320
 1696WAT     H1 7490   7.740   3.021   1.277 -0.3740 -0.3298 -1.3686
 1696WAT     H2 7491   7.772   2.913   1.355  2.0278  1.6989  0.6479
 1696WAT    EPW 7492   7.768   2.948   1.285  0.5588  0.5188 -0.5042
 1697WAT      O 7493   0.649   2.973   1.264  0.1615 -0.0778 -0.1332
 1697WAT     H1 7494   0.612   3.049   1.287  0.0167 -0.5449  1.2817
 1697WAT     H2 7495   0.734   2.993   1.258  0.6618 -0.4136  3.5530
 1697WAT    EPW 7496   0.656   2.987   1.267 -1.2044 -0.3040 -0.3507
 1698WAT      O 7497   7.696   2.533   2.481  0.0008  0.5162 -0.3363
 1698WAT     H1 7498   7.679   2.468   2.538  0.9836  0.0372 -0.5718
 1698WAT     H2 7499   7.673   2.498   2.404  0.0763  0.6303 -0.4090
 1698WAT    EPW 7500   7.690   2.518   2.478  0.2109  0.6812  0.4686
 1699WAT      O 7501   6.074   3.519   2.684  0.2276 -0.4950  0.4946
 1699WAT     H1 7502   6.024   3.565   2.739  1.5701 -1.2403  2.4613
 1699WAT     H2 7503   6.044   3.438   2.690  0.6953 -0.6727  0.5098
 1699WAT    EPW 7504   6.062   3.514   2.693 -0.2486 -0.3169 -0.2716
 1700WAT      O 7505   7.208   2.585   0.461 -0.2551 -0.2019 -0.2577
 1700WAT     H1 7506   7.264   2.650   0.476  0.4102 -0.7105 -0.5014
 1700WAT     H2 7507   7.190   2.555   0.541 -1.1612  0.7514 -0.0785
 1700WAT    EPW 7508   7.213   2.590   0.475 -0.2033  0.2213  1.1376
 1701WAT      O 7509   0.848   1.337   0.461  0.1848 -0.1040 -0.1830
 1701WAT     H1 7510   0.798   1.337   0.533  0.8829 -0.8171  0.3095
 1701WAT     H2 7511   0.818   1.406   0.416 -0.8159 -0.1350  0.3966
 1701WAT    EPW 7512   0.836   1.347   0.465  0.7816  0.0080 -0.9658
 1702WAT      O 7513   7.724   3.815   0.433  0.4492  0.3219  0.5567
 1702WAT     H1 7514   7.774   3.744   0.438  2.9663  2.0019  1.4463
 1702WAT     H2 7515   7.647   3.789   0.465  0.0937 -2.7889 -2.3202
 1702WAT    EPW 7516   7.720   3.801   0.439  0.7081 -0.7233  0.0439
 1703WAT      O 7517   7.897   0.914   2.209  0.1581  1.3558  0.4580
 1703WAT     H1 7518   7.963   0.948   2.256 -0.4166  0.7340  1.7824
 1703WAT     H2 7519   7.901   0.829   2.227  0.2931  1.0015 -1.1620
 1703WAT    EPW 7520   7.907   0.907   2.219  0.6980  0.5228  0.2838
 1704WAT      O 7521   7.345   1.847   0.233 -0.3537  0.0311  0.2841
 1704WAT     H1 7522   7.415   1.894   0.255  0.4032 -1.3274  0.8841
 1704WAT     H2 7523   7.372   1.765   0.241 -1.7250 -0.5240 -0.4656
 1704WAT    EPW 7524   7.360   1.842   0.238  0.6213 -1.0267 -1.0088
 1705WAT      O 7525   7.997   2.184   7.944  0.1040  0.1757  0.3141
 1705WAT     H1 7526   8.078   2.167   7.973 -0.2466 -0.6435  0.8254
 1705WAT     H2 7527   7.949   2.183   8.016 -0.5073 -0.2225 -0.0936
 1705WAT    EPW 7528   8.002   2.181   7.959 -0.3927 -0.0966 -0.3137
 1706WAT      O 7529   0.306   2.720   1.498 -0.2264  0.3176 -0.5626
 1706WAT     H1 7530   0.222   2.714   1.473  0.5123 -0.4198 -3.3005
 1706WAT     H2 7531   0.342   2.771   1.436  1.5330 -0.2417 -0.0626
 1706WAT    EPW 7532   0.299   2.727   1.485  0.9554  0.2107 -0.1739
 1707WAT      O 7533   0.788   2.074   2.510  0.4772  0.1871 -0.3651
 1707WAT     H1 7534   0.835   2.016   2.466  1.8633  1.1676 -0.2545
 1707WAT     H2 7535   0.777   2.140   2.453  1.5871  1.1138  0.4429
 1707WAT    EPW 7536   0.793   2.075   2.495  0.0100  0.2249 -0.0151
 1708WAT      O 7537   7.904   0.386   1.830  0.2253 -0.2907 -0.3140
 1708WAT     H1 7538   7.828   0.407   1.866  0.0879  0.2748 -0.9209
 1708WAT     H2 7539   7.934   0.322   1.882 -0.0195  0.4136  0.7327
 1708WAT    EPW 7540   7.897   0.379   1.843 -0.5197 -0.2742  0.0365
 1709WAT      O 7541   7.543   2.544   0.831  0.2721 -0.3035 -0.0753
 1709WAT     H1 7542   7.588   2.540   0.905 -2.0861 -0.0116  1.5006
 1709WAT     H2 7543   7.461   2.526   0.856 -0.9191  1.4081 -2.3238
 1709WAT    EPW 7544   7.537   2.540   0.845 -0.0999  0.5964  0.0402
 1710WAT      O 7545   6.643   2.111   7.925 -0.2221 -0.3871  0.3772
 1710WAT     H1 7546   6.595   2.066   7.982 -1.2305  0.0812 -0.0789
 1710WAT     H2 7547   6.674   2.177   7.973 -0.7692 -0.1939  0.4727
 1710WAT    EPW 7548   6.641   2.114   7.941  0.5306 -0.2855  0.5003
 1711WAT      O 7549   7.218   3.111   1.459  0.2636  0.2807  0.3645
 1711WAT     H1 7550   7.154   3.169   1.469  0.7174  0.8596 -0.0116
 1711WAT     H2 7551   7.287   3.160   1.436  0.4348 -0.4891 -0.8660
 1711WAT    EPW 7552   7.219   3.127   1.457  0.8962 -0.5297  0.0047
 1712WAT      O 7553   0.608   2.492   1.058 -0.1965 -0.1622  0.7308
 1712WAT     H1 7554   0.543   2.550   1.055  1.9754  2.4991 -1.7897
 1712WAT     H2 7555   0.573   2.420   1.024 -1.7780  1.3378 -1.1430
 1712WAT    EPW 7556   0.593   2.490   1.052  0.1732 -0.0018 -0.3010
 1713WAT      O 7557   0.004   2.599   7.838 -0.0653 -0.5403  0.0973
 1713WAT     H1 7558  -0.074   2.630   7.813  0.2458 -0.4769 -0.8567
 1713WAT     H2 7559   0.054   2.611   7.767  0.8131 -0.5818  0.6988
 1713WAT    EPW 7560   0.000   2.605   7.824  0.3226  0.0109 -0.3117
 1714WAT      O 7561   7.089   3.379   1.526 -0.1616 -1.3197 -0.5515
 1714WAT     H1 7562   7.002   3.387   1.524  0.0299  2.1025 -0.8281
 1714WAT     H2 7563   7.109   3.398   1.609  0.4290  0.6564 -1.1072
 1714WAT    EPW 7564   7.079   3.383   1.538 -0.1174  0.4247 -0.0392
 1715WAT      O 7565   7.013   1.386   0.517  0.1657 -0.0194 -0.3037
 1715WAT     H1 7566   7.046   1.450   0.468 -1.8141  1.1462 -0.1834
 1715WAT     H2 7567   7.014   1.419   0.598  2.1987 -1.4495  0.3523
 1715WAT    EPW 7568   7.018   1.400   0.522  0.5063 -0.0737 -0.1775
 1716WAT      O 7569   7.677   1.225   2.637 -0.1876 -0.5006  0.2489
 1716WAT     H1 7570   7.647   1.212   2.556 -0.6552  2.1754 -0.0862
 1716WAT     H2 7571   7.605   1.240   2.683  0.2314  0.2950  0.6578
 1716WAT    EPW 7572   7.662   1.225   2.632 -0.2876 -0.1619 -0.4937
 1717WAT      O 7573   7.776   2.197   0.386  0.0329  0.0573 -0.3928
 1717WAT     H1 7574   7.819   2.190   0.310  0.0647 -1.2440 -0.2765
 1717WAT     H2 7575   7.709   2.142   0.377  0.1129 -0.2155  0.5830
 1717WAT    EPW 7576   7.772   2.188   0.373  0.8149 -0.3547 -0.3374
 1718WAT      O 7577   6.728   1.826   0.177 -0.1923 -0.3492 -0.1950
 1718WAT     H1 7578   6.746   1.898   0.222 -0.3744 -0.9197  0.8348
 1718WAT     H2 7579   6.758   1.762   0.228  0.7389 -0.9733 -1.4807
 1718WAT    EPW 7580   6.735   1.827   0.192  0.2047 -0.0435 -0.2316
 1719WAT      O 7581   7.835   0.590   0.426 -0.6473 -0.1765 -0.4764
 1719WAT     H1 7582   7.780   0.624   0.485 -0.6590 -2.1057  0.7089
 1719WAT     H2 7583   7.910   0.632   0.441  0.2396 -2.6878  3.1483
 1719WAT    EPW 7584   7.838   0.601   0.437  0.0315 -0.1305  0.4835
 1720WAT      O 7585   6.998   1.619   0.065  0.4223 -0.4812  0.3665
 1720WAT     H1 7586   7.054   1.571   0.019 -1.3152 -2.4940  0.2511
 1720WAT     H2 7587   6.924   1.614   0.020 -0.8104 -0.8600  2.3111
 1720WAT    EPW 7588   6.996   1.611   0.052  0.6870  0.3741 -0.0451
 1721WAT      O 7589   6.945   2.789   1.842  0.3479 -0.2247  0.2692
 1721WAT     H1 7590   7.024   2.758   1.862  1.4421  1.4630 -1.1698
 1721WAT     H2 7591   6.957   2.831   1.767 -2.1740 -0.8156 -0.5661
 1721WAT    EPW 7592   6.958   2.791   1.834  0.0945  0.3336 -0.1415
 1722WAT      O 7593   5.049   1.001   2.902  0.2419  0.5676  0.0342
 1722WAT     H1 7594   5.048   1.084   2.877  0.9474 -0.0942 -2.4374
 1722WAT     H2 7595   5.092   0.960   2.838  0.9369 -1.5476  1.7269
 1722WAT    EPW 7596   5.055   1.007   2.889  0.4751  0.0204 -0.6135
 1723WAT      O 7597   7.848   2.269   1.394  0.6060  0.1943  0.2989
 1723WAT     H1 7598   7.773   2.296   1.431  1.0306 -0.5980  1.8056
 1723WAT     H2 7599   7.856   2.322   1.325 -1.9663 -0.4918 -0.6591
 1723WAT    EPW 7600   7.838   2.281   1.389  0.7909 -0.6882  0.8793
 1724WAT      O 7601   7.196   3.418   1.270  0.3706 -0.5635  0.1710
 1724WAT     H1 7602   7.158   3.349   1.233 -0.3935  0.9523 -2.0854
 1724WAT     H2 7603   7.174   3.411   1.354 -0.8688 -2.2937 -0.2434
 1724WAT    EPW 7604   7.187   3.407   1.277  0.3287 -0.2527  0.1096
 1725WAT      O 7605   0.464   0.337   1.225  0.0597 -0.2481  0.1561
 1725WAT     H1 7606   0.452   0.363   1.143  1.6554  1.8909  0.5040
 1725WAT     H2 7607   0.499   0.258   1.217 -0.2612 -0.2729 -1.1992
 1725WAT    EPW 7608   0.468   0.329   1.212  0.3617 -0.3232 -0.2739
 1726WAT      O 7609   6.993   0.357   0.127 -0.5724 -0.2239  0.1193
 1726WAT     H1 7610   7.033   0.305   0.185  0.2015  0.4656  0.2225
 1726WAT     H2 7611   7.043   0.428   0.126 -0.7273 -0.1127 -1.2018
 1726WAT    EPW 7612   7.006   0.360   0.136 -0.6498 -0.5380 -0.0672
 1727WAT      O 7613   7.704   1.939   1.528  0.2529  0.2858  0.6079
 1727WAT     H1 7614   7.739   1.955   1.450  0.0824  2.8542  0.9966
 1727WAT     H2 7615   7.761   1.885   1.566  3.1212  3.0838  0.6375
 1727WAT    EPW 7616   7.718   1.933   1.522  0.5522 -0.3193  0.3488
 1728WAT      O 7617   6.569   1.927   1.906  0.0278 -0.3688  0.1103
 1728WAT     H1 7618   6.492   1.904   1.940  0.8661 -0.2487  2.2212
 1728WAT     H2 7619   6.576   2.011   1.926  0.3932 -0.1834 -0.7455
 1728WAT    EPW 7620   6.559   1.936   1.914  0.8193  0.5939  0.4679
 1729WAT      O 7621   7.757   0.860   1.724  0.0159  0.0960 -0.2047
 1729WAT     H1 7622   7.783   0.890   1.802 -2.3477 -1.1121  1.1465
 1729WAT     H2 7623   7.688   0.910   1.704 -1.9925 -2.2037  0.5609
 1729WAT    EPW 7624   7.751   0.872   1.732 -0.0931  0.2372 -0.6515
 1730WAT      O 7625   6.530   0.072   0.623 -0.4390  0.1398  0.2788
 1730WAT     H1 7626   6.522   0.138   0.679 -1.6697 -0.8899  1.3713
 1730WAT     H2 7627   6.457   0.025   0.635  0.8648 -2.0185  0.3364
 1730WAT    EPW 7628   6.518   0.075   0.633  0.2855  0.5882 -1.8566
 1731WAT      O 7629   0.424   2.696   1.748 -0.0930 -0.4515  0.2335
 1731WAT     H1 7630   0.504   2.727   1.735 -0.4085 -0.0199 -0.7214
 1731WAT     H2 7631   0.381   2.718   1.676 -1.8798  1.8836  1.8469
 1731WAT    EPW 7632   0.429   2.704   1.736 -0.2340 -1.5624  0.1592
 1732WAT      O 7633   7.609   1.057   1.032 -0.3933  0.8092  0.2028
 1732WAT     H1 7634   7.690   1.028   1.020 -0.3463  0.0183  2.0567
 1732WAT     H2 7635   7.573   0.996   1.084 -1.7761  1.7765  0.4429
 1732WAT    EPW 7636   7.616   1.044   1.038  0.0749 -0.3556  0.4801
 1733WAT      O 7637   7.991   0.590   0.125  0.1930 -0.7722 -0.0279
 1733WAT     H1 7638   7.923   0.631   0.090  0.0159 -1.1968 -0.1925
 1733WAT     H2 7639   7.989   0.614   0.209  1.5048  1.4686 -0.5655
 1733WAT    EPW 7640   7.981   0.600   0.132 -0.8646  0.6338  0.3993
 1734WAT      O 7641   7.633   2.567   1.082 -0.3660  0.0939 -0.0338
 1734WAT     H1 7642   7.598   2.642   1.109  1.0478  0.7440  0.1190
 1734WAT     H2 7643   7.696   2.552   1.141 -2.4577 -2.7967  1.6766
 1734WAT    EPW 7644   7.637   2.576   1.095  0.0534 -0.4105  0.5370
 1735WAT      O 7645   7.504   2.110   1.233 -0.0574 -0.2920 -0.1494
 1735WAT     H1 7646   7.449   2.045   1.248 -0.4150 -0.2316 -1.1204
 1735WAT     H2 7647   7.509   2.113   1.146 -0.1719  1.0787 -0.1328
 1735WAT    EPW 7648   7.497   2.101   1.222 -0.4848  0.1067  0.2420
 1736WAT      O 7649   0.503   1.244   1.035  0.3332  0.6287 -0.4010
 1736WAT     H1 7650   0.589   1.250   1.047  0.6290 -0.9899 -1.4137
 1736WAT     H2 7651   0.482   1.319   0.996  1.4770  0.5974 -1.1045
 1736WAT    EPW 7652   0.513   1.256   1.031 -0.0675 -0.2229 -0.6129
 1737WAT      O 7653   6.941   3.408   0.475 -0.3534  0.1647 -0.0519
 1737WAT     H1 7654   6.855   3.409   0.460 -0.4039  1.8380  0.2119
 1737WAT     H2 7655   6.975   3.440   0.402 -0.2722  3.3170  1.1972
 1737WAT    EPW 7656   6.933   3.413   0.462 -0.3937  0.4718 -0.6513
 1738WAT      O 7657   7.787   1.984   0.773  0.6162  0.0764 -0.0949
 1738WAT     H1 7658   7.814   1.901   0.766  0.8054  0.1939 -0.8461
 1738WAT     H2 7659   7.707   1.983   0.740  0.1113 -0.0506  1.0946
 1738WAT    EPW 7660   7.779   1.972   0.767 -0.4669 -0.3450  0.5320
 1739WAT      O 7661   6.674   0.418   7.408  0.0052 -0.1086 -0.5840
 1739WAT     H1 7662   6.662   0.473   7.474 -1.4362 -0.3880 -0.5811
 1739WAT     H2 7663   6.755   0.437   7.379  0.7911 -0.2025  1.4156
 1739WAT    EPW 7664   6.685   0.429   7.413 -0.0317 -0.9950 -0.0150
 1740WAT      O 7665   6.161   0.344   7.407  0.5497  0.4971 -0.3749
 1740WAT     H1 7666   6.158   0.320   7.323 -1.7333 -2.0390  0.2995
 1740WAT     H2 7667   6.191   0.273   7.448 -0.1105  1.0594  1.1602
 1740WAT    EPW 7668   6.165   0.330   7.401  1.3854 -0.2805  0.0004
 1741WAT      O 7669   6.599   1.742   7.649 -0.0775  0.4670 -0.0366
 1741WAT     H1 7670   6.535   1.760   7.705  1.3817  1.2241  1.5129
 1741WAT     H2 7671   6.576   1.785   7.577 -1.7184 -0.0146  0.1592
 1741WAT    EPW 7672   6.586   1.751   7.647  0.3912 -0.5544  0.9058
 1742WAT      O 7673   5.328   1.358   6.471  0.0642 -0.0435  0.3473
 1742WAT     H1 7674   5.246   1.344   6.446  0.2266  1.2691 -1.0349
 1742WAT     H2 7675   5.351   1.283   6.509 -1.7576 -0.4320  0.7803
 1742WAT    EPW 7676   5.320   1.345   6.473  0.1188 -0.5611  0.6159
 1743WAT      O 7677   6.326   1.069   0.622 -0.1427 -0.7600 -0.0654
 1743WAT     H1 7678   6.389   1.021   0.585  0.8899  0.0598  0.5644
 1743WAT     H2 7679   6.295   1.016   0.684  0.4262 -0.9206  0.0927
 1743WAT    EPW 7680   6.331   1.054   0.626  0.6181  0.3185 -0.2468
 1744WAT      O 7681   7.640   0.396   1.151  0.1274 -0.1604  0.5034
 1744WAT     H1 7682   7.637   0.466   1.203  1.2411 -0.6945  1.3126
 1744WAT     H2 7683   7.559   0.365   1.154  0.0929  0.0088  1.6601
 1744WAT    EPW 7684   7.627   0.402   1.159  0.4960 -0.2634 -0.9985
 1745WAT      O 7685   6.234   2.025   7.269 -0.7189 -0.3909  0.0955
 1745WAT     H1 7686   6.258   2.034   7.352  1.2029  0.7106 -0.5143
 1745WAT     H2 7687   6.242   2.106   7.236 -1.7149 -0.7463 -1.0851
 1745WAT    EPW 7688   6.239   2.038   7.276 -0.6826 -0.1412  0.1386
 1746WAT      O 7689   6.286   2.905   7.763 -0.0840 -0.2280 -0.0085
 1746WAT     H1 7690   6.285   2.884   7.679  1.7832  1.2601 -0.4597
 1746WAT     H2 7691   6.348   2.855   7.797 -0.8756 -0.8757  0.5302
 1746WAT    EPW 7692   6.295   2.895   7.756 -0.4223  0.5095 -0.5237
 1747WAT      O 7693   5.955   1.328   0.434  0.0760 -0.0175 -0.4266
 1747WAT     H1 7694   6.036   1.311   0.460 -0.5898  0.7127  2.5285
 1747WAT     H2 7695   5.915   1.250   0.436  0.1324 -0.0379  0.6075
 1747WAT    EPW 7696   5.961   1.314   0.438 -0.3945 -0.2812 -0.3025
 1748WAT      O 7697   5.686   1.463   1.052 -0.2867 -0.3019 -0.5838
 1748WAT     H1 7698   5.713   1.466   1.135  0.0511  0.3748 -0.7145
 1748WAT     H2 7699   5.603   1.434   1.059 -0.5202  0.4936  0.0494
 1748WAT    EPW 7700   5.678   1.459   1.065  0.1865 -0.2125  0.4699
 1749WAT      O 7701   5.455   7.060   0.220  0.2966  0.2069  0.2508
 1749WAT     H1 7702   5.503   7.098   0.158  0.1916 -1.1960 -0.7350
 1749WAT     H2 7703   5.476   7.104   0.292  2.3159  0.2715 -0.3248
 1749WAT    EPW 7704   5.465   7.072   0.221 -0.6840  0.0691 -0.3974
 1750WAT      O 7705   7.100   2.181   1.299  0.6937  0.1169 -0.3322
 1750WAT     H1 7706   7.033   2.237   1.306  0.8763  0.2190  0.8873
 1750WAT     H2 7707   7.168   2.233   1.280  0.5570  0.0907 -0.9159
 1750WAT    EPW 7708   7.100   2.197   1.297 -0.1488  0.0956 -1.2111
 1751WAT      O 7709   5.769   1.312   7.683  0.1463 -0.5947  0.3832
 1751WAT     H1 7710   5.828   1.357   7.637 -0.8304  0.6454  0.3018
 1751WAT     H2 7711   5.750   1.364   7.750 -1.1646 -0.7794  0.1795
 1751WAT    EPW 7712   5.775   1.326   7.686 -0.1958 -0.0335  0.3322
 1752WAT      O 7713   5.329   7.702   7.632 -0.0836 -0.0341 -0.4993
 1752WAT     H1 7714   5.258   7.745   7.606  0.3028 -0.2135 -1.9416
 1752WAT     H2 7715   5.319   7.623   7.595  0.6560 -0.2014 -0.3560
 1752WAT    EPW 7716   5.317   7.696   7.622 -0.2399  0.2806  0.2304
 1753WAT      O 7717   6.001   0.337   0.636 -0.0609 -0.1772 -0.5146
 1753WAT     H1 7718   6.027   0.380   0.707 -1.4102 -2.4424  1.5105
 1753WAT     H2 7719   6.050   0.265   0.636 -0.5486 -0.5267 -1.4657
 1753WAT    EPW 7720   6.012   0.333   0.647 -0.1871  0.3211  0.1084
 1754WAT      O 7721   7.547   0.617   0.098 -0.0455 -0.4309  0.2512
 1754WAT     H1 7722   7.498   0.677   0.058 -1.0604 -0.8763  0.8047
 1754WAT     H2 7723   7.628   0.639   0.075 -0.5000  0.2690 -0.7503
 1754WAT    EPW 7724   7.552   0.629   0.089  0.6348 -0.4065 -0.0253
 1755WAT      O 7725   6.684   0.955   7.664 -0.3958  0.4358  0.6357
 1755WAT     H1 7726   6.709   0.872   7.662  0.3501  0.6586  0.6037
 1755WAT     H2 7727   6.638   0.961   7.738 -1.4306 -0.2698  0.0748
 1755WAT    EPW 7728   6.681   0.944   7.674 -0.5200 -0.3885 -0.7442
 1756WAT      O 7729   5.028   7.627   0.286  0.2073 -0.2458  0.3409
 1756WAT     H1 7730   5.048   7.620   0.371  0.5014 -1.6884  0.1791
 1756WAT     H2 7731   5.097   7.592   0.245 -0.4466 -0.6823 -0.4269
 1756WAT    EPW 7732   5.041   7.621   0.293  0.4944  0.1567 -0.8711
 1757WAT      O 7733   6.781   0.016   7.792  0.7528 -0.6793 -0.4931
 1757WAT     H1 7734   6.812   0.091   7.761 -0.9264  0.5983  0.6987
 1757WAT     H2 7735   6.787   0.026   7.878 -2.8762 -0.2069 -0.1296
 1757WAT    EPW 7736   6.786   0.029   7.800  0.5626 -1.0210 -0.7030
 1758WAT      O 7737   5.991   1.010   0.231 -0.0224 -0.1925 -0.0682
 1758WAT     H1 7738   5.997   0.941   0.178  1.5956  0.9308 -1.4747
 1758WAT     H2 7739   6.004   1.078   0.178  0.9174  1.0442  1.6324
 1758WAT    EPW 7740   5.994   1.010   0.215  0.0610 -0.0433  0.2119
 1759WAT      O 7741   4.861   0.440   1.945  0.4198 -0.3870  0.2454
 1759WAT     H1 7742   4.887   0.447   1.862  1.1313  1.8736  0.5884
 1759WAT     H2 7743   4.831   0.520   1.964  1.9934 -0.2579  2.6924
 1759WAT    EPW 7744   4.860   0.453   1.936 -0.0769  0.6715  0.1894
 1760WAT      O 7745   6.847   1.044   0.956  0.2674  0.0816 -0.3849
 1760WAT     H1 7746   6.898   0.973   0.946  0.2939 -0.1504  1.1643
 1760WAT     H2 7747   6.904   1.110   0.957  0.6915 -0.2351  2.0849
 1760WAT    EPW 7748   6.863   1.043   0.955  0.8096 -0.6692  0.8819
 1761WAT      O 7749   5.728   7.630   0.902 -0.3858 -0.3967  0.0048
 1761WAT     H1 7750   5.749   7.670   0.977 -0.7684 -1.0630  0.4813
 1761WAT     H2 7751   5.789   7.658   0.846  0.1294 -0.1775  0.6571
 1761WAT    EPW 7752   5.740   7.640   0.905  0.8596  0.4824  0.2993
 1762WAT      O 7753   5.348   0.754   7.993  0.0807 -0.3018  0.3004
 1762WAT     H1 7754   5.393   0.688   7.959  0.4627 -0.6957  1.5351
 1762WAT     H2 7755   5.383   0.824   7.956  0.5806 -0.7096 -0.0045
 1762WAT    EPW 7756   5.360   0.755   7.982  0.0183 -1.2072 -0.8607
 1763WAT      O 7757   5.748   2.230   6.938  0.1890  0.5351 -0.4970
 1763WAT     H1 7758   5.745   2.154   6.896  1.8197  1.6578 -2.7993
 1763WAT     H2 7759   5.684   2.277   6.901 -0.4269  0.5401  0.5128
 1763WAT    EPW 7760   5.738   2.226   6.927 -1.3378  0.1404 -0.2162
 1764WAT      O 7761   6.497   1.922   0.050 -0.2194  0.2776  0.0566
 1764WAT     H1 7762   6.432   1.952   0.099 -0.7361 -0.9651  0.1666
 1764WAT     H2 7763   6.559   1.901   0.108 -1.9526 -4.1508  0.7179
 1764WAT    EPW 7764   6.497   1.923   0.066  0.0100 -1.2862  0.1390
 1765WAT      O 7765   5.676   1.465   7.902  0.5408  0.5365  0.1312
 1765WAT     H1 7766   5.590   1.457   7.920  0.8429 -2.5212  0.7490
 1765WAT     H2 7767   5.712   1.470   7.982  1.0434 -0.2012 -0.0420
 1765WAT    EPW 7768   5.668   1.465   7.917 -0.6353 -0.2169 -0.3425
 1766WAT      O 7769   5.387   2.064   7.868 -0.4448  0.6662  0.3214
 1766WAT     H1 7770   5.346   2.025   7.934 -2.1082  0.4119 -0.8032
 1766WAT     H2 7771   5.429   1.998   7.828  1.0299  0.9081  1.4021
 1766WAT    EPW 7772   5.387   2.048   7.872 -0.2813 -0.4555 -0.0467
 1767WAT      O 7773   5.174   0.448   7.877  0.5982 -0.1329  0.2031
 1767WAT     H1 7774   5.243   0.404   7.848 -0.6849 -1.9393 -0.2422
 1767WAT     H2 7775   5.183   0.444   7.964  0.9909 -0.4633  0.1516
 1767WAT    EPW 7776   5.186   0.441   7.886  0.2141 -0.4907 -0.2592
 1768WAT      O 7777   5.473   0.982   7.410 -0.0647 -0.6851  0.1090
 1768WAT     H1 7778   5.545   1.027   7.431 -0.3364 -0.2444  0.1283
 1768WAT     H2 7779   5.457   0.934   7.481  0.4586 -1.1174 -0.0645
 1768WAT    EPW 7780   5.481   0.982   7.423 -0.5788 -0.0404 -0.1900
 1769WAT      O 7781   6.406   2.543   7.491  0.6068  0.6691 -0.0509
 1769WAT     H1 7782   6.344   2.482   7.488  1.4583 -0.1802 -1.3720
 1769WAT     H2 7783   6.363   2.616   7.510 -0.7197  0.0106 -0.4567
 1769WAT    EPW 7784   6.391   2.545   7.494  0.2878  0.3968  0.4385
 1770WAT      O 7785   6.958   1.043   7.986  0.2002 -0.0970 -0.4873
 1770WAT     H1 7786   6.917   1.023   8.061 -0.4378 -0.0037 -0.8010
 1770WAT     H2 7787   6.898   1.088   7.942  0.5828 -0.1222 -1.0421
 1770WAT    EPW 7788   6.943   1.046   7.991 -0.1677 -0.2297 -0.4889
 1771WAT      O 7789   5.463   0.836   6.007 -0.3489  0.1077  0.2070
 1771WAT     H1 7790   5.402   0.895   5.986  0.3571  0.9333  0.4317
 1771WAT     H2 7791   5.529   0.884   6.037  0.4814 -0.7627 -0.1768
 1771WAT    EPW 7792   5.464   0.852   6.009 -1.4621 -0.3388  0.0312
 1772WAT      O 7793   6.099   1.699   7.119 -0.3928 -0.5713  0.7664
 1772WAT     H1 7794   6.061   1.691   7.041  2.0586 -2.3837 -0.3821
 1772WAT     H2 7795   6.052   1.646   7.170 -1.1726 -0.4826  0.1537
 1772WAT    EPW 7796   6.086   1.690   7.115 -0.3569  0.1084 -0.1378
 1773WAT      O 7797   4.983   0.961   6.912  0.2185  0.8438 -0.1586
 1773WAT     H1 7798   4.902   0.930   6.903  1.1336 -1.4190 -1.3752
 1773WAT     H2 7799   5.016   0.915   6.978  0.8239  1.0623 -0.3014
 1773WAT    EPW 7800   4.976   0.950   6.920  0.2974  0.2154 -0.8661
 1774WAT      O 7801   6.339   1.745   7.239 -0.5378  0.3602  0.0307
 1774WAT     H1 7802   6.264   1.724   7.199 -1.2444  1.1181  0.9307
 1774WAT     H2 7803   6.336   1.832   7.243 -0.2040  0.3320  1.1876
 1774WAT    EPW 7804   6.328   1.755   7.234  0.5043 -0.5703 -0.1801
 1775WAT      O 7805   6.232   0.848   0.415  0.2938 -0.2260  0.3702
 1775WAT     H1 7806   6.184   0.902   0.463  0.7776  0.0021  0.5986
 1775WAT     H2 7807   6.304   0.836   0.462  1.5739  1.4038 -1.0665
 1775WAT    EPW 7808   6.235   0.854   0.429 -0.3963  0.1106 -0.0018
 1776WAT      O 7809   5.898   1.946   7.998 -0.9376 -0.1685 -0.7739
 1776WAT     H1 7810   5.865   1.945   8.079 -1.9237 -1.0837 -1.1660
 1776WAT     H2 7811   5.845   2.000   7.955  0.3147  1.3170 -0.5618
 1776WAT    EPW 7812   5.885   1.954   8.004  0.6473 -0.3772  0.2760
 1777WAT      O 7813   6.315   0.040   3.977  0.1933 -0.7541 -0.2199
 1777WAT     H1 7814   6.260   0.059   4.043  0.5745 -2.5026  0.6527
 1777WAT     H2 7815   6.306   0.109   3.924 -2.1177 -0.5034  0.3468
 1777WAT    EPW 7816   6.305   0.053   3.979  0.0638  0.0643 -0.1784
 1778WAT      O 7817   6.625   1.622   4.440  0.0850 -0.3244  0.0471
 1778WAT     H1 7818   6.579   1.614   4.366 -0.6018 -0.6200  0.4927
 1778WAT     H2 7819   6.644   1.707   4.444 -0.6453 -0.1485 -0.0286
 1778WAT    EPW 7820   6.621   1.633   4.430 -0.9184 -0.2446  0.3745
 1779WAT      O 7821   6.027   2.250   4.804  0.6331 -0.2310 -0.1734
 1779WAT     H1 7822   5.982   2.179   4.784  1.1979 -0.5442 -0.3477
 1779WAT     H2 7823   5.972   2.296   4.855  0.4170 -0.9667  0.2622
 1779WAT    EPW 7824   6.012   2.246   4.809  0.2994 -0.1087  0.0226
 1780WAT      O 7825   6.623   1.180   4.719  0.3959  0.0218  0.0364
 1780WAT     H1 7826   6.600   1.264   4.714 -0.3870 -0.2033 -0.4327
 1780WAT     H2 7827   6.546   1.138   4.716  0.8242 -0.7410 -0.6578
 1780WAT    EPW 7828   6.608   1.186   4.718 -0.4945 -0.5457 -0.6438
 1781WAT      O 7829   4.896   1.214   5.258 -0.2664 -0.3044  0.2000
 1781WAT     H1 7830   4.889   1.300   5.274  1.1086 -0.2803  0.8072
 1781WAT     H2 7831   4.862   1.177   5.329 -0.3140 -0.2456  0.2076
 1781WAT    EPW 7832   4.890   1.221   5.271 -0.7160 -0.5183  1.2453
 1782WAT      O 7833   5.845   1.056   5.125  0.1921  0.0416  0.2713
 1782WAT     H1 7834   5.841   0.974   5.095  0.2649  1.0221 -2.7446
 1782WAT     H2 7835   5.764   1.072   5.152 -0.2098 -0.5680 -0.5340
 1782WAT    EPW 7836   5.832   1.046   5.124 -0.5900 -0.4080  0.1925
 1783WAT      O 7837   5.159   0.694   6.320 -0.1508  0.1991  0.3322
 1783WAT     H1 7838   5.115   0.730   6.253 -1.2434 -0.6761  0.5407
 1783WAT     H2 7839   5.207   0.632   6.282  1.8932  1.9181 -0.0554
 1783WAT    EPW 7840   5.159   0.690   6.304  0.4637 -0.6523 -0.5989
 1784WAT      O 7841   5.121   2.363   4.715  0.6233 -0.1108  0.2251
 1784WAT     H1 7842   5.133   2.328   4.794  1.2930 -0.8598 -0.1865
 1784WAT     H2 7843   5.046   2.327   4.688 -0.5339  1.4661  1.1809
 1784WAT    EPW 7844   5.112   2.352   4.723 -0.5389 -0.3061 -0.0168
 1785WAT      O 7845   5.450   0.967   7.861  0.3035 -0.2729 -0.4857
 1785WAT     H1 7846   5.410   1.002   7.792 -0.8662  1.2007  0.8643
 1785WAT     H2 7847   5.534   0.989   7.849  0.4696 -1.6330 -2.3016
 1785WAT    EPW 7848   5.457   0.976   7.849 -0.0768  0.2635  0.3172
 1786WAT      O 7849   5.498   0.246   5.773  0.2734  0.6721 -0.2719
 1786WAT     H1 7850   5.482   0.323   5.736  1.6132  1.8477  1.4050
 1786WAT     H2 7851   5.476   0.258   5.857 -1.8700 -1.6148 -0.3880
 1786WAT    EPW 7852   5.493   0.259   5.780  0.0043  0.0478 -0.3155
 1787WAT      O 7853   5.830   0.747   5.552 -0.2778 -0.1586 -0.8412
 1787WAT     H1 7854   5.755   0.787   5.535  0.2201  1.2613  0.0427
 1787WAT     H2 7855   5.887   0.787   5.500  0.3414  0.7719  0.4858
 1787WAT    EPW 7856   5.828   0.759   5.542 -0.1977 -0.1941 -0.1167
 1788WAT      O 7857   5.693   1.041   4.434  0.0005  0.0237  0.2173
 1788WAT     H1 7858   5.715   1.061   4.516 -0.7057  0.4098  0.3188
 1788WAT     H2 7859   5.713   1.114   4.389  1.9289 -0.7259 -0.2741
 1788WAT    EPW 7860   5.699   1.055   4.439 -0.1040 -0.0238  0.1342
 1789WAT      O 7861   6.304   1.371   4.963  0.7529 -0.5851 -0.3866
 1789WAT     H1 7862   6.230   1.396   5.001  1.8582  0.9463  0.9088
 1789WAT     H2 7863   6.349   1.445   4.954  1.0279 -1.0144 -3.8368
 1789WAT    EPW 7864   6.300   1.385   4.967  1.4033  0.3879 -0.4682
 1790WAT      O 7865   4.971   1.004   4.581  0.8929  0.3340  0.0194
 1790WAT     H1 7866   4.976   0.939   4.639  2.1520  0.5179  0.1416
 1790WAT     H2 7867   4.956   1.075   4.630  1.3742  0.4032  0.0699
 1790WAT    EPW 7868   4.969   1.005   4.597 -0.4308  0.7051  0.1282
 1791WAT      O 7869   5.974   0.850   5.329  0.8876 -0.3085  0.1731
 1791WAT     H1 7870   5.940   0.925   5.299 -0.8181 -0.6711  1.0627
 1791WAT     H2 7871   6.049   0.843   5.286  0.3829  1.1682 -1.0462
 1791WAT    EPW 7872   5.980   0.860   5.318  0.2643 -0.1525 -0.0908
 1792WAT      O 7873   5.527   0.732   5.740 -0.2350 -0.0267  0.0434
 1792WAT     H1 7874   5.533   0.773   5.817 -4.1754  0.2841  0.4178
 1792WAT     H2 7875   5.542   0.795   5.682 -1.5768  0.8807  0.6299
 1792WAT    EPW 7876   5.530   0.747   5.743 -0.2099  0.4672 -0.3768
 1793WAT      O 7877   6.052   0.752   4.726  0.2300  0.0707 -0.1758
 1793WAT     H1 7878   6.137   0.732   4.722  0.1547 -0.5658  0.9606
 1793WAT     H2 7879   6.051   0.834   4.753  0.5077 -0.7646  2.7015
 1793WAT    EPW 7880   6.064   0.761   4.729  0.0331  0.9279  0.4432
 1794WAT      O 7881   5.829   0.770   5.051 -0.4519 -0.2060 -0.1922
 1794WAT     H1 7882   5.823   0.750   4.967  0.9846  0.2892 -0.4419
 1794WAT     H2 7883   5.885   0.711   5.083 -0.7867 -0.2326  0.3759
 1794WAT    EPW 7884   5.836   0.758   5.044 -0.0099 -0.2303 -0.7691
 1795WAT      O 7885   5.333   0.970   6.302 -0.4164 -0.2557 -0.0684
 1795WAT     H1 7886   5.313   0.997   6.382 -0.7737 -2.0920  0.5206
 1795WAT     H2 7887   5.278   0.904   6.288 -0.3447  0.0080 -1.8346
 1795WAT    EPW 7888   5.322   0.964   6.311 -0.4092  0.5007 -0.2962
 1796WAT      O 7889   5.823   7.271   6.845  0.2293  0.5171 -0.2190
 1796WAT     H1 7890   5.880   7.210   6.819  1.1145  0.8482  0.8885
 1796WAT     H2 7891   5.790   7.239   6.919  0.7538  1.3916  0.4095
 1796WAT    EPW 7892   5.826   7.257   6.852 -0.4760 -0.7188 -0.6790
 1797WAT      O 7893   4.289   7.642   6.175  0.1019 -0.1938  0.6179
 1797WAT     H1 7894   4.335   7.697   6.125 -0.6644 -1.3015 -1.4086
 1797WAT     H2 7895   4.246   7.696   6.229 -0.4002  1.2153 -1.0901
 1797WAT    EPW 7896   4.290   7.658   6.176  0.0953 -0.3174  0.0608
 1798WAT      O 7897   5.933   1.473   7.534 -0.8184  0.5583 -0.2086
 1798WAT     H1 7898   5.987   1.475   7.603 -1.5713 -1.3558  0.5130
 1798WAT     H2 7899   5.889   1.547   7.541  0.4810  1.3304  0.2112
 1798WAT    EPW 7900   5.935   1.484   7.545  0.3012 -0.3549  0.0149
 1799WAT      O 7901   5.838   1.195   4.712  0.4962 -0.1027 -0.8733
 1799WAT     H1 7902   5.766   1.168   4.753  0.7860  0.6546  0.1732
 1799WAT     H2 7903   5.892   1.126   4.717 -0.3047 -0.8709 -2.1367
 1799WAT    EPW 7904   5.836   1.181   4.719 -0.2957 -0.1954 -0.4541
 1800WAT      O 7905   6.545   1.432   4.648  0.1497  0.1567  0.6498
 1800WAT     H1 7906   6.571   1.488   4.586  0.5651 -0.6430  0.0775
 1800WAT     H2 7907   6.531   1.483   4.718  1.2322  0.8752  0.3652
 1800WAT    EPW 7908   6.547   1.448   4.649  1.0855 -0.3869  0.4378
 1801WAT      O 7909   5.696   7.141   3.205 -0.5635  0.0779 -0.3129
 1801WAT     H1 7910   5.660   7.219   3.220 -1.2611 -0.5831  1.8591
 1801WAT     H2 7911   5.778   7.150   3.231 -0.6865  0.0773  0.0906
 1801WAT    EPW 7912   5.703   7.154   3.211 -0.1582 -0.6061  0.1317
 1802WAT      O 7913   6.109   7.293   6.053  0.1396 -0.2044  0.3008
 1802WAT     H1 7914   6.048   7.231   6.039 -0.7811  0.4760  1.1692
 1802WAT     H2 7915   6.130   7.281   6.137  0.3440  0.3286  0.3227
 1802WAT    EPW 7916   6.103   7.282   6.064  0.0522  0.4707  0.9192
 1803WAT      O 7917   5.857   0.143   5.182 -0.0778  0.2029 -0.1204
 1803WAT     H1 7918   5.913   0.099   5.233  0.8925  1.4268 -0.0709
 1803WAT     H2 7919   5.909   0.199   5.140 -1.2616  1.2925 -0.1711
 1803WAT    EPW 7920   5.873   0.144   5.184 -0.4755 -0.2593 -0.3601
 1804WAT      O 7921   4.631   1.773   4.981  0.0460 -0.4841 -0.4388
 1804WAT     H1 7922   4.601   1.852   4.960 -0.3071 -0.8146 -1.2188
 1804WAT     H2 7923   4.682   1.788   5.050 -2.8519 -0.0046  1.8280
 1804WAT    EPW 7924   4.634   1.786   4.988 -0.5385 -0.6214 -0.9011
 1805WAT      O 7925   5.847   8.001   5.559 -0.2451  0.0403 -0.3953
 1805WAT     H1 7926   5.895   7.966   5.623  0.1388  2.3863  0.7266
 1805WAT     H2 7927   5.824   8.079   5.591 -0.8171  0.9432 -2.7657
 1805WAT    EPW 7928   5.851   8.008   5.573 -0.2385  0.0341  0.2346
 1806WAT      O 7929   5.518   7.729   4.418  0.1688  0.2855 -0.2590
 1806WAT     H1 7930   5.523   7.752   4.502  0.7533  0.3303 -0.3022
 1806WAT     H2 7931   5.518   7.806   4.376 -1.8493  0.3518 -0.2471
 1806WAT    EPW 7932   5.519   7.744   4.424 -0.4048 -0.1777  0.4272
 1807WAT      O 7933   5.774   0.220   5.712 -0.3514  0.1207  0.4302
 1807WAT     H1 7934   5.790   0.296   5.672  0.3142  0.3982  1.2089
 1807WAT     H2 7935   5.688   0.221   5.724 -0.4792  0.3060 -0.4444
 1807WAT    EPW 7936   5.764   0.232   5.708  0.0756  0.5496  0.0597
 1808WAT      O 7937   5.783   0.688   4.767 -0.1574 -0.2780  0.3198
 1808WAT     H1 7938   5.869   0.674   4.759 -0.0959 -0.0034  0.4878
 1808WAT     H2 7939   5.752   0.609   4.788 -0.5924 -1.5853 -4.2441
 1808WAT    EPW 7940   5.791   0.674   4.769 -0.6780 -0.8171  0.0867
 1809WAT      O 7941   5.126   7.884   5.348  0.2157  0.4934 -0.3714
 1809WAT     H1 7942   5.156   7.961   5.319  1.8766 -0.3944 -1.0946
 1809WAT     H2 7943   5.179   7.826   5.311 -1.3451 -1.0649 -0.2738
 1809WAT    EPW 7944   5.138   7.887   5.338  0.2893  0.0137  0.4478
 1810WAT      O 7945   5.535   0.259   4.723 -0.3118  0.4276  0.2525
 1810WAT     H1 7946   5.605   0.212   4.703 -0.7761 -0.6614  1.0590
 1810WAT     H2 7947   5.544   0.331   4.675  2.1547  1.0619  1.5123
 1810WAT    EPW 7948   5.546   0.263   4.713  0.2932 -1.0229  0.2653
 1811WAT      O 7949   5.755   0.202   7.419  0.6242  0.4306  0.6250
 1811WAT     H1 7950   5.804   0.140   7.383  1.8185 -0.4466  3.4840
 1811WAT     H2 7951   5.802   0.275   7.406  0.2993  0.4267 -0.7740
 1811WAT    EPW 7952   5.769   0.204   7.411 -0.9586 -0.4089  0.8809
 1812WAT      O 7953   5.626   1.700   6.456  0.5092  0.6579  0.1740
 1812WAT     H1 7954   5.545   1.684   6.486  0.7258  0.0264  0.4226
 1812WAT     H2 7955   5.659   1.621   6.442  1.1149  0.9122  0.1452
 1812WAT    EPW 7956   5.619   1.686   6.458 -0.3618  0.4101  0.0103
 1813WAT      O 7957   5.110   0.606   5.910 -0.5234  0.3569  0.1587
 1813WAT     H1 7958   5.197   0.604   5.904 -0.5307  1.0785 -0.5111
 1813WAT     H2 7959   5.087   0.522   5.914  0.0219 -0.1336 -3.5205
 1813WAT    EPW 7960   5.119   0.594   5.909  1.1889 -0.4922  0.1644
 1814WAT      O 7961   5.418   1.272   5.098  0.1357 -0.0392  0.3828
 1814WAT     H1 7962   5.340   1.232   5.098 -0.7637  1.6389  0.5231
 1814WAT     H2 7963   5.421   1.312   5.021  1.6377 -1.3967 -0.3474
 1814WAT    EPW 7964   5.407   1.272   5.087 -0.6627  0.5932 -0.2401
 1815WAT      O 7965   5.556   7.271   3.974 -0.0018 -0.3983  0.0515
 1815WAT     H1 7966   5.632   7.278   4.017 -0.2682 -1.5800  0.7345
 1815WAT     H2 7967   5.497   7.300   4.031  0.1188  3.2392 -1.4078
 1815WAT    EPW 7968   5.559   7.276   3.989  0.4647 -1.0887  0.2454
 1816WAT      O 7969   5.069   0.313   6.839 -0.5123 -0.0478  0.0814
 1816WAT     H1 7970   5.137   0.365   6.856 -0.4105 -0.7378  1.9710
 1816WAT     H2 7971   5.100   0.261   6.775  0.3664  0.3230  0.1887
 1816WAT    EPW 7972   5.084   0.313   6.832 -0.1145  0.2017  0.2687
 1817WAT      O 7973   5.834   0.574   0.112  0.4583 -0.4062 -0.1235
 1817WAT     H1 7974   5.888   0.506   0.114  0.7686 -0.1758  2.1014
 1817WAT     H2 7975   5.762   0.544   0.151  0.7657  0.6001  1.3106
 1817WAT    EPW 7976   5.831   0.560   0.118  0.3943 -0.0495 -0.1903
 1818WAT      O 7977   7.326   2.196   3.655 -0.6368 -0.7695 -0.4382
 1818WAT     H1 7978   7.328   2.275   3.618 -1.5304 -0.2043  0.6300
 1818WAT     H2 7979   7.298   2.144   3.592  1.9260 -0.6546 -1.7832
 1818WAT    EPW 7980   7.322   2.200   3.640  0.2950 -0.2405 -0.2115
 1819WAT      O 7981   5.776   1.152   6.759  0.2260  0.2979  0.0003
 1819WAT     H1 7982   5.857   1.178   6.740  0.7290 -0.5236  0.9600
 1819WAT     H2 7983   5.783   1.117   6.838 -1.2208  0.8772  0.4305
 1819WAT    EPW 7984   5.789   1.151   6.768  0.2862 -0.2749 -0.7078
 1820WAT      O 7985   6.319   0.590   4.234 -0.1821  0.0943  0.0565
 1820WAT     H1 7986   6.335   0.653   4.292  0.7728 -1.4886  1.6221
 1820WAT     H2 7987   6.261   0.626   4.180 -0.1063  2.0988  1.2037
 1820WAT    EPW 7988   6.313   0.605   4.235  0.5443 -0.2808  0.1894
 1821WAT      O 7989   6.364   7.913   7.859  0.1956  0.1627 -0.2534
 1821WAT     H1 7990   6.328   7.835   7.873 -1.4904  0.8934 -0.2687
 1821WAT     H2 7991   6.317   7.966   7.909 -0.0170  1.4662 -1.7665
 1821WAT    EPW 7992   6.352   7.909   7.869  0.0676  1.3780  0.3488
 1822WAT      O 7993   5.722   1.455   6.345  0.7788  0.4837  0.3769
 1822WAT     H1 7994   5.651   1.452   6.294  0.3358  0.0107  1.0016
 1822WAT     H2 7995   5.736   1.372   6.367 -1.5366  0.8570  4.2951
 1822WAT    EPW 7996   5.713   1.443   6.341 -0.7893  0.2911 -0.4800
 1823WAT      O 7997   5.912   0.639   6.744 -0.6200 -0.3433  0.0605
 1823WAT     H1 7998   5.959   0.688   6.798  1.4153 -1.1070 -0.9050
 1823WAT     H2 7999   5.831   0.643   6.777 -0.1404  1.9769  1.1386
 1823WAT    EPW 8000   5.907   0.647   6.757  0.0980  0.3431 -0.3491
 1824WAT      O 8001   6.091   0.811   7.651 -0.0724 -0.3216  0.5964
 1824WAT     H1 8002   6.078   0.866   7.717  1.2766 -0.0674  0.6902
 1824WAT     H2 8003   6.040   0.743   7.670 -1.6594  0.7944  0.5640
 1824WAT    EPW 8004   6.082   0.809   7.663 -0.3258  0.2756  0.1053
 1825WAT      O 8005   5.660   2.011   4.620 -0.0808 -0.3813 -0.0315
 1825WAT     H1 8006   5.578   2.011   4.649  0.2611  3.5447  1.4116
 1825WAT     H2 8007   5.666   2.085   4.575  2.0627 -1.8349 -2.4021
 1825WAT    EPW 8008   5.649   2.022   4.617 -0.0354 -0.2710 -0.2364
 1826WAT      O 8009   6.807   2.316   4.734 -0.4099  0.0964  0.0383
 1826WAT     H1 8010   6.774   2.396   4.744 -0.3916  0.0761  0.2628
 1826WAT     H2 8011   6.757   2.266   4.786 -0.7885 -0.1348 -0.5449
 1826WAT    EPW 8012   6.795   2.320   4.743  0.4331  0.7605  0.1035
 1827WAT      O 8013   6.676   7.495   4.963  0.1237  0.5011 -0.0076
 1827WAT     H1 8014   6.609   7.546   4.985  1.6907  1.4688  3.2996
 1827WAT     H2 8015   6.694   7.518   4.881 -0.7773  3.6142  0.5372
 1827WAT    EPW 8016   6.669   7.506   4.954  0.4303 -0.0565 -0.2597
 1828WAT      O 8017   5.601   1.141   6.113 -0.1385  0.8507 -0.0985
 1828WAT     H1 8018   5.669   1.149   6.059 -0.6736 -0.0864 -0.9451
 1828WAT     H2 8019   5.621   1.071   6.162 -0.9049 -0.0599 -1.0319
 1828WAT    EPW 8020   5.614   1.132   6.112  0.0373 -0.1631 -0.2100
 1829WAT      O 8021   6.566   7.435   7.217  0.0820 -0.3368 -0.3180
 1829WAT     H1 8022   6.587   7.460   7.136 -0.0413  2.1027  0.3078
 1829WAT     H2 8023   6.642   7.406   7.250  0.5591  0.4071 -0.7340
 1829WAT    EPW 8024   6.580   7.434   7.210 -0.2319  0.3752 -0.5822
 1830WAT      O 8025   5.863   1.546   5.341 -0.0254 -0.3866 -0.5137
 1830WAT     H1 8026   5.821   1.482   5.382 -0.1117 -0.4588 -0.7156
 1830WAT     H2 8027   5.939   1.509   5.317  0.7956  0.1496  1.1400
 1830WAT    EPW 8028   5.868   1.531   5.343 -0.7124 -0.8267  0.0752
 1831WAT      O 8029   6.268   0.305   5.124  0.5547  0.0476 -0.0925
 1831WAT     H1 8030   6.233   0.308   5.204  0.0777 -0.1152 -0.2931
 1831WAT     H2 8031   6.315   0.378   5.120  1.1870 -0.3029  0.6090
 1831WAT    EPW 8032   6.269   0.316   5.135 -0.4999  0.4345 -0.3940
 1832WAT      O 8033   5.810   0.425   7.195 -0.3112  0.3902  0.1010
 1832WAT     H1 8034   5.734   0.405   7.156 -0.0237  1.1410 -0.9043
 1832WAT     H2 8035   5.827   0.505   7.165  0.6330  0.4358  0.7230
 1832WAT    EPW 8036   5.801   0.434   7.185  0.5942 -0.3825 -0.3361
 1833WAT      O 8037   6.937   1.104   3.431  0.0826 -0.0564  0.1754
 1833WAT     H1 8038   6.863   1.069   3.400 -0.0869 -0.1492  0.6787
 1833WAT     H2 8039   6.927   1.189   3.414  0.9548 -0.3183 -2.0166
 1833WAT    EPW 8040   6.924   1.112   3.424 -0.7782 -0.3814 -0.4114
 1834WAT      O 8041   5.299   0.380   6.964  0.2809  0.0977  0.0176
 1834WAT     H1 8042   5.377   0.366   7.000  0.2987 -0.2733 -0.1608
 1834WAT     H2 8043   5.258   0.304   6.976 -0.4255  0.6068  1.0396
 1834WAT    EPW 8044   5.304   0.366   6.971 -0.3593  0.1844 -0.4696
 1835WAT      O 8045   6.293   1.991   4.278 -0.5777  0.9509  0.6017
 1835WAT     H1 8046   6.324   1.935   4.337  1.3456  1.0658 -0.2413
 1835WAT     H2 8047   6.223   1.950   4.245  0.0428 -0.3846  0.9004
 1835WAT    EPW 8048   6.287   1.977   4.282  0.1125  0.3798 -0.9152
 1836WAT      O 8049   6.363   0.565   5.062  0.0082  0.3962 -0.3061
 1836WAT     H1 8050   6.341   0.547   4.980  0.4408  1.9066 -0.8039
 1836WAT     H2 8051   6.449   0.580   5.057  0.0601  0.3881  0.4379
 1836WAT    EPW 8052   6.373   0.565   5.049  0.0845  0.2388  0.6131
 1837WAT      O 8053   5.992   7.571   6.379 -0.6632  0.5614  0.2565
 1837WAT     H1 8054   5.939   7.634   6.408 -1.0498  0.4159 -0.1336
 1837WAT     H2 8055   5.944   7.499   6.387 -1.3409  0.6829 -2.1233
 1837WAT    EPW 8056   5.977   7.570   6.385 -0.1767  0.2598 -0.0495
 1838WAT      O 8057   6.063   6.979   7.166 -0.2406  0.0544 -0.1774
 1838WAT     H1 8058   6.129   6.934   7.132  0.3720  0.3942  0.5400
 1838WAT     H2 8059   6.005   6.917   7.188 -1.3723 -0.1196 -3.1679
 1838WAT    EPW 8060   6.064   6.963   7.164  0.4791 -0.0468 -0.1460
 1839WAT      O 8061   5.162   1.430   5.220  0.6224 -0.4255  0.4314
 1839WAT     H1 8062   5.243   1.457   5.205  0.1438  0.2704 -1.0630
 1839WAT     H2 8063   5.114   1.503   5.212 -0.8722 -1.6115 -4.8432
 1839WAT    EPW 8064   5.167   1.445   5.217  0.0703 -0.5065 -0.4259
 1840WAT      O 8065   6.161   1.167   4.522 -0.1491  0.0804 -0.1681
 1840WAT     H1 8066   6.116   1.227   4.478  1.3563  1.1547 -0.3343
 1840WAT     H2 8067   6.197   1.212   4.587 -0.9419 -1.1471  1.1767
 1840WAT    EPW 8068   6.160   1.183   4.525  0.8050  0.4554  0.4792
 1841WAT      O 8069   5.585   1.070   4.731  0.1421 -0.0708 -0.3184
 1841WAT     H1 8070   5.508   1.103   4.706  0.8486  0.9425 -1.2906
 1841WAT     H2 8071   5.563   1.009   4.789 -1.4079 -0.0044 -0.7708
 1841WAT    EPW 8072   5.570   1.066   4.736 -0.2071  0.4053  0.0815
 1842WAT      O 8073   5.656   8.004   5.067 -0.5198 -0.1751 -0.4181
 1842WAT     H1 8074   5.722   8.044   5.108 -0.4731 -0.8781  0.2042
 1842WAT     H2 8075   5.661   7.922   5.096 -1.9762 -0.1287  0.0260
 1842WAT    EPW 8076   5.667   7.998   5.077  0.0643  0.4691 -0.3323
 1843WAT      O 8077   6.570   1.897   4.900  0.2853 -0.0717 -0.0181
 1843WAT     H1 8078   6.578   1.983   4.911 -1.0059 -0.0569  1.0115
 1843WAT     H2 8079   6.508   1.890   4.839  1.3489 -0.2753 -1.1042
 1843WAT    EPW 8080   6.562   1.909   4.893 -0.5193 -0.2392 -0.9943
 1844WAT      O 8081   7.035   0.570   3.721 -0.0428  0.1341  0.3825
 1844WAT     H1 8082   7.035   0.500   3.668 -0.6998 -0.7086  1.4488
 1844WAT     H2 8083   7.046   0.637   3.666  1.2036 -0.8347 -0.6153
 1844WAT    EPW 8084   7.037   0.569   3.705 -0.4500 -0.5142  0.4230
 1845WAT      O 8085   0.345   0.293   1.615  0.0742 -0.5688 -0.2729
 1845WAT     H1 8086   0.301   0.241   1.670  1.7552 -0.6363  1.1079
 1845WAT     H2 8087   0.287   0.354   1.594 -1.2481 -1.7210 -0.0831
 1845WAT    EPW 8088   0.330   0.294   1.620  1.0096 -0.7920 -0.6509
 1846WAT      O 8089   6.904   0.306   4.050 -0.7399  0.1076 -0.4045
 1846WAT     H1 8090   6.964   0.367   4.034  0.5109 -1.3358 -1.4679
 1846WAT     H2 8091   6.934   0.266   4.122 -2.0452  1.2699  0.8552
 1846WAT    EPW 8092   6.917   0.309   4.058 -0.6258 -0.4404 -0.4603
 1847WAT      O 8093   8.065   7.745   2.158 -0.1029  0.2013 -0.3430
 1847WAT     H1 8094   8.109   7.774   2.227  2.1521 -1.5382 -0.9384
 1847WAT     H2 8095   7.984   7.775   2.172  0.5513  1.0318  2.3397
 1847WAT    EPW 8096   8.059   7.754   2.170 -0.1136  0.1324  0.3364
 1848WAT      O 8097   7.435   0.223   4.136 -0.0003  0.3519  0.0896
 1848WAT     H1 8098   7.509   0.186   4.111  0.0690  0.0546  0.7098
 1848WAT     H2 8099   7.435   0.300   4.095  0.4147  0.1514 -0.2912
 1848WAT    EPW 8100   7.446   0.229   4.127 -0.9980 -0.4167  0.0372
 1849WAT      O 8101   5.636   0.520   2.369  0.2100  0.2047 -0.6227
 1849WAT     H1 8102   5.612   0.563   2.297 -0.2286 -0.1878 -0.7153
 1849WAT     H2 8103   5.678   0.581   2.416 -1.4411  1.0747 -0.1986
 1849WAT    EPW 8104   5.639   0.536   2.366  0.0978 -0.1279 -0.9364
 1850WAT      O 8105   7.855   1.593   3.781  0.5287 -0.3456 -0.2826
 1850WAT     H1 8106   7.885   1.635   3.852  2.4853  0.1469 -1.3242
 1850WAT     H2 8107   7.788   1.643   3.755  0.8286  0.3763  0.2906
 1850WAT    EPW 8108   7.850   1.607   3.788 -0.2361 -0.7845 -0.5946
 1851WAT      O 8109   5.287   1.162   6.101  0.0646  0.4334  0.0533
 1851WAT     H1 8110   5.358   1.207   6.080 -0.2164  0.3616 -1.1027
 1851WAT     H2 8111   5.310   1.120   6.174  0.8894  1.1285  0.2016
 1851WAT    EPW 8112   5.301   1.162   6.109  0.3552 -1.0100 -0.7619
 1852WAT      O 8113   0.284   0.316   3.590 -0.1787  0.6741 -0.7934
 1852WAT     H1 8114   0.263   0.235   3.614  0.5470  0.9435  0.8835
 1852WAT     H2 8115   0.371   0.317   3.592 -0.1730  1.4805 -0.7976
 1852WAT    EPW 8116   0.294   0.305   3.594 -0.4954  0.4605  0.0494
 1853WAT      O 8117   7.394   7.720   3.620  0.4625  0.2775  1.1383
 1853WAT     H1 8118   7.398   7.727   3.707  0.8223 -1.6259  1.3138
 1853WAT     H2 8119   7.475   7.694   3.598  0.1356 -0.0731  0.3167
 1853WAT    EPW 8120   7.407   7.717   3.630 -0.0657  0.4780  0.0169
 1854WAT      O 8121   8.024   1.926   3.742 -0.2575 -0.3830  0.1593
 1854WAT     H1 8122   8.093   1.974   3.718 -1.1499  1.2928  0.7666
 1854WAT     H2 8123   8.048   1.844   3.723  2.3673 -0.0088  1.4169
 1854WAT    EPW 8124   8.038   1.921   3.736  0.5437 -0.3932 -0.0807
 1855WAT      O 8125   0.197   0.360   3.889  0.7296 -0.2055 -0.4447
 1855WAT     H1 8126   0.268   0.311   3.889  1.9812  1.4769  0.3442
 1855WAT     H2 8127   0.189   0.386   3.806 -0.3002 -2.1071 -1.0028
 1855WAT    EPW 8128   0.206   0.357   3.877  0.4120 -1.1897 -0.2162
 1856WAT      O 8129   7.051   2.122   3.093  0.0425  0.1242  0.1693
 1856WAT     H1 8130   7.088   2.043   3.095 -0.7740 -0.2556  0.3802
 1856WAT     H2 8131   7.114   2.172   3.058  0.5177 -0.6371 -0.1072
 1856WAT    EPW 8132   7.066   2.118   3.088 -0.5855  0.1770 -0.3043
 1857WAT      O 8133   7.096   1.331   3.794  0.2867  0.5638  0.3493
 1857WAT     H1 8134   7.093   1.244   3.803  1.8100  0.3115 -0.9354
 1857WAT     H2 8135   7.111   1.341   3.708  0.4025  2.0889  0.5253
 1857WAT    EPW 8136   7.098   1.320   3.782  0.3538 -0.9008  0.0863
 1858WAT      O 8137   7.614   0.101   3.973 -0.2045 -0.0021  0.0794
 1858WAT     H1 8138   7.677   0.159   3.959  1.1880 -1.2506  0.9218
 1858WAT     H2 8139   7.551   0.126   3.917  0.3990  2.1423  0.2477
 1858WAT    EPW 8140   7.614   0.113   3.963 -0.4810  0.0953 -0.7361
 1859WAT      O 8141   7.763   2.187   3.393 -0.6290 -0.0197  0.3703
 1859WAT     H1 8142   7.787   2.140   3.463 -1.8760 -0.0714  0.7823
 1859WAT     H2 8143   7.710   2.247   3.427 -1.1114  0.0563 -0.5104
 1859WAT    EPW 8144   7.759   2.189   3.409 -0.8789 -0.7514 -0.4114
 1860WAT      O 8145   1.049   1.857   4.248 -0.5343  0.5415 -0.0681
 1860WAT     H1 8146   0.991   1.793   4.247  0.7958 -0.7259 -0.1296
 1860WAT     H2 8147   1.068   1.870   4.163 -0.1260  0.3592 -0.0083
 1860WAT    EPW 8148   1.043   1.850   4.235  0.2976  0.2377  0.5928
 1861WAT      O 8149   7.364   0.226   3.558  0.4140  0.4569  0.0349
 1861WAT     H1 8150   7.373   0.141   3.539  0.6084  0.5326 -0.2122
 1861WAT     H2 8151   7.296   0.250   3.509 -1.7954 -0.3025  2.4845
 1861WAT    EPW 8152   7.355   0.217   3.548  0.4545 -0.2293 -0.1158
 1862WAT      O 8153   6.050   1.630   4.718 -0.1880 -0.0706  0.4312
 1862WAT     H1 8154   6.046   1.550   4.754  1.0448 -0.4810 -0.2655
 1862WAT     H2 8155   6.052   1.613   4.632 -0.7705  0.7715  0.2409
 1862WAT    EPW 8156   6.050   1.616   4.710  0.0219  0.2801 -0.6112
 1863WAT      O 8157   7.105   0.237   2.942  0.0441 -0.1956  0.0167
 1863WAT     H1 8158   7.048   0.174   2.964  0.9206 -1.0010  0.0230
 1863WAT     H2 8159   7.175   0.218   2.990  0.1161  1.1483  0.4635
 1863WAT    EPW 8160   7.107   0.225   2.952  0.5798  0.0324 -0.3033
 1864WAT      O 8161   7.703   7.042   3.875 -0.7473  0.3643 -0.7858
 1864WAT     H1 8162   7.773   7.089   3.894  0.4888 -1.9022  0.7954
 1864WAT     H2 8163   7.637   7.089   3.907 -0.2779  3.1929 -3.4963
 1864WAT    EPW 8164   7.703   7.056   3.883  1.0251 -0.2713  0.4486
 1865WAT      O 8165   5.315   1.184   4.705 -0.3000 -0.1666 -0.1549
 1865WAT     H1 8166   5.309   1.166   4.620  0.7613  0.8723 -0.4850
 1865WAT     H2 8167   5.299   1.107   4.743 -0.0897 -0.8184 -1.3161
 1865WAT    EPW 8168   5.312   1.170   4.698  0.5610 -0.1661 -0.1860
 1866WAT      O 8169   0.807   6.682   2.652 -0.1540  0.0842 -0.2898
 1866WAT     H1 8170   0.761   6.717   2.586 -0.2569 -0.4262 -0.4958
 1866WAT     H2 8171   0.782   6.729   2.721 -0.7767  0.0023 -0.4513
 1866WAT    EPW 8172   0.796   6.694   2.653  0.3691 -0.2564 -0.6701
 1867WAT      O 8173   6.914   1.646   4.658 -0.3529 -0.4265 -0.7929
 1867WAT     H1 8174   6.973   1.658   4.722 -1.5692 -0.2975  0.3339
 1867WAT     H2 8175   6.845   1.692   4.685 -0.8932 -0.3538 -2.2269
 1867WAT    EPW 8176   6.913   1.655   4.671 -0.2174  0.4014 -0.0480
 1868WAT      O 8177   0.506   6.860   2.651 -0.0553  0.0958 -0.0463
 1868WAT     H1 8178   0.565   6.872   2.715  0.6818 -0.6373 -0.5738
 1868WAT     H2 8179   0.549   6.884   2.579 -1.0421  1.3848 -0.2478
 1868WAT    EPW 8180   0.521   6.865   2.650  0.2353  0.1715 -0.1505
 1869WAT      O 8181   7.578   7.699   2.986 -0.0122 -0.4620 -1.0930
 1869WAT     H1 8182   7.497   7.723   2.964 -0.0515 -1.3904 -2.0481
 1869WAT     H2 8183   7.627   7.731   2.921  0.1931 -1.1804 -1.2969
 1869WAT    EPW 8184   7.573   7.707   2.973  0.6870 -0.4786 -0.2825
 1870WAT      O 8185   7.459   0.348   2.348  0.1284 -0.1617  0.7163
 1870WAT     H1 8186   7.533   0.372   2.310 -1.4969  1.3014 -1.8457
 1870WAT     H2 8187   7.453   0.262   2.329  0.1432  0.1935 -1.0681
 1870WAT    EPW 8188   7.469   0.339   2.340 -0.5093 -0.0692 -0.0983
 1871WAT      O 8189   7.539   0.790   3.195 -0.4188  0.4177  0.8171
 1871WAT     H1 8190   7.514   0.789   3.278 -1.9221  0.4852  0.3858
 1871WAT     H2 8191   7.596   0.856   3.192  0.1013  0.0488  1.8967
 1871WAT    EPW 8192   7.544   0.800   3.207  0.6799  0.4242 -0.8580
 1872WAT      O 8193   7.254   0.520   3.310 -0.6307 -0.0616 -0.2051
 1872WAT     H1 8194   7.219   0.510   3.231  0.1158  0.3411 -0.6001
 1872WAT     H2 8195   7.258   0.607   3.319  1.7447 -0.0308 -0.8832
 1872WAT    EPW 8196   7.249   0.532   3.299 -0.4613  0.9619 -0.2705
 1873WAT      O 8197   6.263   0.504   2.718  0.0128  0.0898  0.0847
 1873WAT     H1 8198   6.187   0.506   2.677  0.0016 -1.8216 -0.0720
 1873WAT     H2 8199   6.307   0.572   2.685 -0.4713 -0.6020 -2.1316
 1873WAT    EPW 8200   6.259   0.515   2.707  0.1089 -0.6699 -0.6850
 1874WAT      O 8201   7.387   7.887   3.877 -0.0708  0.3184 -0.1039
 1874WAT     H1 8202   7.381   7.945   3.812  2.2319  0.5768 -0.1760
 1874WAT     H2 8203   7.328   7.915   3.935 -0.8794  1.1499 -1.2754
 1874WAT    EPW 8204   7.377   7.900   3.876 -0.5857 -0.2355 -0.3863
 1875WAT      O 8205   7.865   7.695   3.392  0.7401 -0.2451 -0.0533
 1875WAT     H1 8206   7.788   7.696   3.350 -0.1876 -0.6371  1.5671
 1875WAT     H2 8207   7.915   7.748   3.343 -0.0343 -1.2418 -2.0439
 1875WAT    EPW 8208   7.861   7.703   3.379 -0.2001  0.0920  0.0688
 1876WAT      O 8209   6.398   7.641   4.447  0.0660 -0.0158  0.2138
 1876WAT     H1 8210   6.381   7.667   4.366 -1.2568 -1.5480 -0.0312
 1876WAT     H2 8211   6.330   7.592   4.469 -0.5016  1.7224  2.9242
 1876WAT    EPW 8212   6.386   7.638   4.439  0.5269  0.5235 -0.0987
 1877WAT      O 8213   7.710   0.508   3.956 -0.2027 -0.2267  0.4357
 1877WAT     H1 8214   7.722   0.589   3.927  1.2674 -0.7568 -0.5849
 1877WAT     H2 8215   7.624   0.504   3.971 -0.8859  0.5675 -2.5996
 1877WAT    EPW 8216   7.699   0.519   3.954  0.4442 -0.8728  0.4255
 1878WAT      O 8217   6.752   7.394   3.178  0.2316 -0.0129 -0.0830
 1878WAT     H1 8218   6.771   7.414   3.260 -0.2603 -1.8364  0.5235
 1878WAT     H2 8219   6.810   7.333   3.157 -0.9707 -1.1283 -0.3191
 1878WAT    EPW 8220   6.763   7.388   3.187 -0.0200  0.1143  0.1270
 1879WAT      O 8221   6.573   0.115   4.797  0.0023 -0.3947 -0.4031
 1879WAT     H1 8222   6.502   0.108   4.846  0.4311  0.1960  0.3165
 1879WAT     H2 8223   6.566   0.048   4.741 -0.8922 -0.5918 -0.0654
 1879WAT    EPW 8224   6.562   0.104   4.796  0.0933 -0.4269  0.1740
 1880WAT      O 8225   7.903   7.698   3.883 -0.8876  0.0342  0.6608
 1880WAT     H1 8226   7.876   7.617   3.903  0.2203 -0.3144  0.8516
 1880WAT     H2 8227   7.832   7.747   3.895 -1.2762 -0.7376  1.6761
 1880WAT    EPW 8228   7.889   7.693   3.887 -0.7702  0.1718 -0.9058
 1881WAT      O 8229   7.761   7.770   2.778  0.3550  0.1608 -0.4327
 1881WAT     H1 8230   7.721   7.719   2.720 -0.2935 -0.9172  0.9066
 1881WAT     H2 8231   7.827   7.720   2.807  1.0518  0.9195 -0.6769
 1881WAT    EPW 8232   7.765   7.755   2.774 -0.4212 -0.1680 -0.3680
 1882WAT      O 8233   0.381   0.182   3.028 -0.2467  0.4737 -0.7145
 1882WAT     H1 8234   0.302   0.200   3.062 -0.4599 -1.4129 -0.1208
 1882WAT     H2 8235   0.436   0.220   3.083 -0.6941  1.0571 -0.6482
 1882WAT    EPW 8236   0.377   0.191   3.041  0.6256 -0.7905 -0.1574
 1883WAT      O 8237   7.163   7.668   3.210  0.3165  0.0389 -0.3463
 1883WAT     H1 8238   7.160   7.706   3.289  0.2668 -1.2648  0.3035
 1883WAT     H2 8239   7.176   7.735   3.156 -2.4595  1.3539  0.4490
 1883WAT    EPW 8240   7.165   7.684   3.214 -0.2321  0.0731 -0.6533
 1884WAT      O 8241   7.966   0.312   3.508 -0.2852 -0.1896 -0.2720
 1884WAT     H1 8242   8.015   0.299   3.579  0.2103 -0.5165 -0.6682
 1884WAT     H2 8243   7.898   0.257   3.520  0.0298 -0.5851 -0.2677
 1884WAT    EPW 8244   7.963   0.302   3.521  0.3942 -0.2010 -0.8803
 1885WAT      O 8245  -0.002   1.705   3.514 -0.2766 -0.4155  0.2875
 1885WAT     H1 8246   0.034   1.673   3.441  0.6112  1.4620 -0.1521
 1885WAT     H2 8247   0.067   1.722   3.565 -0.5717  1.8086  0.0336
 1885WAT    EPW 8248   0.014   1.703   3.511  0.3338  0.6125  0.3551
 1886WAT      O 8249   5.628   7.694   4.046 -0.0992  0.7415 -0.3068
 1886WAT     H1 8250   5.643   7.665   3.965 -0.5442 -2.1804  0.5504
 1886WAT     H2 8251   5.673   7.769   4.050  2.0005 -0.2854 -2.4659
 1886WAT    EPW 8252   5.637   7.700   4.035 -0.7217  0.4924  0.1983
 1887WAT      O 8253   7.212   0.054   3.256  0.7214 -0.0585 -0.2962
 1887WAT     H1 8254   7.169  -0.002   3.205 -2.1246  1.9787 -0.3588
 1887WAT     H2 8255   7.280   0.077   3.207 -0.8286  0.3164 -2.4514
 1887WAT    EPW 8256   7.216   0.049   3.241 -0.5542 -0.0724  0.2415
 1888WAT      O 8257   6.444   1.560   4.246  0.1393  0.7496  0.2748
 1888WAT     H1 8258   6.416   1.480   4.226  1.6535  0.4591 -0.8382
 1888WAT     H2 8259   6.409   1.610   4.184 -0.8354  0.9878  0.9899
 1888WAT    EPW 8260   6.435   1.556   4.234 -0.2030 -0.3086  0.1995
 1889WAT      O 8261   6.605   1.283   3.979  0.0744 -0.7269  0.1496
 1889WAT     H1 8262   6.645   1.265   3.904 -0.2380  2.3374 -0.8864
 1889WAT     H2 8263   6.650   1.236   4.038  2.4338 -0.7252 -1.5147
 1889WAT    EPW 8264   6.617   1.273   3.977  0.8072 -1.2505 -0.2501
 1890WAT      O 8265   7.113   0.913   4.196  0.6385 -0.2226  0.4868
 1890WAT     H1 8266   7.149   0.966   4.136  2.5170 -0.1509  1.5854
 1890WAT     H2 8267   7.072   0.968   4.249  1.5560  0.0398  0.9443
 1890WAT    EPW 8268   7.112   0.929   4.195  0.0380  0.3410  0.1277
 1891WAT      O 8269   6.087   7.895   4.276  0.4531 -0.1569 -0.6793
 1891WAT     H1 8270   6.102   7.913   4.360  0.7784  0.2090 -0.8121
 1891WAT     H2 8271   6.004   7.869   4.275 -0.0366  1.3075 -0.4486
 1891WAT    EPW 8272   6.077   7.894   4.288  0.0030  0.6005 -0.1185
 1892WAT      O 8273   7.324   7.989   3.488 -0.1612  0.7980 -0.0542
 1892WAT     H1 8274   7.275   7.993   3.416 -0.4624 -1.3497 -0.0269
 1892WAT     H2 8275   7.269   7.960   3.549  1.0450 -1.6686 -0.0198
 1892WAT    EPW 8276   7.309   7.986   3.487 -0.4055 -0.4559 -0.1766
 1893WAT      O 8277   7.296   0.122   3.841  0.0230  0.1950  0.0961
 1893WAT     H1 8278   7.314   0.192   3.793  1.2766  0.4837  0.9326
 1893WAT     H2 8279   7.258   0.155   3.912 -3.5465 -0.3527 -1.3474
 1893WAT    EPW 8280   7.293   0.137   3.845  0.2743 -0.8888 -0.5843
 1894WAT      O 8281   0.634   7.146   1.347  0.1395 -0.2716  0.0363
 1894WAT     H1 8282   0.685   7.203   1.390 -1.6909  0.7011  1.0386
 1894WAT     H2 8283   0.612   7.088   1.408 -0.7142 -0.1177 -0.1113
 1894WAT    EPW 8284   0.638   7.146   1.362 -0.0905  0.2077 -0.5297
 1895WAT      O 8285   5.913   7.725   4.595 -0.0593  0.2597 -0.3558
 1895WAT     H1 8286   5.897   7.773   4.524 -1.9233 -0.5667 -0.5555
 1895WAT     H2 8287   5.927   7.785   4.657  0.5598  1.0095 -1.1896
 1895WAT    EPW 8288   5.912   7.741   4.593  0.2805 -0.0926  0.3915
 1896WAT      O 8289   6.441   1.119   4.348 -0.1966  0.4330  0.1065
 1896WAT     H1 8290   6.399   1.158   4.415  2.1909 -0.3863  2.2642
 1896WAT     H2 8291   6.524   1.119   4.375  0.3610 -3.2908 -1.1842
 1896WAT    EPW 8292   6.447   1.125   4.362 -0.2130 -0.1326  0.2707
 1897WAT      O 8293   6.935   0.057   4.357  0.5352  0.1341 -0.2408
 1897WAT     H1 8294   6.995   0.115   4.331  0.6504  0.2868  0.3450
 1897WAT     H2 8295   6.882   0.104   4.408  0.2312 -0.1244 -0.3131
 1897WAT    EPW 8296   6.936   0.073   4.361 -0.1109  0.4315  0.2158
 1898WAT      O 8297   5.274   0.753   3.290 -0.4917 -0.6480  0.2391
 1898WAT     H1 8298   5.354   0.733   3.316 -0.1700  0.5130  0.2113
 1898WAT     H2 8299   5.222   0.708   3.344  0.1777 -1.0425  0.5556
 1898WAT    EPW 8300   5.278   0.743   3.302  0.0915 -0.2649 -0.5238
 1899WAT      O 8301   5.265   0.308   3.998 -0.6641 -0.0234  0.1259
 1899WAT     H1 8302   5.307   0.385   3.999  0.7581 -0.6811 -2.0880
 1899WAT     H2 8303   5.320   0.255   4.040 -0.4531 -0.3565 -0.5653
 1899WAT    EPW 8304   5.280   0.312   4.004 -0.2352  0.0991 -1.1429
 1900WAT      O 8305   7.865   0.588   3.536  0.0457 -0.1185  0.3113
 1900WAT     H1 8306   7.780   0.575   3.554 -0.0707  0.1720 -0.0232
 1900WAT     H2 8307   7.902   0.512   3.558  0.2852  0.8676  3.8954
 1900WAT    EPW 8308   7.858   0.575   3.542  1.1503  0.3001  0.2061
 1901WAT      O 8309   7.712   2.386   3.663 -0.1361  0.5156 -0.4652
 1901WAT     H1 8310   7.714   2.471   3.643  0.7549  1.1047  1.7434
 1901WAT     H2 8311   7.785   2.374   3.710  0.1426 -1.6737 -1.3281
 1901WAT    EPW 8312   7.723   2.397   3.667  0.2405 -0.4283  0.2979
 1902WAT      O 8313   7.058   0.755   1.701  0.4157 -0.3947  0.0245
 1902WAT     H1 8314   7.113   0.807   1.658 -0.8607  0.5863 -0.4620
 1902WAT     H2 8315   7.079   0.768   1.785  0.3209  0.6666 -0.1094
 1902WAT    EPW 8316   7.069   0.764   1.707  0.5412  0.6163 -0.6012
 1903WAT      O 8317   7.615   0.326   2.934  0.4756 -0.5055  0.1617
 1903WAT     H1 8318   7.657   0.272   2.880 -2.5018 -1.8254 -1.0262
 1903WAT     H2 8319   7.599   0.396   2.885  1.7970  0.3316  0.8428
 1903WAT    EPW 8320   7.619   0.328   2.919 -0.5067  0.8983  0.1674
 1904WAT      O 8321   5.864   1.821   4.942  0.3234  0.3438  0.1372
 1904WAT     H1 8322   5.931   1.770   4.966 -0.1671 -2.6904 -3.9315
 1904WAT     H2 8323   5.796   1.786   4.983  0.1235 -2.0496 -2.0165
 1904WAT    EPW 8324   5.864   1.808   4.952 -0.1507 -0.1392  0.5686
 1905WAT      O 8325   6.971   0.023   3.933 -0.1954 -0.3577  0.5385
 1905WAT     H1 8326   6.955   0.104   3.963  1.8400 -0.0046  0.8701
 1905WAT     H2 8327   7.028  -0.008   3.991 -0.3047 -1.7290 -0.0657
 1905WAT    EPW 8328   6.977   0.031   3.946  0.4689  0.4642 -0.9521
 1906WAT      O 8329   6.737   7.746   3.517  0.1407  0.4301  0.1111
 1906WAT     H1 8330   6.822   7.754   3.503  0.2394 -0.5733  0.0715
 1906WAT     H2 8331   6.729   7.667   3.554 -0.8322  0.2173 -0.4958
 1906WAT    EPW 8332   6.748   7.735   3.520 -0.1160  0.3449 -0.4186
 1907WAT      O 8333   7.448   1.681   4.196 -0.3455 -0.5176  0.5908
 1907WAT     H1 8334   7.529   1.659   4.173 -0.1343 -0.5767  1.3636
 1907WAT     H2 8335   7.454   1.766   4.214 -0.5783 -0.4023  0.1338
 1907WAT    EPW 8336   7.461   1.690   4.195 -0.0096 -0.8746  0.0122
 1908WAT      O 8337   0.027   1.002   2.876  0.1620 -0.1147 -0.5861
 1908WAT     H1 8338   0.059   1.075   2.839  1.2102 -0.5266 -0.5438
 1908WAT     H2 8339  -0.047   0.988   2.832 -0.7840  1.7151  0.3177
 1908WAT    EPW 8340   0.021   1.011   2.864 -0.5093  0.3684 -0.5060
 1909WAT      O 8341   5.808   1.149   5.941  0.0072  0.6784  0.3150
 1909WAT     H1 8342   5.807   1.144   5.854 -0.5260  0.6243  0.3209
 1909WAT     H2 8343   5.844   1.227   5.956 -1.7787  1.6143 -0.0065
 1909WAT    EPW 8344   5.813   1.160   5.930 -0.3277 -1.1135 -1.4117
 1910WAT      O 8345   6.804   1.115   4.125 -0.5361 -0.3285 -0.1789
 1910WAT     H1 8346   6.800   1.088   4.208  1.1756 -0.9844 -0.2614
 1910WAT     H2 8347   6.885   1.146   4.118 -0.9017  0.4037 -1.4279
 1910WAT    EPW 8348   6.815   1.116   4.137 -0.3433 -0.6387  0.2133
 1911WAT      O 8349   0.071   0.364   1.423  0.2864 -0.3989 -0.7046
 1911WAT     H1 8350   0.059   0.409   1.350 -0.8259 -1.1845 -1.0311
 1911WAT     H2 8351   0.079   0.281   1.395 -0.1354 -0.7054  0.0535
 1911WAT    EPW 8352   0.070   0.358   1.408  0.0748 -0.8928 -0.6926
 1912WAT      O 8353   7.783   1.157   0.362  0.1906  0.2383  0.4915
 1912WAT     H1 8354   7.727   1.222   0.345 -0.2782 -0.2387  0.2014
 1912WAT     H2 8355   7.751   1.121   0.434 -0.0738 -0.2541  0.1301
 1912WAT    EPW 8356   7.770   1.161   0.370 -0.1586 -0.7235 -0.1394
 1913WAT      O 8357   0.182   7.663   1.995 -0.5682 -0.0253 -0.3029
 1913WAT     H1 8358   0.123   7.700   2.047 -0.7718 -0.1009 -0.4768
 1913WAT     H2 8359   0.197   7.585   2.031  0.0364  0.3133  0.1951
 1913WAT    EPW 8360   0.176   7.657   2.008  0.5492 -0.6894 -0.2301
 1914WAT      O 8361   8.034   0.203   1.983  0.0240 -0.4296 -0.1426
 1914WAT     H1 8362   8.104   0.255   1.979 -1.3813  1.5670 -0.0045
 1914WAT     H2 8363   8.031   0.179   2.067  0.0444  0.2108  0.0442
 1914WAT    EPW 8364   8.044   0.207   1.995 -0.4039 -0.0278 -0.8875
 1915WAT      O 8365   7.655   0.358   1.963 -0.3927 -0.3982 -0.2094
 1915WAT     H1 8366   7.645   0.275   1.985 -0.5926 -0.4312 -0.4275
 1915WAT     H2 8367   7.574   0.391   1.965 -0.2530 -0.0683  0.4229
 1915WAT    EPW 8368   7.642   0.351   1.967 -0.0220 -0.1232  0.4678
 1916WAT      O 8369   0.605   7.556   3.996  0.3729  0.1910  0.2048
 1916WAT     H1 8370   0.659   7.497   4.032 -1.4779 -0.2643  2.4805
 1916WAT     H2 8371   0.565   7.511   3.933 -0.1204 -0.6589  1.0974
 1916WAT    EPW 8372   0.607   7.540   3.992  0.5392  0.5046 -0.1887
 1917WAT      O 8373   7.315   7.846   1.581  0.1235  0.1553  0.2522
 1917WAT     H1 8374   7.230   7.841   1.566  0.4197 -1.0816 -1.3055
 1917WAT     H2 8375   7.351   7.822   1.505  1.8704  0.9955  0.7467
 1917WAT    EPW 8376   7.308   7.842   1.567  0.1702 -0.2716  1.0549
 1918WAT      O 8377   8.073   1.395   3.734  0.5345  0.2099 -0.0196
 1918WAT     H1 8378   8.027   1.468   3.721  0.2953 -0.1179 -1.1817
 1918WAT     H2 8379   8.011   1.334   3.747  0.6644 -0.0672 -0.6639
 1918WAT    EPW 8380   8.057   1.397   3.734  0.4186 -0.4166  0.1653
 1919WAT      O 8381   0.028   7.122   2.842 -0.2108  0.3335  0.1606
 1919WAT     H1 8382  -0.037   7.129   2.784  0.5140 -2.7920 -1.2754
 1919WAT     H2 8383  -0.013   7.125   2.919 -1.8454  0.0561 -0.6454
 1919WAT    EPW 8384   0.012   7.123   2.845  1.0971  0.3973 -0.3209
 1920WAT      O 8385   0.272   7.438   2.906 -0.2901  0.2138  0.2528
 1920WAT     H1 8386   0.335   7.495   2.885  1.3657 -1.1032  1.2773
 1920WAT     H2 8387   0.243   7.469   2.983 -1.7186  1.4179 -0.7260
 1920WAT    EPW 8388   0.277   7.451   2.915 -0.1435 -0.1904 -0.6839
 1921WAT      O 8389   7.110   1.837   3.054 -0.2489  0.0515  0.1663
 1921WAT     H1 8390   7.179   1.783   3.059  1.1582  1.6772 -0.8327
 1921WAT     H2 8391   7.089   1.834   2.970 -0.5249  0.6384  0.2156
 1921WAT    EPW 8392   7.117   1.828   3.042  1.0053 -0.7465  0.4533
 1922WAT      O 8393   7.659   7.381   2.327  0.1242 -0.1948 -0.3395
 1922WAT     H1 8394   7.733   7.397   2.285  0.8685 -0.9196  0.6574
 1922WAT     H2 8395   7.606   7.350   2.265  0.5898  0.4720 -1.0823
 1922WAT    EPW 8396   7.662   7.379   2.312 -0.4008  0.4101  0.0392
 1923WAT      O 8397   7.813   1.253   2.227  0.0712  0.1028  0.2868
 1923WAT     H1 8398   7.811   1.253   2.140  0.1206  0.1401  0.2854
 1923WAT     H2 8399   7.866   1.320   2.246  2.3102 -1.5568  0.3034
 1923WAT    EPW 8400   7.821   1.263   2.217 -0.2039 -0.5847 -0.0567
 1924WAT      O 8401   6.919   1.395   3.349  0.0893 -0.3067  0.3107
 1924WAT     H1 8402   6.926   1.368   3.266 -0.5280 -0.9152  0.4506
 1924WAT     H2 8403   6.835   1.416   3.356  0.0114 -0.8199  0.9503
 1924WAT    EPW 8404   6.908   1.394   3.338 -0.0731 -0.1938  0.4456
 1925WAT      O 8405   6.095   1.606   3.354 -0.2069 -0.8447  0.1017
 1925WAT     H1 8406   6.013   1.584   3.333 -0.3838 -0.6737  0.6003
 1925WAT     H2 8407   6.133   1.529   3.370 -0.3295 -0.9088  0.0887
 1925WAT    EPW 8408   6.089   1.591   3.353 -0.1880  0.1395 -0.5511
 1926WAT      O 8409   8.050   7.982   3.654  0.2986  0.8878 -0.2709
 1926WAT     H1 8410   8.076   7.899   3.662  1.9713  1.3678 -0.4103
 1926WAT     H2 8411   7.964   7.975   3.639  0.3998 -0.8076 -0.2452
 1926WAT    EPW 8412   8.041   7.968   3.653 -0.2006 -0.2093 -0.6581
 1927WAT      O 8413   0.036   7.642   0.730 -0.8447 -0.0225  0.2545
 1927WAT     H1 8414   0.095   7.665   0.670 -1.4234  0.3451 -0.1818
 1927WAT     H2 8415   0.029   7.556   0.720  0.7642 -0.3236  1.3689
 1927WAT    EPW 8416   0.044   7.633   0.720 -0.5108 -0.3692 -0.0322
 1928WAT      O 8417   0.358   0.634   3.110  0.2619 -0.2204 -0.4379
 1928WAT     H1 8418   0.413   0.613   3.046 -0.2935 -0.8836 -0.7068
 1928WAT     H2 8419   0.285   0.591   3.090 -0.3866  0.6868 -0.1237
 1928WAT    EPW 8420   0.355   0.625   3.097  0.1642  0.3005  0.2286
 1929WAT      O 8421   7.604   7.047   1.779 -0.9301  0.1386 -0.1736
 1929WAT     H1 8422   7.631   7.077   1.702  0.3085  1.8565  0.8580
 1929WAT     H2 8423   7.592   7.120   1.826 -0.3376 -0.8974  1.6761
 1929WAT    EPW 8424   7.606   7.063   1.775 -1.2393  0.5560 -0.4994
 1930WAT      O 8425   7.306   7.804   2.580 -0.1120  0.1876  0.5784
 1930WAT     H1 8426   7.232   7.829   2.619  0.2044  0.4592  1.0142
 1930WAT     H2 8427   7.279   7.774   2.503 -0.7041  0.0435  0.8352
 1930WAT    EPW 8428   7.291   7.804   2.575 -0.5697  1.0410 -0.4102
 1931WAT      O 8429   0.469   7.604   2.801  0.0157 -0.0225  0.2436
 1931WAT     H1 8430   0.508   7.626   2.726 -0.3051  0.8029  0.3087
 1931WAT     H2 8431   0.532   7.611   2.860 -0.2599  1.5269  0.3838
 1931WAT    EPW 8432   0.484   7.608   2.799 -0.0255  0.3315  0.5134
 1932WAT      O 8433   7.409   1.536   2.934  0.1841  0.1556 -0.2479
 1932WAT     H1 8434   7.353   1.554   2.999 -0.4926 -1.5809 -0.2916
 1932WAT     H2 8435   7.441   1.615   2.913 -0.1718  0.8717  1.6258
 1932WAT    EPW 8436   7.405   1.551   2.941 -0.4807 -0.4880  0.5679
 1933WAT      O 8437   6.617   1.131   2.443  0.3528 -0.2508  0.2074
 1933WAT     H1 8438   6.533   1.149   2.462  0.7224  0.7517  0.9940
 1933WAT     H2 8439   6.647   1.207   2.412  1.3190 -0.2047  1.2007
 1933WAT    EPW 8440   6.609   1.145   2.441  0.0351  0.1848 -0.9364
 1934WAT      O 8441   0.168   0.553   1.597 -0.3747  0.2622 -0.2619
 1934WAT     H1 8442   0.143   0.636   1.604 -0.8600 -0.0083  2.0491
 1934WAT     H2 8443   0.097   0.513   1.566 -1.2167  0.2892  1.4926
 1934WAT    EPW 8444   0.154   0.559   1.594  0.0228  0.8442 -0.3167
 1935WAT      O 8445   7.672   7.591   0.056  0.4466 -0.0968  0.3502
 1935WAT     H1 8446   7.695   7.515   0.021  0.3951 -0.2231  0.5860
 1935WAT     H2 8447   7.673   7.575   0.142 -0.3832 -0.0719  0.3757
 1935WAT    EPW 8448   7.675   7.578   0.064  0.1350 -0.5270 -0.0669
 1936WAT      O 8449   6.135   1.270   2.618  0.2182  0.2082  0.0803
 1936WAT     H1 8450   6.058   1.304   2.641  1.1656  2.6585 -0.0552
 1936WAT     H2 8451   6.159   1.318   2.549  0.7615 -2.1656 -1.5081
 1936WAT    EPW 8452   6.127   1.283   2.611  0.3677 -0.0319 -0.8731
 1937WAT      O 8453   6.790   7.555   1.337  0.0603 -0.1081 -0.1994
 1937WAT     H1 8454   6.850   7.547   1.400  1.2830 -1.4188 -1.4555
 1937WAT     H2 8455   6.777   7.473   1.311 -2.2065  0.1590 -0.0874
 1937WAT    EPW 8456   6.797   7.541   1.343 -0.2212 -0.6763  0.0990
 1938WAT      O 8457   0.811   0.898   1.857 -0.4150  0.1119 -0.0060
 1938WAT     H1 8458   0.793   0.898   1.942 -1.3681  0.6733 -0.1974
 1938WAT     H2 8459   0.736   0.921   1.820 -0.2452 -0.9423 -1.0601
 1938WAT    EPW 8460   0.798   0.902   1.864 -0.0725  0.8821 -0.3191
 1939WAT      O 8461   7.239   7.301   2.895  0.1925 -0.6127 -0.0741
 1939WAT     H1 8462   7.219   7.357   2.831 -0.3641  1.3093  1.6558
 1939WAT     H2 8463   7.293   7.347   2.946 -2.8284 -0.2670  3.2022
 1939WAT    EPW 8464   7.244   7.316   2.893  0.4064  0.1508 -0.2347
 1940WAT      O 8465   7.448   7.020   2.256 -0.1294  0.0034 -0.2870
 1940WAT     H1 8466   7.392   6.953   2.258 -0.4340  0.2321  2.0609
 1940WAT     H2 8467   7.526   6.982   2.247 -0.4282 -0.5551 -0.5378
 1940WAT    EPW 8468   7.451   7.005   2.255 -0.4075  0.2355  0.0344
 1941WAT      O 8469   6.884   7.962   1.664  0.1349  0.3285 -0.1368
 1941WAT     H1 8470   6.805   7.976   1.631  1.0517 -0.1138 -2.7255
 1941WAT     H2 8471   6.906   8.038   1.700 -0.8251  0.9394 -0.8243
 1941WAT    EPW 8472   6.876   7.975   1.665 -0.1488 -0.0012  0.2207
 1942WAT      O 8473   0.795   0.877   2.376  0.1983 -0.2649  0.5514
 1942WAT     H1 8474   0.824   0.902   2.454  1.8901 -2.1056  0.5650
 1942WAT     H2 8475   0.757   0.800   2.392  0.5363 -0.6471 -0.4263
 1942WAT    EPW 8476   0.793   0.870   2.390  0.5788 -0.3524  0.0553
 1943WAT      O 8477   7.847   0.495   2.687 -0.0730  0.2295  0.7101
 1943WAT     H1 8478   7.846   0.408   2.695 -0.1201 -0.0311 -1.4889
 1943WAT     H2 8479   7.766   0.518   2.709 -0.7673 -0.5825 -0.8120
 1943WAT    EPW 8480   7.835   0.485   2.692 -0.0805 -0.5623 -1.0641
 1944WAT      O 8481   7.729   0.273   3.307 -0.2477 -0.7536 -0.3774
 1944WAT     H1 8482   7.733   0.262   3.394 -0.1316  0.2612 -0.2385
 1944WAT     H2 8483   7.726   0.360   3.298 -2.1995 -0.8598 -1.2979
 1944WAT    EPW 8484   7.729   0.284   3.319 -0.3469 -0.1659  0.4835
 1945WAT      O 8485   6.886   0.050   3.645  0.3249  0.2924 -0.1944
 1945WAT     H1 8486   6.933   0.090   3.583  0.4703 -1.3123 -1.1696
 1945WAT     H2 8487   6.945  -0.000   3.686 -0.4033 -1.5011 -1.2257
 1945WAT    EPW 8488   6.902   0.049   3.642 -0.3146 -0.4282 -0.3444
 1946WAT      O 8489   0.403   7.426   2.360  0.4639 -0.1365  0.4666
 1946WAT     H1 8490   0.447   7.494   2.327  0.8227 -1.4430 -1.9553
 1946WAT     H2 8491   0.459   7.393   2.418  0.6033  1.1156  1.0941
 1946WAT    EPW 8492   0.418   7.431   2.364  0.2018 -0.5528  0.3405
 1947WAT      O 8493   0.127   2.022   3.168  0.2182 -0.1333 -0.0416
 1947WAT     H1 8494   0.108   2.100   3.133  2.0432  0.8455  1.0344
 1947WAT     H2 8495   0.174   2.042   3.238  0.6836 -2.2271  0.2935
 1947WAT    EPW 8496   0.131   2.037   3.173 -0.3166  0.1401  0.2695
 1948WAT      O 8497   0.175   7.659   1.612 -0.5438  0.5255 -0.2210
 1948WAT     H1 8498   0.205   7.580   1.590  0.0856  0.2665  1.4046
 1948WAT     H2 8499   0.091   7.644   1.632 -0.2918  0.1349  0.5984
 1948WAT    EPW 8500   0.167   7.645   1.612 -0.4918  0.2091 -0.0788
 1949WAT      O 8501   7.194   7.367   1.620  0.2503  0.2581 -0.0346
 1949WAT     H1 8502   7.241   7.436   1.645  1.4696 -0.7585  0.5528
 1949WAT     H2 8503   7.241   7.332   1.555 -0.6129  0.2489 -0.6738
 1949WAT    EPW 8504   7.208   7.372   1.614  0.1382 -0.3171 -1.0818
 1950WAT      O 8505   7.384   0.008   2.029  0.2308  0.1170 -0.1970
 1950WAT     H1 8506   7.464   0.041   2.027  0.2875 -0.0565 -0.7150
 1950WAT     H2 8507   7.396  -0.079   2.024 -0.0306  0.1346 -1.5042
 1950WAT    EPW 8508   7.397  -0.000   2.028 -0.4049  0.9719 -0.1824
 1951WAT      O 8509   0.322   7.071   2.586 -0.6552 -0.1891  0.0155
 1951WAT     H1 8510   0.327   7.128   2.652 -0.4298 -0.9999  0.7322
 1951WAT     H2 8511   0.386   7.014   2.604  0.2214  0.2300 -1.5868
 1951WAT    EPW 8512   0.332   7.071   2.599  0.1765 -0.3436 -0.1173
 1952WAT      O 8513   7.945   0.182   0.333 -0.5094 -0.2971  0.1141
 1952WAT     H1 8514   7.905   0.105   0.321 -0.7854 -0.0690 -0.5104
 1952WAT     H2 8515   8.025   0.160   0.359 -0.6886 -0.7884  0.2709
 1952WAT    EPW 8516   7.951   0.167   0.335  0.1814 -0.4583 -0.2657
 1953WAT      O 8517   6.980   0.719   3.088  0.2084  0.2356  0.2694
 1953WAT     H1 8518   7.030   0.648   3.077 -0.7600 -0.8949  2.5512
 1953WAT     H2 8519   6.906   0.697   3.048  1.3543  1.9672 -3.2398
 1953WAT    EPW 8520   6.977   0.705   3.080 -0.2654 -0.0443 -0.2123
 1954WAT      O 8521   6.919   7.705   2.329  0.1280  0.6715 -0.0143
 1954WAT     H1 8522   6.943   7.779   2.289  0.3344  0.5021 -0.2082
 1954WAT     H2 8523   6.889   7.732   2.406 -1.3222  1.1189 -0.6961
 1954WAT    EPW 8524   6.918   7.720   2.334  1.0368  0.2689 -0.1996
 1955WAT      O 8525   7.431   0.368   2.635  0.2893  0.1582  0.8474
 1955WAT     H1 8526   7.440   0.366   2.549  0.7836 -0.4763  0.9088
 1955WAT     H2 8527   7.346   0.382   2.646  0.1009 -0.4442  0.2490
 1955WAT    EPW 8528   7.420   0.370   2.624 -0.2044 -0.3593 -0.2921
 1956WAT      O 8529   7.226   7.020   1.542  0.1870 -0.4211 -0.0035
 1956WAT     H1 8530   7.178   6.958   1.505 -0.4440  0.7601 -1.2414
 1956WAT     H2 8531   7.174   7.052   1.604 -1.6637  2.2373 -2.6198
 1956WAT    EPW 8532   7.211   7.016   1.546  0.3234  0.6651  0.2619
 1957WAT      O 8533   8.061   0.244   2.583  0.0874  0.1737 -0.7084
 1957WAT     H1 8534   8.115   0.175   2.582  1.1882  1.0010 -0.3686
 1957WAT     H2 8535   7.993   0.217   2.631  0.3763 -0.7495 -0.7966
 1957WAT    EPW 8536   8.059   0.230   2.590  0.1653  0.3645 -0.5409
 1958WAT      O 8537   7.989   6.735   0.897  0.1895  0.8221  0.3367
 1958WAT     H1 8538   7.989   6.759   0.981 -0.9603 -0.5263  0.7722
 1958WAT     H2 8539   7.989   6.648   0.901  0.8148  0.7346 -1.0911
 1958WAT    EPW 8540   7.989   6.725   0.910 -0.1392 -0.1338 -0.4150
 1959WAT      O 8541   0.091   0.439   2.752  0.1361  0.1851 -0.3584
 1959WAT     H1 8542   0.164   0.404   2.721  0.3478 -1.1077  1.4480
 1959WAT     H2 8543   0.029   0.383   2.728 -0.1062  0.6774 -0.8979
 1959WAT    EPW 8544   0.092   0.426   2.744  0.1475 -0.1789  0.4241
 1960WAT      O 8545   0.613   1.177   3.401 -0.2817  0.6744  0.2448
 1960WAT     H1 8546   0.604   1.208   3.321  1.2228 -2.4800 -1.3574
 1960WAT     H2 8547   0.560   1.108   3.403 -0.1870  0.6000  1.9340
 1960WAT    EPW 8548   0.604   1.171   3.390  0.3475  0.5008  0.3601
 1961WAT      O 8549   0.457   7.779   1.537  0.1611  0.7229  0.0590
 1961WAT     H1 8550   0.432   7.714   1.590  3.4434  0.4657  1.5141
 1961WAT     H2 8551   0.452   7.849   1.589 -3.2009  1.7905 -1.4501
 1961WAT    EPW 8552   0.452   7.780   1.553  0.0694  0.2289 -0.1980
 1962WAT      O 8553   7.490   0.126   2.762 -0.0610 -0.0689  0.4402
 1962WAT     H1 8554   7.479   0.203   2.721  1.4912  0.0256  0.1226
 1962WAT     H2 8555   7.507   0.071   2.696  0.9830 -0.2184  0.8077
 1962WAT    EPW 8556   7.491   0.129   2.746  0.7791 -0.2696  0.1169
 1963WAT      O 8557   0.084   0.709   2.659  0.0609 -0.1095 -0.1218
 1963WAT     H1 8558   0.090   0.625   2.682 -1.8184  0.1819  1.8721
 1963WAT     H2 8559   0.122   0.751   2.726 -0.8807  0.6671 -0.0538
 1963WAT    EPW 8560   0.090   0.703   2.673 -0.3709  0.2143 -0.6488
 1964WAT      O 8561   0.741   0.786   3.012  0.0116  0.3123  0.0450
 1964WAT     H1 8562   0.675   0.757   2.963  0.0358 -0.5065  0.4778
 1964WAT     H2 8563   0.702   0.828   3.078 -0.0981 -0.4251  0.4595
 1964WAT    EPW 8564   0.726   0.788   3.014  0.0487 -0.1619 -0.2251
 1965WAT      O 8565   6.637   2.180   1.931 -0.0521  0.2176 -0.0123
 1965WAT     H1 8566   6.579   2.245   1.923  0.0180  0.1690 -1.2165
 1965WAT     H2 8567   6.669   2.172   1.850  0.2201 -1.0529  0.2033
 1965WAT    EPW 8568   6.633   2.188   1.918  0.4358 -0.9022  0.3016
 1966WAT      O 8569   7.644   0.998   3.526 -0.1977 -0.2102 -0.2667
 1966WAT     H1 8570   7.581   1.052   3.555 -1.1866 -1.8202  0.7164
 1966WAT     H2 8571   7.698   0.991   3.593  0.1533 -0.1288 -0.5377
 1966WAT    EPW 8572   7.642   1.005   3.540  0.1279  0.6137  0.9990
 1967WAT      O 8573   7.712   0.331   1.557  0.4004 -0.1785 -0.6069
 1967WAT     H1 8574   7.762   0.393   1.520 -0.2086  0.7047  0.0019
 1967WAT     H2 8575   7.759   0.307   1.626 -0.1083  0.8589  0.1307
 1967WAT    EPW 8576   7.727   0.337   1.561  0.0366  0.0618 -0.3385
 1968WAT      O 8577   7.596   0.549   3.575  0.2859 -0.6180  0.6356
 1968WAT     H1 8578   7.595   0.595   3.650  1.2746  0.2286  0.1536
 1968WAT     H2 8579   7.544   0.481   3.592  0.2333 -0.2692  1.9838
 1968WAT    EPW 8580   7.588   0.546   3.589 -0.0366 -0.4567 -0.1675
 1969WAT      O 8581   0.327   0.582   1.356 -0.3565 -0.1132  0.2455
 1969WAT     H1 8582   0.270   0.545   1.412  0.0023 -1.3396 -0.1758
 1969WAT     H2 8583   0.386   0.519   1.342  0.9387  1.0299  0.4131
 1969WAT    EPW 8584   0.327   0.567   1.363 -0.7024  0.6310  1.0686
 1970WAT      O 8585   5.890   0.165   1.985 -0.7070 -0.6396  0.0215
 1970WAT     H1 8586   5.913   0.082   1.974  0.7597 -0.3103  0.3804
 1970WAT     H2 8587   5.927   0.186   2.061 -1.7160  0.1182  0.3105
 1970WAT    EPW 8588   5.899   0.156   1.994 -0.2823  0.0246  0.4815
 1971WAT      O 8589   7.317   1.494   3.846  0.4836  0.1914 -0.3306
 1971WAT     H1 8590   7.299   1.559   3.901 -0.6498  0.3103 -0.8093
 1971WAT     H2 8591   7.244   1.447   3.844  1.1630 -0.9182 -0.2571
 1971WAT    EPW 8592   7.304   1.497   3.854  0.1826  0.0869  0.1704
 1972WAT      O 8593   7.837   1.279   1.953  0.6377  0.7536 -0.0997
 1972WAT     H1 8594   7.794   1.353   1.940  1.3782  1.0737 -0.8550
 1972WAT     H2 8595   7.902   1.283   1.894  2.1157  0.6304  1.4316
 1972WAT    EPW 8596   7.840   1.291   1.942  0.0858 -0.3158 -0.9721
 1973WAT      O 8597   7.918   0.626   2.247  0.4438 -0.6486 -0.6967
 1973WAT     H1 8598   7.960   0.587   2.312  1.6444 -0.1345 -1.1295
 1973WAT     H2 8599   7.837   0.594   2.252 -0.0133  0.6445  2.0878
 1973WAT    EPW 8600   7.912   0.615   2.257 -0.4497 -0.6027  0.3201
 1974WAT      O 8601   7.992   0.298   0.077 -0.0039 -0.0277 -0.4704
 1974WAT     H1 8602   7.972   0.264   0.156 -1.0642  0.5764 -0.4579
 1974WAT     H2 8603   7.979   0.383   0.088  2.2881  0.3895 -0.6133
 1974WAT    EPW 8604   7.987   0.305   0.090 -0.8591 -0.9897 -0.0529
 1975WAT      O 8605   0.850   7.631   1.853  0.2690  0.1430 -0.5298
 1975WAT     H1 8606   0.803   7.576   1.805  0.7495 -0.6870 -0.0822
 1975WAT     H2 8607   0.850   7.705   1.807 -2.5768  0.6381  0.0744
 1975WAT    EPW 8608   0.843   7.634   1.839  1.0836  0.5702  0.0113
 1976WAT      O 8609   0.020   1.251   2.744 -0.1773  0.8045 -0.1888
 1976WAT     H1 8610  -0.013   1.225   2.668 -0.0721 -2.1405  0.6499
 1976WAT     H2 8611  -0.051   1.264   2.794 -0.2234  0.0603 -0.0424
 1976WAT    EPW 8612   0.005   1.249   2.740  0.4177 -0.5143 -0.6763
 1977WAT      O 8613   7.531   0.980   1.596  0.2856 -0.1709  0.6188
 1977WAT     H1 8614   7.538   1.067   1.588  1.7527  0.0199  3.0651
 1977WAT     H2 8615   7.445   0.966   1.586 -0.0537  1.6312  0.6238
 1977WAT    EPW 8616   7.519   0.991   1.593  0.0215  0.5378  0.1003
 1978WAT      O 8617   7.700   0.746   0.619 -0.4892  0.0038  0.1711
 1978WAT     H1 8618   7.711   0.715   0.700 -1.2135 -3.3658 -0.8625
 1978WAT     H2 8619   7.773   0.790   0.604  0.7103 -1.2786  1.8428
 1978WAT    EPW 8620   7.712   0.748   0.629 -0.4446 -0.1624  0.4308
 1979WAT      O 8621   0.549   0.018   0.290  0.6535  0.4303  0.3369
 1979WAT     H1 8622   0.588   0.020   0.368  1.5546  0.4650 -0.1123
 1979WAT     H2 8623   0.603   0.061   0.238  0.2045  0.1482 -0.3793
 1979WAT    EPW 8624   0.562   0.024   0.294 -0.3377  0.3936  0.4358
 1980WAT      O 8625   0.128   0.134   0.418  0.1504  0.0420  0.1331
 1980WAT     H1 8626   0.178   0.094   0.358 -0.2483 -1.7271  0.9007
 1980WAT     H2 8627   0.178   0.200   0.445  0.5162  0.6414 -1.7921
 1980WAT    EPW 8628   0.143   0.138   0.413  0.1032 -0.5253 -0.6723
 1981WAT      O 8629   0.099   1.375   0.152  0.0286  0.1887  0.0247
 1981WAT     H1 8630   0.091   1.320   0.219 -0.2226  0.3450  0.1253
 1981WAT     H2 8631   0.021   1.370   0.112 -0.3496  1.2102  0.6095
 1981WAT    EPW 8632   0.086   1.366   0.156  0.0265 -0.6378  0.4868
 1982WAT      O 8633   6.254   1.344   0.512  0.4555  0.4084  0.6099
 1982WAT     H1 8634   6.295   1.411   0.550 -0.7051 -0.5242  3.8370
 1982WAT     H2 8635   6.302   1.275   0.533  0.5294 -0.0348 -0.9131
 1982WAT    EPW 8636   6.267   1.344   0.520 -0.3810  0.8102 -0.0780
 1983WAT      O 8637   7.493   0.388   0.257 -0.3432  0.2449  0.1359
 1983WAT     H1 8638   7.523   0.450   0.203  1.5856  0.2337  1.1387
 1983WAT     H2 8639   7.564   0.356   0.294 -1.5714  0.2878  2.7702
 1983WAT    EPW 8640   7.508   0.392   0.254 -0.5482  0.8253  0.7149
 1984WAT      O 8641   5.800   0.678   7.367 -0.4147 -0.0597  0.0785
 1984WAT     H1 8642   5.715   0.687   7.352 -0.0369 -0.8476 -3.3383
 1984WAT     H2 8643   5.811   0.591   7.374  0.1335  0.0315  0.4423
 1984WAT    EPW 8644   5.789   0.666   7.366 -0.4751  0.2998 -0.3968
 1985WAT      O 8645   6.633   7.959   1.514 -0.1654 -0.1765 -0.0863
 1985WAT     H1 8646   6.595   8.015   1.459  0.4978  0.4126  0.0455
 1985WAT     H2 8647   6.580   7.960   1.583  0.4463  1.2009  0.3963
 1985WAT    EPW 8648   6.619   7.968   1.516  0.7141 -0.3457  0.0855
 1986WAT      O 8649   6.735   0.006   1.200  0.7429 -0.4028  0.0035
 1986WAT     H1 8650   6.670  -0.042   1.232 -0.0892  0.6151 -0.1029
 1986WAT     H2 8651   6.698   0.046   1.131  0.6850  2.1491  1.3895
 1986WAT    EPW 8652   6.720   0.005   1.194 -0.9649 -0.4445 -0.2389
 1987WAT      O 8653   7.921   7.830   0.195 -0.2231 -0.7716 -0.2138
 1987WAT     H1 8654   7.879   7.870   0.261  1.1498 -0.2399  0.3959
 1987WAT     H2 8655   7.857   7.803   0.142 -1.4342 -1.8945  1.7025
 1987WAT    EPW 8656   7.905   7.832   0.197  0.3644  0.1731  0.1152
 1988WAT      O 8657   0.791   1.480   0.906 -0.4091 -0.0552  0.7441
 1988WAT     H1 8658   0.768   1.436   0.834 -2.2542  0.6984  0.8121
 1988WAT     H2 8659   0.845   1.425   0.947 -0.9317 -1.3613 -0.2287
 1988WAT    EPW 8660   0.795   1.465   0.902 -0.6519 -0.4318  0.7418
 1989WAT      O 8661   6.729   7.883   0.156  0.9739 -0.1260 -0.1594
 1989WAT     H1 8662   6.781   7.813   0.167  1.3683  0.2233  0.2554
 1989WAT     H2 8663   6.781   7.940   0.115  0.8816  0.1841  0.1544
 1989WAT    EPW 8664   6.744   7.881   0.152  0.3999  0.0132 -0.0325
 1990WAT      O 8665   7.751   7.745   1.762 -0.2306  0.6057 -0.6050
 1990WAT     H1 8666   7.833   7.754   1.734 -0.0291  0.7506  0.0401
 1990WAT     H2 8667   7.712   7.703   1.695  0.0985  1.4810 -1.3705
 1990WAT    EPW 8668   7.757   7.740   1.748 -0.0854 -0.2774 -0.8451
 1991WAT      O 8669   7.744   1.614   0.491  0.2102 -0.7710  0.0272
 1991WAT     H1 8670   7.808   1.593   0.435  1.2186 -0.1829  0.9441
 1991WAT     H2 8671   7.690   1.545   0.485  0.6638 -1.0574 -1.1201
 1991WAT    EPW 8672   7.746   1.601   0.482 -0.0052  0.1009 -0.0246
 1992WAT      O 8673   7.084   0.137   1.350 -0.1205 -0.0619 -0.0056
 1992WAT     H1 8674   7.018   0.137   1.407 -0.6924 -0.3879 -0.6638
 1992WAT     H2 8675   7.152   0.112   1.398 -0.1004  1.8428  1.0862
 1992WAT    EPW 8676   7.084   0.134   1.366  0.5023 -0.0883 -0.2199
 1993WAT      O 8677   6.255   0.559   0.615  0.1786 -0.0830  0.0313
 1993WAT     H1 8678   6.191   0.558   0.674 -0.3612  2.3961 -0.3932
 1993WAT     H2 8679   6.212   0.549   0.539  0.1626  1.9197 -0.2822
 1993WAT    EPW 8680   6.239   0.557   0.612 -0.1412  0.0359  0.8744
 1994WAT      O 8681   7.895   0.502   0.867  0.1898  0.4007  0.2712
 1994WAT     H1 8682   7.942   0.482   0.938 -1.0653 -2.6802  0.4007
 1994WAT     H2 8683   7.910   0.436   0.813 -2.0209  0.5778 -0.6822
 1994WAT    EPW 8684   7.904   0.489   0.870  0.0825  0.0820 -0.0537
 1995WAT      O 8685   7.098   0.646   0.101  0.2905  0.0447  0.1647
 1995WAT     H1 8686   7.016   0.675   0.108 -0.0603 -0.7437 -0.5084
 1995WAT     H2 8687   7.135   0.702   0.045  0.2637  0.5004  0.5995
 1995WAT    EPW 8688   7.091   0.659   0.094 -0.0476 -0.4967  0.2159
 1996WAT      O 8689   0.292   8.035   0.232  0.7850  0.6086 -0.3117
 1996WAT     H1 8690   0.289   8.052   0.147 -0.2709 -1.5121 -0.7854
 1996WAT     H2 8691   0.376   8.042   0.253  0.7964  3.4043 -0.9443
 1996WAT    EPW 8692   0.304   8.038   0.223 -0.0372  0.0932 -0.4998
 1997WAT      O 8693   6.766   2.401   7.687  0.1571 -0.1337  0.2905
 1997WAT     H1 8694   6.745   2.323   7.655  1.3473 -0.4982  0.3463
 1997WAT     H2 8695   6.736   2.457   7.627 -2.6574 -0.4455  1.2681
 1997WAT    EPW 8696   6.758   2.398   7.673 -0.4403  0.7880  0.0468
 1998WAT      O 8697   7.365   1.880   1.236 -0.1212  0.4230 -0.2187
 1998WAT     H1 8698   7.280   1.865   1.240 -0.0030 -0.6583 -1.0808
 1998WAT     H2 8699   7.397   1.842   1.308 -0.2424 -0.3591 -0.5597
 1998WAT    EPW 8700   7.357   1.872   1.247  0.5027 -0.1998 -0.5590
 1999WAT      O 8701   0.337   1.842   2.548  1.0888 -0.1253 -0.4667
 1999WAT     H1 8702   0.303   1.886   2.480  1.7231 -0.1560 -0.8141
 1999WAT     H2 8703   0.403   1.893   2.573  2.5322 -1.3733 -1.5653
 1999WAT    EPW 8704   0.342   1.856   2.542  0.0452 -0.0530 -0.4234
 2000WAT      O 8705   7.129   2.064   1.017 -0.3905 -0.4645  0.4144
 2000WAT     H1 8706   7.124   1.986   1.055 -0.8587 -0.6246  0.0285
 2000WAT     H2 8707   7.109   2.120   1.081  0.7597 -0.5967  0.9109
 2000WAT    EPW 8708   7.126   2.061   1.032 -1.1778  0.5886  0.2272
 2001WAT      O 8709   0.507   1.546   0.525  0.0745 -0.2054  0.2876
 2001WAT     H1 8710   0.518   1.616   0.576 -1.3046  2.3838 -2.6234
 2001WAT     H2 8711   0.565   1.558   0.460 -1.1043 -0.9629 -0.9751
 2001WAT    EPW 8712   0.517   1.558   0.523  0.5955  1.3184 -0.4663
 2002WAT      O 8713   5.791   0.865   5.923  0.3495 -0.4829 -0.3339
 2002WAT     H1 8714   5.810   0.950   5.932 -1.7601  0.0939 -0.9248
 2002WAT     H2 8715   5.793   0.852   5.837  0.6607 -1.0588 -0.2464
 2002WAT    EPW 8716   5.794   0.875   5.912 -1.0184  0.3810 -0.5421
 2003WAT      O 8717   6.598   1.011   1.998 -0.1639 -0.2628 -0.1633
 2003WAT     H1 8718   6.545   0.961   1.950 -0.4398  0.2312 -0.3794
 2003WAT     H2 8719   6.677   0.975   1.986  0.0178  0.6640 -2.1289
 2003WAT    EPW 8720   6.602   0.999   1.989 -0.0148 -0.0072 -0.1845
 2004WAT      O 8721   0.851   1.681   4.199 -0.5977 -0.0233  0.6040
 2004WAT     H1 8722   0.767   1.701   4.209 -0.4056  0.6509  0.9131
 2004WAT     H2 8723   0.854   1.646   4.119 -1.6336 -2.6357  1.5883
 2004WAT    EPW 8724   0.839   1.679   4.188 -0.8376  0.0322 -0.5614
 2005WAT      O 8725   7.492   1.040   0.765  0.5000 -0.0603 -0.2950
 2005WAT     H1 8726   7.518   1.065   0.844 -0.0031  0.4422 -0.2835
 2005WAT     H2 8727   7.473   0.955   0.775  0.0219  0.1045  0.2323
 2005WAT    EPW 8728   7.493   1.031   0.778 -0.5696  0.6684  0.5139
 2006WAT      O 8729   6.155   7.561   0.744  0.0151 -0.1815 -0.4803
 2006WAT     H1 8730   6.104   7.525   0.806 -1.5040 -1.2406 -2.2390
 2006WAT     H2 8731   6.212   7.497   0.726 -1.5818 -1.1924 -2.3612
 2006WAT    EPW 8732   6.156   7.546   0.750 -0.8606  0.2948  0.1276
 2007WAT      O 8733   7.239   1.524   7.953 -0.3576 -0.0016 -0.5700
 2007WAT     H1 8734   7.173   1.499   7.903 -0.8257 -0.0786  0.0756
 2007WAT     H2 8735   7.259   1.453   7.999  0.6813 -0.2017 -1.2942
 2007WAT    EPW 8736   7.232   1.510   7.952  0.0865  0.0359  1.0086
 2008WAT      O 8737   7.106   0.674   0.437 -0.1344  0.5016 -0.0805
 2008WAT     H1 8738   7.082   0.740   0.386 -0.0903  1.2730  0.8767
 2008WAT     H2 8739   7.188   0.658   0.413 -0.0831  0.9134 -0.1864
 2008WAT    EPW 8740   7.115   0.681   0.426  0.5321 -0.2955 -0.1738
 2009WAT      O 8741   7.419   6.121   0.468 -0.1376  0.6615 -0.2940
 2009WAT     H1 8742   7.377   6.129   0.544 -1.8006  1.1916 -1.2231
 2009WAT     H2 8743   7.423   6.035   0.456  0.0098  0.5794  0.3309
 2009WAT    EPW 8744   7.413   6.109   0.478 -0.1361  0.1599 -0.0330
 2010WAT      O 8745   5.358   7.447   7.531 -0.5792  0.4332  0.1266
 2010WAT     H1 8746   5.417   7.432   7.593 -0.9232 -1.5871  0.0594
 2010WAT     H2 8747   5.404   7.482   7.466  1.3763 -3.8012 -1.1230
 2010WAT    EPW 8748   5.373   7.450   7.530 -0.0465 -0.7373  0.0936
 2011WAT      O 8749   5.827   0.035   7.123 -0.3657 -0.5887 -0.7703
 2011WAT     H1 8750   5.836  -0.042   7.161 -1.6793  0.6524  2.3681
 2011WAT     H2 8751   5.745   0.058   7.142  0.6140  2.4627  0.3425
 2011WAT    EPW 8752   5.816   0.027   7.131 -0.2098 -0.4596  0.6481
 2012WAT      O 8753   6.398   7.162   0.202 -0.5860  0.0215  0.3002
 2012WAT     H1 8754   6.430   7.167   0.283  0.4786 -0.2435 -0.0799
 2012WAT     H2 8755   6.313   7.180   0.212 -0.8106 -1.5006  1.6950
 2012WAT    EPW 8756   6.390   7.165   0.216  0.4159 -0.9580  0.0011
 2013WAT      O 8757   5.240   6.735   7.235 -0.0117  0.2126  0.3876
 2013WAT     H1 8758   5.270   6.703   7.311  0.4820  0.4081  0.2767
 2013WAT     H2 8759   5.260   6.672   7.178 -0.0534  0.2241  0.3614
 2013WAT    EPW 8760   5.248   6.721   7.238 -0.0667  0.2863 -0.6329
 2014WAT      O 8761   6.157   0.109   0.599 -0.3679  0.4047 -0.1245
 2014WAT     H1 8762   6.215   0.049   0.573 -1.4436 -1.4090  1.3634
 2014WAT     H2 8763   6.185   0.131   0.679  0.1930  2.2262 -0.7619
 2014WAT    EPW 8764   6.170   0.103   0.607  0.1588 -0.7526  0.8148
 2015WAT      O 8765   4.478   0.540   0.719 -1.1563 -0.2010  0.1024
 2015WAT     H1 8766   4.527   0.468   0.719 -2.2437 -0.9690  0.6792
 2015WAT     H2 8767   4.532   0.601   0.688  0.0309 -1.0912  0.3320
 2015WAT    EPW 8768   4.493   0.538   0.714  0.6609 -0.3070 -0.3660
 2016WAT      O 8769   3.211   5.878   7.668 -0.0446 -0.4955 -0.7949
 2016WAT     H1 8770   3.224   5.899   7.752 -0.2082 -0.4646 -0.7761
 2016WAT     H2 8771   3.280   5.829   7.648  0.8594  0.8708 -1.1225
 2016WAT    EPW 8772   3.223   5.874   7.677 -1.1172  0.6539 -1.2033
 2017WAT      O 8773   3.249   6.758   0.085  0.4235 -0.0326 -0.5465
 2017WAT     H1 8774   3.332   6.757   0.057  0.4507  0.3515 -0.4904
 2017WAT     H2 8775   3.220   6.836   0.057  0.3124  0.1572  0.0977
 2017WAT    EPW 8776   3.257   6.769   0.077  0.0584  0.0360  0.5787
 2018WAT      O 8777   5.452   7.361   6.923  0.2454  0.0619  0.1153
 2018WAT     H1 8778   5.399   7.429   6.908  0.2722  0.0088 -0.2187
 2018WAT     H2 8779   5.489   7.347   6.846  1.2547  0.5235  0.5021
 2018WAT    EPW 8780   5.449   7.369   6.909 -0.0313 -0.1586 -0.2135
 2019WAT      O 8781   4.332   7.071   0.344 -0.1045 -0.3957 -0.0848
 2019WAT     H1 8782   4.414   7.046   0.330 -0.2779 -1.3720  0.4846
 2019WAT     H2 8783   4.289   7.038   0.276  0.0084  0.3506 -0.5252
 2019WAT    EPW 8784   4.337   7.062   0.332 -0.2108  0.2756 -1.0090
 2020WAT      O 8785   7.407   5.546   0.076 -0.4110  0.0569  0.3607
 2020WAT     H1 8786   7.415   5.625   0.041 -2.4807  0.4406  0.6515
 2020WAT     H2 8787   7.361   5.560   0.148 -0.2019 -1.3391  0.7994
 2020WAT    EPW 8788   7.402   5.560   0.081 -0.7851  0.5040  0.0565
 2021WAT      O 8789   5.801   7.879   0.747  0.6209  0.9203  0.7099
 2021WAT     H1 8790   5.870   7.881   0.695 -0.2606 -1.0859 -0.6334
 2021WAT     H2 8791   5.735   7.860   0.694 -0.3822 -0.8967  2.4557
 2021WAT    EPW 8792   5.801   7.877   0.732 -0.3359  0.4219 -0.4002
 2022WAT      O 8793   4.135   7.102   0.554 -0.8337 -0.1872  0.1974
 2022WAT     H1 8794   4.186   7.108   0.483 -1.4793 -1.1838 -0.3822
 2022WAT     H2 8795   4.124   7.184   0.579  0.1090  0.1143 -0.3648
 2022WAT    EPW 8796   4.141   7.115   0.547  0.2626  0.0713 -0.1877
 2023WAT      O 8797   5.781   7.360   0.191 -0.5058 -0.3039  0.3333
 2023WAT     H1 8798   5.828   7.429   0.166 -1.9670  1.0591  1.1698
 2023WAT     H2 8799   5.789   7.359   0.277 -2.1984  0.1514  0.5378
 2023WAT    EPW 8800   5.789   7.370   0.200 -0.1797 -0.8020 -0.0011
 2024WAT      O 8801   5.403   6.078   7.868  0.2787  0.1010  0.5901
 2024WAT     H1 8802   5.460   6.012   7.867 -1.1113 -1.1496 -0.6710
 2024WAT     H2 8803   5.447   6.143   7.829  1.0154 -0.6613  0.1098
 2024WAT    EPW 8804   5.418   6.078   7.862  0.9389  0.1123 -0.5558
 2025WAT      O 8805   7.270   7.095  -0.000 -0.1080  0.0743 -0.2439
 2025WAT     H1 8806   7.321   7.030   0.027  0.4177 -0.5010 -2.4688
 2025WAT     H2 8807   7.296   7.163   0.049  1.2866 -0.7198  0.1708
 2025WAT    EPW 8808   7.281   7.096   0.012  0.5893 -0.3226 -1.1888
 2026WAT      O 8809   5.446   7.902   8.012 -0.1489  0.2471 -0.0431
 2026WAT     H1 8810   5.379   7.959   8.018 -0.5456 -0.1076 -0.8649
 2026WAT     H2 8811   5.503   7.944   7.962 -0.4153 -0.0376 -0.5986
 2026WAT    EPW 8812   5.444   7.917   8.005 -0.5500  0.0753 -0.2990
 2027WAT      O 8813   6.972   7.600   0.417  0.2715  0.6405  0.2306
 2027WAT     H1 8814   7.058   7.606   0.407  0.2130  0.3764 -0.4672
 2027WAT     H2 8815   6.962   7.596   0.504  0.9058  1.3978  0.3469
 2027WAT    EPW 8816   6.983   7.600   0.429  0.5158 -0.5658 -1.4923
 2028WAT      O 8817   4.338   7.370   0.168 -0.3238 -0.3187 -0.6551
 2028WAT     H1 8818   4.359   7.296   0.210 -0.3107 -0.4822 -0.9451
 2028WAT     H2 8819   4.266   7.349   0.124 -0.0534 -0.3078 -1.1173
 2028WAT    EPW 8820   4.331   7.356   0.168 -0.0316 -0.3152 -0.3101
 2029WAT      O 8821   5.541   7.662   0.101 -0.4672  0.2738 -0.2968
 2029WAT     H1 8822   5.522   7.742   0.070 -0.7764  0.4073  0.2250
 2029WAT     H2 8823   5.621   7.672   0.135 -0.1852  0.1623 -0.9247
 2029WAT    EPW 8824   5.550   7.676   0.102  0.0152  0.4914  0.0812
 2030WAT      O 8825   5.684   0.318   1.531 -0.2154  0.1298  0.1751
 2030WAT     H1 8826   5.613   0.307   1.581  0.0338 -0.0866  0.4905
 2030WAT     H2 8827   5.750   0.315   1.589  0.0658  0.0283 -0.1472
 2030WAT    EPW 8828   5.683   0.316   1.547 -0.8785  0.1608 -0.1990
 2031WAT      O 8829   6.999   7.455   7.473  0.0611 -0.1449  0.3266
 2031WAT     H1 8830   6.975   7.539   7.475  1.4546  0.4042 -2.0748
 2031WAT     H2 8831   6.942   7.419   7.417  0.1871 -0.5536  0.4588
 2031WAT    EPW 8832   6.987   7.462   7.465  0.4563  0.3893  0.2241
 2032WAT      O 8833   5.786   6.786   0.535 -0.3181  0.7628 -0.3263
 2032WAT     H1 8834   5.717   6.737   0.514 -0.1757  1.3235 -2.2374
 2032WAT     H2 8835   5.854   6.736   0.514 -0.1408  0.6632  0.4645
 2032WAT    EPW 8836   5.786   6.772   0.529 -0.2163 -0.1090 -0.3728
 2033WAT      O 8837   4.888   0.058   7.580  0.5620  0.8276 -0.1522
 2033WAT     H1 8838   4.943   0.087   7.640 -0.4855 -1.3428  2.0767
 2033WAT     H2 8839   4.937   0.005   7.530  0.6090 -1.5016  2.1172
 2033WAT    EPW 8840   4.903   0.054   7.582  0.3336 -0.0809  0.6512
 2034WAT      O 8841   6.283   6.838   7.040 -0.5183  0.5878  0.5542
 2034WAT     H1 8842   6.275   6.872   6.960  1.6942 -0.9455 -0.4094
 2034WAT     H2 8843   6.245   6.760   7.033  0.5994  0.0164  0.6669
 2034WAT    EPW 8844   6.276   6.832   7.027 -0.2761 -0.0606  0.3749
 2035WAT      O 8845   6.944   6.945   0.846  0.3612 -0.3279 -0.1818
 2035WAT     H1 8846   6.966   6.861   0.852 -0.2743 -0.4393  1.0129
 2035WAT     H2 8847   6.864   6.948   0.880  1.4998  1.1813  2.7644
 2035WAT    EPW 8848   6.936   6.933   0.852  0.0440  0.1396 -0.8721
 2036WAT      O 8849   5.224   7.425   1.616 -0.3939 -0.1560  0.5886
 2036WAT     H1 8850   5.251   7.508   1.619  1.2614 -0.6184 -0.5497
 2036WAT     H2 8851   5.206   7.412   1.532 -1.5552 -0.6910  0.9065
 2036WAT    EPW 8852   5.225   7.436   1.604  0.4009 -0.2051 -0.4391
 2037WAT      O 8853   5.720   0.597   7.906  0.3176  0.3179  0.3919
 2037WAT     H1 8854   5.751   0.599   7.988  1.1113 -0.8935  0.1451
 2037WAT     H2 8855   5.792   0.602   7.857 -0.1416  0.8560 -0.2468
 2037WAT    EPW 8856   5.736   0.598   7.911 -0.4553  0.4220 -0.7819
 2038WAT      O 8857   5.101   0.612   6.956 -0.4155 -0.0530 -0.2934
 2038WAT     H1 8858   5.137   0.535   6.974  0.9861  0.5482 -0.4080
 2038WAT     H2 8859   5.136   0.666   7.015  1.1564  1.1351 -2.2135
 2038WAT    EPW 8860   5.111   0.609   6.967 -0.2188 -0.4232  0.1159
 2039WAT      O 8861   4.579   7.173   8.056  0.0310  0.3706 -0.1520
 2039WAT     H1 8862   4.634   7.137   7.998 -1.0041  1.8199 -2.1728
 2039WAT     H2 8863   4.507   7.188   8.009 -1.2165  0.7777  1.7798
 2039WAT    EPW 8864   4.576   7.170   8.040 -0.0062  0.2700  0.0846
 2040WAT      O 8865   5.323   0.900   0.825  0.6120  0.1552  0.8532
 2040WAT     H1 8866   5.259   0.847   0.800  1.5227 -0.3694 -0.5107
 2040WAT     H2 8867   5.335   0.952   0.755  0.5737  1.3407  1.7014
 2040WAT    EPW 8868   5.316   0.900   0.811 -0.5928  0.0177  0.2748
 2041WAT      O 8869   5.281   7.641   0.162  0.2388  0.3058 -0.4959
 2041WAT     H1 8870   5.292   7.709   0.215  0.6731 -0.3678  0.3010
 2041WAT     H2 8871   5.359   7.631   0.125 -0.2055  1.1080 -1.7010
 2041WAT    EPW 8872   5.294   7.650   0.165  0.0798  0.2125  0.4573
 2042WAT      O 8873   4.461   6.860   7.476  0.6002  0.1839  0.0061
 2042WAT     H1 8874   4.530   6.913   7.482  0.0025  1.0200 -0.1746
 2042WAT     H2 8875   4.419   6.890   7.405 -0.2956  0.1259  0.5001
 2042WAT    EPW 8876   4.465   6.873   7.466  0.4290 -0.0427 -0.7477
 2043WAT      O 8877   4.164   6.931   0.165  0.2477 -0.6284  0.1884
 2043WAT     H1 8878   4.148   6.848   0.186  0.1128 -0.3872  1.0512
 2043WAT     H2 8879   4.099   6.951   0.110 -1.1865 -0.3530  1.8955
 2043WAT    EPW 8880   4.152   6.922   0.160  0.9768 -0.4236 -0.0670
 2044WAT      O 8881   6.835   0.628   1.058 -0.1632 -0.0953  0.1922
 2044WAT     H1 8882   6.769   0.658   1.009 -0.1728 -0.5613 -0.0892
 2044WAT     H2 8883   6.799   0.565   1.106 -0.2346  0.6001  1.0793
 2044WAT    EPW 8884   6.820   0.623   1.058  0.0576  0.0976  0.6934
 2045WAT      O 8885   4.879   7.134   0.329 -0.4774  0.0242  0.0581
 2045WAT     H1 8886   4.945   7.094   0.288  0.7847  1.6937  0.3636
 2045WAT     H2 8887   4.886   7.105   0.411  0.8763  1.3060  0.4437
 2045WAT    EPW 8888   4.890   7.124   0.335 -0.4413  0.5853 -0.3730
 2046WAT      O 8889   6.826   0.090   0.004 -0.3536 -0.3009 -0.0295
 2046WAT     H1 8890   6.779   0.134   0.062  0.3617 -0.4911  0.7138
 2046WAT     H2 8891   6.905   0.128   0.009 -0.6020  0.6224 -1.8852
 2046WAT    EPW 8892   6.831   0.102   0.013 -0.4445  0.5644 -0.5354
 2047WAT      O 8893   5.423   7.521   0.629  0.3427 -0.2795 -0.0292
 2047WAT     H1 8894   5.459   7.458   0.679  3.1791  1.6738  0.6808
 2047WAT     H2 8895   5.389   7.576   0.687 -2.4331 -1.1778 -0.6577
 2047WAT    EPW 8896   5.424   7.519   0.645  0.5681  0.4275 -0.0573
 2048WAT      O 8897   6.778   7.833   0.444 -0.8627  0.5947 -0.3606
 2048WAT     H1 8898   6.705   7.806   0.485 -0.1349  0.5099  0.9233
 2048WAT     H2 8899   6.830   7.763   0.446 -0.6278  0.7406 -1.0257
 2048WAT    EPW 8900   6.775   7.818   0.450  0.3402 -0.4546 -0.2066
 2049WAT      O 8901   6.199   8.021   7.253  0.2216  0.0523  0.4769
 2049WAT     H1 8902   6.152   8.089   7.223  0.5298 -0.1591 -0.5279
 2049WAT     H2 8903   6.143   7.955   7.251  0.3009 -0.0060  0.1606
 2049WAT    EPW 8904   6.184   8.021   7.248 -0.0678  0.4647  0.1809
 2050WAT      O 8905   6.313   7.249   7.616  0.4895 -0.3062  0.5551
 2050WAT     H1 8906   6.332   7.275   7.534 -1.9040  0.5822  0.2140
 2050WAT     H2 8907   6.391   7.253   7.656  1.7346 -0.6951 -1.6285
 2050WAT    EPW 8908   6.328   7.254   7.610 -0.5855  0.2786  0.7749
 2051WAT      O 8909   6.788   7.605   0.153 -0.2149 -0.0015  0.4146
 2051WAT     H1 8910   6.832   7.598   0.078  0.4275  1.1313  0.6580
 2051WAT     H2 8911   6.805   7.531   0.195 -0.5092 -0.6105 -0.5171
 2051WAT    EPW 8912   6.797   7.593   0.148  0.2664  0.2006 -0.4222
 2052WAT      O 8913   5.132   0.258   0.849  0.2832 -0.2117  0.0776
 2052WAT     H1 8914   5.186   0.283   0.913  0.5846  1.4275 -0.7862
 2052WAT     H2 8915   5.165   0.181   0.824  2.1617  0.6812 -0.3406
 2052WAT    EPW 8916   5.145   0.250   0.855 -0.1311 -0.5589  0.1022
 2053WAT      O 8917   6.135   7.754   0.091 -0.0263 -0.2382  0.1702
 2053WAT     H1 8918   6.152   7.820   0.146 -1.4356 -0.3909  0.8404
 2053WAT     H2 8919   6.200   7.758   0.033  0.1163  1.5189  0.3999
 2053WAT    EPW 8920   6.147   7.765   0.091  0.4922  0.8682  0.8088
 2054WAT      O 8921   6.826   7.739   7.775 -0.6713  0.2665  0.5454
 2054WAT     H1 8922   6.801   7.757   7.693 -0.4548 -1.2728  0.1153
 2054WAT     H2 8923   6.775   7.791   7.823 -1.8982  0.0760 -0.4984
 2054WAT    EPW 8924   6.815   7.749   7.770  0.1763 -0.4023  1.0126
 2055WAT      O 8925   5.626   0.862   0.075 -0.1315 -0.7270  0.2617
 2055WAT     H1 8926   5.654   0.917   0.014  0.5367  0.7849  1.8615
 2055WAT     H2 8927   5.565   0.815   0.033  1.0825 -0.5481 -1.8491
 2055WAT    EPW 8928   5.621   0.863   0.060  0.1013 -0.7028  0.0874
 2056WAT      O 8929   5.951   7.709   7.791 -0.3997  0.1533 -0.1180
 2056WAT     H1 8930   6.023   7.744   7.757  0.2988 -1.0893 -0.0003
 2056WAT     H2 8931   5.932   7.644   7.735 -1.5645  0.5964 -0.2642
 2056WAT    EPW 8932   5.959   7.704   7.778 -0.1612  0.3832 -0.8453
 2057WAT      O 8933   5.292   6.298   0.583 -0.0621 -0.2173  0.6902
 2057WAT     H1 8934   5.215   6.328   0.612 -0.4549 -0.9513  0.4323
 2057WAT     H2 8935   5.305   6.344   0.509  0.3894  0.8299  1.3867
 2057WAT    EPW 8936   5.282   6.309   0.576  0.3356  0.2631 -0.2586
 2058WAT      O 8937   6.601   7.424   7.570 -0.2394 -0.3182 -0.1623
 2058WAT     H1 8938   6.637   7.484   7.622  1.1330 -1.8425  0.7212
 2058WAT     H2 8939   6.604   7.351   7.617 -2.2391 -1.0539 -1.0530
 2058WAT    EPW 8940   6.606   7.422   7.585 -0.2105 -0.3666  0.1425
 2059WAT      O 8941   5.344   7.755   1.228  0.1167  0.0205 -0.1863
 2059WAT     H1 8942   5.400   7.735   1.291  0.7814  0.2705 -0.6870
 2059WAT     H2 8943   5.302   7.680   1.213 -0.2170  0.0236  0.7151
 2059WAT    EPW 8944   5.346   7.741   1.235 -0.4980  0.5446 -0.4294
 2060WAT      O 8945   6.080   0.231   7.159  0.2418  0.2499 -0.3899
 2060WAT     H1 8946   6.121   0.223   7.082  0.5659 -1.3726 -0.1018
 2060WAT     H2 8947   5.995   0.231   7.137  0.3318 -0.1402 -0.7632
 2060WAT    EPW 8948   6.074   0.230   7.144  0.7120  0.0088 -0.1832
 2061WAT      O 8949   5.710   0.797   7.005 -0.2397  0.3529  0.0247
 2061WAT     H1 8950   5.782   0.757   7.033 -0.7768 -0.5773  0.1019
 2061WAT     H2 8951   5.677   0.742   6.946 -1.9806 -0.2608  1.4682
 2061WAT    EPW 8952   5.716   0.783   7.001 -0.7876 -0.5178  0.5799
 2062WAT      O 8953   6.509   0.403   0.517 -0.0942  0.2947 -0.1761
 2062WAT     H1 8954   6.532   0.476   0.559 -0.4921 -0.5433  1.6159
 2062WAT     H2 8955   6.424   0.395   0.537 -0.0198 -0.7279 -0.2416
 2062WAT    EPW 8956   6.500   0.413   0.526 -0.0318  0.0083  0.0659
 2063WAT      O 8957   5.168   7.071   7.961  0.4169  0.5226 -0.3702
 2063WAT     H1 8958   5.229   7.104   8.014  2.3005  1.7769 -3.1132
 2063WAT     H2 8959   5.180   6.985   7.968  0.5516  0.6300  1.2280
 2063WAT    EPW 8960   5.179   7.063   7.970 -0.4606 -0.2390  0.1115
 2064WAT      O 8961   5.592   6.457   0.240  1.0888  0.4036 -0.0149
 2064WAT     H1 8962   5.643   6.387   0.246  0.2502 -0.1466  1.1266
 2064WAT     H2 8963   5.590   6.474   0.154  1.4791 -0.8377 -0.2887
 2064WAT    EPW 8964   5.599   6.449   0.228  0.1896  0.3794  0.7176
 2065WAT      O 8965   5.115   7.508   1.188  0.1843 -0.1781  0.0594
 2065WAT     H1 8966   5.033   7.524   1.161 -0.2827 -1.7902  0.4402
 2065WAT     H2 8967   5.109   7.431   1.227  1.7104  0.1371  0.9828
 2065WAT    EPW 8968   5.102   7.499   1.190  0.0141  0.2034 -0.7189
 2066WAT      O 8969   4.962   0.091   1.935 -0.3737  0.2319  0.2945
 2066WAT     H1 8970   4.914   0.021   1.958  0.2084 -0.8962 -1.6566
 2066WAT     H2 8971   4.944   0.101   1.850  0.3672  1.8303  0.2955
 2066WAT    EPW 8972   4.952   0.082   1.926  0.4054  0.9641  0.2120
 2067WAT      O 8973   6.190   0.658   0.228  0.4733 -0.3455 -0.3005
 2067WAT     H1 8974   6.132   0.599   0.258  0.3238 -0.5428 -0.9765
 2067WAT     H2 8975   6.191   0.718   0.292 -0.6053 -0.2520 -0.3468
 2067WAT    EPW 8976   6.182   0.658   0.242  0.2721  0.1945 -0.2377
 2068WAT      O 8977   6.153   0.370   7.922  0.7343 -0.4891 -0.1725
 2068WAT     H1 8978   6.077   0.347   7.958  1.3814  0.6344  2.1324
 2068WAT     H2 8979   6.166   0.310   7.861 -0.6156 -2.4369  1.3284
 2068WAT    EPW 8980   6.143   0.358   7.919  0.6186  0.0826  0.2530
 2069WAT      O 8981   4.761   6.662   6.162 -0.1942  0.5948  0.2289
 2069WAT     H1 8982   4.834   6.708   6.153 -1.0625  2.2534  1.0751
 2069WAT     H2 8983   4.737   6.678   6.245 -1.1382 -0.4899  0.1858
 2069WAT    EPW 8984   4.768   6.671   6.173  0.3818 -0.6372 -1.5673
 2070WAT      O 8985   5.008   0.793   6.101 -0.5582  0.0266  0.4065
 2070WAT     H1 8986   5.046   0.733   6.051  0.8699 -0.3795  1.9176
 2070WAT     H2 8987   4.934   0.755   6.127  0.3824 -1.1694  1.4439
 2070WAT    EPW 8988   5.003   0.779   6.097 -1.2443 -0.5125 -1.0064
 2071WAT      O 8989   4.067   6.491   5.276 -0.1615  0.4618  0.0495
 2071WAT     H1 8990   4.121   6.558   5.286  1.5689 -0.6019 -1.3756
 2071WAT     H2 8991   4.041   6.498   5.193 -0.5268 -0.1959  0.0994
 2071WAT    EPW 8992   4.071   6.502   5.265 -0.4914 -0.2559 -0.7125
 2072WAT      O 8993   5.017   0.235   4.401  0.4786  0.3897  0.0164
 2072WAT     H1 8994   5.077   0.218   4.462 -0.1799  0.0574  0.5910
 2072WAT     H2 8995   5.035   0.317   4.377 -0.1665  1.0968  1.7679
 2072WAT    EPW 8996   5.029   0.245   4.406 -0.6922  0.2666  0.1102
 2073WAT      O 8997   4.821   0.522   5.568  0.2634  0.4482  0.1982
 2073WAT     H1 8998   4.851   0.443   5.590  0.7844  0.2321 -1.2250
 2073WAT     H2 8999   4.884   0.575   5.595  0.0559  0.3763  0.8665
 2073WAT    EPW 9000   4.834   0.518   5.575 -0.7662  0.1649  0.1440
 2074WAT      O 9001   5.659   6.864   5.299  0.4082 -0.3556 -0.1475
 2074WAT     H1 9002   5.623   6.815   5.236 -1.9083  0.8892  0.1074
 2074WAT     H2 9003   5.687   6.935   5.256  1.6388 -0.8266 -0.1710
 2074WAT    EPW 9004   5.658   6.867   5.283 -1.0217  0.1262 -0.6494
 2075WAT      O 9005   4.358   7.198   5.810 -0.3995 -0.1026 -0.4721
 2075WAT     H1 9006   4.319   7.276   5.819  0.8385  0.6075 -1.0040
 2075WAT     H2 9007   4.303   7.154   5.758 -0.6716  0.7451 -0.9359
 2075WAT    EPW 9008   4.344   7.203   5.804 -0.7955  0.3494 -0.1357
 2076WAT      O 9009   5.352   7.045   5.785  0.0345  0.5786  0.3888
 2076WAT     H1 9010   5.431   7.042   5.748 -0.1683 -2.0367 -0.0481
 2076WAT     H2 9011   5.354   6.979   5.842 -1.6516  0.8205  0.7812
 2076WAT    EPW 9012   5.364   7.034   5.788  0.1366  0.9344 -0.3570
 2077WAT      O 9013   5.084   7.752   5.599  0.2209  0.1866  0.1060
 2077WAT     H1 9014   5.068   7.814   5.658  3.2266  1.5854 -0.4021
 2077WAT     H2 9015   5.087   7.795   5.523 -1.8197 -1.3110 -0.9381
 2077WAT    EPW 9016   5.082   7.767   5.597 -0.6561  0.0698 -0.1664
 2078WAT      O 9017   6.259   0.133   0.877 -0.2473  0.2955 -0.6325
 2078WAT     H1 9018   6.188   0.156   0.922  0.6094  2.3349 -0.1900
 2078WAT     H2 9019   6.296   0.072   0.926 -0.4438  0.9706  0.3885
 2078WAT    EPW 9020   6.254   0.128   0.891  0.2643 -0.1441 -0.5990
 2079WAT      O 9021   5.077   7.445   5.755  0.1552  0.3806 -0.0523
 2079WAT     H1 9022   5.062   7.373   5.802 -0.2545 -0.3405 -1.2316
 2079WAT     H2 9023   5.011   7.498   5.775 -0.2629 -0.0986 -0.1360
 2079WAT    EPW 9024   5.065   7.442   5.765  0.0986 -0.7491  0.9195
 2080WAT      O 9025   4.696   7.074   6.924 -0.4892  0.1199  0.0486
 2080WAT     H1 9026   4.684   7.063   6.838 -0.9177  0.8452  0.0083
 2080WAT     H2 9027   4.767   7.026   6.941 -1.1029 -1.0264 -0.4685
 2080WAT    EPW 9028   4.705   7.065   6.914  0.5828 -0.3086  0.1798
 2081WAT      O 9029   4.101   7.440   6.622 -0.7281  0.1581  0.5040
 2081WAT     H1 9030   4.153   7.504   6.649  0.0591  0.4070 -1.4379
 2081WAT     H2 9031   4.063   7.474   6.551 -0.5688 -1.3824 -0.3580
 2081WAT    EPW 9032   4.103   7.454   6.616  0.2746 -0.3014  0.0242
 2082WAT      O 9033   5.230   7.497   4.653 -0.0227 -0.0593 -0.4132
 2082WAT     H1 9034   5.298   7.446   4.671 -0.2403 -0.7039 -1.3110
 2082WAT     H2 9035   5.244   7.519   4.569 -0.9676 -0.2999 -0.6435
 2082WAT    EPW 9036   5.242   7.493   4.643 -0.7643 -0.9885  0.5637
 2083WAT      O 9037   4.520   7.076   6.000  0.6642 -0.0982  0.0604
 2083WAT     H1 9038   4.462   7.108   5.943  1.3788  0.7241 -0.2297
 2083WAT     H2 9039   4.507   7.125   6.071  0.6645 -0.2502  0.1661
 2083WAT    EPW 9040   4.509   7.088   6.002 -0.2915  0.3225  0.3853
 2084WAT      O 9041   4.079   5.804   5.138  0.1169  0.1986  0.4885
 2084WAT     H1 9042   4.087   5.861   5.072 -0.8349  0.4774  0.5888
 2084WAT     H2 9043   4.016   5.750   5.111  1.0088 -0.8267  0.3984
 2084WAT    EPW 9044   4.071   5.805   5.124  0.3827  0.3175 -0.0809
 2085WAT      O 9045   5.480   0.262   7.471  0.4302  0.4598  0.1767
 2085WAT     H1 9046   5.436   0.310   7.413  0.8136  0.1820 -0.3419
 2085WAT     H2 9047   5.563   0.280   7.454  0.5447  0.4253  0.6837
 2085WAT    EPW 9048   5.486   0.272   7.460 -0.2903 -1.0073 -0.0557
 2086WAT      O 9049   5.394   0.663   6.938  0.0862 -0.0124  0.1044
 2086WAT     H1 9050   5.337   0.698   6.881 -2.8166 -2.0174  1.5406
 2086WAT     H2 9051   5.349   0.598   6.975  2.9940 -1.0150  2.2424
 2086WAT    EPW 9052   5.379   0.659   6.935 -0.2312  0.0524  0.0715
 2087WAT      O 9053   4.960   6.775   7.212  0.7803 -0.0683 -0.1379
 2087WAT     H1 9054   4.959   6.825   7.140 -0.8874  1.9525  1.1515
 2087WAT     H2 9055   5.045   6.766   7.230  1.1731  0.8490 -1.4159
 2087WAT    EPW 9056   4.972   6.781   7.204 -0.6732 -0.2218 -0.1609
 2088WAT      O 9057   6.110   0.137   7.739 -0.7119  1.0167  0.0994
 2088WAT     H1 9058   6.141   0.143   7.658 -1.4170  1.3930 -0.1543
 2088WAT     H2 9059   6.023   0.140   7.728 -0.8091  1.5400  0.9036
 2088WAT    EPW 9060   6.102   0.138   7.726 -0.1901  0.0249  0.3318
 2089WAT      O 9061   5.861   0.321   6.485 -0.6459 -0.4036 -0.0511
 2089WAT     H1 9062   5.910   0.260   6.445 -0.2806 -0.7199  0.8484
 2089WAT     H2 9063   5.876   0.393   6.438 -1.0157 -0.9710 -1.0821
 2089WAT    EPW 9064   5.871   0.323   6.472 -0.3001  0.4264 -0.0459
 2090WAT      O 9065   6.183   7.573   4.624 -0.0477  0.2852  0.0230
 2090WAT     H1 9066   6.182   7.650   4.665  0.1471 -0.6044  1.7940
 2090WAT     H2 9067   6.103   7.566   4.590  0.3822  1.8893 -1.4602
 2090WAT    EPW 9068   6.171   7.583   4.625  0.1443  0.1498  0.9849
 2091WAT      O 9069   5.751   6.855   6.841  0.8473  0.6050  0.2804
 2091WAT     H1 9070   5.673   6.896   6.845 -0.3606 -1.5011 -0.1316
 2091WAT     H2 9071   5.739   6.784   6.890  2.1288 -0.3755 -0.7833
 2091WAT    EPW 9072   5.737   6.851   6.849 -0.4450 -0.3511  0.1497
 2092WAT      O 9073   4.813   6.624   6.883  0.1074 -0.0274  0.0618
 2092WAT     H1 9074   4.794   6.552   6.929  1.0360  0.0027  0.5178
 2092WAT     H2 9075   4.745   6.633   6.830  1.0461 -2.6796 -1.8395
 2092WAT    EPW 9076   4.800   6.615   6.882 -0.0561 -0.8481 -0.5541
 2093WAT      O 9077   4.468   6.315   4.258 -0.0223  0.2986 -0.0530
 2093WAT     H1 9078   4.475   6.390   4.214 -0.1469 -0.3275 -1.1642
 2093WAT     H2 9079   4.537   6.316   4.311  0.3659  0.8793 -0.5505
 2093WAT    EPW 9080   4.479   6.326   4.259 -0.5941 -0.5053 -0.4974
 2094WAT      O 9081   5.309   7.591   5.665 -0.0836  0.5527 -0.2064
 2094WAT     H1 9082   5.257   7.535   5.707  1.6919 -0.5239  0.6934
 2094WAT     H2 9083   5.255   7.629   5.607 -1.7882 -0.6711  0.4723
 2094WAT    EPW 9084   5.293   7.588   5.662 -0.4039 -0.6794  0.1997
 2095WAT      O 9085   5.202   7.737   6.490 -0.1200  0.4374 -0.8335
 2095WAT     H1 9086   5.184   7.671   6.434  0.9714  1.0198 -1.9062
 2095WAT     H2 9087   5.266   7.704   6.540  1.4365  1.1141 -2.2910
 2095WAT    EPW 9088   5.208   7.722   6.489 -0.3367 -0.4675 -0.6421
 2096WAT      O 9089   4.869   7.781   6.285 -0.3990  0.2806 -0.0537
 2096WAT     H1 9090   4.871   7.853   6.236 -0.3515  1.2850  1.3602
 2096WAT     H2 9091   4.784   7.769   6.301 -0.2939  1.3881  1.5705
 2096WAT    EPW 9092   4.857   7.790   6.280  1.1023  0.6297  0.1871
 2097WAT      O 9093   3.607   6.869   4.641 -0.2794 -0.4037  0.4666
 2097WAT     H1 9094   3.594   6.858   4.555 -0.4913 -0.9628  0.5709
 2097WAT     H2 9095   3.633   6.952   4.646 -0.6634 -0.2376 -0.0955
 2097WAT    EPW 9096   3.609   6.880   4.629 -0.2264 -0.4161 -0.7285
 2098WAT      O 9097   5.317   7.156   7.032  0.4447 -0.1885 -0.5989
 2098WAT     H1 9098   5.367   7.222   7.006  0.3768  0.5994  1.1264
 2098WAT     H2 9099   5.236   7.184   7.015  0.3250  0.8325  1.3670
 2098WAT    EPW 9100   5.312   7.170   7.026  0.3249  0.5287 -0.5872
 2099WAT      O 9101   4.644   6.728   4.201  0.1496 -0.6613  0.1605
 2099WAT     H1 9102   4.713   6.688   4.235 -0.6469 -1.5058  0.8638
 2099WAT     H2 9103   4.609   6.667   4.148  0.7743  0.2712 -1.3901
 2099WAT    EPW 9104   4.649   6.713   4.198  0.6136 -0.4216 -0.6281
 2100WAT      O 9105   5.887   1.145   7.279 -0.4063  0.3659 -0.0039
 2100WAT     H1 9106   5.958   1.095   7.279  0.3497  1.3980  0.8849
 2100WAT     H2 9107   5.843   1.118   7.349 -0.3852  0.4101  0.0267
 2100WAT    EPW 9108   5.891   1.134   7.289 -0.7568  0.0422  0.2831
 2101WAT      O 9109   4.192   7.797   5.866 -0.4081  0.0391  0.0412
 2101WAT     H1 9110   4.130   7.738   5.886 -0.0359 -1.2868 -2.3640
 2101WAT     H2 9111   4.216   7.775   5.785  2.8446  0.8472  0.6497
 2101WAT    EPW 9112   4.186   7.785   5.857  0.0629  0.6501  0.4555
 2102WAT      O 9113   6.352   7.758   0.802  0.4325  0.3182 -0.9085
 2102WAT     H1 9114   6.295   7.699   0.774 -0.0059  0.9287 -1.3177
 2102WAT     H2 9115   6.427   7.714   0.805 -0.2819 -0.8896  1.0015
 2102WAT    EPW 9116   6.355   7.743   0.799  0.2974 -0.2422  0.3629
 2103WAT      O 9117   5.271   6.901   6.208 -0.6742  0.6076  0.2010
 2103WAT     H1 9118   5.323   6.852   6.258 -2.6278 -0.2372  1.5434
 2103WAT     H2 9119   5.326   6.940   6.153  1.5559  1.1744  2.6332
 2103WAT    EPW 9120   5.287   6.899   6.207  0.2841 -0.0888  0.4517
 2104WAT      O 9121   4.005   7.517   6.382 -0.5123  0.0874 -0.1259
 2104WAT     H1 9122   4.041   7.593   6.402 -0.8070  0.2632 -0.2608
 2104WAT     H2 9123   3.920   7.530   6.394 -0.4978 -0.4707  0.6578
 2104WAT    EPW 9124   3.998   7.530   6.387 -0.1117 -0.7328  0.1516
 2105WAT      O 9125   5.102   7.866   4.956 -0.1081 -0.1080  0.5309
 2105WAT     H1 9126   5.067   7.876   4.877  1.5034  1.5525 -0.0755
 2105WAT     H2 9127   5.064   7.930   5.003  0.5716  0.3825  0.4314
 2105WAT    EPW 9128   5.091   7.877   4.951  0.1335  0.1060 -0.7024
 2106WAT      O 9129   4.508   6.114   6.081  0.1856 -0.2074 -0.1959
 2106WAT     H1 9130   4.500   6.168   6.149 -2.3252  0.8533 -1.2067
 2106WAT     H2 9131   4.555   6.160   6.024  1.5949 -0.7832  0.4488
 2106WAT    EPW 9132   4.514   6.129   6.083  0.3882 -1.1165 -0.2383
 2107WAT      O 9133   7.174   7.706   0.162 -0.0515  0.3203 -0.2240
 2107WAT     H1 9134   7.155   7.790   0.171  0.7299  0.6658 -1.4540
 2107WAT     H2 9135   7.257   7.707   0.133 -0.0135 -0.8702 -0.2117
 2107WAT    EPW 9136   7.184   7.718   0.159 -0.0186 -0.0044 -1.0000
 2108WAT      O 9137   5.515   7.201   7.546  0.4287  0.6615 -0.5387
 2108WAT     H1 9138   5.459   7.145   7.581  1.2155 -1.2914 -2.1814
 2108WAT     H2 9139   5.464   7.262   7.510 -0.5489  0.0815 -0.1573
 2108WAT    EPW 9140   5.499   7.202   7.546  0.1090 -0.2781  1.1093
 2109WAT      O 9141   4.805   0.201   4.916 -0.2756 -0.3907  0.3161
 2109WAT     H1 9142   4.819   0.281   4.885  2.3080 -1.0664 -0.5277
 2109WAT     H2 9143   4.808   0.150   4.845  0.0448 -1.3938  1.0234
 2109WAT    EPW 9144   4.808   0.205   4.901  0.9086 -0.4765  0.1437
 2110WAT      O 9145   5.289   0.864   4.774 -0.1110 -0.1254  0.0261
 2110WAT     H1 9146   5.218   0.859   4.824 -0.2229 -1.9166 -0.2423
 2110WAT     H2 9147   5.352   0.834   4.826 -0.0637 -1.1210 -0.5740
 2110WAT    EPW 9148   5.288   0.859   4.789 -0.2570  0.2037  0.2392
 2111WAT      O 9149   6.183   7.890   5.232 -0.1181 -0.3495  0.1689
 2111WAT     H1 9150   6.269   7.876   5.236  0.1418  0.8709 -0.5261
 2111WAT     H2 9151   6.150   7.836   5.291  1.3838  1.3523  2.7364
 2111WAT    EPW 9152   6.191   7.880   5.241  0.1703  0.6007 -0.5035
 2112WAT      O 9153   4.686   0.778   4.250 -0.5616 -0.0132 -0.9765
 2112WAT     H1 9154   4.603   0.804   4.238 -1.6509 -2.3572  0.6235
 2112WAT     H2 9155   4.728   0.851   4.271 -2.0704  1.3469 -2.3799
 2112WAT    EPW 9156   4.680   0.793   4.251  0.4946  0.6923  0.1748
 2113WAT      O 9157   4.298   0.565   7.985 -0.0944 -0.0446 -0.4829
 2113WAT     H1 9158   4.308   0.589   7.902  2.1037 -1.8000 -0.8384
 2113WAT     H2 9159   4.348   0.621   8.029 -0.7154  0.4612 -0.4128
 2113WAT    EPW 9160   4.307   0.577   7.979  1.1262  0.1371  0.8936
 2114WAT      O 9161   4.264   7.714   5.610  0.2920  0.0586 -0.6713
 2114WAT     H1 9162   4.281   7.630   5.626 -1.9231 -0.2700  0.4332
 2114WAT     H2 9163   4.196   7.711   5.555  0.8991  1.1513 -1.5094
 2114WAT    EPW 9164   4.256   7.702   5.604 -0.4987  0.2178  0.5979
 2115WAT      O 9165   3.139   0.136   5.323  0.4486 -0.3861  0.0823
 2115WAT     H1 9166   3.094   0.192   5.372  3.0905  1.8920  0.2214
 2115WAT     H2 9167   3.134   0.061   5.366 -2.3744 -0.0685  0.4742
 2115WAT    EPW 9168   3.132   0.133   5.337  1.1891  0.2340  0.5008
 2116WAT      O 9169   6.015   0.870   7.349  0.0918 -0.0688 -0.6127
 2116WAT     H1 9170   5.941   0.826   7.364 -0.9719  2.2024  1.3965
 2116WAT     H2 9171   6.069   0.842   7.411 -0.5064  1.1885  0.5158
 2116WAT    EPW 9172   6.012   0.860   7.360  0.4754  0.4295  0.6642
 2117WAT      O 9173   5.769   6.873   5.907 -0.2506 -0.6894  0.1308
 2117WAT     H1 9174   5.798   6.806   5.860 -0.4216 -1.6693  1.3594
 2117WAT     H2 9175   5.752   6.838   5.985  1.7882  1.1686  1.5513
 2117WAT    EPW 9176   5.771   6.858   5.912  0.2748  0.3878 -0.0743
 2118WAT      O 9177   5.299   6.884   6.617 -0.3080 -0.2773 -0.3220
 2118WAT     H1 9178   5.314   6.811   6.570  0.8555 -0.6662  0.6017
 2118WAT     H2 9179   5.369   6.934   6.599 -0.9735  0.5212 -0.7511
 2118WAT    EPW 9180   5.312   6.880   6.607 -0.7416 -0.1114  0.7577
 2119WAT      O 9181   4.809   0.973   6.500 -0.4112  0.1659  0.1288
 2119WAT     H1 9182   4.788   1.019   6.572 -3.4023 -0.0949 -0.4540
 2119WAT     H2 9183   4.830   1.034   6.442  1.0764  0.4240  0.8702
 2119WAT    EPW 9184   4.809   0.989   6.502  0.1685 -0.3482  0.7161
 2120WAT      O 9185   4.277   1.066   5.035 -0.0393 -0.5595  0.0001
 2120WAT     H1 9186   4.350   1.067   5.083  1.0448 -2.3285 -1.5118
 2120WAT     H2 9187   4.247   1.147   5.043  3.3948  1.0179 -1.2538
 2120WAT    EPW 9188   4.283   1.078   5.044  0.3040 -0.4976  0.4388
 2121WAT      O 9189   5.902   6.403   5.849 -0.3856  0.0501  0.8514
 2121WAT     H1 9190   5.916   6.408   5.935  0.5893 -1.5787  0.8218
 2121WAT     H2 9191   5.982   6.410   5.815 -0.7646  0.6874  0.0479
 2121WAT    EPW 9192   5.916   6.405   5.857  0.0822  0.1545  0.0256
 2122WAT      O 9193   5.407   0.097   4.927  0.0128 -0.1677  0.3085
 2122WAT     H1 9194   5.439   0.151   4.866 -0.0852 -1.6370 -1.0928
 2122WAT     H2 9195   5.479   0.063   4.963  0.0594 -0.0454  0.3320
 2122WAT    EPW 9196   5.423   0.100   4.923  0.1396 -0.1281 -0.3224
 2123WAT      O 9197   4.906   6.689   5.673 -0.3590 -0.0038  0.5167
 2123WAT     H1 9198   4.858   6.631   5.717 -0.0721 -0.0143  0.8252
 2123WAT     H2 9199   4.946   6.641   5.613  0.9559 -0.3932  1.6451
 2123WAT    EPW 9200   4.905   6.673   5.671 -0.2486 -0.0708  0.0616
 2124WAT      O 9201   5.680   6.894   6.390  0.5576 -0.2850  0.2982
 2124WAT     H1 9202   5.669   6.833   6.451  0.8741  1.4318  2.1773
 2124WAT     H2 9203   5.639   6.964   6.423  1.1138  0.8266 -1.2625
 2124WAT    EPW 9204   5.673   6.895   6.404  0.3571 -0.3982  1.0660
 2125WAT      O 9205   4.499   5.656   6.339 -0.3219 -0.1971  0.2221
 2125WAT     H1 9206   4.414   5.676   6.338 -0.5545 -1.0850  0.9961
 2125WAT     H2 9207   4.536   5.721   6.294 -1.1699  1.3235  1.6042
 2125WAT    EPW 9208   4.492   5.668   6.332 -0.0239 -0.3100 -0.0252
 2126WAT      O 9209   5.718   7.532   5.322  0.4534 -0.1090  0.2015
 2126WAT     H1 9210   5.677   7.466   5.282  0.1133 -0.7195  1.4968
 2126WAT     H2 9211   5.670   7.546   5.393  0.2151  1.9245 -0.3054
 2126WAT    EPW 9212   5.705   7.524   5.326 -0.6548 -0.3951  0.4599
 2127WAT      O 9213   6.705   7.817   7.530 -0.6057  0.1946 -0.2856
 2127WAT     H1 9214   6.664   7.753   7.488 -0.9631 -0.3802  0.9010
 2127WAT     H2 9215   6.653   7.886   7.519 -0.2786  0.2651 -1.4657
 2127WAT    EPW 9216   6.691   7.818   7.522 -0.6130 -0.4364 -0.2686
 2128WAT      O 9217   4.531   6.871   6.957  0.1036  0.1985  0.5665
 2128WAT     H1 9218   4.577   6.944   6.947 -0.7717  0.7170  0.2631
 2128WAT     H2 9219   4.450   6.899   6.975 -0.7245 -0.6132 -1.5039
 2128WAT    EPW 9220   4.526   6.886   6.958  0.4325 -0.0162  0.0926
 2129WAT      O 9221   5.345   2.020   4.743 -0.4317 -0.3444  0.3711
 2129WAT     H1 9222   5.396   2.051   4.807 -0.1195 -0.3615  0.1293
 2129WAT     H2 9223   5.350   2.081   4.681 -1.9153  0.4082  0.9403
 2129WAT    EPW 9224   5.353   2.034   4.743  0.2055 -0.2015 -0.9062
 2130WAT      O 9225   4.811   0.046   4.662 -0.0254 -0.9423  0.3310
 2130WAT     H1 9226   4.848   0.094   4.599 -0.2497  0.2471  1.0642
 2130WAT     H2 9227   4.869  -0.018   4.676 -0.8887 -2.4932 -2.4846
 2130WAT    EPW 9228   4.825   0.044   4.655  0.1068 -0.8035 -0.8803
 2131WAT      O 9229   4.130   7.557   6.944  0.1998 -0.2437 -0.1235
 2131WAT     H1 9230   4.047   7.530   6.935 -0.0340  0.7179 -1.1629
 2131WAT     H2 9231   4.149   7.591   6.866  1.9108 -1.2890 -0.2209
 2131WAT    EPW 9232   4.121   7.558   6.931 -0.3299 -0.7630  0.3974
 2132WAT      O 9233   4.723   7.959   7.730  0.0391  0.2128 -0.0390
 2132WAT     H1 9234   4.768   7.920   7.794 -0.8501 -1.0089 -0.1197
 2132WAT     H2 9235   4.783   8.007   7.689  0.9304 -0.1321  0.8157
 2132WAT    EPW 9236   4.738   7.960   7.734  0.0025  0.4245 -0.3056
 2133WAT      O 9237   4.535   1.072   6.182  0.1099 -0.1986  0.0506
 2133WAT     H1 9238   4.512   1.049   6.101 -0.1947 -0.0090  0.0795
 2133WAT     H2 9239   4.578   1.147   6.171 -1.4305  0.7494  0.2015
 2133WAT    EPW 9240   4.538   1.080   6.169  0.5338  0.1148  0.3570
 2134WAT      O 9241   3.853   6.999   4.852 -0.0989  0.2153  0.1489
 2134WAT     H1 9242   3.826   7.055   4.790 -0.9843  0.9878  1.1990
 2134WAT     H2 9243   3.914   7.043   4.895 -1.9322  1.1195  2.0342
 2134WAT    EPW 9244   3.858   7.014   4.849  0.0270  0.0075 -0.5992
 2135WAT      O 9245   4.690   7.074   6.637 -0.3318  0.0891 -0.1308
 2135WAT     H1 9246   4.738   7.040   6.572  0.9864  0.5084  0.5808
 2135WAT     H2 9247   4.693   7.160   6.621  2.7554  0.5703  2.1535
 2135WAT    EPW 9248   4.698   7.082   6.625 -0.9379 -0.2730 -0.5778
 2136WAT      O 9249   4.848   7.610   5.520  0.0282 -0.2523 -0.1230
 2136WAT     H1 9250   4.924   7.638   5.553  0.6652 -1.0702 -0.8262
 2136WAT     H2 9251   4.833   7.536   5.564  0.1916 -0.6399 -0.6975
 2136WAT    EPW 9252   4.857   7.603   5.531 -0.3991 -0.3733  0.5299
 2137WAT      O 9253   4.815   7.252   7.149 -0.0220 -0.2057  0.4600
 2137WAT     H1 9254   4.789   7.331   7.122  1.6312  0.9879  2.1316
 2137WAT     H2 9255   4.742   7.205   7.146 -0.9167  1.1450 -1.2582
 2137WAT    EPW 9256   4.800   7.257   7.144  0.4498 -0.2991 -0.1883
 2138WAT      O 9257   4.555   0.472   7.385 -0.3334 -0.3141  0.2865
 2138WAT     H1 9258   4.631   0.514   7.377 -1.2449  1.3383 -0.0361
 2138WAT     H2 9259   4.554   0.447   7.468  0.1971  0.3647  0.5067
 2138WAT    EPW 9260   4.566   0.475   7.396 -0.0148 -0.6617 -1.0766
 2139WAT      O 9261   6.428   7.013   0.498  0.2611  0.1556  0.3417
 2139WAT     H1 9262   6.361   7.008   0.553 -1.8048 -1.0833 -2.1025
 2139WAT     H2 9263   6.498   7.011   0.551 -1.5719  0.5785  2.9482
 2139WAT    EPW 9264   6.429   7.012   0.514  0.3923 -0.5569  0.4088
 2140WAT      O 9265   4.484   0.265   2.836 -0.1065  0.2283  0.2503
 2140WAT     H1 9266   4.443   0.280   2.761 -1.6901  0.1353  1.0453
 2140WAT     H2 9267   4.452   0.188   2.861  1.2819 -0.3058  0.4754
 2140WAT    EPW 9268   4.473   0.256   2.829 -0.1457 -0.2289 -0.1875
 2141WAT      O 9269   6.365   7.257   7.349  0.7595  0.0196  0.0179
 2141WAT     H1 9270   6.384   7.173   7.335  1.5982  0.3027 -0.5935
 2141WAT     H2 9271   6.435   7.299   7.319 -0.0574  1.0024 -0.5638
 2141WAT    EPW 9272   6.378   7.250   7.343  0.2130  0.4635  0.7203
 2142WAT      O 9273   5.559   0.335   7.054  0.0202  0.1125  0.1497
 2142WAT     H1 9274   5.552   0.257   7.092 -0.6739 -0.9498 -2.0382
 2142WAT     H2 9275   5.592   0.317   6.976  1.3322  2.2165  0.1551
 2142WAT    EPW 9276   5.563   0.321   7.048 -0.3989  0.3913 -0.2527
 2143WAT      O 9277   4.865   0.563   5.036 -0.7128  0.2660  0.0525
 2143WAT     H1 9278   4.823   0.527   4.969 -0.8846  0.7848 -0.1199
 2143WAT     H2 9279   4.948   0.567   5.008 -0.2509 -1.9758  0.8866
 2143WAT    EPW 9280   4.871   0.558   5.022  0.1589 -0.8659  0.9180
 2144WAT      O 9281   5.720   7.860   7.257  0.4433 -0.5193  0.3862
 2144WAT     H1 9282   5.638   7.862   7.229 -0.2164  2.1872  2.1430
 2144WAT     H2 9283   5.713   7.823   7.336  1.0269 -0.7511  0.3365
 2144WAT    EPW 9284   5.707   7.855   7.265 -0.1836 -0.5711  0.2873
 2145WAT      O 9285   4.703   0.214   6.614  0.4527  0.7194  0.3721
 2145WAT     H1 9286   4.672   0.263   6.549 -0.2428  2.2675  1.7944
 2145WAT     H2 9287   4.785   0.197   6.590 -0.7400 -1.7690 -2.5453
 2145WAT    EPW 9288   4.710   0.219   6.601  0.6258  0.1575 -0.3107
 2146WAT      O 9289   5.641   1.396   6.853  0.0422  0.2923 -0.3959
 2146WAT     H1 9290   5.580   1.335   6.866 -2.2221  2.0567 -1.9084
 2146WAT     H2 9291   5.695   1.359   6.795 -1.7511 -0.0586 -1.9188
 2146WAT    EPW 9292   5.640   1.382   6.846  0.7629 -0.1571  0.3650
 2147WAT      O 9293   4.002   0.650   7.018 -0.0578  0.2614  0.1626
 2147WAT     H1 9294   4.025   0.698   6.950 -1.1981  1.4203  0.5443
 2147WAT     H2 9295   3.979   0.573   6.983  0.1399  0.5705 -0.6560
 2147WAT    EPW 9296   4.002   0.646   7.003  0.6712 -0.7914 -0.6908
 2148WAT      O 9297   5.713   7.243   7.332 -0.3038 -0.0279  0.4471
 2148WAT     H1 9298   5.646   7.228   7.386  1.0509  1.8666  2.8738
 2148WAT     H2 9299   5.776   7.190   7.362  0.8847  1.9802  1.7127
 2148WAT    EPW 9300   5.713   7.233   7.344 -0.0819 -0.3059 -0.5476
 2149WAT      O 9301   4.356   6.402   7.164 -0.2795 -0.1705 -0.6676
 2149WAT     H1 9302   4.269   6.403   7.169 -0.4346 -1.0905 -2.5010
 2149WAT     H2 9303   4.374   6.447   7.092  0.8275  0.4925 -0.0083
 2149WAT    EPW 9304   4.346   6.408   7.154 -0.2541  0.7167 -0.0104
 2150WAT      O 9305   4.979   7.884   4.724 -0.1877  0.0412 -0.4727
 2150WAT     H1 9306   5.039   7.889   4.661  0.1356 -0.1017 -0.1766
 2150WAT     H2 9307   4.949   7.802   4.717 -0.2755  0.0806 -0.5543
 2150WAT    EPW 9308   4.983   7.872   4.713 -0.0149  0.2591 -0.2231
 2151WAT      O 9309   4.418   0.068   5.579 -0.0986 -0.0084 -0.0809
 2151WAT     H1 9310   4.445  -0.010   5.550  1.5708  1.2182 -2.1314
 2151WAT     H2 9311   4.335   0.071   5.555  0.4388 -0.2798 -2.1833
 2151WAT    EPW 9312   4.410   0.057   5.572 -0.2887  0.0004 -0.4484
 2152WAT      O 9313   4.390   7.847   6.027  0.1310 -0.2214  0.2095
 2152WAT     H1 9314   4.454   7.806   5.985  0.5177 -0.7332  1.2875
 2152WAT     H2 9315   4.321   7.837   5.973  1.0181  0.7560 -1.1926
 2152WAT    EPW 9316   4.389   7.840   6.013  0.8849  0.3123  0.2182
 2153WAT      O 9317   5.599   7.738   7.748 -0.2546  0.1822  0.4022
 2153WAT     H1 9318   5.633   7.657   7.754  1.3011  0.5050 -2.3207
 2153WAT     H2 9319   5.514   7.723   7.732 -0.3359 -0.8290  1.6090
 2153WAT    EPW 9320   5.591   7.724   7.747 -0.5359  0.2952 -0.5183
 2154WAT      O 9321   5.420   7.649   6.850 -0.3289 -0.1628  0.2810
 2154WAT     H1 9322   5.501   7.679   6.855 -1.0458  1.8828  0.4717
 2154WAT     H2 9323   5.414   7.619   6.768  0.5087 -0.0889  0.1844
 2154WAT    EPW 9324   5.431   7.649   6.839  0.2925  0.4975 -0.4970
 2155WAT      O 9325   5.278   6.744   5.674 -0.1627 -0.4398  0.2706
 2155WAT     H1 9326   5.241   6.791   5.738 -1.7867  1.0665 -1.6454
 2155WAT     H2 9327   5.364   6.751   5.691 -0.5096  0.2078  2.0356
 2155WAT    EPW 9328   5.286   6.752   5.686  0.5993  0.1212 -0.7732
 2156WAT      O 9329   3.470   6.517   5.782 -0.3995 -0.2978 -0.4678
 2156WAT     H1 9330   3.551   6.541   5.757 -0.8863  1.2500 -0.6890
 2156WAT     H2 9331   3.445   6.462   5.719  0.2668 -0.3312 -0.7175
 2156WAT    EPW 9332   3.479   6.513   5.769  0.8094  0.3751  1.3683
 2157WAT      O 9333   6.207   7.267   6.762  0.3892 -0.1306  0.4576
 2157WAT     H1 9334   6.201   7.312   6.687 -0.2026 -1.3529 -0.2515
 2157WAT     H2 9335   6.187   7.327   6.823  0.7854  0.8586 -0.3544
 2157WAT    EPW 9336   6.203   7.283   6.760 -0.2245  0.8537 -0.5238
 2158WAT      O 9337   5.791   7.075   5.185  0.0535  0.4021 -0.0527
 2158WAT     H1 9338   5.737   7.143   5.188 -1.1505 -0.4351 -1.5223
 2158WAT     H2 9339   5.802   7.061   5.100  1.4874 -0.3440  0.2117
 2158WAT    EPW 9340   5.785   7.083   5.173  0.0159  0.3270 -0.3901
 2159WAT      O 9341   5.598   7.072   7.884  0.1250  0.2848 -0.3446
 2159WAT     H1 9342   5.597   7.103   7.965  0.0585  2.9594 -1.2655
 2159WAT     H2 9343   5.528   7.019   7.881 -1.0335  1.6854  0.8095
 2159WAT    EPW 9344   5.587   7.068   7.895 -0.1462 -0.9779  0.2596
 2160WAT      O 9345   5.777   0.092   4.374 -0.1667 -0.2731  0.2742
 2160WAT     H1 9346   5.768   0.172   4.338 -0.0378  0.0312  0.9143
 2160WAT     H2 9347   5.790   0.109   4.458  1.3174 -0.9091  0.1966
 2160WAT    EPW 9348   5.777   0.107   4.381 -0.3318 -0.4916  0.1164
 2161WAT      O 9349   5.989   0.363   6.756  0.5626 -0.1420 -0.8184
 2161WAT     H1 9350   5.967   0.448   6.754  0.8177 -0.0821 -1.2724
 2161WAT     H2 9351   5.958   0.332   6.681  0.3364 -0.4908 -0.5825
 2161WAT    EPW 9352   5.981   0.371   6.745  0.3650 -0.6097 -0.8031
 2162WAT      O 9353   5.209   7.863   6.883 -0.3182  0.0276  0.2438
 2162WAT     H1 9354   5.271   7.802   6.881 -0.8288 -0.4777 -0.2063
 2162WAT     H2 9355   5.136   7.819   6.897 -0.6343  0.5829  0.3798
 2162WAT    EPW 9356   5.208   7.848   6.885  0.7030 -0.4903  0.0504
 2163WAT      O 9357   5.702   7.108   7.047  0.0489 -0.7034  0.3048
 2163WAT     H1 9358   5.779   7.071   7.033  0.8707  0.3889  1.6634
 2163WAT     H2 9359   5.710   7.144   7.126 -1.4876  0.3488  0.0404
 2163WAT    EPW 9360   5.715   7.108   7.056  0.6383  0.9045  0.0024
 2164WAT      O 9361   5.104   0.133   7.258 -0.6406  0.0066 -0.1247
 2164WAT     H1 9362   5.101   0.050   7.284 -0.7472  0.9090  3.1698
 2164WAT     H2 9363   5.028   0.144   7.216 -1.4103 -1.1734  0.8719
 2164WAT    EPW 9364   5.092   0.122   7.256  0.4076 -0.5400  0.2763
 2165WAT      O 9365   5.253   0.095   7.049 -0.5310  0.0864 -0.1888
 2165WAT     H1 9366   5.201   0.103   7.118  0.0382  0.1173  0.2433
 2165WAT     H2 9367   5.210   0.040   6.997 -1.3929  0.7576 -0.2254
 2165WAT    EPW 9368   5.239   0.088   7.051  0.6627  0.2026  0.5301
 2166WAT      O 9369   6.012   6.878   7.611 -0.0498 -0.4186  0.2229
 2166WAT     H1 9370   5.961   6.891   7.680 -0.2548  1.1493 -0.1710
 2166WAT     H2 9371   5.993   6.797   7.585 -1.2000 -0.4157  0.9914
 2166WAT    EPW 9372   6.002   6.868   7.617 -0.2475 -0.0846 -0.2546
 2167WAT      O 9373   4.588   7.604   7.247  0.0508 -0.1725 -0.0420
 2167WAT     H1 9374   4.571   7.612   7.332  0.8615  0.5374  0.0657
 2167WAT     H2 9375   4.509   7.592   7.211 -0.5014  1.3652  0.6014
 2167WAT    EPW 9376   4.574   7.603   7.254 -0.2509 -0.4579  0.1911
 2168WAT      O 9377   4.848   7.517   7.499 -0.5584  0.0832 -0.2124
 2168WAT     H1 9378   4.920   7.496   7.454  0.2093  0.2641  0.8729
 2168WAT     H2 9379   4.866   7.488   7.579 -1.8772 -0.2192 -0.0094
 2168WAT    EPW 9380   4.861   7.510   7.504  1.2362 -0.1650 -0.8614
 2169WAT      O 9381   5.989   0.105   6.380  0.1955  0.2505  0.2153
 2169WAT     H1 9382   6.008   0.106   6.295  2.8816  0.7406  0.7485
 2169WAT     H2 9383   5.932   0.040   6.387 -0.9301  0.8894 -2.0878
 2169WAT    EPW 9384   5.983   0.095   6.369 -0.0317 -0.4826  0.2032
 2170WAT      O 9385   4.035   6.680   5.532 -0.8147 -0.5687 -0.0375
 2170WAT     H1 9386   4.026   6.767   5.539 -0.9026 -0.7020  2.0773
 2170WAT     H2 9387   3.976   6.658   5.472 -0.2736  0.8988 -1.1698
 2170WAT    EPW 9388   4.025   6.690   5.524  0.4081  0.3015 -0.3534
 2171WAT      O 9389   4.004   7.445   7.599  0.5308  0.4632 -0.0003
 2171WAT     H1 9390   4.018   7.361   7.580 -0.7694 -0.0719  1.3031
 2171WAT     H2 9391   4.085   7.478   7.602  1.1071 -0.8696  0.0565
 2171WAT    EPW 9392   4.018   7.438   7.596  0.5915 -0.2970 -0.2303
 2172WAT      O 9393   6.040   0.015   6.131 -0.5189  0.1997 -0.1343
 2172WAT     H1 9394   5.972   0.063   6.105 -1.4696 -0.7517  0.5258
 2172WAT     H2 9395   6.045  -0.047   6.070  0.7636  1.1133 -1.0348
 2172WAT    EPW 9396   6.031   0.013   6.118  0.4356  0.0750  0.5378
 2173WAT      O 9397   5.687   6.723   6.139  0.2826  0.4580 -0.4100
 2173WAT     H1 9398   5.628   6.659   6.134 -0.0184  0.7514 -0.6620
 2173WAT     H2 9399   5.704   6.729   6.225 -0.7299  0.9682 -0.2327
 2173WAT    EPW 9400   5.681   6.714   6.151 -0.0914 -1.0876 -0.2170
 2174WAT      O 9401   4.871   6.929   6.453 -0.6840 -0.1149 -0.0665
 2174WAT     H1 9402   4.873   6.842   6.449 -0.1813 -0.2050  1.4317
 2174WAT     H2 9403   4.955   6.951   6.465 -0.9314  0.5062  0.6047
 2174WAT    EPW 9404   4.884   6.920   6.454  0.1552  0.1172 -0.6049
 2175WAT      O 9405   4.793   0.225   5.703 -0.2705  0.2809 -0.0692
 2175WAT     H1 9406   4.840   0.207   5.631  0.1685  1.5858 -0.1438
 2175WAT     H2 9407   4.718   0.255   5.671 -0.6974 -0.6213  0.0483
 2175WAT    EPW 9408   4.789   0.227   5.688  0.0501 -0.4443 -1.0057
 2176WAT      O 9409   4.984   6.937   5.799 -0.4556 -0.0268  0.3200
 2176WAT     H1 9410   5.044   6.953   5.738 -0.5768 -0.6755  0.0276
 2176WAT     H2 9411   4.940   6.869   5.767 -1.7152  0.7851  0.2636
 2176WAT    EPW 9412   4.986   6.930   5.785 -0.1334  0.6716 -0.1137
 2177WAT      O 9413   5.075   6.213   6.794 -0.1830  0.0022  0.0926
 2177WAT     H1 9414   5.004   6.173   6.763  1.5477 -0.4969 -3.7543
 2177WAT     H2 9415   5.138   6.154   6.784  1.6565  2.0691 -1.5065
 2177WAT    EPW 9416   5.074   6.199   6.788 -0.1641 -0.6584 -0.1769
 2178WAT      O 9417   4.697   7.270   6.239  0.1959  0.6011 -0.3085
 2178WAT     H1 9418   4.783   7.274   6.224  0.2962  1.7677  0.4626
 2178WAT     H2 9419   4.683   7.186   6.255  1.5769  0.6626  1.5542
 2178WAT    EPW 9420   4.708   7.258   6.239  0.4407 -0.0483  0.2944
 2179WAT      O 9421   5.114   7.878   7.561 -0.0771  0.1269  0.3777
 2179WAT     H1 9422   5.164   7.876   7.489 -0.3136 -1.0947  0.2352
 2179WAT     H2 9423   5.155   7.936   7.612  1.7691 -1.1752  0.4676
 2179WAT    EPW 9424   5.128   7.887   7.558 -0.3834 -0.8532 -0.4658
 2180WAT      O 9425   4.858   7.978   5.313  0.0605  0.2654  0.1144
 2180WAT     H1 9426   4.943   7.957   5.316 -0.3035 -1.9412 -2.0572
 2180WAT     H2 9427   4.859   8.065   5.310  2.2479  0.3078  0.0139
 2180WAT    EPW 9428   4.871   7.988   5.313  1.9317 -0.3854 -0.3674
 2181WAT      O 9429   4.048   6.991   6.245 -0.4487 -0.7014 -0.4606
 2181WAT     H1 9430   4.063   7.059   6.298  0.0735 -0.9111 -0.3268
 2181WAT     H2 9431   4.015   7.028   6.173  0.1225 -0.2666 -0.5073
 2181WAT    EPW 9432   4.046   7.007   6.242 -0.4657 -0.0105  0.1751
 2182WAT      O 9433   5.854   6.692   5.718 -0.2740 -0.1857 -0.3875
 2182WAT     H1 9434   5.936   6.722   5.710 -0.2490  0.1042  0.7627
 2182WAT     H2 9435   5.865   6.607   5.734  0.0964  0.3988  3.5616
 2182WAT    EPW 9436   5.868   6.684   5.719 -0.3074 -0.7401 -0.4863
 2183WAT      O 9437   5.397   0.570   5.980 -0.1526  0.0937 -0.2041
 2183WAT     H1 9438   5.419   0.651   6.003 -0.8377  0.3898 -0.5415
 2183WAT     H2 9439   5.453   0.551   5.916  0.0269  0.3009 -0.1101
 2183WAT    EPW 9440   5.408   0.580   5.974  0.0067 -0.1863  0.7249
 2184WAT      O 9441   3.732   5.769   6.417  0.1676 -0.0708 -0.1917
 2184WAT     H1 9442   3.728   5.764   6.330  1.8095  0.5578 -0.3450
 2184WAT     H2 9443   3.807   5.811   6.432 -0.8845  1.3829  1.4815
 2184WAT    EPW 9444   3.742   5.775   6.407 -0.1604 -0.0377 -0.1437
 2185WAT      O 9445   6.365   8.043   4.375  0.0865 -0.3745  0.0511
 2185WAT     H1 9446   6.408   8.113   4.346  1.3077 -0.3338  1.7971
 2185WAT     H2 9447   6.397   7.978   4.327  0.0215  0.0513 -0.5831
 2185WAT    EPW 9448   6.376   8.044   4.363  0.1775  0.0408 -1.0859
 2186WAT      O 9449   5.831   7.870   4.336  0.1609 -0.0474 -0.0168
 2186WAT     H1 9450   5.757   7.843   4.299 -0.2747 -0.6013  1.2049
 2186WAT     H2 9451   5.828   7.957   4.327  0.1515 -0.1650 -1.3757
 2186WAT    EPW 9452   5.820   7.879   4.329  0.5555  0.2287 -0.5574
 2187WAT      O 9453   6.476   7.890   0.263 -0.6349  0.7791 -0.7311
 2187WAT     H1 9454   6.561   7.875   0.249 -0.9013 -1.2171 -0.5235
 2187WAT     H2 9455   6.452   7.824   0.315 -2.1874  1.6633 -0.2662
 2187WAT    EPW 9456   6.485   7.878   0.268  0.5794 -0.4112 -0.2225
 2188WAT      O 9457   5.624   7.473   7.135  0.3812 -0.1173 -0.2631
 2188WAT     H1 9458   5.689   7.416   7.145  2.3912  1.8377 -1.3337
 2188WAT     H2 9459   5.580   7.443   7.066  1.1136 -0.6223 -0.5200
 2188WAT    EPW 9460   5.627   7.460   7.126 -0.0753  0.2621 -0.6656
 2189WAT      O 9461   6.262   7.582   7.538  0.2339  0.5039  0.0837
 2189WAT     H1 9462   6.325   7.591   7.479  0.1949 -1.5560 -0.3309
 2189WAT     H2 9463   6.303   7.553   7.609 -0.3394 -2.5274 -0.6935
 2189WAT    EPW 9464   6.277   7.579   7.540  0.4253  0.1685 -0.9500
 2190WAT      O 9465   4.315   6.813   7.735 -0.3474 -0.0191 -0.0130
 2190WAT     H1 9466   4.299   6.897   7.720 -1.8157 -0.1490  0.6443
 2190WAT     H2 9467   4.392   6.799   7.696  0.8199  2.0449  1.3443
 2190WAT    EPW 9468   4.324   6.823   7.727 -0.2430  0.0677 -0.4130
 2191WAT      O 9469   4.556   0.794   7.389  0.5641  0.1777  0.0119
 2191WAT     H1 9470   4.637   0.779   7.418  0.2924  0.5207  0.9975
 2191WAT     H2 9471   4.568   0.815   7.305  1.4089 -0.5967 -0.0763
 2191WAT    EPW 9472   4.570   0.795   7.381 -0.5071  0.2450 -0.1392
 2192WAT      O 9473   4.210   6.916   3.213 -0.4815  0.3680  0.2251
 2192WAT     H1 9474   4.267   6.890   3.273 -0.2845 -0.4294 -0.2848
 2192WAT     H2 9475   4.180   6.992   3.244  0.7078  0.7159  0.6021
 2192WAT    EPW 9476   4.214   6.923   3.226 -0.3528 -0.2164  0.4834
 2193WAT      O 9477   5.937   7.022   4.170  0.7628  0.0973  0.2076
 2193WAT     H1 9478   5.995   7.057   4.225  1.2085  2.2195 -1.4972
 2193WAT     H2 9479   5.982   7.014   4.096 -0.4476 -0.5722 -0.4792
 2193WAT    EPW 9480   5.952   7.026   4.167 -0.6540  0.7284 -0.4312
 2194WAT      O 9481   4.844   7.414   2.539  0.2563 -0.9073  0.1953
 2194WAT     H1 9482   4.822   7.373   2.466 -0.0141 -1.5989  0.6568
 2194WAT     H2 9483   4.795   7.376   2.600 -1.1363  1.1022  0.4274
 2194WAT    EPW 9484   4.834   7.402   2.537  0.8727  0.5609 -0.2861
 2195WAT      O 9485   7.159   0.639   2.828  0.1546  0.2344  0.1229
 2195WAT     H1 9486   7.118   0.711   2.799  1.0937  0.1713 -1.4788
 2195WAT     H2 9487   7.182   0.598   2.755  2.4769 -0.0491  0.9268
 2195WAT    EPW 9488   7.156   0.644   2.813  0.3390  0.7979 -0.3587
 2196WAT      O 9489   7.295   7.669   2.855  0.2542 -0.0042 -0.0790
 2196WAT     H1 9490   7.240   7.606   2.829  0.0757 -0.0118  0.3091
 2196WAT     H2 9491   7.254   7.743   2.833 -0.0428 -0.0042  0.4602
 2196WAT    EPW 9492   7.281   7.671   2.848 -0.8311 -0.1495  0.6348
 2197WAT      O 9493   5.057   6.725   3.440 -0.6929 -0.5481  0.2644
 2197WAT     H1 9494   5.114   6.788   3.422 -2.8090  1.8155  1.2407
 2197WAT     H2 9495   5.028   6.700   3.361  1.0095 -1.1791 -0.1902
 2197WAT    EPW 9496   5.061   6.731   3.426  0.2971  0.6484 -0.5932
 2198WAT      O 9497   4.407   7.003   4.330 -0.5171  0.3411  0.2888
 2198WAT     H1 9498   4.488   6.973   4.314 -0.9336 -1.0030  0.5597
 2198WAT     H2 9499   4.356   6.942   4.295 -1.4298  0.1624  1.8582
 2198WAT    EPW 9500   4.412   6.990   4.322 -0.8556 -0.3844  0.0417
 2199WAT      O 9501   5.934   5.510   2.619 -0.0220  0.0792 -0.3741
 2199WAT     H1 9502   5.863   5.560   2.622  1.2282  1.9454  0.6775
 2199WAT     H2 9503   5.955   5.498   2.703  2.2239  1.7679 -0.5612
 2199WAT    EPW 9504   5.927   5.516   2.632  0.0834  0.6381 -0.1050
 2200WAT      O 9505   5.168   7.305   4.006 -0.0740  0.5420  0.1053
 2200WAT     H1 9506   5.089   7.339   4.016  0.1093  1.2509 -0.7549
 2200WAT     H2 9507   5.153   7.221   3.987 -0.6185  0.6763 -0.0508
 2200WAT    EPW 9508   5.154   7.298   4.005 -0.0766  0.3053 -0.5897
 2201WAT      O 9509   6.346   0.821   4.040  0.1986  0.3369 -0.3610
 2201WAT     H1 9510   6.370   0.739   4.055 -1.1469  0.0265  0.2285
 2201WAT     H2 9511   6.408   0.868   4.080  0.0857 -0.4175  0.7349
 2201WAT    EPW 9512   6.359   0.816   4.048  0.0255 -0.3126  0.3404
 2202WAT      O 9513   5.699   6.805   3.853 -0.0457 -0.3226  0.8472
 2202WAT     H1 9514   5.746   6.797   3.927  1.3168 -1.3586 -0.0717
 2202WAT     H2 9515   5.691   6.891   3.842 -1.8020 -0.1024  3.0869
 2202WAT    EPW 9516   5.705   6.816   3.862  0.1010 -0.5015 -0.8312
 2203WAT      O 9517   5.744   7.193   5.517 -0.4229  0.4030  0.5005
 2203WAT     H1 9518   5.757   7.188   5.431 -0.1361 -0.1664  0.5711
 2203WAT     H2 9519   5.824   7.205   5.550 -0.4669  0.1113  0.7203
 2203WAT    EPW 9520   5.758   7.194   5.509 -0.3589  0.6368 -0.7702
 2204WAT      O 9521   5.003   6.497   3.569 -0.2338 -0.6295  0.1041
 2204WAT     H1 9522   5.033   6.575   3.544 -0.6931  0.6048  2.9845
 2204WAT     H2 9523   5.075   6.453   3.589 -0.0426 -0.2220  0.3258
 2204WAT    EPW 9524   5.018   6.502   3.568  0.0096 -0.0738 -0.4109
 2205WAT      O 9525   6.891   0.342   3.177  0.6438 -0.5351 -0.2460
 2205WAT     H1 9526   6.868   0.402   3.236  0.6317 -1.5723  0.8270
 2205WAT     H2 9527   6.874   0.381   3.101  0.4907  0.7647  0.4234
 2205WAT    EPW 9528   6.885   0.357   3.175 -0.1565 -0.1270 -0.5754
 2206WAT      O 9529   5.265   7.105   3.680  0.2276 -0.1667 -0.5074
 2206WAT     H1 9530   5.278   7.064   3.604 -1.9715 -0.4499 -0.7903
 2206WAT     H2 9531   5.302   7.183   3.667  0.1331 -0.3077 -1.7910
 2206WAT    EPW 9532   5.272   7.110   3.667 -0.0939 -0.2124 -1.1060
 2207WAT      O 9533   4.540   5.263   4.094 -0.0893  0.1916  0.0510
 2207WAT     H1 9534   4.476   5.305   4.052 -1.1617 -0.7612  0.6576
 2207WAT     H2 9535   4.502   5.238   4.168  0.7702 -1.0158  0.1174
 2207WAT    EPW 9536   4.525   5.265   4.099  0.6739  0.1615  0.4822
 2208WAT      O 9537   4.953   7.699   3.991  0.0950 -0.4493 -0.2937
 2208WAT     H1 9538   4.970   7.699   4.076  1.7302  0.5150 -0.5752
 2208WAT     H2 9539   5.028   7.671   3.955 -0.2007  0.1884 -1.4569
 2208WAT    EPW 9540   4.967   7.695   3.998  0.6574  0.2485 -0.8069
 2209WAT      O 9541   6.897   7.630   3.119  0.6668  0.1380 -0.0629
 2209WAT     H1 9542   6.875   7.547   3.110  1.5764 -0.0423 -0.7609
 2209WAT     H2 9543   6.965   7.627   3.174 -0.3794  0.5924  1.3073
 2209WAT    EPW 9544   6.904   7.618   3.126 -0.4328  1.0314  0.8713
 2210WAT      O 9545   3.483   6.228   5.202 -0.0878 -0.2884  0.3741
 2210WAT     H1 9546   3.477   6.237   5.116 -1.2487  0.0522  0.4741
 2210WAT     H2 9547   3.458   6.306   5.233 -1.3803 -0.9341  1.0480
 2210WAT    EPW 9548   3.478   6.241   5.194 -0.3699  0.5964  0.5665
 2211WAT      O 9549   6.614   7.254   3.708  0.1560 -0.1688  0.5752
 2211WAT     H1 9550   6.558   7.251   3.775  1.0754 -1.2644  1.3413
 2211WAT     H2 9551   6.692   7.242   3.746  0.7071 -0.7905 -0.6775
 2211WAT    EPW 9552   6.617   7.252   3.723 -0.2686 -0.4832 -0.1135
 2212WAT      O 9553   6.600   7.545   2.812  0.7224 -0.2051  0.4923
 2212WAT     H1 9554   6.544   7.481   2.831 -0.5441 -0.4298 -3.2135
 2212WAT     H2 9555   6.677   7.505   2.810  0.1893 -1.2245 -0.0188
 2212WAT    EPW 9556   6.603   7.530   2.814 -1.0681 -0.0812  0.0534
 2213WAT      O 9557   5.277   7.062   2.525  0.4184 -0.2853  0.0743
 2213WAT     H1 9558   5.198   7.055   2.560 -0.0338 -0.1385 -0.8865
 2213WAT     H2 9559   5.277   7.142   2.490  1.2872  0.0271  0.7732
 2213WAT    EPW 9560   5.266   7.073   2.525 -0.8646  0.1379 -0.4123
 2214WAT      O 9561   5.920   7.800   2.947 -0.1243  0.2034 -0.0056
 2214WAT     H1 9562   5.929   7.805   2.861 -0.3956 -0.4209 -0.0767
 2214WAT     H2 9563   6.002   7.788   2.976 -0.2617 -2.1421 -0.3894
 2214WAT    EPW 9564   5.934   7.799   2.939 -0.9709 -0.6698 -0.6531
 2215WAT      O 9565   4.887   6.499   4.643  0.0147 -0.4927  0.0775
 2215WAT     H1 9566   4.894   6.511   4.729  0.4545  0.0864 -0.0313
 2215WAT     H2 9567   4.907   6.577   4.610  1.0487 -1.0188 -0.5945
 2215WAT    EPW 9568   4.891   6.512   4.651 -0.1882  0.5192 -0.3174
 2216WAT      O 9569   7.662   7.870   3.905  0.6408  0.4356 -0.6085
 2216WAT     H1 9570   7.575   7.867   3.892  0.0440 -1.0611  2.7057
 2216WAT     H2 9571   7.677   7.953   3.928  0.7482  1.5216 -4.0600
 2216WAT    EPW 9572   7.651   7.882   3.906  0.4959  0.3739 -0.1813
 2217WAT      O 9573   5.583   7.491   3.096 -0.4579  0.3613  0.0321
 2217WAT     H1 9574   5.638   7.525   3.037 -1.5240  0.8675 -0.7108
 2217WAT     H2 9575   5.556   7.418   3.058  0.6917 -0.5942  0.9836
 2217WAT    EPW 9576   5.587   7.486   3.082 -0.2600  0.6635  0.3753
 2218WAT      O 9577   4.869   6.347   3.384 -0.2969 -0.3354 -0.0262
 2218WAT     H1 9578   4.927   6.340   3.319 -1.3084  2.2506 -1.3824
 2218WAT     H2 9579   4.906   6.404   3.438 -1.0916  0.5508 -0.3911
 2218WAT    EPW 9580   4.883   6.354   3.382 -0.0004 -0.2181 -0.6858
 2219WAT      O 9581   5.372   6.797   2.665 -0.4224 -0.4460  0.4873
 2219WAT     H1 9582   5.368   6.872   2.621 -2.6715 -0.9184 -0.2409
 2219WAT     H2 9583   5.455   6.773   2.656  0.7591  2.5577  1.9040
 2219WAT    EPW 9584   5.383   6.805   2.657  0.4180  0.4505 -0.7070
 2220WAT      O 9585   6.224   0.026   3.114  0.7410  0.0911  0.3391
 2220WAT     H1 9586   6.240  -0.041   3.061 -1.3763  0.3330 -0.7124
 2220WAT     H2 9587   6.159  -0.003   3.164  0.4355  1.0170  0.4943
 2220WAT    EPW 9588   6.216   0.012   3.113  0.3778  0.4812 -0.3735
 2221WAT      O 9589   5.590   7.627   2.156 -0.0574  0.4855 -0.1967
 2221WAT     H1 9590   5.634   7.554   2.140 -1.8986 -0.4743 -1.1298
 2221WAT     H2 9591   5.508   7.601   2.167 -1.2422  2.5468 -2.8607
 2221WAT    EPW 9592   5.584   7.613   2.155 -0.3814 -0.3492 -0.7218
 2222WAT      O 9593   5.295   6.915   3.904 -0.3803 -0.2377  0.0882
 2222WAT     H1 9594   5.329   6.846   3.863 -0.4503  0.0709 -0.5119
 2222WAT     H2 9595   5.287   6.974   3.840  1.3821  0.9871  0.9290
 2222WAT    EPW 9596   5.299   6.913   3.888  0.0091  0.0743  0.9506
 2223WAT      O 9597   6.197   0.074   3.556 -0.7348 -0.1008  0.5906
 2223WAT     H1 9598   6.238   0.025   3.616  0.1078  0.4127  0.4529
 2223WAT     H2 9599   6.249   0.069   3.486 -2.8524 -2.6543 -1.0002
 2223WAT    EPW 9600   6.211   0.066   3.555  0.3596  0.1457 -0.2885
 2224WAT      O 9601   5.093   7.712   2.801  0.6413  0.0818 -0.5108
 2224WAT     H1 9602   5.121   7.633   2.777  1.5332  0.0032  0.7048
 2224WAT     H2 9603   5.017   7.720   2.760  1.3024 -0.7192 -1.9628
 2224WAT    EPW 9604   5.086   7.701   2.792  0.6295  0.1876 -0.0919
 2225WAT      O 9605   5.794   0.132   4.661  0.2388  0.4977 -0.1394
 2225WAT     H1 9606   5.867   0.165   4.695 -0.5400  0.1448  2.0303
 2225WAT     H2 9607   5.787   0.053   4.697 -1.2426  0.5513 -0.2098
 2225WAT    EPW 9608   5.803   0.125   4.671  0.3891  0.4554  0.1914
 2226WAT      O 9609   5.214   5.939   3.769 -0.2480 -0.0666  0.0397
 2226WAT     H1 9610   5.145   5.987   3.795  0.0436  1.7771 -2.2380
 2226WAT     H2 9611   5.282   5.989   3.788  0.2541 -0.5692 -0.4084
 2226WAT    EPW 9612   5.214   5.953   3.775 -0.2415 -0.0165 -0.0902
 2227WAT      O 9613   4.725   7.630   4.202 -0.2712 -0.8829  0.2499
 2227WAT     H1 9614   4.649   7.593   4.223 -1.5917  1.7773  0.5313
 2227WAT     H2 9615   4.768   7.633   4.278 -0.5284 -1.0241  0.4002
 2227WAT    EPW 9616   4.720   7.625   4.217 -0.0504  0.2210 -0.3721
 2228WAT      O 9617   6.177   7.393   3.658 -0.5630 -0.4316 -0.2919
 2228WAT     H1 9618   6.195   7.477   3.672 -1.3246  0.1247 -2.2715
 2228WAT     H2 9619   6.216   7.352   3.724  0.7173  1.3858  0.1556
 2228WAT    EPW 9620   6.185   7.399   3.670  0.2989  0.2861 -0.1701
 2229WAT      O 9621   5.145   6.948   3.326  0.8132  0.2751 -0.0038
 2229WAT     H1 9622   5.129   6.957   3.241  1.2683 -0.4066 -0.1684
 2229WAT     H2 9623   5.123   7.026   3.359  0.0860  0.3562 -0.6534
 2229WAT    EPW 9624   5.140   6.961   3.318 -0.5350  0.2900  0.6934
 2230WAT      O 9625   4.550   0.337   4.909  0.3331  0.3570  0.0254
 2230WAT     H1 9626   4.612   0.279   4.890 -0.7892 -0.3631 -1.7203
 2230WAT     H2 9627   4.537   0.327   4.995  1.2063 -0.9066  0.0230
 2230WAT    EPW 9628   4.557   0.327   4.919 -0.1755  0.2063  0.6302
 2231WAT      O 9629   6.999   7.312   4.485 -0.1129  0.5426 -0.3952
 2231WAT     H1 9630   6.928   7.277   4.447 -0.7779  0.2311  1.0536
 2231WAT     H2 9631   6.980   7.396   4.491 -0.7434  0.3432  0.7106
 2231WAT    EPW 9632   6.986   7.319   4.480  0.2827 -0.6770 -0.3998
 2232WAT      O 9633   5.106   7.273   2.870 -0.4144 -0.2354  0.0098
 2232WAT     H1 9634   5.085   7.338   2.816  2.3400 -0.0681 -1.0340
 2232WAT     H2 9635   5.170   7.232   2.828  1.9143 -0.0977  3.1036
 2232WAT    EPW 9636   5.112   7.276   2.856  0.6636  0.4655  0.0651
 2233WAT      O 9637   5.392   6.408   2.537 -0.4395  0.5352 -0.4808
 2233WAT     H1 9638   5.367   6.341   2.488 -1.9048 -0.4265  1.4520
 2233WAT     H2 9639   5.341   6.474   2.511  0.1781  0.6163 -1.5568
 2233WAT    EPW 9640   5.381   6.408   2.526  0.2128  0.0941  0.2992
 2234WAT      O 9641   6.856   7.188   3.822  0.4195 -0.7244 -0.7860
 2234WAT     H1 9642   6.879   7.272   3.814 -0.5900 -0.2619  0.6791
 2234WAT     H2 9643   6.870   7.171   3.906 -1.1147 -1.4495 -0.6369
 2234WAT    EPW 9644   6.862   7.198   3.833 -0.2344  0.1946 -0.6623
 2235WAT      O 9645   5.217   7.929   4.212  0.1708  0.4636 -0.6545
 2235WAT     H1 9646   5.264   7.864   4.178 -0.9684 -0.0784 -1.2829
 2235WAT     H2 9647   5.258   8.001   4.185  1.0241  0.0149 -0.5899
 2235WAT    EPW 9648   5.230   7.930   4.203  0.4582  0.1185 -0.3692
 2236WAT      O 9649   4.989   0.025   5.065 -0.1562 -0.4678  0.1921
 2236WAT     H1 9650   4.911   0.058   5.081 -0.1125 -0.4242  0.3093
 2236WAT     H2 9651   5.035   0.043   5.136 -0.0168 -0.4257  0.0921
 2236WAT    EPW 9652   4.984   0.033   5.078  0.4303  0.3501 -0.3640
 2237WAT      O 9653   4.970   6.651   3.171  0.2729  0.2420 -0.3665
 2237WAT     H1 9654   4.984   6.709   3.107  0.4541 -1.7095 -2.2311
 2237WAT     H2 9655   4.951   6.578   3.128  0.7911 -1.2992  1.8399
 2237WAT    EPW 9656   4.970   6.649   3.155  0.0801  0.4903  0.2238
 2238WAT      O 9657   4.948   7.535   3.569  0.4056 -0.4095  0.1192
 2238WAT     H1 9658   4.980   7.614   3.589  3.0647 -1.5219  0.5898
 2238WAT     H2 9659   4.929   7.500   3.647 -2.8794  0.4457 -0.1428
 2238WAT    EPW 9660   4.950   7.542   3.584  0.0421 -0.1947 -0.5975
 2239WAT      O 9661   4.710   0.111   3.005 -0.1587  0.2583 -0.0939
 2239WAT     H1 9662   4.749   0.180   2.968  1.4138 -1.1406 -1.2005
 2239WAT     H2 9663   4.740   0.111   3.086  2.3237 -0.8001 -0.9278
 2239WAT    EPW 9664   4.720   0.122   3.011 -0.2303 -0.6951 -0.1572
 2240WAT      O 9665   6.895   6.992   3.450  0.3049  0.0558  0.0681
 2240WAT     H1 9666   6.945   6.921   3.457 -0.2189 -0.2349  1.1124
 2240WAT     H2 9667   6.952   7.058   3.460  0.5557 -0.2594  0.8178
 2240WAT    EPW 9668   6.911   6.991   3.453  0.3682 -0.4226 -0.8057
 2241WAT      O 9669   5.497   7.192   3.453 -0.2516 -0.2311  0.2314
 2241WAT     H1 9670   5.462   7.272   3.456  0.3211  0.0040  1.4441
 2241WAT     H2 9671   5.581   7.206   3.472  0.0939 -1.0065 -0.6621
 2241WAT    EPW 9672   5.504   7.206   3.456  0.0857  0.0573 -0.5584
 2242WAT      O 9673   3.938   6.686   3.459 -0.2518  0.1668  0.4866
 2242WAT     H1 9674   4.005   6.710   3.509  0.7200 -1.5155  0.0706
 2242WAT     H2 9675   3.902   6.762   3.434 -1.5007  1.1357  4.5425
 2242WAT    EPW 9676   3.943   6.700   3.463  0.9132  0.3965  0.5658
 2243WAT      O 9677   4.184   7.196   4.518  0.2667  0.2585 -1.4011
 2243WAT     H1 9678   4.134   7.253   4.561  1.0346 -0.3348  0.3929
 2243WAT     H2 9679   4.265   7.219   4.541  0.6317 -0.8942 -1.4547
 2243WAT    EPW 9680   4.189   7.207   4.528 -0.0360  0.0727 -0.9039
 2244WAT      O 9681   6.092   6.596   3.983  0.2055  0.2662  0.3689
 2244WAT     H1 9682   6.120   6.515   3.995 -0.9877 -0.0246  1.2833
 2244WAT     H2 9683   6.163   6.645   4.002  0.2246 -0.4589  2.4077
 2244WAT    EPW 9684   6.107   6.591   3.987  0.1004  0.6599 -0.4641
 2245WAT      O 9685   6.459   7.891   2.934  0.3519 -0.5491  0.3256
 2245WAT     H1 9686   6.471   7.821   2.985 -0.7276 -1.0178 -0.0280
 2245WAT     H2 9687   6.402   7.863   2.874 -0.6754  0.8286  0.5961
 2245WAT    EPW 9688   6.453   7.877   2.933 -0.2769 -0.2635  0.4512
 2246WAT      O 9689   4.669   0.424   4.030 -0.8640  0.4568 -0.2675
 2246WAT     H1 9690   4.729   0.362   4.041  0.3827  1.6699  0.2054
 2246WAT     H2 9691   4.705   0.478   3.972 -2.2045  0.4015 -1.1912
 2246WAT    EPW 9692   4.683   0.423   4.023 -0.8588 -0.3351 -0.2916
 2247WAT      O 9693   5.477   0.996   3.823 -1.0947 -0.0899 -0.3913
 2247WAT     H1 9694   5.534   0.932   3.804 -1.1340 -0.7144  1.3848
 2247WAT     H2 9695   5.528   1.065   3.839 -0.8101 -0.5628  0.8728
 2247WAT    EPW 9696   5.493   0.997   3.823 -0.0483  0.4744 -0.7100
 2248WAT      O 9697   5.819   6.866   3.530  0.0373  0.7105 -0.1608
 2248WAT     H1 9698   5.839   6.861   3.445 -0.4398  0.9539 -0.2903
 2248WAT     H2 9699   5.896   6.880   3.568  0.2314  0.7724 -0.5693
 2248WAT    EPW 9700   5.833   6.867   3.523 -0.3742  0.2821  0.2399
 2249WAT      O 9701   6.347   0.750   4.661  0.0531 -0.0829  0.1862
 2249WAT     H1 9702   6.340   0.762   4.575 -1.3556 -0.1659  0.2746
 2249WAT     H2 9703   6.360   0.831   4.692 -2.5123  0.4128  0.1493
 2249WAT    EPW 9704   6.348   0.764   4.652 -0.2171  0.5440 -0.5294
 2250WAT      O 9705   5.137   0.551   3.438 -0.7408  0.3646 -0.2540
 2250WAT     H1 9706   5.147   0.575   3.521 -2.1560 -0.9513  0.3438
 2250WAT     H2 9707   5.147   0.464   3.440 -1.2564  0.2619 -1.3696
 2250WAT    EPW 9708   5.140   0.542   3.450  1.4633 -0.2157 -1.1146
 2251WAT      O 9709   3.666   0.085   4.116  0.4750  0.2051  0.2965
 2251WAT     H1 9710   3.601   0.098   4.060  0.8991 -0.4628 -0.3724
 2251WAT     H2 9711   3.654   0.147   4.176 -0.7475  0.1244  0.1663
 2251WAT    EPW 9712   3.655   0.096   4.117 -0.4333 -0.4403 -0.8586
 2252WAT      O 9713   6.209   7.473   2.484  0.2808 -0.6951  0.9892
 2252WAT     H1 9714   6.282   7.515   2.505  0.8201 -1.3248  0.4281
 2252WAT     H2 9715   6.160   7.535   2.445  0.7210 -0.3940  0.9136
 2252WAT    EPW 9716   6.212   7.489   2.481 -0.0343 -0.6578 -0.4398
 2253WAT      O 9717   5.168   6.861   3.051 -0.5778 -0.4735  0.4052
 2253WAT     H1 9718   5.147   6.823   2.975 -2.2113  0.2587  0.4516
 2253WAT     H2 9719   5.253   6.844   3.059 -0.7995 -2.3476 -0.5634
 2253WAT    EPW 9720   5.178   6.853   3.041 -0.3524  0.0058 -0.6310
 2254WAT      O 9721   5.813   7.989   3.103 -0.3379 -0.4564 -0.1090
 2254WAT     H1 9722   5.813   8.057   3.049  1.2977  0.1341  0.5486
 2254WAT     H2 9723   5.822   7.920   3.051 -1.1190 -0.1105 -0.7183
 2254WAT    EPW 9724   5.814   7.988   3.087 -0.2776  0.2172 -0.5660
 2255WAT      O 9725   5.660   6.894   3.094 -0.0788  0.3413  0.1606
 2255WAT     H1 9726   5.682   6.973   3.124 -0.1199  1.3012 -2.1678
 2255WAT     H2 9727   5.691   6.893   3.013  2.7186 -3.2511  1.0078
 2255WAT    EPW 9728   5.668   6.906   3.087 -0.5379  0.9845  0.0289
 2256WAT      O 9729   5.958   7.248   4.553  0.1140 -0.2896  0.4370
 2256WAT     H1 9730   5.942   7.320   4.598  1.1113  0.4160 -0.2873
 2256WAT     H2 9731   6.020   7.207   4.600  1.0891  0.4014 -0.2122
 2256WAT    EPW 9732   5.965   7.252   4.566  0.2763 -0.7732  0.2027
 2257WAT      O 9733   4.928   7.069   3.721  0.6920 -0.0778  0.3045
 2257WAT     H1 9734   4.898   7.140   3.760 -0.8473  0.4512 -1.6740
 2257WAT     H2 9735   5.015   7.077   3.728  0.7547  3.3188 -1.8556
 2257WAT    EPW 9736   4.937   7.080   3.728 -0.1050 -0.2662 -0.6779
 2258WAT      O 9737   6.612   0.262   3.106  0.0300  0.2805  0.1584
 2258WAT     H1 9738   6.692   0.280   3.135  1.0231 -0.2978 -2.0174
 2258WAT     H2 9739   6.611   0.176   3.098  0.6354  0.4513 -3.3577
 2258WAT    EPW 9740   6.623   0.252   3.109  0.6938 -0.7702 -0.0246
 2259WAT      O 9741   5.545   7.219   1.824 -0.1429 -0.1224  0.0217
 2259WAT     H1 9742   5.557   7.136   1.849 -0.0245 -0.0485  0.2098
 2259WAT     H2 9743   5.459   7.226   1.815 -0.2166 -0.0333  0.7962
 2259WAT    EPW 9744   5.534   7.208   1.826 -0.6363  0.7704 -0.3739
 2260WAT      O 9745   6.467   7.045   4.037  0.1516  0.3332 -0.3250
 2260WAT     H1 9746   6.456   7.036   4.123 -0.4242 -1.1380 -0.5331
 2260WAT     H2 9747   6.542   7.091   4.031 -0.4954  1.6442  0.9519
 2260WAT    EPW 9748   6.477   7.051   4.049  0.1027  0.8577 -0.0943
 2261WAT      O 9749   6.096   6.769   4.711 -0.5518  0.0115 -0.0835
 2261WAT     H1 9750   6.133   6.697   4.680 -1.0387 -0.2677 -0.0200
 2261WAT     H2 9751   6.060   6.806   4.641 -0.2354  0.2312 -0.1291
 2261WAT    EPW 9752   6.096   6.764   4.696 -0.0149 -0.3628 -0.1831
 2262WAT      O 9753   5.741   7.527   6.045 -0.2304  0.3677 -0.0789
 2262WAT     H1 9754   5.697   7.548   6.117 -1.2196 -1.5707 -0.0718
 2262WAT     H2 9755   5.824   7.540   6.068 -0.4427 -1.2429  1.8180
 2262WAT    EPW 9756   5.747   7.532   6.059 -0.1559  0.2811  0.0094
 2263WAT      O 9757   2.826   6.414   4.792 -0.3365  0.1467  0.3611
 2263WAT     H1 9758   2.846   6.437   4.874  1.7114  0.8494 -0.2624
 2263WAT     H2 9759   2.804   6.489   4.754 -0.3780 -0.0264  0.0354
 2263WAT    EPW 9760   2.826   6.428   4.798  0.3189  0.0252 -0.2119
 2264WAT      O 9761   5.886   7.772   4.908  1.0163  0.2733  0.1038
 2264WAT     H1 9762   5.832   7.835   4.882  2.8133  1.6063 -0.5808
 2264WAT     H2 9763   5.843   7.734   4.973 -0.8716  1.0511 -0.6214
 2264WAT    EPW 9764   5.871   7.776   4.914 -0.2534  0.8440  0.3149
 2265WAT      O 9765   4.156   6.979   4.682  0.5903 -0.2580 -0.3748
 2265WAT     H1 9766   4.165   7.041   4.621 -1.0409  0.0182 -0.3929
 2265WAT     H2 9767   4.229   6.933   4.676  0.4274 -0.3297 -2.6687
 2265WAT    EPW 9768   4.168   6.982   4.672 -0.2833 -1.1836 -0.0051
 2266WAT      O 9769   5.874   7.442   3.676  0.1686 -0.3954 -0.4839
 2266WAT     H1 9770   5.836   7.371   3.641 -1.2501 -0.2961  0.7356
 2266WAT     H2 9771   5.934   7.408   3.729 -0.4915 -0.7200  0.0825
 2266WAT    EPW 9772   5.877   7.426   3.679 -0.3059 -0.3112  0.1584
 2267WAT      O 9773   6.456   7.031   3.426 -0.0792 -0.7769 -0.0131
 2267WAT     H1 9774   6.494   7.074   3.360 -1.1864  1.6371  0.8077
 2267WAT     H2 9775   6.523   7.008   3.477  0.5080  0.9180  0.0193
 2267WAT    EPW 9776   6.472   7.034   3.423 -0.3516  0.6568  0.2806
 2268WAT      O 9777   6.849   7.645   3.931  0.0727 -1.0769 -0.2445
 2268WAT     H1 9778   6.853   7.614   4.012 -1.0957 -1.2572 -0.2419
 2268WAT     H2 9779   6.770   7.681   3.926  0.3984 -0.4372 -1.0855
 2268WAT    EPW 9780   6.838   7.646   3.942  0.1361  0.4237  0.2070
 2269WAT      O 9781   6.340   7.942   3.708 -0.1592 -0.4307 -0.1106
 2269WAT     H1 9782   6.426   7.929   3.695 -0.1441 -0.2809 -0.1580
 2269WAT     H2 9783   6.338   7.993   3.779 -0.2135 -0.5159 -0.0499
 2269WAT    EPW 9784   6.353   7.948   3.717  0.2538 -0.1350 -0.2531
 2270WAT      O 9785   5.109   7.192   4.986  0.1240  0.2510 -0.1114
 2270WAT     H1 9786   5.099   7.109   5.010 -0.5490  0.3846  0.0992
 2270WAT     H2 9787   5.045   7.233   5.029 -0.5490  0.6412 -1.4303
 2270WAT    EPW 9788   5.098   7.186   4.996 -0.7506 -0.1827 -0.1074
 2271WAT      O 9789   7.625   7.355   3.730 -0.1127  0.1766  0.6009
 2271WAT     H1 9790   7.544   7.325   3.715 -0.3145  1.0603 -0.1471
 2271WAT     H2 9791   7.622   7.437   3.702  1.6170 -0.3522 -1.4359
 2271WAT    EPW 9792   7.613   7.363   3.724 -0.1271 -0.8659  0.6721
 2272WAT      O 9793   4.985   6.990   5.348  0.1934 -0.1027  0.3714
 2272WAT     H1 9794   5.047   6.953   5.398  1.1963 -1.2701 -1.6279
 2272WAT     H2 9795   4.920   7.005   5.405  1.6318 -0.4013  2.2169
 2272WAT    EPW 9796   4.984   6.987   5.364 -1.7309 -0.6790 -0.0270
 2273WAT      O 9797   7.896   7.108   3.524 -0.1398 -0.1322 -0.1886
 2273WAT     H1 9798   7.927   7.110   3.442 -0.1991  0.6522 -0.1920
 2273WAT     H2 9799   7.954   7.155   3.569 -1.1463  1.1022 -0.1386
 2273WAT    EPW 9800   7.909   7.115   3.518  0.4255 -1.0303  0.3771
 2274WAT      O 9801   6.325   7.816   2.438  0.0051  0.1685 -0.0311
 2274WAT     H1 9802   6.297   7.796   2.518 -0.6424 -1.1045 -0.5587
 2274WAT     H2 9803   6.411   7.828   2.449  0.1091 -1.0955  0.6650
 2274WAT    EPW 9804   6.333   7.815   2.451 -0.4039  0.2041 -0.7072
 2275WAT      O 9805   5.305   7.568   4.374  0.3722 -0.5552  0.9539
 2275WAT     H1 9806   5.375   7.619   4.383  0.0537  0.0149  0.2732
 2275WAT     H2 9807   5.335   7.500   4.327  0.1599  0.3855 -0.6080
 2275WAT    EPW 9808   5.319   7.565   4.368 -0.3134  0.1959  0.0928
 2276WAT      O 9809   5.156   0.927   3.793  0.0603  0.4210 -0.0352
 2276WAT     H1 9810   5.150   0.845   3.764  1.0719 -0.0474  1.0133
 2276WAT     H2 9811   5.089   0.934   3.848  0.2491  0.1363  0.2340
 2276WAT    EPW 9812   5.145   0.916   3.797 -0.0359  0.8116  0.3179
 2277WAT      O 9813   6.529   7.585   4.064  0.3502  0.5313  0.3787
 2277WAT     H1 9814   6.576   7.650   4.031  0.9584  0.9622  1.9972
 2277WAT     H2 9815   6.447   7.608   4.046  0.6474  0.5188 -1.1488
 2277WAT    EPW 9816   6.524   7.598   4.056 -0.2120 -0.3877  0.9227
 2278WAT      O 9817   7.529   0.696   2.272  0.4100  0.1443  0.3069
 2278WAT     H1 9818   7.444   0.700   2.290  0.0852  0.9666 -1.2274
 2278WAT     H2 9819   7.562   0.767   2.312  0.3739 -0.1157  0.8078
 2278WAT    EPW 9820   7.522   0.707   2.281  0.7794 -0.0632 -0.8853
 2279WAT      O 9821   4.919   6.663   3.999 -0.3120  0.6520  0.1571
 2279WAT     H1 9822   4.886   6.584   3.980  0.9700  0.1365 -0.0371
 2279WAT     H2 9823   4.905   6.709   3.926 -1.4927  0.7639  0.4387
 2279WAT    EPW 9824   4.912   6.658   3.985  0.2380  0.6071 -0.4838
 2280WAT      O 9825   6.726   7.583   4.684 -0.1747 -0.0715 -0.3184
 2280WAT     H1 9826   6.672   7.538   4.633  0.1680  1.7304 -2.3949
 2280WAT     H2 9827   6.718   7.665   4.656  1.1745  0.7698  1.5513
 2280WAT    EPW 9828   6.717   7.588   4.672  0.1483 -0.4303  0.1100
 2281WAT      O 9829   7.830   7.401   2.073 -0.9065  0.6029 -0.3727
 2281WAT     H1 9830   7.805   7.340   2.015  0.0145  0.1498 -0.2980
 2281WAT     H2 9831   7.787   7.472   2.045 -1.3176  0.1409 -0.9751
 2281WAT    EPW 9832   7.820   7.403   2.060  0.1412 -0.2206 -0.3964
 2282WAT      O 9833   3.445   6.918   4.867 -0.9167 -0.3390 -0.2856
 2282WAT     H1 9834   3.476   6.918   4.785 -0.0463 -2.0891  0.0025
 2282WAT     H2 9835   3.503   6.869   4.911  0.7169  3.4375  2.2484
 2282WAT    EPW 9836   3.458   6.911   4.861 -0.2891 -0.0887 -0.7754
 2283WAT      O 9837   4.788   7.161   3.489  0.1049 -0.1433 -0.5337
 2283WAT     H1 9838   4.825   7.240   3.482 -0.6561  0.1988 -0.7970
 2283WAT     H2 9839   4.828   7.126   3.558  0.4556  0.4747 -0.4159
 2283WAT    EPW 9840   4.799   7.168   3.498  0.0803 -0.4743 -1.1189
 2284WAT      O 9841   6.315   7.286   3.891 -0.0551 -0.1512  0.1009
 2284WAT     H1 9842   6.348   7.217   3.932  0.6435  0.3062  0.3319
 2284WAT     H2 9843   6.320   7.349   3.951  0.5313  0.4133 -0.5323
 2284WAT    EPW 9844   6.320   7.285   3.906 -0.4820  0.5238  0.4819
 2285WAT      O 9845   7.147   7.940   3.681  0.3783  0.2229 -0.3514
 2285WAT     H1 9846   7.151   7.861   3.718 -0.9626  0.8902  1.3437
 2285WAT     H2 9847   7.161   7.994   3.748  0.2140  1.4501 -1.2856
 2285WAT    EPW 9848   7.150   7.936   3.696  0.4460 -0.0989  0.3534
 2286WAT      O 9849   6.049   7.218   5.360  0.2607  0.1680 -0.6997
 2286WAT     H1 9850   6.114   7.161   5.366 -0.8891 -1.0602  1.0461
 2286WAT     H2 9851   6.040   7.230   5.275  0.8961 -1.8466 -1.1018
 2286WAT    EPW 9852   6.057   7.212   5.349  0.2089  0.7902 -0.6311
 2287WAT      O 9853   4.876   0.725   3.460 -0.4963 -0.7656 -0.3311
 2287WAT     H1 9854   4.927   0.654   3.455 -0.8690 -1.1152  0.7065
 2287WAT     H2 9855   4.827   0.719   3.388  1.0835 -0.2690 -1.5218
 2287WAT    EPW 9856   4.876   0.713   3.448  0.2538  0.6915  0.1212
 2288WAT      O 9857   4.796   7.323   5.184  0.7582  0.1189 -0.1582
 2288WAT     H1 9858   4.775   7.378   5.120 -0.3964  0.0655  0.1448
 2288WAT     H2 9859   4.877   7.348   5.207  0.6932  0.9479 -0.7773
 2288WAT    EPW 9860   4.805   7.335   5.178 -0.0252 -0.3491  0.6746
 2289WAT      O 9861   8.045   0.240   3.773 -0.2564 -0.9848 -0.3124
 2289WAT     H1 9862   8.084   0.166   3.746  1.0963  0.6347 -3.3000
 2289WAT     H2 9863   8.104   0.276   3.826  1.0070 -0.1528 -2.1685
 2289WAT    EPW 9864   8.059   0.234   3.777 -0.1062 -0.3829  0.6519
 2290WAT      O 9865   4.268   6.265   3.958 -0.1207 -0.0242 -0.3631
 2290WAT     H1 9866   4.315   6.231   4.023 -2.4485 -0.5207  1.1917
 2290WAT     H2 9867   4.305   6.343   3.944  1.6206 -0.7089  0.1888
 2290WAT    EPW 9868   4.280   6.272   3.965  0.1459 -0.5012 -0.0291
 2291WAT      O 9869   6.071   6.864   2.819 -0.3960 -0.0926  0.2759
 2291WAT     H1 9870   6.088   6.878   2.904  1.0308 -2.3027  0.4222
 2291WAT     H2 9871   5.988   6.891   2.810 -0.2461  1.1571  2.1055
 2291WAT    EPW 9872   6.061   6.870   2.830  1.1360 -0.2539 -0.6376
 2292WAT      O 9873   5.576   0.430   3.930  0.0650  0.3507  0.6545
 2292WAT     H1 9874   5.562   0.381   3.859 -1.2931  0.9048  0.4988
 2292WAT     H2 9875   5.656   0.407   3.956 -0.9087 -2.7812  1.2779
 2292WAT    EPW 9876   5.585   0.420   3.923  0.0237 -0.3994 -0.1871
 2293WAT      O 9877   5.804   7.268   4.103 -0.2232 -0.0088 -0.2590
 2293WAT     H1 9878   5.814   7.193   4.146 -2.8347 -1.4578 -1.9483
 2293WAT     H2 9879   5.872   7.270   4.048  0.7796 -0.2403  0.9197
 2293WAT    EPW 9880   5.816   7.258   4.101  0.0187  0.1464  0.3386
 2294WAT      O 9881   5.444   7.315   5.864  0.7799  0.2557  0.1427
 2294WAT     H1 9882   5.458   7.306   5.779  1.1867  0.6598  0.1660
 2294WAT     H2 9883   5.387   7.252   5.882  1.3929 -0.4329 -0.2571
 2294WAT    EPW 9884   5.438   7.304   5.854 -0.3311 -0.1659 -1.0157
 2295WAT      O 9885   5.247   6.590   2.195  0.5076  0.7263  0.3381
 2295WAT     H1 9886   5.330   6.610   2.176  1.2352 -2.1322  0.0323
 2295WAT     H2 9887   5.245   6.588   2.282  0.1804  2.6630  0.4238
 2295WAT    EPW 9888   5.259   6.593   2.205 -0.3249  0.8720  0.1624
 2296WAT      O 9889   6.383   6.521   4.106  0.1636 -0.5413  0.1767
 2296WAT     H1 9890   6.310   6.474   4.099  0.7403 -1.2785 -1.5443
 2296WAT     H2 9891   6.395   6.529   4.192 -0.7030 -2.3942  0.5092
 2296WAT    EPW 9892   6.374   6.515   4.118 -0.7089  0.1766  0.6634
 2297WAT      O 9893   5.252   7.822   2.232  0.2833 -0.0950 -0.0788
 2297WAT     H1 9894   5.192   7.859   2.283  3.2621 -0.0538  3.9234
 2297WAT     H2 9895   5.272   7.885   2.174 -0.7587  1.3281  1.0338
 2297WAT    EPW 9896   5.246   7.837   2.231 -0.2574 -0.3836  0.3468
 2298WAT      O 9897   6.842   6.905   3.895  0.1433 -0.0733  0.1542
 2298WAT     H1 9898   6.901   6.862   3.847  0.8682  0.3211  0.6571
 2298WAT     H2 9899   6.797   6.951   3.836 -0.4067 -1.2209 -0.3519
 2298WAT    EPW 9900   6.844   6.905   3.879  0.9714 -0.0982 -0.1072
 2299WAT      O 9901   4.663   7.088   5.110 -0.3198 -0.1883  0.0410
 2299WAT     H1 9902   4.640   7.092   5.026 -0.5313 -0.9788  0.0557
 2299WAT     H2 9903   4.722   7.152   5.118 -0.4757  0.0508 -0.6477
 2299WAT    EPW 9904   4.668   7.098   5.098  0.6146  0.1432 -0.7275
 2300WAT      O 9905   4.990   0.643   7.280 -0.0036 -0.8332 -0.1587
 2300WAT     H1 9906   4.984   0.698   7.348 -0.7157  0.4278 -1.1890
 2300WAT     H2 9907   4.953   0.569   7.310  1.6483 -1.0480  1.5046
 2300WAT    EPW 9908   4.983   0.640   7.294 -0.5886  0.5035 -0.7055
 2301WAT      O 9909   6.622   7.281   4.027 -0.6421 -0.9287 -0.3131
 2301WAT     H1 9910   6.687   7.280   4.086 -1.6729 -1.1808  0.8625
 2301WAT     H2 9911   6.582   7.357   4.042 -1.1683 -1.1857 -0.4004
 2301WAT    EPW 9912   6.626   7.292   4.038  0.7969  0.2039  0.6436
 2302WAT      O 9913   5.401   1.096   4.437 -0.3264 -0.0369  0.5457
 2302WAT     H1 9914   5.472   1.046   4.441 -0.7592 -0.9088 -1.5005
 2302WAT     H2 9915   5.428   1.166   4.392 -0.8411 -0.5678 -0.6138
 2302WAT    EPW 9916   5.416   1.099   4.431  0.4903  0.3307  0.1279
 2303WAT      O 9917   5.987   7.012   2.196  0.2241 -0.0025  0.5366
 2303WAT     H1 9918   6.021   7.080   2.153 -0.3955  0.0484  0.1237
 2303WAT     H2 9919   5.919   7.046   2.239  0.4545 -0.1834  1.0564
 2303WAT    EPW 9920   5.982   7.027   2.196 -0.3965 -0.4991  0.8231
 2304WAT      O 9921   5.459   0.370   4.239  0.1819 -0.1037 -0.1650
 2304WAT     H1 9922   5.384   0.414   4.236  0.3619  0.2372  0.1626
 2304WAT     H2 9923   5.512   0.415   4.186  0.3183 -0.0075  0.0467
 2304WAT    EPW 9924   5.456   0.383   4.231  0.7796 -0.4728  0.2366
 2305WAT      O 9925   6.010   7.367   3.956  0.4999  0.4454 -0.5058
 2305WAT     H1 9926   6.015   7.453   3.971 -0.4291  0.3500  0.5554
 2305WAT     H2 9927   6.091   7.338   3.972  1.0244  1.2020 -1.6364
 2305WAT    EPW 9928   6.023   7.375   3.961 -0.7589  0.4523  0.0237
 2306WAT      O 9929   5.803   7.020   4.420 -0.0839 -0.7593 -0.2887
 2306WAT     H1 9930   5.857   7.062   4.474 -0.9732 -0.2046  0.2017
 2306WAT     H2 9931   5.856   6.987   4.359  0.8891 -0.9594  0.6376
 2306WAT    EPW 9932   5.819   7.021   4.419  0.2484  0.2695  0.6286
 2307WAT      O 9933   4.420   6.858   4.637  0.3386  0.1986 -0.3272
 2307WAT     H1 9934   4.447   6.799   4.694 -0.5184 -0.4477 -0.5801
 2307WAT     H2 9935   4.424   6.816   4.560  1.0368  0.9096 -0.6992
 2307WAT    EPW 9936   4.425   6.843   4.634  0.5223 -0.2439 -0.4079
 2308WAT      O 9937   5.959   7.573   3.434  0.1754  0.4850 -0.4776
 2308WAT     H1 9938   5.980   7.523   3.503  0.5538  1.4482  0.1270
 2308WAT     H2 9939   5.904   7.523   3.388 -1.0942  0.2819  1.1733
 2308WAT    EPW 9940   5.954   7.558   3.438 -0.5602 -0.2946  0.7158
 2309WAT      O 9941   6.451   7.004   2.665 -0.1593 -0.2718 -0.4325
 2309WAT     H1 9942   6.438   7.082   2.630 -1.9823 -0.0086  0.6832
 2309WAT     H2 9943   6.443   7.018   2.751  0.3950 -1.5148 -0.1527
 2309WAT    EPW 9944   6.448   7.017   2.673  0.7034 -0.5113 -0.7086
 2310WAT      O 9945   4.746   7.661   3.791  0.2858  0.3199 -0.2055
 2310WAT     H1 9946   4.796   7.667   3.862 -0.4453  1.1013  0.2589
 2310WAT     H2 9947   4.666   7.649   3.823 -0.0533  0.7217 -0.8815
 2310WAT    EPW 9948   4.742   7.660   3.806  0.5072 -0.2538 -0.4722
 2311WAT      O 9949   5.962   7.107   3.356  0.1708  0.3136 -0.2014
 2311WAT     H1 9950   6.043   7.117   3.387  0.2636  0.9042 -0.6156
 2311WAT     H2 9951   5.954   7.021   3.346  0.8802  0.2773 -0.5001
 2311WAT    EPW 9952   5.973   7.096   3.359  1.1697 -0.6328  0.4591
 2312WAT      O 9953   6.864   7.409   3.442 -0.1746  0.1874  0.0163
 2312WAT     H1 9954   6.843   7.380   3.521 -1.1725 -3.0062 -1.2629
 2312WAT     H2 9955   6.940   7.368   3.425 -0.6262 -0.2063 -1.1413
 2312WAT    EPW 9956   6.872   7.399   3.451 -1.2101  0.5495 -1.0265
 2313WAT      O 9957   4.604   6.502   4.665  0.0122  0.1671  0.2282
 2313WAT     H1 9958   4.581   6.427   4.704 -1.6983 -0.2950 -1.5146
 2313WAT     H2 9959   4.683   6.486   4.633 -0.4076 -0.9844 -0.2751
 2313WAT    EPW 9960   4.612   6.489   4.666 -0.7062  0.0937 -0.3318
 2314WAT      O 9961   5.530   7.993   4.336  0.1280  0.2034 -0.0557
 2314WAT     H1 9962   5.489   8.044   4.279  1.2398  0.6734 -0.4437
 2314WAT     H2 9963   5.606   8.034   4.350 -0.4317  0.5812  2.4105
 2314WAT    EPW 9964   5.535   8.007   4.330  0.4849 -0.2089 -0.5378
 2315WAT      O 9965   6.276   0.055   2.474 -0.3679  0.3442 -0.3565
 2315WAT     H1 9966   6.325   0.069   2.403  0.3721  0.2836  0.1403
 2315WAT     H2 9967   6.281  -0.032   2.485  0.5682  0.4981  0.5129
 2315WAT    EPW 9968   6.284   0.044   2.465 -0.5188  0.5007 -0.5339
 2316WAT      O 9969   7.588   0.549   2.759  0.9550 -0.1610  0.2317
 2316WAT     H1 9970   7.526   0.518   2.707  1.8087  0.3394 -1.1538
 2316WAT     H2 9971   7.549   0.615   2.801  0.0068 -1.1254  0.9197
 2316WAT    EPW 9972   7.573   0.555   2.757  0.3762 -0.5184  0.3069
 2317WAT      O 9973   3.934   7.347   1.643  0.6488 -0.1098 -0.8668
 2317WAT     H1 9974   3.872   7.398   1.610  0.0665 -0.5113 -0.4135
 2317WAT     H2 9975   4.005   7.397   1.642 -0.0261  0.9033  0.0834
 2317WAT    EPW 9976   3.935   7.362   1.638  0.2376 -1.5813 -0.7504
 2318WAT      O 9977   4.517   7.483   1.511 -0.4019 -0.5290  0.5949
 2318WAT     H1 9978   4.508   7.439   1.437 -1.0817 -1.6780  1.3268
 2318WAT     H2 9979   4.531   7.420   1.571 -0.8786  0.2860  1.5946
 2318WAT    EPW 9980   4.518   7.467   1.509 -0.1459  0.1012 -0.4478
 2319WAT      O 9981   6.509   7.775   1.133  0.3716  0.2719 -0.6549
 2319WAT     H1 9982   6.557   7.720   1.085 -0.5600 -0.5196 -0.7141
 2319WAT     H2 9983   6.530   7.753   1.215  0.0114 -0.1799 -0.6783
 2319WAT    EPW 9984   6.520   7.763   1.138  0.9218  0.4265 -0.0580
 2320WAT      O 9985   5.313   5.781   2.058  0.1081  0.1270  0.3842
 2320WAT     H1 9986   5.322   5.695   2.044 -0.3036  0.1892 -0.2761
 2320WAT     H2 9987   5.248   5.804   2.005 -1.3566  0.4260  2.1820
 2320WAT    EPW 9988   5.305   5.772   2.048 -0.6964  0.0982  0.6480
 2321WAT      O 9989   6.121   7.784   1.925  0.3273  0.4821  0.2427
 2321WAT     H1 9990   6.149   7.791   1.843 -0.6227 -0.3976 -0.1654
 2321WAT     H2 9991   6.161   7.851   1.965  0.8091  0.9214 -0.9194
 2321WAT    EPW 9992   6.131   7.795   1.919 -0.1983 -0.3558 -1.4740
 2322WAT      O 9993   5.458   0.096   1.903 -0.0875 -0.2831  0.1441
 2322WAT     H1 9994   5.473   0.138   1.977 -0.4056 -0.3610  0.2553
 2322WAT     H2 9995   5.450   0.159   1.844  3.9892 -0.2319 -0.6350
 2322WAT    EPW 9996   5.459   0.111   1.905  0.9390  0.4360  0.0403
 2323WAT      O 9997   6.657   0.809   1.458  0.0492 -0.5141  0.3723
 2323WAT     H1 9998   6.706   0.826   1.528  0.8593 -0.1557 -0.2779
 2323WAT     H2 9999   6.625   0.729   1.475  2.2420 -1.5308  0.0337
 2323WAT    EPW10000   6.659   0.799   1.471  0.1387  0.0043 -0.4576
 2324WAT      O10001   6.725   7.986   2.170  0.0365  0.3229 -0.0761
 2324WAT     H110002   6.710   7.917   2.119 -0.4710  0.7149 -0.4711
 2324WAT     H210003   6.679   8.050   2.132 -0.7891  0.4998  1.1506
 2324WAT    EPW10004   6.716   7.986   2.157 -0.3167  0.6539  0.1421
 2325WAT      O10005   6.933   7.808   1.904  0.8008  0.2714  0.0411
 2325WAT     H110006   6.907   7.828   1.823  2.5328 -1.9582 -1.1830
 2325WAT     H210007   6.859   7.781   1.943 -0.1534  1.8706 -0.5755
 2325WAT    EPW10008   6.918   7.807   1.898  0.0304 -0.3296  0.6388
 2326WAT      O10009   6.100   7.208   3.114  0.0320  0.6556  0.2697
 2326WAT     H110010   6.080   7.170   3.190  1.4592 -1.6289 -0.3863
 2326WAT     H210011   6.172   7.253   3.132  1.6101 -1.5566 -0.0448
 2326WAT    EPW10012   6.108   7.209   3.128 -0.2025 -0.1494 -0.5320
 2327WAT      O10013   5.237   6.629   2.493 -0.4854  0.2274 -0.1158
 2327WAT     H110014   5.154   6.645   2.512 -0.2364  2.9333 -0.9180
 2327WAT     H210015   5.281   6.682   2.547  0.7933 -1.4723  0.6161
 2327WAT    EPW10016   5.231   6.639   2.504  0.0522 -0.6682  0.2369
 2328WAT      O10017   5.869   7.592   1.557  0.0175  0.0878  0.3988
 2328WAT     H110018   5.844   7.675   1.566 -1.1636 -0.3021  0.7977
 2328WAT     H210019   5.818   7.549   1.613  0.9319 -0.8570  0.5276
 2328WAT    EPW10020   5.858   7.598   1.567  0.7093 -0.4624 -0.0643
 2329WAT      O10021   2.847   6.853   1.511  0.0487  0.2900 -0.3398
 2329WAT     H110022   2.911   6.865   1.453 -1.1222 -1.0497 -2.0447
 2329WAT     H210023   2.837   6.766   1.513 -0.4332  0.3404  1.3666
 2329WAT    EPW10024   2.855   6.842   1.503  0.9867 -0.6926 -0.1902
 2330WAT      O10025   4.190   6.243   2.252  0.4145 -0.3196 -0.0173
 2330WAT     H110026   4.112   6.227   2.215  0.2061  0.9339 -0.1605
 2330WAT     H210027   4.203   6.327   2.235  0.1610  0.4289  3.0564
 2330WAT    EPW10028   4.180   6.253   2.244 -0.0969  0.4779 -0.9850
 2331WAT      O10029   6.297   7.379   3.225  0.2653 -0.3816 -0.4358
 2331WAT     H110030   6.329   7.460   3.228 -1.7954  0.5517 -1.5882
 2331WAT     H210031   6.286   7.358   3.309  1.4776  0.2282 -0.1060
 2331WAT    EPW10032   6.300   7.388   3.238 -0.2550 -0.8753  0.1992
 2332WAT      O10033   7.141   7.138   0.862 -0.1027 -0.2509  0.8935
 2332WAT     H110034   7.139   7.178   0.784  0.7229  0.2846  1.1357
 2332WAT     H210035   7.071   7.085   0.859 -1.8227  1.8513  0.8960
 2332WAT    EPW10036   7.130   7.136   0.850 -0.5692  0.4290  0.7881
 2333WAT      O10037   4.834   7.670   2.694  0.0319  0.0016  0.3586
 2333WAT     H110038   4.804   7.614   2.635 -3.3023  0.0515  1.8038
 2333WAT     H210039   4.818   7.748   2.657 -1.6242  0.0248  1.0556
 2333WAT    EPW10040   4.827   7.673   2.679  0.5765 -0.3521 -0.3745
 2334WAT      O10041   6.424   6.753   2.486  0.0412  0.3784 -0.3176
 2334WAT     H110042   6.497   6.800   2.482  0.5643 -0.4939 -1.9907
 2334WAT     H210043   6.363   6.806   2.451 -0.0249  0.8789  0.5259
 2334WAT    EPW10044   6.426   6.768   2.480  0.4665 -0.1394  0.2563
 2335WAT      O10045   5.725   7.356   0.910  0.7365 -0.4408  0.0797
 2335WAT     H110046   5.702   7.440   0.920 -0.0662 -0.6001 -0.2688
 2335WAT     H210047   5.656   7.322   0.868  0.9487 -1.3287  0.4348
 2335WAT    EPW10048   5.711   7.364   0.905  0.1413  0.6378 -0.1929
 2336WAT      O10049   5.542   0.214   0.856  0.6080  0.0843  0.7070
 2336WAT     H110050   5.517   0.143   0.812 -0.8134  1.4808 -0.8530
 2336WAT     H210051   5.521   0.195   0.939  1.1784 -1.6811  0.4793
 2336WAT    EPW10052   5.535   0.200   0.862 -0.9339 -0.4508  0.0040
 2337WAT      O10053   6.859   7.420   2.827 -0.1274  0.5586 -0.3063
 2337WAT     H110054   6.916   7.395   2.888  1.8392 -0.2378 -2.3383
 2337WAT     H210055   6.848   7.349   2.778 -1.5489  1.1991 -0.9917
 2337WAT    EPW10056   6.866   7.406   2.829  0.1765  0.4093 -0.6677
 2338WAT      O10057   6.594   0.302   1.546 -0.2926  0.1080  0.2156
 2338WAT     H110058   6.648   0.248   1.504  1.2646  1.5451  0.2951
 2338WAT     H210059   6.623   0.303   1.628 -1.0089  0.2175  0.4827
 2338WAT    EPW10060   6.606   0.294   1.552 -0.0776  0.0182 -0.1687
 2339WAT      O10061   6.187   7.004   1.465 -0.8305 -0.1691 -0.6305
 2339WAT     H110062   6.219   6.935   1.507  1.1949  1.2527  0.3368
 2339WAT     H210063   6.123   6.970   1.416 -0.0972 -2.6639 -0.0215
 2339WAT    EPW10064   6.182   6.989   1.464 -0.8013 -0.2378 -0.8617
 2340WAT      O10065   5.515   0.515   0.805 -0.1571  0.4682  0.5259
 2340WAT     H110066   5.524   0.430   0.821 -1.6032 -0.1891 -1.6614
 2340WAT     H210067   5.502   0.550   0.884 -1.5998 -1.6434  1.3017
 2340WAT    EPW10068   5.515   0.508   0.819  0.2417 -0.0230  0.0216
 2341WAT      O10069   7.507   7.154   0.522 -0.5309  0.0821  0.0734
 2341WAT     H110070   7.562   7.217   0.546  0.1869 -0.5005 -0.0061
 2341WAT     H210071   7.461   7.138   0.595  1.6312 -1.6810  1.1900
 2341WAT    EPW10072   7.508   7.161   0.537 -0.1904  0.1037  0.0076
 2342WAT      O10073   5.512   7.696   1.900  0.0322  0.9807 -0.5744
 2342WAT     H110074   5.523   7.671   1.983  2.6438 -0.6747 -1.2810
 2342WAT     H210075   5.427   7.687   1.887 -0.2693  0.0037  1.5503
 2342WAT    EPW10076   5.501   7.691   1.911 -0.3507  0.2018 -0.9781
 2343WAT      O10077   5.686   7.492   1.765 -0.0255 -0.4202 -0.5925
 2343WAT     H110078   5.650   7.413   1.770  1.2630 -0.9737  1.4254
 2343WAT     H210079   5.619   7.546   1.776 -0.5775 -1.3661  1.0738
 2343WAT    EPW10080   5.671   7.488   1.767  0.1434 -0.6122  0.8944
 2344WAT      O10081   4.096   7.341   1.311 -0.0185 -0.0142  0.5170
 2344WAT     H110082   4.147   7.411   1.308  0.9771 -0.7593 -0.5238
 2344WAT     H210083   4.145   7.281   1.352  1.3281 -1.7450 -3.1996
 2344WAT    EPW10084   4.110   7.342   1.317  0.3986  0.4861 -0.7914
 2345WAT      O10085   6.669   1.352   1.666  0.2417  0.1413  0.6736
 2345WAT     H110086   6.676   1.438   1.671  0.1261  0.1847  0.1175
 2345WAT     H210087   6.665   1.327   1.750  2.2758  0.4987  0.9275
 2345WAT    EPW10088   6.670   1.361   1.679  0.0365 -0.2086 -1.2180
 2346WAT      O10089   6.186   7.793   3.011 -0.2854  0.1180 -0.2203
 2346WAT     H110090   6.211   7.716   2.979 -0.0906  0.0738  0.0416
 2346WAT     H210091   6.188   7.781   3.097 -0.8440  0.2279 -0.1894
 2346WAT    EPW10092   6.190   7.780   3.019 -0.7639 -0.1927  0.1874
 2347WAT      O10093   7.100   6.645   2.684  0.4701  0.2920 -0.1504
 2347WAT     H110094   7.126   6.728   2.680  0.6893  0.2597  0.5033
 2347WAT     H210095   7.025   6.645   2.640 -2.7269  2.0991  4.4721
 2347WAT    EPW10096   7.093   6.657   2.677  0.1171  0.2548 -1.4099
 2348WAT      O10097   6.622   5.618   3.123  0.3835  0.0194 -0.1970
 2348WAT     H110098   6.692   5.598   3.170 -0.3413 -1.5226  0.2850
 2348WAT     H210099   6.629   5.568   3.052 -0.2475 -0.1929 -0.1173
 2348WAT    EPW10100   6.633   5.608   3.120 -0.7684  0.3542 -0.1169
 2349WAT      O10101   5.854   0.294   1.752 -0.2752  0.7289 -0.2189
 2349WAT     H110102   5.859   0.254   1.830 -1.2856  0.2506 -0.3830
 2349WAT     H210103   5.922   0.262   1.709 -0.4461 -0.0043  0.0328
 2349WAT    EPW10104   5.864   0.283   1.757  0.0738 -1.0706 -0.3568
 2350WAT      O10105   4.897   0.141   1.671  0.2253  0.0794  0.1549
 2350WAT     H110106   4.811   0.127   1.672  0.2101  0.1616  1.3360
 2350WAT     H210107   4.929   0.069   1.635 -0.4295  0.6890 -1.7342
 2350WAT    EPW10108   4.889   0.129   1.666 -0.6743 -0.1780 -0.3356
 2351WAT      O10109   6.969   0.175   1.738  0.3127 -0.1550  0.2658
 2351WAT     H110110   6.999   0.164   1.819 -0.1506 -0.4094  0.4085
 2351WAT     H210111   7.016   0.242   1.707  1.8911 -1.3241  0.0388
 2351WAT    EPW10112   6.980   0.184   1.746  0.0831 -0.1303  0.1696
 2352WAT      O10113   7.552   0.106   1.460 -0.5615  0.2394  0.1425
 2352WAT     H110114   7.606   0.173   1.473 -0.3608  0.4786 -1.6865
 2352WAT     H210115   7.494   0.114   1.524  0.6875  0.8765  1.2412
 2352WAT    EPW10116   7.551   0.117   1.471  0.2536  0.0318 -0.6772
 2353WAT      O10117   5.271   7.354   3.166  0.5458 -0.4112 -0.5346
 2353WAT     H110118   5.338   7.316   3.126 -0.4055 -1.7505 -0.9570
 2353WAT     H210119   5.236   7.289   3.213 -0.7692  0.1023 -0.7559
 2353WAT    EPW10120   5.275   7.339   3.167 -0.0076  0.1072  0.0272
 2354WAT      O10121   5.108   0.233   2.858  0.3898 -0.0314  0.3293
 2354WAT     H110122   5.077   0.314   2.864  1.7004  0.5975 -0.7762
 2354WAT     H210123   5.066   0.200   2.789  0.7059  0.1323  0.0536
 2354WAT    EPW10124   5.098   0.240   2.849  0.8148 -0.2175 -0.6739
 2355WAT      O10125   4.271   0.007   1.121 -0.4663 -0.3056  0.2016
 2355WAT     H110126   4.212  -0.034   1.072 -0.4342 -0.5928  0.3991
 2355WAT     H210127   4.229   0.079   1.148  0.0578  0.7445 -1.6021
 2355WAT    EPW10128   4.256   0.012   1.118 -0.1518 -0.9715 -0.3704
 2356WAT      O10129   6.328   6.492   2.024 -1.2935 -0.2341  0.3488
 2356WAT     H110130   6.411   6.500   2.051 -2.3275 -0.6034  4.2953
 2356WAT     H210131   6.334   6.442   1.953  1.8998  0.8135 -0.2909
 2356WAT    EPW10132   6.342   6.486   2.017  0.2057 -0.0083  0.3428
 2357WAT      O10133   4.501   6.554   2.450  0.2943  0.2069  0.1917
 2357WAT     H110134   4.562   6.575   2.508 -0.4539  0.7046  0.8154
 2357WAT     H210135   4.461   6.486   2.487 -1.3318  1.6037  1.1349
 2357WAT    EPW10136   4.504   6.547   2.464 -0.3458  0.3881 -0.0166
 2358WAT      O10137   4.042   7.293   1.039  0.3727 -0.5492 -0.4167
 2358WAT     H110138   3.958   7.313   1.024 -0.2820 -3.2177 -0.8047
 2358WAT     H210139   4.054   7.313   1.123 -1.2251 -1.8047  0.1509
 2358WAT    EPW10140   4.032   7.299   1.049 -0.5130 -0.5663  1.2128
 2359WAT      O10141   5.442   7.851   2.602 -0.4883 -0.0630  0.2044
 2359WAT     H110142   5.376   7.906   2.588  0.5480  1.7602  1.9513
 2359WAT     H210143   5.444   7.843   2.689  0.8105 -1.0800  0.1115
 2359WAT    EPW10144   5.433   7.858   2.613  0.2022 -0.3176 -0.2842
 2360WAT      O10145   5.881   0.497   2.208  0.2846  0.2293 -0.3145
 2360WAT     H110146   5.905   0.416   2.231  0.9440  0.5208  0.0568
 2360WAT     H210147   5.814   0.514   2.261  0.3331  0.0271 -0.1872
 2360WAT    EPW10148   5.875   0.488   2.219 -0.0204  0.3545 -0.8498
 2361WAT      O10149   5.210   1.082   2.525  0.2669  0.0645  0.3064
 2361WAT     H110150   5.181   1.039   2.455 -0.9047 -0.7443  1.2522
 2361WAT     H210151   5.206   1.023   2.589 -0.3767  1.2453  1.4165
 2361WAT    EPW10152   5.205   1.067   2.524  0.5184  0.1412 -0.2692
 2362WAT      O10153   4.930   7.426   2.156  0.5054  0.0147 -0.0263
 2362WAT     H110154   4.992   7.433   2.217  1.5355 -2.0334 -0.7299
 2362WAT     H210155   4.905   7.343   2.162 -1.8402  0.6362 -0.1381
 2362WAT    EPW10156   4.935   7.415   2.166  0.0164  0.0498 -0.6880
 2363WAT      O10157   7.189   1.064   3.324 -0.4533  0.0102  0.0127
 2363WAT     H110158   7.170   1.045   3.241  0.4431  1.6774 -0.6190
 2363WAT     H210159   7.111   1.075   3.361 -0.9065 -1.8378 -0.2944
 2363WAT    EPW10160   7.175   1.063   3.317  0.1258  0.0870 -0.2993
 2364WAT      O10161   6.503   5.903   2.074 -0.1225 -0.4686  0.2802
 2364WAT     H110162   6.427   5.876   2.041  0.1647 -0.2250 -0.6147
 2364WAT     H210163   6.493   5.989   2.083  0.3691 -0.2857 -0.7762
 2364WAT    EPW10164   6.491   5.911   2.070 -0.7577 -0.8161  0.3237
 2365WAT      O10165   5.304   7.681   1.566 -0.3255  0.3491  0.0178
 2365WAT     H110166   5.248   7.691   1.500 -0.2863 -1.1817 -0.2956
 2365WAT     H210167   5.284   7.745   1.621 -2.9003 -0.5631  0.2601
 2365WAT    EPW10168   5.293   7.692   1.565 -0.3413 -0.5038 -0.2119
 2366WAT      O10169   5.881   1.366   2.636 -0.4595 -0.1285  0.3243
 2366WAT     H110170   5.867   1.444   2.599  0.7952 -0.0025  0.0551
 2366WAT     H210171   5.878   1.382   2.721 -1.1419  0.0246  0.2746
 2366WAT    EPW10172   5.878   1.380   2.643  0.6041 -0.8182  0.5983
 2367WAT      O10173   6.645   7.025   0.691 -0.1572 -0.2779  0.1717
 2367WAT     H110174   6.620   7.061   0.766  1.1619  0.8593  0.0930
 2367WAT     H210175   6.728   7.050   0.682  0.7894 -3.0862 -0.0610
 2367WAT    EPW10176   6.653   7.034   0.701 -0.1234 -0.0887 -0.4533
 2368WAT      O10177   5.227   7.619   0.822  0.1229 -0.2726 -0.1445
 2368WAT     H110178   5.310   7.632   0.845 -0.0182  1.4911 -0.5195
 2368WAT     H210179   5.189   7.696   0.836 -1.0541 -0.5351 -1.5984
 2368WAT    EPW10180   5.234   7.632   0.827 -0.5145 -0.1321 -0.8136
 2369WAT      O10181   5.583   6.835   0.318  0.3126  0.4217 -0.1406
 2369WAT     H110182   5.538   6.779   0.269  0.1075 -0.6478  1.1917
 2369WAT     H210183   5.553   6.913   0.295 -1.4081 -0.1953 -0.0954
 2369WAT    EPW10184   5.572   6.838   0.307 -0.2170  0.0807 -0.5509
 2370WAT      O10185   6.409   6.841   3.036  0.1119 -0.7443  1.1502
 2370WAT     H110186   6.361   6.832   3.108 -0.4706 -0.2272  0.8382
 2370WAT     H210187   6.379   6.779   2.983  0.7414 -1.3179  1.4446
 2370WAT    EPW10188   6.397   6.831   3.039 -0.9373  0.4363 -0.2771
 2371WAT      O10189   7.230   6.670   4.056  0.6220  0.3514  0.0373
 2371WAT     H110190   7.245   6.651   3.972  1.1230  0.2750  0.1394
 2371WAT     H210191   7.240   6.594   4.097 -1.2641  0.0287 -0.0170
 2371WAT    EPW10192   7.234   6.656   4.049 -0.0620 -0.0126 -0.1841
 2372WAT      O10193   7.178   0.489   2.587 -0.0715 -0.2674  0.2239
 2372WAT     H110194   7.205   0.542   2.523 -1.0533  0.6214  0.5188
 2372WAT     H210195   7.119   0.439   2.548  0.5203 -0.8509  0.0576
 2372WAT    EPW10196   7.173   0.490   2.572  0.1096  1.1640 -0.0823
 2373WAT      O10197   6.465   0.791   3.135 -0.6717 -0.0482  0.0977
 2373WAT     H110198   6.394   0.777   3.086 -0.9005 -3.4242  1.1443
 2373WAT     H210199   6.436   0.779   3.216  0.9374 -1.0924  0.5620
 2373WAT    EPW10200   6.450   0.787   3.140  0.8894 -0.3656 -0.5576
 2374WAT      O10201   3.934   6.403   0.719 -0.2021  0.2393 -0.1168
 2374WAT     H110202   3.962   6.320   0.723 -0.7410  0.0970  1.2990
 2374WAT     H210203   3.988   6.440   0.661  0.4397 -0.9492 -0.3128
 2374WAT    EPW10204   3.946   6.396   0.711 -0.1016  0.6072 -0.4759
 2375WAT      O10205   6.379   7.692   2.177 -0.6647 -0.0921 -0.9288
 2375WAT     H110206   6.328   7.709   2.246  0.7437  0.1734  0.0804
 2375WAT     H210207   6.425   7.622   2.202 -1.7592 -1.4412 -2.5211
 2375WAT    EPW10208   6.378   7.684   2.191  0.1371 -0.5383 -0.3945
 2376WAT      O10209   4.473   1.651   0.894  0.0356  0.3332  0.3827
 2376WAT     H110210   4.425   1.665   0.822  0.3085  0.2245  0.1781
 2376WAT     H210211   4.423   1.597   0.941  0.2658 -0.3634 -0.1574
 2376WAT    EPW10212   4.459   1.645   0.890  0.4212  0.0798 -0.3063
 2377WAT      O10213   5.737   6.082   1.761 -0.4094  0.0009 -0.2016
 2377WAT     H110214   5.657   6.112   1.774 -0.5624 -0.4241 -0.1434
 2377WAT     H210215   5.761   6.053   1.839 -0.9252 -1.5930 -0.6023
 2377WAT    EPW10216   5.729   6.082   1.774  0.8872 -0.1694 -0.9136
 2378WAT      O10217   5.927   0.538   3.193 -0.1492  0.0176 -0.1286
 2378WAT     H110218   5.947   0.598   3.253 -0.2969 -0.0255 -0.0379
 2378WAT     H210219   5.890   0.585   3.129 -0.0413  0.0554 -0.1650
 2378WAT    EPW10220   5.925   0.554   3.192  0.5938  0.2721 -0.1773
 2379WAT      O10221   6.492   7.510   2.542 -0.1204 -0.3794 -0.2029
 2379WAT     H110222   6.522   7.535   2.619  0.3460  0.1953 -0.5676
 2379WAT     H210223   6.553   7.537   2.486  0.2382 -1.9991 -0.6594
 2379WAT    EPW10224   6.505   7.517   2.545  1.4660  0.2114  0.4039
 2380WAT      O10225   3.883   7.623   2.238 -0.3298 -0.0830  0.3086
 2380WAT     H110226   3.870   7.557   2.293 -1.1189  0.7300  1.1316
 2380WAT     H210227   3.969   7.627   2.231 -0.2429 -0.6420  0.9393
 2380WAT    EPW10228   3.893   7.614   2.245  0.1331  0.0649  0.6138
 2381WAT      O10229   7.340   6.989   1.079 -0.3813  0.1655  0.6091
 2381WAT     H110230   7.280   6.930   1.100 -0.0998 -0.8237 -1.1656
 2381WAT     H210231   7.324   7.055   1.134 -0.9226 -1.3820  2.4560
 2381WAT    EPW10232   7.329   6.990   1.091 -1.0548  0.9235 -0.6241
 2382WAT      O10233   7.245   0.718   2.355  0.0181 -0.1541 -0.3901
 2382WAT     H110234   7.196   0.686   2.290 -0.1524  0.9001 -0.8039
 2382WAT     H210235   7.204   0.792   2.377 -0.9065 -1.2743  2.1023
 2382WAT    EPW10236   7.232   0.724   2.349 -0.6218 -0.0430  0.4999
 2383WAT      O10237   6.585   7.850   2.411  0.4242 -0.5377 -1.0595
 2383WAT     H110238   6.616   7.898   2.344  1.4116  2.1549  1.1157
 2383WAT     H210239   6.655   7.835   2.460 -0.4894 -1.1793  0.1027
 2383WAT    EPW10240   6.600   7.855   2.408  0.6976 -0.8909 -0.1847
 2384WAT      O10241   4.627   7.549   0.810  0.5427  0.6781 -0.4833
 2384WAT     H110242   4.708   7.543   0.780  0.3314  0.0006 -0.9610
 2384WAT     H210243   4.577   7.533   0.740  0.0131  0.5968 -0.1039
 2384WAT    EPW10244   4.631   7.546   0.796 -0.1538  0.6631 -0.5421
 2385WAT      O10245   7.023   7.336   3.058  0.0707  0.0247  0.7954
 2385WAT     H110246   7.000   7.261   3.097 -2.4054 -0.7611 -1.7495
 2385WAT     H210247   7.086   7.312   3.003 -0.6848 -0.2701  0.0195
 2385WAT    EPW10248   7.029   7.322   3.056 -0.7339 -0.4306  0.0814
 2386WAT      O10249   4.276   7.632   1.903 -0.4372 -0.2904  0.2371
 2386WAT     H110250   4.301   7.660   1.824 -0.6011 -2.7110 -0.7550
 2386WAT     H210251   4.192   7.610   1.892  0.6876 -5.6747 -0.6870
 2386WAT    EPW10252   4.267   7.633   1.890 -0.9445  0.0578  0.0242
 2387WAT      O10253   5.377   6.938   3.455  0.1290 -0.6991 -0.4771
 2387WAT     H110254   5.412   7.017   3.443 -0.0791 -0.2273  1.5516
 2387WAT     H210255   5.319   6.931   3.390 -0.9033  1.4847  0.0997
 2387WAT    EPW10256   5.374   6.949   3.444 -0.9329  0.0942  0.1832
 2388WAT      O10257   5.596   6.979   2.223 -0.1139 -0.1427 -0.1764
 2388WAT     H110258   5.602   7.029   2.294  1.4771 -0.4142 -0.0706
 2388WAT     H210259   5.588   6.898   2.255  1.0111 -0.3106 -0.2576
 2388WAT    EPW10260   5.596   6.974   2.238  0.1364  0.3419 -0.7918
 2389WAT      O10261   7.392   7.745   0.933 -0.0487 -0.0768 -0.5764
 2389WAT     H110262   7.433   7.706   0.867  1.1621 -0.6820  0.4764
 2389WAT     H210263   7.419   7.828   0.928 -0.6226  0.0797 -1.3076
 2389WAT    EPW10264   7.402   7.752   0.923  0.3520  0.0324 -0.6362
 2390WAT      O10265   6.402   6.778   3.300 -0.0202 -0.5375 -0.2453
 2390WAT     H110266   6.480   6.739   3.308 -0.1641 -0.6883  0.5257
 2390WAT     H210267   6.409   6.848   3.351 -0.0448  0.0129 -0.9908
 2390WAT    EPW10268   6.415   6.783   3.309 -0.0397  0.2497  0.8512
 2391WAT      O10269   5.123   7.232   3.382 -0.5251 -0.3491 -0.1944
 2391WAT     H110270   5.045   7.267   3.402 -0.2137  0.5138 -0.4646
 2391WAT     H210271   5.180   7.290   3.413 -0.0022 -0.1762 -1.4447
 2391WAT    EPW10272   5.120   7.246   3.390 -0.1080  0.2878  0.0921
 2392WAT      O10273   4.581   7.944   2.658 -0.3440  0.2192 -0.5057
 2392WAT     H110274   4.623   8.012   2.692 -2.3280  0.5221  1.5568
 2392WAT     H210275   4.633   7.919   2.592  3.0589  0.4956  1.8095
 2392WAT    EPW10276   4.595   7.950   2.653  0.4478 -0.6821 -0.1052
 2393WAT      O10277   6.688   7.799   2.780 -0.0609  0.1746  0.0161
 2393WAT     H110278   6.664   7.715   2.779  0.3752  0.0373 -1.6138
 2393WAT     H210279   6.627   7.837   2.828 -1.7308 -0.6753 -1.3256
 2393WAT    EPW10280   6.676   7.792   2.787 -0.1358 -0.2248 -0.2363
 2394WAT      O10281   7.367   7.105   2.543  0.0090  0.1455  0.1194
 2394WAT     H110282   7.430   7.163   2.558 -1.2589  1.5257  0.3240
 2394WAT     H210283   7.395   7.061   2.473  1.1870  0.7352  0.2091
 2394WAT    EPW10284   7.380   7.107   2.535  0.5160 -0.7340  0.3376
 2395WAT      O10285   6.550   7.449   2.231 -0.4412  0.2535 -0.1426
 2395WAT     H110286   6.560   7.420   2.150  0.4798  1.4184 -0.4735
 2395WAT     H210287   6.613   7.407   2.276 -1.3460 -0.8581  0.1159
 2395WAT    EPW10288   6.561   7.439   2.226 -0.5326 -0.1272 -0.5143
 2396WAT      O10289   0.094   7.201   2.143  0.1012 -0.3605 -0.2286
 2396WAT     H110290   0.150   7.142   2.175  1.7589  2.0255  1.6642
 2396WAT     H210291   0.053   7.231   2.213 -0.3690  1.0240 -1.0500
 2396WAT    EPW10292   0.096   7.197   2.158 -0.3613 -0.0043  0.1479
 2397WAT      O10293   5.548   7.430   1.316 -0.8781 -0.4401  0.7569
 2397WAT     H110294   5.545   7.350   1.351 -0.7267 -1.5249 -1.5239
 2397WAT     H210295   5.492   7.426   1.250  0.6954  0.6256 -0.7443
 2397WAT    EPW10296   5.540   7.418   1.311 -0.0603  0.1335 -0.2600
 2398WAT      O10297   3.922   7.235   1.990 -0.0941 -0.1417 -0.0561
 2398WAT     H110298   3.967   7.305   1.962 -1.3644  0.7005 -0.0802
 2398WAT     H210299   3.868   7.269   2.050  0.2118 -1.3499  0.9282
 2398WAT    EPW10300   3.921   7.251   1.995 -0.6873  0.0023 -0.3373
 2399WAT      O10301   6.268   6.305   2.278  0.1788  0.0846  0.3568
 2399WAT     H110302   6.251   6.378   2.235 -0.5104 -1.0649 -1.4169
 2399WAT     H210303   6.324   6.330   2.340  0.1629  2.0431 -0.3612
 2399WAT    EPW10304   6.274   6.320   2.281  0.3693  0.5116 -0.6078
 2400WAT      O10305   6.084   7.221   2.492  0.0370 -0.8336 -0.3695
 2400WAT     H110306   6.102   7.185   2.570  0.0777 -0.9016 -0.4095
 2400WAT     H210307   6.118   7.301   2.499 -0.4435 -0.6491 -0.1235
 2400WAT    EPW10308   6.092   7.227   2.505  0.0145  0.2502 -0.0701
 2401WAT      O10309   5.630   6.295   2.162 -0.1097  0.9001 -0.0898
 2401WAT     H110310   5.644   6.215   2.194 -1.5739 -0.3318 -2.2403
 2401WAT     H210311   5.628   6.345   2.233  1.0406 -0.9112  1.3384
 2401WAT    EPW10312   5.632   6.290   2.177 -0.4778 -0.1431 -0.0027
 2402WAT      O10313   6.244   6.104   2.075 -0.2656 -0.5819 -0.2831
 2402WAT     H110314   6.294   6.156   2.124 -0.1986  0.6550 -1.5788
 2402WAT     H210315   6.194   6.160   2.030 -2.5314 -1.7536  0.6226
 2402WAT    EPW10316   6.244   6.120   2.075  0.6773  0.0532  0.1979
 2403WAT      O10317   7.006   7.900   2.170 -0.2290 -0.0509  0.1296
 2403WAT     H110318   6.925   7.930   2.156 -0.8974 -1.7069  0.3237
 2403WAT     H210319   7.031   7.873   2.091  1.6825  3.8302 -0.8411
 2403WAT    EPW10320   6.998   7.901   2.156 -0.3243  0.5885 -0.2212
 2404WAT      O10321   6.669   0.649   2.590 -0.0112 -0.2675  0.8962
 2404WAT     H110322   6.696   0.691   2.662 -2.1008  1.6030  0.7174
 2404WAT     H210323   6.582   0.648   2.598 -0.1950 -1.9991 -0.5859
 2404WAT    EPW10324   6.660   0.655   2.602  0.0087  0.6287  0.2307
 2405WAT      O10325   5.242   7.688   1.854 -0.4778 -0.1888 -0.1223
 2405WAT     H110326   5.222   7.746   1.916  1.0918  0.5065 -0.2272
 2405WAT     H210327   5.199   7.616   1.878 -0.4230  0.2646  1.4047
 2405WAT    EPW10328   5.232   7.686   1.866 -0.4388 -0.7644 -0.5842
 2406WAT      O10329   4.979   0.279   2.366  0.3602 -0.1285  0.1092
 2406WAT     H110330   4.994   0.281   2.280 -0.2452 -0.7864 -0.0166
 2406WAT     H210331   5.000   0.360   2.392 -3.9832  1.8408 -1.4561
 2406WAT    EPW10332   4.984   0.291   2.357 -0.0743 -0.5226 -0.7420
 2407WAT      O10333   7.866   7.830   1.173  0.2631  0.1075 -0.3351
 2407WAT     H110334   7.831   7.750   1.177 -1.0255  0.6435 -0.2708
 2407WAT     H210335   7.941   7.817   1.130  0.1098 -1.1384 -0.2820
 2407WAT    EPW10336   7.872   7.816   1.167  0.2815  0.1694  0.1556
 2408WAT      O10337   7.265   7.785   2.283  0.0431 -0.3493  0.7756
 2408WAT     H110338   7.199   7.832   2.250 -0.6320 -0.0576  2.4423
 2408WAT     H210339   7.336   7.827   2.254 -0.4183 -1.0901 -1.6700
 2408WAT    EPW10340   7.266   7.798   2.274 -0.6803 -0.1376 -0.1895
 2409WAT      O10341   7.579   7.670   2.351  0.5556  0.3361 -0.2007
 2409WAT     H110342   7.577   7.654   2.437  2.2646  1.6464  0.1418
 2409WAT     H210343   7.598   7.592   2.316  0.2515 -0.1221  0.6224
 2409WAT    EPW10344   7.581   7.656   2.359  0.2502  0.4637 -0.4157
 2410WAT      O10345   3.889   7.781   2.871  0.3289  0.6961 -0.5550
 2410WAT     H110346   3.905   7.724   2.936  1.3845  0.3737 -1.0801
 2410WAT     H210347   3.849   7.847   2.912 -0.5658 -0.2367  0.1309
 2410WAT    EPW10348   3.886   7.782   2.887 -0.2086 -0.9991 -0.5796
 2411WAT      O10349   4.460   7.530   2.397 -0.0219  0.1591  0.0799
 2411WAT     H110350   4.427   7.586   2.454 -0.9738 -0.1903 -0.0984
 2411WAT     H210351   4.452   7.452   2.437 -1.4910 -0.1965 -0.8187
 2411WAT    EPW10352   4.454   7.527   2.411  0.4568 -0.3239  0.0384
 2412WAT      O10353   6.958   7.341   1.867 -0.1673  0.0092  0.6300
 2412WAT     H110354   6.893   7.345   1.810  0.3553  0.8208  0.0627
 2412WAT     H210355   6.934   7.278   1.922 -2.7929  2.0577  2.0994
 2412WAT    EPW10356   6.945   7.332   1.867 -0.0358 -0.0938 -0.0999
 2413WAT      O10357   3.608   6.860   1.962  0.0229  0.3723  0.0211
 2413WAT     H110358   3.594   6.919   2.024 -0.1449 -0.1212  0.4631
 2413WAT     H210359   3.608   6.906   1.888 -1.5942  0.7274  0.2197
 2413WAT    EPW10360   3.606   6.875   1.960  0.2537  0.6003  0.1807
 2414WAT      O10361   6.116   6.616   2.468 -0.4845 -0.3791 -0.2375
 2414WAT     H110362   6.192   6.601   2.428 -0.6049  0.5179 -0.8357
 2414WAT     H210363   6.106   6.702   2.461 -0.9496 -0.3149  0.9618
 2414WAT    EPW10364   6.126   6.627   2.461  0.2697  0.1407 -0.5501
 2415WAT      O10365   4.458   7.154   3.154 -0.4270  0.2489  0.8258
 2415WAT     H110366   4.536   7.122   3.175 -0.0609  1.5134  1.4903
 2415WAT     H210367   4.402   7.104   3.200 -0.2570 -2.1035 -1.3034
 2415WAT    EPW10368   4.461   7.142   3.164  0.0312 -0.1285  0.3509
 2416WAT      O10369   4.447   5.936   0.912  0.5823  0.1980 -0.1217
 2416WAT     H110370   4.472   5.924   0.829  0.1453 -0.5818 -0.1463
 2416WAT     H210371   4.361   5.946   0.906  0.5517  0.1499  0.2365
 2416WAT    EPW10372   4.438   5.935   0.898  0.5018  0.5313 -0.0337
 2417WAT      O10373   5.640   6.753   2.626 -0.4247  0.1510 -0.6430
 2417WAT     H110374   5.660   6.668   2.635 -0.3233  0.0989 -1.3161
 2417WAT     H210375   5.694   6.780   2.563  0.4207  1.0296  0.4316
 2417WAT    EPW10376   5.651   6.744   2.618 -0.5142 -0.0642 -0.2952
 2418WAT      O10377   5.044   6.790   2.059  0.1449  0.1071 -0.1140
 2418WAT     H110378   5.059   6.873   2.038 -1.7420  0.7810  0.9851
 2418WAT     H210379   5.124   6.756   2.066  0.9563  1.8193 -0.5880
 2418WAT    EPW10380   5.058   6.797   2.057  0.0697 -0.3620  0.3086
 2419WAT      O10381   4.396   0.052   1.833  0.4555  0.3625  0.0753
 2419WAT     H110382   4.322   0.050   1.879  0.2673  1.6370 -0.1277
 2419WAT     H210383   4.454   0.012   1.884 -0.1808  0.0798  0.5917
 2419WAT    EPW10384   4.394   0.046   1.847  0.2216  0.5282  0.3616
 2420WAT      O10385   5.228   0.472   2.402 -1.1571  0.5442  0.6805
 2420WAT     H110386   5.268   0.430   2.337  0.9685  0.9988  1.6040
 2420WAT     H210387   5.249   0.425   2.473 -1.9335  1.0608  1.2757
 2420WAT    EPW10388   5.237   0.459   2.403  0.4462 -0.8222  0.2006
 2421WAT      O10389   7.189   0.314   2.176  0.1596  0.1942  0.1790
 2421WAT     H110390   7.257   0.291   2.226 -0.2449 -1.3724  0.0503
 2421WAT     H210391   7.133   0.349   2.233  0.3728 -0.0931  0.5769
 2421WAT    EPW10392   7.191   0.316   2.192 -0.4678  0.1811  0.2163
 2422WAT      O10393   5.559   7.239   1.515 -0.0181  0.3489  0.1906
 2422WAT     H110394   5.490   7.258   1.565  0.6680  0.2218  1.2112
 2422WAT     H210395   5.565   7.152   1.521 -0.2240  0.2797 -0.5218
 2422WAT    EPW10396   5.550   7.229   1.523 -0.3632 -0.0580  0.0504
 2423WAT      O10397   5.556   7.202   2.434 -0.6378 -0.4293 -0.0715
 2423WAT     H110398   5.532   7.246   2.362  0.0481  0.6421  0.3319
 2423WAT     H210399   5.520   7.247   2.499 -0.5582 -0.9120  0.3101
 2423WAT    EPW10400   5.547   7.215   2.433 -0.1502  0.1246 -0.3785
 2424WAT      O10401   3.732   7.363   2.145 -0.3116  0.5685 -0.5376
 2424WAT     H110402   3.725   7.373   2.231 -0.1545 -0.4860 -0.3909
 2424WAT     H210403   3.650   7.342   2.121 -0.8738  2.9614 -0.9840
 2424WAT    EPW10404   3.719   7.361   2.154 -0.4621 -0.3647  0.7698
 2425WAT      O10405   4.351   7.842   1.295  0.3379  0.6400  0.4233
 2425WAT     H110406   4.308   7.889   1.235  0.5940  0.9969  0.5165
 2425WAT     H210407   4.293   7.833   1.359  0.5731  1.6054  0.7934
 2425WAT    EPW10408   4.336   7.848   1.296  0.9125 -0.1488  0.0121
 2426WAT      O10409   5.574   6.648   1.248 -0.0702  0.0546 -0.7594
 2426WAT     H110410   5.527   6.617   1.314 -0.6549  2.2219 -0.1006
 2426WAT     H210411   5.584   6.578   1.196  1.6704 -2.1516  2.2245
 2426WAT    EPW10412   5.569   6.633   1.250  0.3029  0.6719 -1.1094
 2427WAT      O10413   5.930   6.846   3.249  0.3563  0.0078  0.0231
 2427WAT     H110414   5.959   6.764   3.253 -0.3592 -0.3743 -1.7142
 2427WAT     H210415   5.850   6.838   3.214  0.0209  1.3973  0.3946
 2427WAT    EPW10416   5.922   6.832   3.245  0.4338  0.2618  0.3457
 2428WAT      O10417   6.134   7.756   1.640 -0.2049  0.5353  0.1332
 2428WAT     H110418   6.068   7.700   1.628 -0.1729  0.8275 -1.8886
 2428WAT     H210419   6.111   7.825   1.591  0.7505  1.3955  0.8527
 2428WAT    EPW10420   6.121   7.758   1.631 -0.8363 -0.2232 -0.4946
 2429WAT      O10421   5.690   7.627   2.865 -0.3376  0.0312 -0.0610
 2429WAT     H110422   5.774   7.650   2.872 -0.2057  0.3215 -2.0127
 2429WAT     H210423   5.649   7.703   2.850 -1.2213  0.1239  2.4108
 2429WAT    EPW10424   5.696   7.642   2.864 -0.1718 -0.1690 -0.6724
 2430WAT      O10425   5.227   7.955   1.965 -0.1554 -0.0596  0.5273
 2430WAT     H110426   5.277   8.023   1.943 -0.3550 -0.4439 -1.2920
 2430WAT     H210427   5.149   7.974   1.930 -0.0157 -1.5313 -0.7002
 2430WAT    EPW10428   5.223   7.968   1.957  0.3494 -0.4443 -0.0335
 2431WAT      O10429   6.373   6.902   2.250  0.0210  0.1835  0.5207
 2431WAT     H110430   6.376   6.988   2.263  0.1702 -0.0226  1.9228
 2431WAT     H210431   6.349   6.895   2.166  1.7636  1.5892 -0.1379
 2431WAT    EPW10432   6.370   6.913   2.239  0.1630 -0.4504 -0.3722
 2432WAT      O10433   6.028   0.242   2.204 -0.3024 -0.1326 -0.4017
 2432WAT     H110434   6.110   0.271   2.201 -1.1282  2.5014 -0.0671
 2432WAT     H210435   6.026   0.193   2.277  0.8005  0.3348 -0.0411
 2432WAT    EPW10436   6.040   0.239   2.214 -0.2972  0.6415  1.2415
 2433WAT      O10437   4.146   7.742   3.209  0.2751  0.0612  0.6664
 2433WAT     H110438   4.161   7.825   3.185 -0.8467 -0.1963 -1.1660
 2433WAT     H210439   4.224   7.704   3.203  0.5411  0.6759  0.0566
 2433WAT    EPW10440   4.160   7.749   3.204  1.0349  0.2191 -0.1601
 2434WAT      O10441   7.806   6.376   2.454 -0.2317 -0.4121  0.3230
 2434WAT     H110442   7.824   6.308   2.402 -0.2641 -0.9950  1.0500
 2434WAT     H210443   7.855   6.361   2.525  0.1821  0.6260  0.2674
 2434WAT    EPW10444   7.816   6.364   2.457  0.9874 -0.0793 -0.2864
 2435WAT      O10445   7.062   7.207   3.490 -0.1033  0.0753 -0.2725
 2435WAT     H110446   7.101   7.187   3.566 -1.5343 -1.8403  0.0409
 2435WAT     H210447   7.125   7.193   3.431  0.6964  0.4891  0.4542
 2435WAT    EPW10448   7.077   7.202   3.493 -0.2210 -1.1260 -0.1690
 2436WAT      O10449   4.988   0.125   2.598 -0.4339  0.5510  0.1639
 2436WAT     H110450   4.906   0.112   2.627 -0.7132  0.1014 -0.7795
 2436WAT     H210451   4.977   0.181   2.532 -0.1107 -0.2901 -0.6196
 2436WAT    EPW10452   4.974   0.131   2.593  0.4495 -0.5485  0.7788
 2437WAT      O10453   6.788   0.203   4.542 -0.0441  0.6939  0.2548
 2437WAT     H110454   6.777   0.280   4.581 -0.1399  0.6173  0.3782
 2437WAT     H210455   6.785   0.146   4.607  1.8487  0.7108  0.4137
 2437WAT    EPW10456   6.786   0.206   4.557  0.0087  0.3675  0.2837
 2438WAT      O10457   5.861   0.226   1.236  0.4386 -0.1279 -0.0450
 2438WAT     H110458   5.906   0.179   1.177  1.3165 -0.3288  0.7509
 2438WAT     H210459   5.863   0.176   1.307 -0.8276 -0.0019  0.0977
 2438WAT    EPW10460   5.868   0.212   1.237 -0.6555  0.2888 -0.2940
 2439WAT      O10461   6.391   7.188   2.250 -0.2705 -0.1901  0.3995
 2439WAT     H110462   6.328   7.229   2.205  1.1492  0.3836 -1.1843
 2439WAT     H210463   6.442   7.253   2.277  1.7168 -0.7662 -1.6652
 2439WAT    EPW10464   6.389   7.204   2.247  0.0981  0.5514 -0.0041
 2440WAT      O10465   6.098   7.287   0.915 -0.2195 -0.0965 -0.3303
 2440WAT     H110466   6.020   7.258   0.940  0.6679 -1.2827  1.2544
 2440WAT     H210467   6.126   7.225   0.860 -0.5063  0.4984 -1.1670
 2440WAT    EPW10468   6.090   7.274   0.910  0.0040 -0.3645 -0.5380
 2441WAT      O10469   6.908   7.157   2.069  0.4270 -0.0917 -0.5212
 2441WAT     H110470   6.968   7.205   2.110  0.0734  0.7357 -0.9522
 2441WAT     H210471   6.866   7.117   2.134 -0.2080  1.3008 -0.0232
 2441WAT    EPW10472   6.910   7.158   2.084 -0.3417  0.4245 -0.1406
 2442WAT      O10473   3.200   0.519   0.068  0.1217  0.4422 -0.2493
 2442WAT     H110474   3.115   0.533   0.053  0.0113  3.5220  2.1915
 2442WAT     H210475   3.209   0.433   0.056 -3.5142 -0.1627  0.1150
 2442WAT    EPW10476   3.189   0.509   0.064  0.1708  0.4853  0.9538
 2443WAT      O10477   3.942   6.815   0.606 -0.1486  0.2159 -0.3927
 2443WAT     H110478   3.870   6.794   0.652 -0.2394 -0.5908 -0.8793
 2443WAT     H210479   3.916   6.882   0.557 -0.8375 -0.5941 -1.1768
 2443WAT    EPW10480   3.927   6.822   0.606 -0.6589 -0.4471  0.0153
 2444WAT      O10481   5.836   7.192   1.572 -0.2726  0.0590  0.0570
 2444WAT     H110482   5.755   7.224   1.576  0.7452  3.1545 -0.9565
 2444WAT     H210483   5.844   7.166   1.489  0.4092  2.0588 -0.5807
 2444WAT    EPW10484   5.825   7.193   1.560 -0.1611 -1.8053 -0.2382
 2445WAT      O10485   5.487   7.422   0.385 -0.2443  0.0265  0.2943
 2445WAT     H110486   5.505   7.457   0.307 -4.0195 -0.3120 -0.9395
 2445WAT     H210487   5.470   7.490   0.436 -2.1872  0.2789 -0.5753
 2445WAT    EPW10488   5.487   7.437   0.381  0.0406  0.2110  0.1855
 2446WAT      O10489   6.822   7.020   1.602  0.0912 -0.3360  0.0482
 2446WAT     H110490   6.846   7.099   1.630  0.3847 -0.2464 -0.4471
 2446WAT     H210491   6.842   6.967   1.669  0.8663 -0.1388 -0.0226
 2446WAT    EPW10492   6.829   7.024   1.616  0.3049 -0.4558 -0.4381
 2447WAT      O10493   6.702   6.418   1.490  0.2833 -0.1186 -0.6200
 2447WAT     H110494   6.622   6.450   1.505  0.4888 -0.0633  0.5053
 2447WAT     H210495   6.695   6.379   1.413 -1.0614 -0.8740 -0.1444
 2447WAT    EPW10496   6.690   6.417   1.481 -0.2927 -0.2513  0.1422
 2448WAT      O10497   4.210   7.530   0.755 -0.6034  0.1143  0.3016
 2448WAT     H110498   4.275   7.574   0.717 -0.6218 -0.6878 -0.7109
 2448WAT     H210499   4.149   7.590   0.768  0.9249  1.2672  2.8563
 2448WAT    EPW10500   4.210   7.545   0.751 -0.3449 -0.1359  0.2367
 2449WAT      O10501   6.723   1.376   0.052 -0.3806  0.2422 -0.3915
 2449WAT     H110502   6.799   1.366   0.094 -0.3188 -1.3888 -0.8338
 2449WAT     H210503   6.732   1.328  -0.020 -1.8234  0.0182 -0.4595
 2449WAT    EPW10504   6.736   1.368   0.048  0.6697 -0.4323  0.0405
 2450WAT      O10505   6.946   7.600   7.990  0.0166  0.1236  0.2805
 2450WAT     H110506   6.937   7.665   7.932  2.0934 -0.5476 -0.8973
 2450WAT     H210507   7.007   7.630   8.045  1.4172 -0.9629 -0.6006
 2450WAT    EPW10508   6.954   7.614   7.989 -0.7671 -0.5534 -0.1153
 2451WAT      O10509   7.276   7.135   1.302 -0.5510  0.1603 -0.1604
 2451WAT     H110510   7.230   7.208   1.294 -0.5340  0.0500 -1.5167
 2451WAT     H210511   7.259   7.109   1.384  0.2267  2.1601  0.6751
 2451WAT    EPW10512   7.266   7.142   1.313  0.0534 -1.2669  0.1626
 2452WAT      O10513   3.552   6.325   7.922  1.1911  0.3167  0.1851
 2452WAT     H110514   3.611   6.358   7.976 -0.0065 -1.4537  2.8345
 2452WAT     H210515   3.582   6.245   7.906  1.3840  0.7210 -1.6656
 2452WAT    EPW10516   3.565   6.318   7.927  0.0434 -0.4565  0.2131
 2453WAT      O10517   6.699   7.738   2.040 -0.4915 -0.0333  0.5226
 2453WAT     H110518   6.721   7.682   2.103  0.7276 -0.2317 -0.0328
 2453WAT     H210519   6.636   7.696   1.997  1.1469 -1.5876 -0.5749
 2453WAT    EPW10520   6.693   7.723   2.043  0.3306  0.3289  0.0661
 2454WAT      O10521   7.290   6.320   0.351  0.7372 -0.0556  0.8638
 2454WAT     H110522   7.292   6.327   0.264  1.8654  1.2562  0.9792
 2454WAT     H210523   7.333   6.246   0.366  2.1776  0.6606  0.3849
 2454WAT    EPW10524   7.297   6.310   0.341  0.3836 -0.2765 -0.6837
 2455WAT      O10525   6.069   0.233   1.584 -0.1004  0.2890  0.0629
 2455WAT     H110526   6.051   0.292   1.522 -2.2621  1.2104  1.4409
 2455WAT     H210527   6.155   0.244   1.598  0.1807  0.9366 -1.8129
 2455WAT    EPW10528   6.079   0.243   1.577 -0.3781 -0.8452  0.2900
 2456WAT      O10529   5.156   1.027   1.322 -0.0251 -0.1267 -0.1299
 2456WAT     H110530   5.096   1.091   1.330 -1.5197 -1.3401 -1.1014
 2456WAT     H210531   5.152   1.006   1.237  1.0560 -0.9472  0.0045
 2456WAT    EPW10532   5.147   1.034   1.310 -0.0337 -0.1771  0.0108
 2457WAT      O10533   5.262   6.812   7.964 -0.8687  0.1535  0.1659
 2457WAT     H110534   5.278   6.763   8.034 -0.3620 -0.1386 -0.1476
 2457WAT     H210535   5.340   6.820   7.926 -1.5186 -2.0250 -1.8804
 2457WAT    EPW10536   5.276   6.806   7.969 -0.0995 -0.4711  0.0274
 2458WAT      O10537   5.819   7.364   1.173 -0.0646 -0.5439  0.1115
 2458WAT     H110538   5.797   7.355   1.089 -0.0859 -0.3819  0.1005
 2458WAT     H210539   5.751   7.406   1.208  0.0629 -0.3697  0.1531
 2458WAT    EPW10540   5.806   7.369   1.166 -0.4142 -0.5381  0.4489
 2459WAT      O10541   4.373   1.691   7.845 -0.4642  0.0861  0.5418
 2459WAT     H110542   4.342   1.771   7.832 -0.1975  0.1201  0.0999
 2459WAT     H210543   4.456   1.705   7.869  0.3857 -0.1212 -1.9920
 2459WAT    EPW10544   4.381   1.705   7.847  0.2164  0.4384 -1.3662
 2460WAT      O10545   5.830   7.188   2.334  0.2090  0.2014  0.3059
 2460WAT     H110546   5.896   7.219   2.382 -0.0240 -0.1830  0.8893
 2460WAT     H210547   5.769   7.168   2.394 -0.0848 -0.2914 -0.1490
 2460WAT    EPW10548   5.831   7.190   2.350  0.1184  0.6684 -0.6595
 2461WAT      O10549   7.135   7.902   2.779  0.1863  0.4218 -0.0725
 2461WAT     H110550   7.150   7.988   2.774 -0.0355  0.4200 -0.9737
 2461WAT     H210551   7.050   7.897   2.795  0.5854  0.3882  2.2633
 2461WAT    EPW10552   7.125   7.914   2.780  0.1730 -0.3868  0.5355
 2462WAT      O10553   6.065   7.433   1.274 -0.0516 -0.2320  0.4749
 2462WAT     H110554   5.987   7.421   1.238  0.1088 -0.2944  0.1480
 2462WAT     H210555   6.053   7.408   1.357  0.3924 -3.1409 -0.2498
 2462WAT    EPW10556   6.052   7.428   1.281 -0.3872  0.1681 -0.7660
 2463WAT      O10557   7.245   0.525   1.727  0.6726  0.0250 -0.3740
 2463WAT     H110558   7.188   0.475   1.684  0.2885 -3.1034  3.2306
 2463WAT     H210559   7.204   0.602   1.733 -2.1689 -1.3799 -0.0509
 2463WAT    EPW10560   7.230   0.529   1.722  0.8905  0.7726 -0.3335
 2464WAT      O10561   5.789   0.124   8.025 -0.2939  0.1521 -0.4644
 2464WAT     H110562   5.758   0.109   8.105  1.4679  0.9266  0.4030
 2464WAT     H210563   5.838   0.054   8.008 -1.3373 -0.4260 -1.2804
 2464WAT    EPW10564   5.791   0.112   8.034  1.0219 -0.3809 -0.7682
 2465WAT      O10565   4.705   0.995   0.690 -0.4866 -0.0159  0.3693
 2465WAT     H110566   4.699   0.992   0.777  1.1015 -0.5220  0.4937
 2465WAT     H210567   4.649   1.058   0.668 -1.2646 -0.2035  1.7116
 2465WAT    EPW10568   4.696   1.004   0.700 -0.8725  0.3450  0.3444
 2466WAT      O10569   6.752   7.107   1.211 -0.2953 -0.6359  0.3393
 2466WAT     H110570   6.677   7.149   1.200 -0.1536 -0.9697 -2.7858
 2466WAT     H210571   6.811   7.171   1.215 -0.5538 -0.4165  0.6311
 2466WAT    EPW10572   6.750   7.123   1.210 -1.4864  0.6487 -0.0501
 2467WAT      O10573   6.532   6.836   0.298  0.4724 -0.9677  0.5368
 2467WAT     H110574   6.538   6.906   0.350  1.4404 -0.6141 -0.0400
 2467WAT     H210575   6.614   6.817   0.278  0.1278 -1.1159 -0.8530
 2467WAT    EPW10576   6.545   6.844   0.303  0.5640  0.4653 -0.0532
 2468WAT      O10577   5.579   1.330   2.571 -0.2701 -0.2421  0.0053
 2468WAT     H110578   5.557   1.248   2.547  1.0019 -0.2535 -1.2731
 2468WAT     H210579   5.659   1.321   2.604 -1.1907  0.1178  2.5074
 2468WAT    EPW10580   5.587   1.316   2.572  0.2963  1.0566 -0.7482
 2469WAT      O10581   5.698   0.158   0.210  0.1178 -0.1024  0.5354
 2469WAT     H110582   5.702   0.094   0.269 -1.0158 -2.2575 -1.5727
 2469WAT     H210583   5.627   0.203   0.234 -1.1071 -1.7370  0.1486
 2469WAT    EPW10584   5.688   0.155   0.223 -0.0397  0.2445  0.2122
 2470WAT      O10585   6.453   0.073   1.376 -0.4498 -0.7159 -0.0450
 2470WAT     H110586   6.475   0.153   1.350 -1.4058 -0.1401  0.8720
 2470WAT     H210587   6.393   0.048   1.318 -0.0813 -0.8240 -0.3881
 2470WAT    EPW10588   6.448   0.081   1.363  0.6825 -0.5721  0.2642
 2471WAT      O10589   7.024   7.920   1.255 -0.4319 -0.7998  0.2174
 2471WAT     H110590   6.947   7.940   1.219 -0.6461 -0.3704  0.8945
 2471WAT     H210591   7.056   7.997   1.280  0.4741 -0.9098 -0.5329
 2471WAT    EPW10592   7.018   7.934   1.253 -1.1643  0.5523 -0.0177
 2472WAT      O10593   6.783   0.266   0.516 -0.3691 -0.7106  0.7412
 2472WAT     H110594   6.699   0.243   0.526 -0.0526 -2.1258  0.3992
 2472WAT     H210595   6.781   0.324   0.451 -1.0346 -1.1574  0.3560
 2472WAT    EPW10596   6.770   0.271   0.508 -0.1605 -0.5589  0.2870
 2473WAT      O10597   6.489   0.868   0.517  0.2085  0.0386  0.1870
 2473WAT     H110598   6.556   0.819   0.543  1.1874  1.3033  0.1473
 2473WAT     H210599   6.521   0.912   0.449  0.3033  2.7121  1.7970
 2473WAT    EPW10600   6.504   0.867   0.511 -0.1289 -0.0005 -0.3193
 2474WAT      O10601   4.280   7.564   1.216  0.2525  0.2559 -0.4691
 2474WAT     H110602   4.313   7.641   1.240  0.5793 -0.0167 -0.0372
 2474WAT     H210603   4.350   7.518   1.190  0.1525 -0.1305 -0.0779
 2474WAT    EPW10604   4.295   7.568   1.216  0.3222  0.1614 -0.1185
 2475WAT      O10605   6.240   0.295   0.296 -0.0716 -0.1166 -0.1140
 2475WAT     H110606   6.302   0.246   0.332 -0.3090  0.2823  0.8839
 2475WAT     H210607   6.274   0.319   0.220  0.3438 -1.2135 -0.2904
 2475WAT    EPW10608   6.254   0.292   0.290 -1.0906 -0.3804  0.9087
 2476WAT      O10609   5.307   6.385   1.348  0.2513  0.2047  0.1048
 2476WAT     H110610   5.359   6.340   1.294  1.1709  1.3749 -0.0141
 2476WAT     H210611   5.359   6.447   1.380 -0.5737  0.2198  1.4967
 2476WAT    EPW10612   5.322   6.388   1.345 -0.3187 -0.3335 -0.1310
 2477WAT      O10613   6.551   0.990   0.256 -0.1619  0.6667  0.1029
 2477WAT     H110614   6.475   0.985   0.213  0.3559  0.8098 -0.8713
 2477WAT     H210615   6.564   1.076   0.264 -1.3303  0.7091  2.6055
 2477WAT    EPW10616   6.541   1.002   0.251  0.1856 -0.4091 -0.1963
 2478WAT      O10617   5.996   0.960   7.892  0.6282  0.5846  0.3348
 2478WAT     H110618   6.009   0.900   7.953 -1.2399 -0.5770 -0.3080
 2478WAT     H210619   5.985   1.034   7.937  0.9629  0.0792  1.2679
 2478WAT    EPW10620   5.996   0.962   7.908  0.6216  0.7189 -0.6526
 2479WAT      O10621   7.278   0.099   0.793 -0.0667 -0.3603  0.7653
 2479WAT     H110622   7.279   0.185   0.785  0.1903 -0.4964 -0.9985
 2479WAT     H210623   7.357   0.080   0.825  0.3424 -0.0236 -0.0233
 2479WAT    EPW10624   7.290   0.109   0.796  0.9550 -0.1409  0.3582
 2480WAT      O10625   5.762   7.682   7.495  0.5141  0.6859  0.2238
 2480WAT     H110626   5.776   7.617   7.551  0.8829  0.2758 -0.3280
 2480WAT     H210627   5.833   7.679   7.443 -0.0207  0.7677 -0.5296
 2480WAT    EPW10628   5.775   7.672   7.495  0.2960 -0.3341 -0.7279
 2481WAT      O10629   4.235   5.877   2.033 -0.1803  0.0052  0.0561
 2481WAT     H110630   4.213   5.920   1.960 -0.6382  0.0335  0.2101
 2481WAT     H210631   4.264   5.941   2.085 -1.0588  0.1678  0.3614
 2481WAT    EPW10632   4.236   5.893   2.030 -0.1602 -0.1155 -0.2693
 2482WAT      O10633   5.921   7.068   0.967 -0.0751 -0.2639  0.2378
 2482WAT     H110634   5.855   7.013   0.983 -1.4524  1.3331  0.2405
 2482WAT     H210635   5.963   7.030   0.900 -1.7536 -0.6865 -0.6311
 2482WAT    EPW10636   5.918   7.054   0.960 -0.0081  0.1963 -0.3785
 2483WAT      O10637   6.834   0.468   0.705  0.3769  0.0561 -0.1896
 2483WAT     H110638   6.851   0.447   0.788 -1.1039  1.8225  0.6251
 2483WAT     H210639   6.831   0.390   0.664 -1.5104 -1.0933  1.9531
 2483WAT    EPW10640   6.836   0.453   0.711 -0.3768  0.5740 -1.0675
 2484WAT      O10641   5.467   0.307   1.724 -0.1355  0.2180  0.0707
 2484WAT     H110642   5.496   0.361   1.787 -1.2863  0.0168  0.8045
 2484WAT     H210643   5.400   0.351   1.690  0.6572  0.4510 -1.2463
 2484WAT    EPW10644   5.461   0.321   1.728 -0.1538 -0.4858 -0.0754
 2485WAT      O10645   6.563   6.916   1.898  0.1250 -0.0532  0.3145
 2485WAT     H110646   6.478   6.900   1.900  0.2955 -1.0424  2.2461
 2485WAT     H210647   6.567   7.001   1.876 -1.3993  0.2037  0.8815
 2485WAT    EPW10648   6.551   6.926   1.895  0.0839  0.8908 -0.3004
 2486WAT      O10649   5.157   7.298   1.401 -0.2948  0.3127 -0.1560
 2486WAT     H110650   5.190   7.221   1.424  1.5326  0.1952 -2.7013
 2486WAT     H210651   5.072   7.283   1.392 -0.0618 -1.2353  0.0822
 2486WAT    EPW10652   5.149   7.285   1.403  0.7984 -0.3164 -0.4418
 2487WAT      O10653   4.659   6.039   7.835 -0.1570 -0.0006  0.1596
 2487WAT     H110654   4.692   5.964   7.862 -0.3033 -0.2054 -0.2273
 2487WAT     H210655   4.725   6.096   7.845  0.4247 -0.4697 -0.9295
 2487WAT    EPW10656   4.673   6.037   7.841 -0.8530 -1.3179  0.5395
 2488WAT      O10657   4.867   0.813   1.700  0.1913  0.3809 -0.6059
 2488WAT     H110658   4.934   0.869   1.694  0.9595 -0.4697 -0.0962
 2488WAT     H210659   4.880   0.760   1.632 -0.5729  0.8248 -1.1232
 2488WAT    EPW10660   4.878   0.814   1.689  1.8353  0.9866 -0.4176
 2489WAT      O10661   5.205   0.030   0.741 -0.2286 -0.2040 -0.1207
 2489WAT     H110662   5.160   0.018   0.667 -2.0233 -0.3790  0.9227
 2489WAT     H210663   5.175  -0.033   0.793 -0.7802  1.3167  1.4998
 2489WAT    EPW10664   5.194   0.019   0.738  1.1771 -0.9221  1.2543
 2490WAT      O10665   6.739   7.289   2.414 -0.2953 -0.0661  0.3678
 2490WAT     H110666   6.769   7.221   2.369  0.5482 -0.2563  1.1887
 2490WAT     H210667   6.750   7.266   2.497 -3.3646 -0.4080  0.7852
 2490WAT    EPW10668   6.745   7.276   2.420 -0.4427  1.0030  0.0574
 2491WAT      O10669   5.566   6.363   0.855 -0.1810 -0.3173 -0.5663
 2491WAT     H110670   5.503   6.403   0.810  0.0269  0.6030 -0.0454
 2491WAT     H210671   5.588   6.296   0.803 -0.0640  0.6248 -1.7588
 2491WAT    EPW10672   5.560   6.359   0.840  0.6180 -0.4673 -1.2373
 2492WAT      O10673   5.502   0.582   1.084 -0.5005  0.0573 -0.6890
 2492WAT     H110674   5.581   0.551   1.101 -0.3624  0.7295 -0.1009
 2492WAT     H210675   5.506   0.665   1.108 -1.3893  0.0975 -0.6435
 2492WAT    EPW10676   5.514   0.590   1.090 -0.1215  0.4256  0.3811
 2493WAT      O10677   5.975   7.964   7.506  0.8028  0.3238 -0.9587
 2493WAT     H110678   6.041   7.929   7.549  0.4866 -0.7739 -1.3422
 2493WAT     H210679   5.978   7.925   7.428  1.1975  2.0616 -1.8566
 2493WAT    EPW10680   5.985   7.953   7.501  0.4390  0.1462  0.0461
 2494WAT      O10681   6.823   0.484   7.997 -0.2870 -0.0011 -0.0121
 2494WAT     H110682   6.772   0.425   7.957 -1.0605  0.7631 -0.1751
 2494WAT     H210683   6.874   0.435   8.048 -2.2957 -0.7231  1.4516
 2494WAT    EPW10684   6.823   0.468   7.999 -0.1206 -0.4661 -0.3294
 2495WAT      O10685   6.356   6.245   1.165 -0.2272 -0.3816  0.3815
 2495WAT     H110686   6.371   6.173   1.119  0.1114  0.5763 -1.1138
 2495WAT     H210687   6.436   6.272   1.188 -0.3516 -0.4959  0.9548
 2495WAT    EPW10688   6.370   6.239   1.161 -0.1192 -0.2363  0.2735
 2496WAT      O10689   4.794   7.994   0.346 -0.1149  0.2821 -0.2324
 2496WAT     H110690   4.723   7.948   0.368  1.0396 -0.2864  2.6407
 2496WAT     H210691   4.762   8.054   0.290 -2.9579  0.3639  1.2886
 2496WAT    EPW10692   4.779   7.996   0.341 -0.1489 -0.2407 -0.1087
 2497WAT      O10693   5.298   7.676   7.924  0.1839 -0.2226  0.3035
 2497WAT     H110694   5.349   7.745   7.940 -1.2453  0.7669  0.7970
 2497WAT     H210695   5.284   7.681   7.838 -2.2621  1.9137  0.6998
 2497WAT    EPW10696   5.303   7.687   7.914 -0.8273 -0.5015 -0.5836
 2498WAT      O10697   5.648   7.666   0.541 -0.4608 -0.1665  0.2263
 2498WAT     H110698   5.583   7.623   0.580 -1.0533 -2.8121 -3.2051
 2498WAT     H210699   5.689   7.604   0.495  2.0356  2.1284 -0.9253
 2498WAT    EPW10700   5.645   7.651   0.540 -0.6652  0.2484  0.0225
 2499WAT      O10701   6.002   7.693   1.227  0.2719  0.4644 -0.1700
 2499WAT     H110702   6.062   7.703   1.164  1.4460  0.4863  0.9168
 2499WAT     H210703   6.018   7.613   1.257 -0.8924  0.0949 -0.4936
 2499WAT    EPW10704   6.013   7.683   1.222  0.1130  0.0840  0.1748
 2500WAT      O10705   7.958   6.482   1.044 -0.8616 -0.2710 -0.0697
 2500WAT     H110706   7.895   6.542   1.052  0.4873  1.2224 -0.1665
 2500WAT     H210707   7.942   6.427   1.110 -2.5047 -0.2026 -0.3558
 2500WAT    EPW10708   7.946   6.483   1.055 -0.0059  0.1780  0.0636
 2501WAT      O10709   6.383   0.205   0.031  0.0592  0.2071  0.2742
 2501WAT     H110710   6.382   0.292   0.039  0.4037  0.3681 -1.2361
 2501WAT     H210711   6.466   0.184   0.047 -0.2214  0.0280  1.6157
 2501WAT    EPW10712   6.395   0.215   0.035 -0.1964 -0.0763  0.7471
 2502WAT      O10713   6.537   7.166   1.787 -0.0255 -0.1659 -0.4860
 2502WAT     H110714   6.552   7.247   1.760  1.1852  0.1672  1.0519
 2502WAT     H210715   6.533   7.120   1.712  0.2999  1.1242 -1.3298
 2502WAT    EPW10716   6.539   7.171   1.772 -0.5130 -0.2389 -0.9734
 2503WAT      O10717   5.741   7.832   1.548  0.3880 -0.0145  0.3468
 2503WAT     H110718   5.708   7.887   1.607  0.2619 -0.6338  0.8728
 2503WAT     H210719   5.669   7.797   1.512  0.4532 -0.6128  0.7742
 2503WAT    EPW10720   5.725   7.835   1.551 -0.1946  0.2058 -0.5197
 2504WAT      O10721   6.303   4.819   0.202 -0.6723 -0.0348 -0.1792
 2504WAT     H110722   6.346   4.855   0.135 -0.9888 -0.2378 -0.4961
 2504WAT     H210723   6.364   4.775   0.245  0.1194  2.2804  1.2502
 2504WAT    EPW10724   6.318   4.818   0.198  0.8546 -0.5183 -0.5977
 2505WAT      O10725   5.797   4.869   0.588  0.2062  0.2509  0.2884
 2505WAT     H110726   5.810   4.853   0.504 -0.9996 -0.0922  0.1416
 2505WAT     H210727   5.711   4.859   0.597  0.2824  0.5633  1.5010
 2505WAT    EPW10728   5.786   4.865   0.577 -0.2617 -0.8803  0.2200
 2506WAT      O10729   6.586   6.085   1.018 -0.2761 -0.6698 -0.0729
 2506WAT     H110730   6.562   6.124   0.943 -0.4737 -0.2398  0.2126
 2506WAT     H210731   6.646   6.027   0.992 -0.2019 -0.3903 -0.5445
 2506WAT    EPW10732   6.591   6.082   1.003  0.8033 -0.4591  0.2305
 2507WAT      O10733   4.428   6.910   0.943  0.4938 -0.6373  0.1810
 2507WAT     H110734   4.385   6.904   0.868 -0.4073 -1.1426  0.7156
 2507WAT     H210735   4.484   6.843   0.941  0.6434 -0.5019 -0.1388
 2507WAT    EPW10736   4.430   6.899   0.932  0.5651  0.1758 -0.0557
 2508WAT      O10737   4.791   4.666   0.090 -0.3260 -0.3586 -0.1572
 2508WAT     H110738   4.704   4.675   0.082 -0.2807  0.6866  0.3353
 2508WAT     H210739   4.802   4.580   0.096 -1.2286 -0.5720 -1.2776
 2508WAT    EPW10740   4.780   4.655   0.090 -0.6800 -1.0812 -0.3745
 2509WAT      O10741   4.837   4.833   7.932 -0.0638 -0.0409 -0.0852
 2509WAT     H110742   4.911   4.877   7.944  1.1847 -1.7032 -1.2665
 2509WAT     H210743   4.829   4.786   8.005  0.3690 -0.2710 -0.1805
 2509WAT    EPW10744   4.847   4.832   7.945 -0.0668 -0.3387 -0.2789
 2510WAT      O10745   5.407   6.690   6.787  0.0204 -0.7304  0.0320
 2510WAT     H110746   5.452   6.746   6.837 -0.1524 -0.2046 -0.3789
 2510WAT     H210747   5.333   6.733   6.772  1.1615  0.4375 -3.0397
 2510WAT    EPW10748   5.403   6.705   6.792 -0.0847 -0.5331  0.2268
 2511WAT      O10749   6.083   5.179   2.146 -0.3438  0.2057  0.5202
 2511WAT     H110750   6.094   5.094   2.165  0.0845  0.4795  1.5729
 2511WAT     H210751   5.997   5.187   2.137 -0.3502 -0.4344 -0.0853
 2511WAT    EPW10752   6.072   5.168   2.148  0.1794 -0.5621 -0.3568
 2512WAT      O10753   3.927   5.841   7.027 -0.3207 -0.3739  0.6596
 2512WAT     H110754   3.969   5.818   6.954  0.6159  0.8393  0.7793
 2512WAT     H210755   3.938   5.927   7.030  2.3976 -0.6548  3.8273
 2512WAT    EPW10756   3.935   5.850   7.016  0.0214 -0.4390  0.0297
 2513WAT      O10757   4.127   5.241   0.208 -0.1130 -0.0346 -0.2088
 2513WAT     H110758   4.085   5.187   0.262  2.5486 -1.6710  0.4124
 2513WAT     H210759   4.120   5.202   0.130 -0.2819  0.0230 -0.2220
 2513WAT    EPW10760   4.120   5.227   0.204 -0.5348 -0.0337 -0.4159
 2514WAT      O10761   5.144   6.765   0.365  0.8011  0.2005 -0.0777
 2514WAT     H110762   5.191   6.774   0.438 -0.0973 -1.9811  0.8684
 2514WAT     H210763   5.071   6.725   0.393  0.1874 -0.2016 -2.1094
 2514WAT    EPW10764   5.140   6.760   0.380 -0.8254  0.0992  0.2725
 2515WAT      O10765   5.088   5.797   0.741  0.4122  0.3367  0.0449
 2515WAT     H110766   5.166   5.801   0.780  0.8150  0.8859 -0.8002
 2515WAT     H210767   5.096   5.728   0.688 -0.1299 -0.3991  0.8945
 2515WAT    EPW10768   5.101   5.787   0.739 -0.6199  0.5932 -0.2828
 2516WAT      O10769   5.698   6.191   8.004 -0.6011 -0.1543  0.0880
 2516WAT     H110770   5.641   6.128   7.988 -1.8450  0.1921  2.6422
 2516WAT     H210771   5.648   6.262   8.016  0.3447  0.2548  2.0096
 2516WAT    EPW10772   5.682   6.192   8.003  0.4961  0.5364 -0.1771
 2517WAT      O10773   4.652   4.495   7.538 -0.0274  0.1339 -0.0684
 2517WAT     H110774   4.703   4.425   7.543  1.3535  1.1128  0.2604
 2517WAT     H210775   4.666   4.525   7.457  2.5224  2.1964  0.9895
 2517WAT    EPW10776   4.661   4.489   7.526 -0.1103  1.1622 -0.4746
 2518WAT      O10777   6.661   4.568   7.771 -0.1496  0.2127  0.4137
 2518WAT     H110778   6.719   4.521   7.816 -1.1611 -1.1638  0.3493
 2518WAT     H210779   6.612   4.508   7.731 -0.2797  1.3496 -1.2855
 2518WAT    EPW10780   6.662   4.552   7.772 -0.4905  0.2750 -0.9601
 2519WAT      O10781   5.736   6.156   1.212  0.1324  0.0491 -1.0844
 2519WAT     H110782   5.809   6.156   1.164  0.0930 -0.1429 -1.1460
 2519WAT     H210783   5.763   6.184   1.290  0.2179  0.2560 -1.1862
 2519WAT    EPW10784   5.751   6.160   1.217  0.6113 -0.4642 -0.1800
 2520WAT      O10785   5.287   6.207   0.174  0.0333 -0.5160 -0.0124
 2520WAT     H110786   5.246   6.147   0.223  0.2161  0.2556  1.1106
 2520WAT     H210787   5.258   6.190   0.093 -0.8200 -1.3669  0.4464
 2520WAT    EPW10788   5.277   6.195   0.169  0.6360  0.0748 -0.3831
 2521WAT      O10789   4.144   6.652   0.234  0.2911 -0.0144 -0.1872
 2521WAT     H110790   4.230   6.644   0.247  0.0171 -2.7048  0.5765
 2521WAT     H210791   4.109   6.612   0.303 -1.5327 -0.7481 -1.4534
 2521WAT    EPW10792   4.151   6.645   0.246  0.7724  0.2502 -0.2921
 2522WAT      O10793   5.565   6.802   7.901  0.0627 -0.2644 -0.2076
 2522WAT     H110794   5.595   6.792   7.982 -1.7147 -0.5043  0.4568
 2522WAT     H210795   5.598   6.733   7.859  0.5656 -0.4225  0.4317
 2522WAT    EPW10796   5.574   6.790   7.907 -0.3278  0.5707  0.1259
 2523WAT      O10797   5.409   6.173   7.012 -0.0008  0.5863 -0.0018
 2523WAT     H110798   5.332   6.207   7.037  1.0533  2.4616  0.9514
 2523WAT     H210799   5.421   6.206   6.932  0.3712  1.3844  0.3664
 2523WAT    EPW10800   5.399   6.183   7.004  0.1215 -0.6833  0.6618
 2524WAT      O10801   6.405   7.114   1.076  0.9415 -0.6043  0.1040
 2524WAT     H110802   6.319   7.112   1.061  0.7546  1.1482  0.7986
 2524WAT     H210803   6.412   7.148   1.156  2.2942 -0.7472  0.0795
 2524WAT    EPW10804   6.394   7.119   1.085 -0.1180  0.6160  0.3405
 2525WAT      O10805   5.074   7.281   7.071  0.8494 -0.6032  0.1242
 2525WAT     H110806   4.996   7.269   7.108  1.6807 -1.5041  1.7174
 2525WAT     H210807   5.087   7.367   7.079 -0.2416 -0.3263 -0.7911
 2525WAT    EPW10808   5.064   7.292   7.078  0.4778 -0.0634  0.0219
 2526WAT      O10809   6.528   4.289   7.946 -0.3187  0.4651  0.6266
 2526WAT     H110810   6.514   4.235   8.013 -0.3791  0.5429  0.6774
 2526WAT     H210811   6.475   4.357   7.963 -0.5047  0.3819  0.3838
 2526WAT    EPW10812   6.518   4.291   7.959 -0.1654  0.0569 -0.4065
 2527WAT      O10813   4.554   6.567   7.639 -0.2242  0.3464 -0.8438
 2527WAT     H110814   4.496   6.564   7.574  0.3734  0.1438 -1.3863
 2527WAT     H210815   4.580   6.485   7.647  0.1209  0.4631 -0.7392
 2527WAT    EPW10816   4.550   6.555   7.630  0.7971  0.1128  0.0460
 2528WAT      O10817   4.470   7.465   7.749  0.1413 -0.7036  0.4803
 2528WAT     H110818   4.467   7.399   7.805  0.4593  0.4749  1.9431
 2528WAT     H210819   4.508   7.529   7.794  0.2815  0.3482 -1.0406
 2528WAT    EPW10820   4.475   7.465   7.764  0.1109 -0.2703  0.9278
 2529WAT      O10821   0.351   5.149   0.227  0.1744 -0.5799 -0.0110
 2529WAT     H110822   0.273   5.158   0.265 -0.2279 -3.6084  0.0835
 2529WAT     H210823   0.401   5.207   0.270 -1.5782  0.1392  1.1679
 2529WAT    EPW10824   0.347   5.159   0.239 -0.4410  0.0666 -0.3295
 2530WAT      O10825   5.786   5.846   0.167 -0.3375  0.0103 -0.1129
 2530WAT     H110826   5.836   5.777   0.185 -0.2002 -0.6292 -2.6272
 2530WAT     H210827   5.819   5.909   0.219  2.1177 -0.7660 -0.5917
 2530WAT    EPW10828   5.798   5.845   0.178 -0.2321 -0.8258  0.8511
 2531WAT      O10829   5.022   7.636   7.976 -0.1842  0.5307  0.1781
 2531WAT     H110830   4.995   7.709   8.015 -2.0095  0.9961 -1.7930
 2531WAT     H210831   5.109   7.647   7.973 -0.4034  2.7628 -0.2426
 2531WAT    EPW10832   5.031   7.649   7.981  0.0524  0.1400 -0.8597
 2532WAT      O10833   6.375   7.426   0.560  0.0503  0.1162  0.4023
 2532WAT     H110834   6.420   7.447   0.631  1.0972  0.1453 -0.2532
 2532WAT     H210835   6.434   7.387   0.509 -0.4975  0.7948 -0.7754
 2532WAT    EPW10836   6.390   7.423   0.563  0.0692  0.1659 -0.1073
 2533WAT      O10837   6.789   6.745   8.023 -0.0920 -0.4297  0.3406
 2533WAT     H110838   6.826   6.678   7.982  0.7193  0.6873 -0.8491
 2533WAT     H210839   6.814   6.814   7.975  0.0381  0.8367  2.1437
 2533WAT    EPW10840   6.799   6.745   8.009  1.4733 -0.1797 -0.1726
 2534WAT      O10841   5.982   3.648   0.179  0.5454  0.2270 -0.4739
 2534WAT     H110842   5.924   3.603   0.132  0.6594 -0.9663  0.4812
 2534WAT     H210843   5.945   3.727   0.187 -0.4739 -0.2081 -0.7350
 2534WAT    EPW10844   5.968   3.653   0.173  0.5814  0.3370 -0.4911
 2535WAT      O10845   6.670   6.152   8.010 -0.2658 -0.4163 -0.1367
 2535WAT     H110846   6.685   6.146   8.096 -1.2363 -2.3022 -0.0428
 2535WAT     H210847   6.631   6.229   8.001 -0.0640 -0.1480  1.1031
 2535WAT    EPW10848   6.667   6.162   8.022 -0.3584 -0.0952 -0.3517
 2536WAT      O10849   5.851   5.624   1.176 -0.5736 -0.6811  0.1260
 2536WAT     H110850   5.882   5.545   1.196 -2.7420 -1.9321 -1.0609
 2536WAT     H210851   5.827   5.657   1.254  0.3305 -1.1647  0.6284
 2536WAT    EPW10852   5.852   5.617   1.191 -0.5631  0.0570  0.5027
 2537WAT      O10853   6.992   6.407   0.770  0.1480  0.6695  0.0220
 2537WAT     H110854   7.024   6.459   0.707  0.6911 -1.9354 -1.9970
 2537WAT     H210855   6.911   6.391   0.744  0.4680 -0.6706 -0.2178
 2537WAT    EPW10856   6.985   6.413   0.757 -0.6045 -0.1717 -0.3707
 2538WAT      O10857   5.271   4.575   0.757 -0.1243  0.1322  0.5294
 2538WAT     H110858   5.299   4.637   0.812  1.9466 -1.2239  1.1197
 2538WAT     H210859   5.301   4.502   0.793 -1.5265 -1.1257 -0.7568
 2538WAT    EPW10860   5.280   4.574   0.771  0.1517 -0.2128 -0.8311
 2539WAT      O10861   5.015   6.920   1.009 -0.7007  0.1559  0.0087
 2539WAT     H110862   5.027   6.947   0.927 -0.9340  1.3226  0.3428
 2539WAT     H210863   5.015   6.994   1.055 -2.5608 -0.2897  0.8238
 2539WAT    EPW10864   5.017   6.935   1.003 -0.1581 -1.0716 -0.7013
 2540WAT      O10865   4.696   4.904   7.284  0.6832  0.3414 -0.1592
 2540WAT     H110866   4.752   4.885   7.349  1.0294  0.7586 -0.3308
 2540WAT     H210867   4.739   4.963   7.237  0.0226  0.8040 -0.1968
 2540WAT    EPW10868   4.711   4.910   7.287  0.8636 -0.0105 -0.5893
 2541WAT      O10869   6.666   2.996   0.167  0.0463 -0.4816 -0.1311
 2541WAT     H110870   6.639   3.065   0.120 -1.6714 -1.0279 -0.0111
 2541WAT     H210871   6.647   3.018   0.249 -0.9803 -1.2517 -0.1332
 2541WAT    EPW10872   6.659   3.009   0.172 -0.3930  0.2366 -0.3129
 2542WAT      O10873   5.671   5.519   0.140 -0.2572 -0.1473  0.1166
 2542WAT     H110874   5.734   5.576   0.121 -0.3128 -0.0414  0.2454
 2542WAT     H210875   5.710   5.463   0.194 -0.7335  0.9605  1.7049
 2542WAT    EPW10876   5.686   5.519   0.145 -0.7790  0.8171 -0.3167
 2543WAT      O10877   6.230   5.691   0.054  0.1222 -0.1496  0.2998
 2543WAT     H110878   6.283   5.754   0.028 -0.5727  0.3244 -0.0075
 2543WAT     H210879   6.264   5.619   0.018  0.3134  0.2055 -0.2409
 2543WAT    EPW10880   6.243   5.689   0.045  0.6552 -0.2188 -0.5634
 2544WAT      O10881   6.421   0.095   0.379 -0.1795  0.0892 -0.2726
 2544WAT     H110882   6.396   0.016   0.353 -1.2478 -0.6786  2.6700
 2544WAT     H210883   6.485   0.078   0.437  0.2054  1.4311 -0.2767
 2544WAT    EPW10884   6.427   0.081   0.384  0.9673 -0.1001  0.0463
 2545WAT      O10885   5.264   7.105   7.294 -0.4352 -1.0261 -0.3789
 2545WAT     H110886   5.280   7.126   7.211 -0.1995  1.9862  0.3345
 2545WAT     H210887   5.177   7.097   7.296 -0.4906 -0.5759 -0.8050
 2545WAT    EPW10888   5.253   7.107   7.282 -0.0743  0.0178 -0.0165
 2546WAT      O10889   6.642   6.589   0.777 -0.1360  0.3695 -0.3585
 2546WAT     H110890   6.572   6.605   0.727 -0.0645  1.6796 -0.0605
 2546WAT     H210891   6.709   6.617   0.728 -0.0492  1.4726  0.3687
 2546WAT    EPW10892   6.642   6.595   0.762  0.3756  0.2542 -0.1014
 2547WAT      O10893   5.593   0.022   7.853 -0.3373 -0.6611 -0.6291
 2547WAT     H110894   5.646   0.050   7.917 -2.6214 -0.6811  1.4197
 2547WAT     H210895   5.648  -0.003   7.790  2.0176  0.4063  0.8669
 2547WAT    EPW10896   5.609   0.022   7.853  0.6624  0.0904 -0.5274
 2548WAT      O10897   6.295   3.934   7.470 -0.0837  0.6784  0.1525
 2548WAT     H110898   6.278   4.012   7.434  0.4944 -0.0577 -1.8780
 2548WAT     H210899   6.257   3.878   7.415  0.6687 -0.5263  0.8223
 2548WAT    EPW10900   6.287   3.937   7.456 -0.3636  0.0102  0.0978
 2549WAT      O10901   5.080   7.387   0.678  0.5368  0.2071 -0.3659
 2549WAT     H110902   5.117   7.377   0.600  0.1857 -0.3623 -0.4598
 2549WAT     H210903   5.133   7.445   0.718  1.5994 -0.6573 -0.4552
 2549WAT    EPW10904   5.094   7.394   0.672  0.6078 -0.8434 -0.1894
 2550WAT      O10905   5.059   5.910   0.005 -0.0248  0.4498 -0.6649
 2550WAT     H110906   5.058   5.995  -0.014  0.7290  0.4802 -0.5882
 2550WAT     H210907   5.027   5.873  -0.067 -1.3795  0.8577 -0.3055
 2550WAT    EPW10908   5.054   5.917  -0.008 -0.2110  0.0234 -0.4034
 2551WAT      O10909   7.105   4.636   7.769 -0.2378  0.5956  0.4089
 2551WAT     H110910   7.160   4.648   7.702 -1.1858 -0.3582 -0.5915
 2551WAT     H210911   7.027   4.649   7.734 -0.7209  1.0407  1.5963
 2551WAT    EPW10912   7.102   4.639   7.754  0.8545  0.2990  0.7149
 2552WAT      O10913   6.416   6.471   1.506  0.3878 -0.1484 -0.4521
 2552WAT     H110914   6.374   6.395   1.502 -0.5857  0.3515 -0.1537
 2552WAT     H210915   6.359   6.528   1.471  0.4344  0.6930  0.7761
 2552WAT    EPW10916   6.402   6.468   1.500 -0.7601 -0.0660  0.4482
 2553WAT      O10917   3.560   6.067   7.845 -0.0440 -0.1684  0.6327
 2553WAT     H110918   3.526   6.056   7.766  0.4321  0.3294  0.3526
 2553WAT     H210919   3.520   6.006   7.893  0.9277 -1.6529 -0.3798
 2553WAT    EPW10920   3.549   6.056   7.841  0.2354 -0.3764 -0.4764
 2554WAT      O10921   7.345   4.736   0.490  0.1319 -0.0841 -0.0264
 2554WAT     H110922   7.366   4.731   0.574 -0.2754  0.0238  0.0849
 2554WAT     H210923   7.260   4.717   0.488 -0.1122  0.9354 -0.2747
 2554WAT    EPW10924   7.336   4.733   0.502 -0.8435  0.3041  0.5478
 2555WAT      O10925   3.803   5.570   0.934  0.2866 -0.2057 -0.1340
 2555WAT     H110926   3.789   5.573   0.848  0.3317 -0.1555 -0.1398
 2555WAT     H210927   3.723   5.561   0.968  0.3913 -1.8424 -0.2509
 2555WAT    EPW10928   3.789   5.569   0.926  0.3099  0.6780  0.1413
 2556WAT      O10929   5.386   6.785   0.535  0.5270  0.1593  0.7438
 2556WAT     H110930   5.440   6.776   0.467 -0.2233  0.3170  0.1139
 2556WAT     H210931   5.401   6.714   0.583  0.9073 -0.0564  0.3108
 2556WAT    EPW10932   5.396   6.773   0.532  0.3972  0.1838  0.2200
 2557WAT      O10933   6.153   5.213   0.483 -0.2903  1.0380 -0.2300
 2557WAT     H110934   6.069   5.187   0.488  0.1686 -0.2352  2.4574
 2557WAT     H210935   6.187   5.159   0.423 -1.1432  0.8147 -0.5294
 2557WAT    EPW10936   6.145   5.201   0.475 -0.4110 -1.1635 -0.5470
 2558WAT      O10937   4.189   6.097   7.335 -0.0675 -0.1922 -0.7400
 2558WAT     H110938   4.245   6.094   7.268  0.8297  1.3694 -0.1055
 2558WAT     H210939   4.219   6.036   7.390  1.7201  1.3248  0.0705
 2558WAT    EPW10940   4.202   6.088   7.333  0.4290  0.5194  0.0554
 2559WAT      O10941   5.646   6.193   0.625  0.2846  0.0670  0.5356
 2559WAT     H110942   5.705   6.143   0.665  0.8219 -0.0938 -0.4347
 2559WAT     H210943   5.579   6.139   0.613  0.8574 -0.4348 -0.4983
 2559WAT    EPW10944   5.645   6.177   0.629 -0.6738  0.1998  0.1471
 2560WAT      O10945   5.347   5.194   0.708 -0.3048  0.9060  0.4346
 2560WAT     H110946   5.432   5.188   0.694 -0.5601 -0.3013 -0.8663
 2560WAT     H210947   5.324   5.267   0.664  0.0053  1.0447  0.5032
 2560WAT    EPW10948   5.356   5.204   0.699  1.1146 -0.4028 -0.8747
 2561WAT      O10949   5.558   5.160   7.970  0.0361 -0.1766 -0.8407
 2561WAT     H110950   5.536   5.132   7.891  0.4599 -0.7774 -0.7512
 2561WAT     H210951   5.634   5.200   7.958 -0.2315  0.3454 -0.8473
 2561WAT    EPW10952   5.566   5.161   7.957  0.6828 -0.5211 -0.7433
 2562WAT      O10953   5.753   4.826   1.386 -0.0888 -0.0200 -0.1831
 2562WAT     H110954   5.809   4.794   1.328  0.8048  0.7682  0.2259
 2562WAT     H210955   5.793   4.810   1.463  0.1390  1.5696  0.0578
 2562WAT    EPW10956   5.767   4.819   1.389 -0.7937 -0.0895 -0.2507
 2563WAT      O10957   6.888   5.510   7.917  0.2879 -0.2987  0.7487
 2563WAT     H110958   6.872   5.481   7.836  1.1632  0.2992  0.3443
 2563WAT     H210959   6.809   5.520   7.951 -0.0954 -0.4665 -0.0687
 2563WAT    EPW10960   6.874   5.507   7.910 -0.3263 -0.2294  0.4120
 2564WAT      O10961   6.418   5.887   8.043 -0.4147 -0.0221 -0.3346
 2564WAT     H110962   6.474   5.914   7.982 -0.7519  1.1822 -0.1490
 2564WAT     H210963   6.456   5.911   8.118 -1.3179  1.1412 -0.2241
 2564WAT    EPW10964   6.432   5.894   8.045 -0.5518  0.4662 -0.0422
 2565WAT      O10965   4.995   0.356   5.891  0.3719  0.3879  0.8180
 2565WAT     H110966   5.037   0.297   5.940  0.6404 -0.6582 -0.6181
 2565WAT     H210967   4.941   0.308   5.842 -0.2428  1.4475  0.4155
 2565WAT    EPW10968   4.993   0.341   5.891  0.8177 -0.2714  0.0843
 2566WAT      O10969   5.318   5.307   1.002 -0.3644  0.5438 -0.1209
 2566WAT     H110970   5.319   5.324   0.916  0.9503 -0.0638 -0.2580
 2566WAT     H210971   5.361   5.232   1.009 -1.5643 -0.0871  0.9731
 2566WAT    EPW10972   5.325   5.299   0.990  0.6156 -0.3943 -0.3647
 2567WAT      O10973   5.298   7.861   0.338  0.2247  0.8451 -0.2056
 2567WAT     H110974   5.371   7.893   0.374 -0.5124  2.9923 -0.4658
 2567WAT     H210975   5.235   7.905   0.379 -1.0441 -1.5044  0.5734
 2567WAT    EPW10976   5.299   7.872   0.349  0.1313  0.2723  0.9922
 2568WAT      O10977   4.805   4.703   7.709  0.5202  0.1041  0.4556
 2568WAT     H110978   4.816   4.746   7.784 -0.6206 -0.3720  0.9237
 2568WAT     H210979   4.855   4.632   7.719 -1.2262 -1.0651  1.7412
 2568WAT    EPW10980   4.814   4.699   7.722  0.4688 -0.5202 -0.6670
 2569WAT      O10981   4.454   5.132   8.032  0.1741 -0.2593 -0.2815
 2569WAT     H110982   4.488   5.055   8.010  1.0031  0.3723 -1.2710
 2569WAT     H210983   4.503   5.157   8.100 -0.4206 -0.8096  0.3708
 2569WAT    EPW10984   4.466   5.124   8.039  0.4763 -0.3885 -0.0923
 2570WAT      O10985   5.860   6.022   0.754  0.0702  0.3647 -0.0786
 2570WAT     H110986   5.848   5.989   0.833 -0.8284  0.9670  0.0494
 2570WAT     H210987   5.886   5.954   0.707  0.2053 -0.0882  0.6354
 2570WAT    EPW10988   5.862   6.007   0.759  0.0650  0.1316  0.2158
 2571WAT      O10989   5.795   4.789   0.311  0.1039  0.2819  0.1347
 2571WAT     H110990   5.843   4.716   0.306  0.2094  0.4280 -1.1367
 2571WAT     H210991   5.714   4.760   0.323 -0.4324 -0.2643 -3.7674
 2571WAT    EPW10992   5.790   4.774   0.312  0.2193 -0.4749 -0.2562
 2572WAT      O10993   3.990   6.122   0.731  0.4429 -0.5616 -0.4994
 2572WAT     H110994   4.028   6.084   0.800 -0.8020 -0.7832  0.0944
 2572WAT     H210995   3.931   6.063   0.706 -0.3362  0.2655 -0.6386
 2572WAT    EPW10996   3.987   6.107   0.738  0.1603 -0.4242 -0.0740
 2573WAT      O10997   4.441   7.922   6.928  0.0406  0.2458 -0.2737
 2573WAT     H110998   4.402   7.914   7.005 -0.6654  1.5408 -0.4670
 2573WAT     H210999   4.374   7.929   6.872  0.5152  1.4963 -0.7242
 2573WAT    EPW11000   4.425   7.922   6.931  0.5394 -0.3965 -0.3034
 2574WAT      O11001   5.654   3.070   0.057  0.4393  0.2713  0.1955
 2574WAT     H111002   5.622   2.990   0.066 -0.1255  0.4832  0.1563
 2574WAT     H211003   5.652   3.102   0.139  0.9998  0.1219  0.2675
 2574WAT    EPW11004   5.649   3.063   0.071 -0.1617 -0.1973 -0.8788
 2575WAT      O11005   5.757   6.593   0.904  0.5653  0.2674 -0.1192
 2575WAT     H111006   5.813   6.574   0.840 -0.2281 -0.9345 -0.4982
 2575WAT     H211007   5.693   6.535   0.893 -0.7841  1.5955  0.2691
 2575WAT    EPW11008   5.756   6.582   0.893  0.2509  0.1734  0.1098
 2576WAT      O11009   4.856   5.246   0.328 -0.1556  0.0734  0.2785
 2576WAT     H111010   4.799   5.310   0.313  0.5972  0.5174 -0.8027
 2576WAT     H211011   4.886   5.227   0.248 -1.0970 -2.3377  0.4004
 2576WAT    EPW11012   4.852   5.253   0.314  0.8618  0.4276 -0.5567
 2577WAT      O11013   6.582   6.719   1.366  0.2786 -0.5116  1.0324
 2577WAT     H111014   6.515   6.754   1.323  1.0603 -0.4668 -0.1864
 2577WAT     H211015   6.646   6.776   1.353  1.9301 -2.7468 -1.9583
 2577WAT    EPW11016   6.581   6.732   1.358  0.5849  0.0066  0.1526
 2578WAT      O11017   7.060   5.054   7.135  0.3531 -0.1088 -0.1970
 2578WAT     H111018   7.004   5.102   7.089  1.6037  0.2345 -1.4454
 2578WAT     H211019   7.031   5.061   7.217 -2.2937 -1.1994 -0.9492
 2578WAT    EPW11020   7.047   5.062   7.141 -0.0229  0.0903 -0.4621
 2579WAT      O11021   6.944   6.105   0.593 -0.1682  0.0468 -0.0090
 2579WAT     H111022   6.882   6.043   0.589  1.2696 -1.7031  2.0872
 2579WAT     H211023   6.899   6.179   0.598 -2.2556 -1.2278  2.9139
 2579WAT    EPW11024   6.928   6.107   0.593 -0.1075 -0.0530 -0.0903
 2580WAT      O11025   6.349   4.401   1.768 -0.2419  0.1600 -0.4269
 2580WAT     H111026   6.319   4.382   1.688  0.4403  1.6386 -1.0659
 2580WAT     H211027   6.330   4.485   1.778  2.7783  0.9385 -0.4781
 2580WAT    EPW11028   6.342   4.410   1.758  0.0659  0.0109 -0.2286
 2581WAT      O11029   0.010   5.243   0.171  0.6072  0.8550 -0.0688
 2581WAT     H111030  -0.056   5.292   0.198  0.6126  1.3229 -0.8825
 2581WAT     H211031  -0.001   5.168   0.214  0.0307  1.2156  0.4252
 2581WAT    EPW11032  -0.001   5.239   0.181 -0.4645  0.1967  0.1727
 2582WAT      O11033   5.276   7.006   7.553 -0.0227  0.2272  0.9173
 2582WAT     H111034   5.282   7.036   7.471 -2.6924 -0.2664  0.4406
 2582WAT     H211035   5.227   7.066   7.593  0.0391 -0.2721  1.7571
 2582WAT    EPW11036   5.269   7.020   7.546 -0.1550 -0.5648 -0.0964
 2583WAT      O11037   8.053   4.296   0.813 -0.2506 -0.1702 -0.2999
 2583WAT     H111038   7.990   4.349   0.842  0.1229  0.1889 -0.1260
 2583WAT     H211039   8.051   4.306   0.726  0.1523  0.5341 -0.2398
 2583WAT    EPW11040   8.044   4.305   0.804  0.0397  0.2511 -0.7812
 2584WAT      O11041   6.672   7.582   1.037  0.3084 -0.3800  0.2501
 2584WAT     H111042   6.639   7.503   1.055 -0.7540 -0.5126 -1.9464
 2584WAT     H211043   6.742   7.587   1.088 -0.2739 -2.2300  1.3329
 2584WAT    EPW11044   6.677   7.571   1.047  0.8207 -0.8586 -0.0003
 2585WAT      O11045   6.414   7.454   0.819 -0.4527  0.1204 -0.1747
 2585WAT     H111046   6.462   7.381   0.811  1.1565  0.9887  1.0309
 2585WAT     H211047   6.380   7.447   0.899 -0.8947  0.3606 -0.3389
 2585WAT    EPW11048   6.416   7.442   0.829 -0.8158  0.1400 -0.2748
 2586WAT      O11049   5.621   5.141   0.413  0.3677 -0.0727  0.3920
 2586WAT     H111050   5.659   5.195   0.356  1.3312  1.1491  2.1004
 2586WAT     H211051   5.548   5.117   0.373  0.0324  2.3032 -0.5653
 2586WAT    EPW11052   5.616   5.146   0.399 -0.0114 -0.1577 -0.4291
 2587WAT      O11053   6.247   6.995   7.521  0.8454 -0.1567 -0.0880
 2587WAT     H111054   6.162   6.976   7.520  0.3451  0.5573 -5.8806
 2587WAT     H211055   6.252   7.065   7.573 -1.8925 -0.7688  1.1706
 2587WAT    EPW11056   6.235   7.002   7.529  0.2511  0.3408  0.6838
 2588WAT      O11057   6.913   6.345   0.161 -0.4961 -0.1645 -0.0096
 2588WAT     H111058   6.903   6.415   0.212  0.5144  0.1524 -0.2147
 2588WAT     H211059   6.967   6.294   0.206 -2.6462 -1.6818  0.9573
 2588WAT    EPW11060   6.920   6.348   0.175  0.0201  0.1592 -0.1759
 2589WAT      O11061   6.998   5.050   7.398 -0.2202  0.0804 -0.1967
 2589WAT     H111062   6.913   5.071   7.404 -0.7326 -1.0071 -2.5676
 2589WAT     H211063   7.039   5.125   7.415 -1.7552  1.2649 -1.4552
 2589WAT    EPW11064   6.991   5.064   7.401 -0.2282 -0.4307 -0.7096
 2590WAT      O11065   7.126   5.547   1.047  0.1288  0.0877  0.0093
 2590WAT     H111066   7.167   5.475   1.021  2.8430  1.4892  0.0453
 2590WAT     H211067   7.108   5.589   0.973 -0.1085  0.0768  0.0578
 2590WAT    EPW11068   7.129   5.543   1.033  0.2827 -0.8130 -0.1552
 2591WAT      O11069   5.746   3.946   7.366 -0.0791 -0.2003 -0.5387
 2591WAT     H111070   5.815   3.996   7.382 -0.8846  0.8161 -0.1041
 2591WAT     H211071   5.710   3.984   7.296 -1.9736  1.2960  1.1207
 2591WAT    EPW11072   5.751   3.959   7.358 -0.0444  0.0055  0.9780
 2592WAT      O11073   0.108   6.814   0.398  0.0453 -0.4375 -0.4302
 2592WAT     H111074   0.099   6.893   0.364  0.7196 -1.4136 -3.0812
 2592WAT     H211075   0.026   6.785   0.405 -0.3678  1.0529  2.2928
 2592WAT    EPW11076   0.094   6.821   0.394 -0.4647 -0.6422  0.2135
 2593WAT      O11077   7.627   5.959   0.740  0.0718  0.5972  0.4442
 2593WAT     H111078   7.708   5.934   0.719 -0.4666  0.5712 -1.9179
 2593WAT     H211079   7.639   6.037   0.777  1.1719  0.8861 -0.4423
 2593WAT    EPW11080   7.641   5.966   0.742 -1.1793 -0.2326  0.1909
 2594WAT      O11081   4.816   7.066   7.933  0.1130 -0.2829 -0.0469
 2594WAT     H111082   4.878   7.116   7.970 -0.1715 -0.4207  0.6280
 2594WAT     H211083   4.832   7.074   7.847  0.6467  0.2205  0.0917
 2594WAT    EPW11084   4.828   7.075   7.926 -0.7703 -0.0615  0.4121
 2595WAT      O11085   6.909   5.632   1.569  0.0709  0.3791 -0.0743
 2595WAT     H111086   6.996   5.627   1.562  0.1281  0.3117  0.6016
 2595WAT     H211087   6.894   5.718   1.577 -0.0550  0.5246 -1.5912
 2595WAT    EPW11088   6.919   5.644   1.569  0.4173 -0.6423 -0.0781
 2596WAT      O11089   6.836   6.491   2.056 -0.2844 -0.2514 -0.2969
 2596WAT     H111090   6.770   6.493   2.113  1.8596 -0.6209  2.4534
 2596WAT     H211091   6.869   6.571   2.059  0.7849 -0.6890  0.2422
 2596WAT    EPW11092   6.831   6.503   2.065 -0.0116 -0.0025 -0.3643
 2597WAT      O11093   5.579   5.759   0.787 -0.2161  0.5750  0.0242
 2597WAT     H111094   5.636   5.718   0.839 -1.2507  0.0004  0.7746
 2597WAT     H211095   5.502   5.724   0.811 -0.6371 -1.0965 -3.1122
 2597WAT    EPW11096   5.576   5.748   0.798 -0.5963  0.3262 -0.0966
 2598WAT      O11097   5.673   5.566   0.963 -0.0397  0.4674 -0.0981
 2598WAT     H111098   5.603   5.527   0.997  1.1249 -1.0804  0.6444
 2598WAT     H211099   5.706   5.611   1.031  0.9297 -0.6767  0.2344
 2598WAT    EPW11100   5.668   5.567   0.978  0.2615 -0.0286 -0.3903
 2599WAT      O11101   5.310   6.532   7.044 -0.5336 -0.1055 -0.2009
 2599WAT     H111102   5.239   6.482   7.052 -2.2431  2.1451 -0.5969
 2599WAT     H211103   5.330   6.527   6.959  0.9382 -2.0850  0.1651
 2599WAT    EPW11104   5.303   6.524   7.033  0.2903 -0.8364 -0.2126
 2600WAT      O11105   8.031   6.333   7.746  0.0414  0.0082  0.3305
 2600WAT     H111106   8.111   6.339   7.710 -0.0692  0.2924  0.1312
 2600WAT     H211107   8.042   6.273   7.809  0.3129 -0.2693  0.0268
 2600WAT    EPW11108   8.044   6.325   7.750 -0.6494 -0.0732  0.0548
 2601WAT      O11109   5.142   6.035   0.350 -0.3807  0.6274  0.4279
 2601WAT     H111110   5.181   5.957   0.352 -0.4969  0.4280 -1.9984
 2601WAT     H211111   5.064   6.017   0.315 -0.9431  1.6676  1.1105
 2601WAT    EPW11112   5.136   6.021   0.345  0.2613  0.0881  0.4247
 2602WAT      O11113   5.639   6.331   5.736 -0.3915  0.2732  0.1049
 2602WAT     H111114   5.593   6.405   5.742 -0.6532  0.1292 -0.0895
 2602WAT     H211115   5.722   6.358   5.740 -0.4954  0.4985  0.7999
 2602WAT    EPW11116   5.645   6.346   5.737  0.1563 -0.9128 -0.0762
 2603WAT      O11117   5.979   5.674   8.012 -0.1382  0.4098 -0.1231
 2603WAT     H111118   5.998   5.606   7.960 -1.0442  0.1715 -0.1512
 2603WAT     H211119   6.052   5.684   8.059 -0.4221 -1.4309  0.8110
 2603WAT    EPW11120   5.993   5.666   8.011  0.5902 -0.0274 -0.4664
 2604WAT      O11121   4.870   2.564   1.304 -0.3310  0.0273  0.5715
 2604WAT     H111122   4.915   2.535   1.373 -0.0873  0.5422  0.6291
 2604WAT     H211123   4.902   2.644   1.290  0.2683 -0.4162 -0.7186
 2604WAT    EPW11124   4.881   2.571   1.312 -0.4818 -0.4915 -0.7250
 2605WAT      O11125   5.311   5.811   0.442  0.2222 -0.1454  0.0456
 2605WAT     H111126   5.375   5.758   0.415 -0.2132  0.4744 -2.3583
 2605WAT     H211127   5.353   5.871   0.489  1.1034 -0.9120  0.2781
 2605WAT    EPW11128   5.327   5.812   0.445  0.3211  0.9804  0.5273
 2606WAT      O11129   4.988   5.092   0.142  0.5547  0.6577  0.3599
 2606WAT     H111130   4.952   5.115   0.066  0.6407 -1.9785 -0.5933
 2606WAT     H211131   5.063   5.135   0.144  0.2098  1.3346 -0.6759
 2606WAT    EPW11132   4.994   5.102   0.131 -0.2166 -0.2837 -0.3320
 2607WAT      O11133   6.638   6.239   1.258  0.2628  0.2466  0.3086
 2607WAT     H111134   6.594   6.191   1.316  4.4685 -3.6517  0.8560
 2607WAT     H211135   6.622   6.199   1.182 -0.2823  1.4070 -0.2132
 2607WAT    EPW11136   6.629   6.226   1.255  0.8961  0.1001  0.3762
 2608WAT      O11137   3.715   7.431   0.272 -0.2437  0.1768  0.1293
 2608WAT     H111138   3.689   7.352   0.296 -2.6463  1.3059  1.5792
 2608WAT     H211139   3.705   7.431   0.185  0.7500 -1.3862 -0.0067
 2608WAT    EPW11140   3.710   7.420   0.262 -0.3524  0.3206 -0.3545
 2609WAT      O11141   4.388   6.265   0.527 -0.0783 -0.8375  0.2387
 2609WAT     H111142   4.320   6.219   0.498 -0.9460  0.3740  0.2703
 2609WAT     H211143   4.445   6.263   0.461 -0.2144 -1.7163  0.1423
 2609WAT    EPW11144   4.387   6.258   0.513  0.1804 -0.7117 -0.1530
 2610WAT      O11145   6.002   6.300   7.262 -0.0926 -0.7883  0.4031
 2610WAT     H111146   6.085   6.323   7.273 -0.2987 -0.5591  1.6807
 2610WAT     H211147   6.004   6.243   7.196  1.2295 -1.6172  1.1159
 2610WAT    EPW11148   6.014   6.295   7.254 -0.9097 -0.5502 -0.6107
 2611WAT      O11149   5.311   7.266   6.641  0.0484  0.3407 -0.4236
 2611WAT     H111150   5.243   7.273   6.695  0.4914  1.2901  0.0249
 2611WAT     H211151   5.367   7.214   6.685 -0.4684 -0.6374 -0.8946
 2611WAT    EPW11152   5.310   7.259   6.656  0.3370 -1.3622  0.1145
 2612WAT      O11153   5.021   6.462   0.614 -0.3018 -0.4204 -0.0370
 2612WAT     H111154   4.986   6.414   0.677  2.3689 -2.0836  0.3449
 2612WAT     H211155   5.062   6.526   0.656 -2.5585  1.3989 -0.4619
 2612WAT    EPW11156   5.022   6.464   0.629  0.2829  0.0919 -0.1903
 2613WAT      O11157   5.089   6.766   7.512 -0.4791 -0.6815  0.4887
 2613WAT     H111158   5.044   6.741   7.583 -2.2834 -1.0442 -0.7019
 2613WAT     H211159   5.113   6.848   7.531 -3.4504  0.3129  0.4871
 2613WAT    EPW11160   5.086   6.774   7.526  0.3403 -0.4112 -0.7907
 2614WAT      O11161   5.528   4.846   6.201  0.0307  0.3119  0.9667
 2614WAT     H111162   5.570   4.920   6.185  1.6788 -1.0545 -1.7598
 2614WAT     H211163   5.445   4.871   6.214  0.4034  2.5944 -0.5628
 2614WAT    EPW11164   5.522   4.860   6.200 -0.0878 -0.3585 -0.0916
 2615WAT      O11165   5.401   5.957   6.483  0.3849  0.5770 -0.4127
 2615WAT     H111166   5.327   5.916   6.504  0.9814 -0.1942  0.2447
 2615WAT     H211167   5.451   5.895   6.447  1.0526  0.8521 -0.0000
 2615WAT    EPW11168   5.398   5.942   6.481  0.7958  0.4666  0.1359
 2616WAT      O11169   4.282   6.831   6.264  0.0503 -0.1189 -0.0723
 2616WAT     H111170   4.328   6.872   6.325  1.0635  0.6783 -1.3181
 2616WAT     H211171   4.204   6.871   6.267 -0.8120 -1.7487  2.3230
 2616WAT    EPW11172   4.277   6.843   6.273 -0.5595 -0.1831  0.0272
 2617WAT      O11173   6.389   6.877   5.572  0.0850 -0.2397 -0.8548
 2617WAT     H111174   6.329   6.813   5.577 -0.5629  0.4514  0.9611
 2617WAT     H211175   6.455   6.845   5.619 -0.3880  0.5331  0.3815
 2617WAT    EPW11176   6.390   6.863   5.580  0.2513  0.7330  0.4567
 2618WAT      O11177   4.599   5.501   5.386  0.0825 -0.3005 -1.0087
 2618WAT     H111178   4.525   5.455   5.382 -0.0759 -0.2389  0.7464
 2618WAT     H211179   4.651   5.460   5.328 -0.4688 -1.9476 -0.3867
 2618WAT    EPW11180   4.596   5.488   5.377 -0.2185 -0.0401 -0.6009
 2619WAT      O11181   6.050   5.539   4.616  0.2919  0.1243  0.2112
 2619WAT     H111182   6.074   5.492   4.685 -1.9799 -1.4668  0.0369
 2619WAT     H211183   6.034   5.618   4.649 -0.1107 -0.4318  1.4041
 2619WAT    EPW11184   6.051   5.544   4.631 -0.0038 -0.0106 -0.2215
 2620WAT      O11185   4.581   5.688   5.613 -0.4982 -0.3346  0.1591
 2620WAT     H111186   4.582   5.763   5.568  0.4523  0.3485  1.2698
 2620WAT     H211187   4.606   5.629   5.554  2.1444  0.7490  0.0458
 2620WAT    EPW11188   4.585   5.690   5.598  0.6146 -0.3878 -0.3799
 2621WAT      O11189   6.558   5.085   6.272 -0.2571  0.1161  0.1026
 2621WAT     H111190   6.546   5.166   6.303 -0.5054  0.0239  0.2516
 2621WAT     H211191   6.484   5.068   6.231  0.1377  0.3002 -0.7017
 2621WAT    EPW11192   6.545   5.095   6.271 -0.1124  0.5032 -0.1062
 2622WAT      O11193   5.003   4.612   4.815 -0.0443  0.1063 -0.2287
 2622WAT     H111194   4.965   4.541   4.848  2.8464 -0.9988  1.0748
 2622WAT     H211195   5.049   4.581   4.747  0.4379  0.9157 -0.2852
 2622WAT    EPW11196   5.005   4.597   4.810  0.2396 -0.2893 -0.1464
 2623WAT      O11197   4.899   7.407   4.071 -0.6636  0.2183  0.3307
 2623WAT     H111198   4.816   7.389   4.053 -0.6011 -0.4113  0.6578
 2623WAT     H211199   4.898   7.491   4.095 -0.8036  1.0742 -2.3458
 2623WAT    EPW11200   4.887   7.416   4.072  0.0691  0.0430 -0.3310
 2624WAT      O11201   3.627   7.050   6.045  0.1793 -0.1351 -0.1958
 2624WAT     H111202   3.634   6.976   5.999  1.7623 -1.2093  1.5755
 2624WAT     H211203   3.547   7.046   6.080  0.2818 -1.0920 -0.0461
 2624WAT    EPW11204   3.617   7.039   6.044 -0.5413 -0.2897 -0.1881
 2625WAT      O11205   5.054   5.708   0.362 -0.0428 -0.2571  0.2791
 2625WAT     H111206   5.136   5.723   0.389 -0.7401  0.4654  2.1533
 2625WAT     H211207   5.065   5.662   0.289  2.0413  0.2505  0.2041
 2625WAT    EPW11208   5.068   5.703   0.355 -0.0052 -0.4989  0.3924
 2626WAT      O11209   5.455   5.742   6.694 -0.3414 -0.0407  0.3835
 2626WAT     H111210   5.469   5.825   6.716 -0.0876 -0.3592  1.4495
 2626WAT     H211211   5.524   5.722   6.645  0.0946  0.0923  0.9376
 2626WAT    EPW11212   5.467   5.751   6.690 -0.2730 -1.1063 -0.1949
 2627WAT      O11213   4.776   5.171   5.542  0.0291 -0.2359  0.3967
 2627WAT     H111214   4.764   5.179   5.456  0.8964  1.9879  0.4056
 2627WAT     H211215   4.727   5.235   5.576  1.1563  0.1617  1.3671
 2627WAT    EPW11216   4.767   5.182   5.534 -0.1694 -0.6432 -1.1663
 2628WAT      O11217   4.931   4.842   0.276 -0.0325  0.1965  0.3487
 2628WAT     H111218   4.952   4.913   0.230  0.6936  0.1045  0.5228
 2628WAT     H211219   4.888   4.793   0.218  3.0733 -1.0800 -1.1580
 2628WAT    EPW11220   4.928   4.845   0.260 -0.0578 -0.0242 -0.0164
 2629WAT      O11221   5.305   5.360   5.357 -0.4705  0.0632  0.0879
 2629WAT     H111222   5.311   5.276   5.334  0.2381 -0.3972  1.7566
 2629WAT     H211223   5.377   5.396   5.322 -0.0829 -0.3385  0.4463
 2629WAT    EPW11224   5.317   5.353   5.348 -0.2057  0.3513  0.1842
 2630WAT      O11225   4.585   6.652   6.380 -0.5195  0.1718  0.5414
 2630WAT     H111226   4.557   6.730   6.408  2.8203  0.9878  2.2584
 2630WAT     H211227   4.543   6.595   6.431 -2.5255  0.8290 -0.3034
 2630WAT    EPW11228   4.575   6.655   6.392 -0.3666  0.8527  0.7669
 2631WAT      O11229   4.601   5.247   4.775  0.2269 -0.4959  0.1415
 2631WAT     H111230   4.617   5.266   4.691  2.9703 -1.8952  0.2596
 2631WAT     H211231   4.658   5.296   4.819 -0.5133 -0.5171  1.1668
 2631WAT    EPW11232   4.612   5.257   4.769  0.1482 -0.6461 -0.4930
 2632WAT      O11233   6.056   6.254   0.442  0.1390 -0.1120  0.5171
 2632WAT     H111234   6.119   6.199   0.467 -0.3254 -1.2918 -0.8350
 2632WAT     H211235   6.072   6.269   0.358 -0.9595  0.1349  0.3250
 2632WAT    EPW11236   6.067   6.248   0.434 -0.3796 -0.2765  0.4178
 2633WAT      O11237   5.022   3.965   5.931 -0.2016  0.5044  0.6612
 2633WAT     H111238   5.068   3.895   5.904 -0.3687  1.1818 -1.6083
 2633WAT     H211239   4.940   3.936   5.934 -0.0598  0.1658  1.4355
 2633WAT    EPW11240   5.017   3.950   5.927 -0.3165  0.0653  0.1050
 2634WAT      O11241   6.119   5.758   7.416 -0.2082 -0.4951  0.5305
 2634WAT     H111242   6.127   5.736   7.500  2.7266  0.6355  0.6579
 2634WAT     H211243   6.152   5.839   7.413  0.2565 -0.6996 -1.7822
 2634WAT    EPW11244   6.125   5.767   7.428 -0.0418 -0.4427 -0.0623
 2635WAT      O11245   3.422   5.700   7.263 -0.3978 -0.4638  0.1858
 2635WAT     H111246   3.336   5.703   7.245 -0.5871  1.6091  1.1930
 2635WAT     H211247   3.458   5.737   7.193 -0.1418 -2.4082 -0.7980
 2635WAT    EPW11248   3.414   5.706   7.250 -0.2314 -0.8628 -0.2829
 2636WAT      O11249   5.930   6.629   3.723  0.2189 -0.2175 -0.3951
 2636WAT     H111250   5.858   6.679   3.730  0.6329  0.3781 -0.2765
 2636WAT     H211251   5.969   6.638   3.800  0.5333 -0.3619 -0.5341
 2636WAT    EPW11252   5.925   6.638   3.735  0.1398 -0.5709 -0.2411
 2637WAT      O11253   6.014   4.505   6.219  0.4117 -0.0580 -0.1987
 2637WAT     H111254   6.024   4.422   6.243 -0.1668  0.2549  1.1925
 2637WAT     H211255   6.095   4.529   6.196  0.4383 -1.2385 -1.5087
 2637WAT    EPW11256   6.028   4.496   6.219  0.0852 -0.0901  0.6532
 2638WAT      O11257   4.238   7.036   5.637  0.3234  0.5903 -0.2992
 2638WAT     H111258   4.163   7.045   5.594 -0.7185  1.3560  1.5704
 2638WAT     H211259   4.264   6.955   5.615 -1.2569  0.1409 -0.6547
 2638WAT    EPW11260   4.231   7.025   5.627  0.3422 -0.0609  0.2075
 2639WAT      O11261   4.951   5.714   5.293 -0.1943 -0.5439 -0.5203
 2639WAT     H111262   4.928   5.630   5.304 -0.0862 -0.8769 -2.4730
 2639WAT     H211263   5.018   5.709   5.237 -0.8400  0.8711 -1.4731
 2639WAT    EPW11264   4.957   5.701   5.286  0.3416  0.3009  0.1310
 2640WAT      O11265   4.486   7.516   5.671 -0.0829  0.1801  0.3630
 2640WAT     H111266   4.558   7.490   5.629 -0.7652  0.1314 -0.8225
 2640WAT     H211267   4.517   7.555   5.742  1.3196  2.8284 -1.5117
 2640WAT    EPW11268   4.502   7.518   5.675 -0.1105 -0.7057 -0.7956
 2641WAT      O11269   6.457   6.690   4.771 -0.0944 -0.0454  0.1647
 2641WAT     H111270   6.459   6.707   4.856  1.3329  0.5199  0.0515
 2641WAT     H211271   6.406   6.620   4.765 -1.6603  0.9389  1.2768
 2641WAT    EPW11272   6.450   6.682   4.783  0.4355  0.0333 -1.0386
 2642WAT      O11273   4.696   4.034   7.329 -0.3333  0.6866 -0.2431
 2642WAT     H111274   4.611   4.051   7.337 -0.4954 -0.4843  0.9020
 2642WAT     H211275   4.716   4.064   7.249 -2.1015 -0.1190 -1.0420
 2642WAT    EPW11276   4.686   4.041   7.318 -0.0121  0.1859  0.8264
 2643WAT      O11277   6.007   5.518   6.703 -0.3571 -0.2325  0.1069
 2643WAT     H111278   5.934   5.480   6.734 -0.5361 -0.0424 -0.0802
 2643WAT     H211279   6.055   5.531   6.775 -1.1980  1.1542  0.4540
 2643WAT    EPW11280   6.003   5.514   6.718 -0.9146 -0.8836 -0.1835
 2644WAT      O11281   2.348   5.116   6.062 -0.1312 -0.0135  0.1555
 2644WAT     H111282   2.332   5.104   6.147  0.0976  0.7112  0.3138
 2644WAT     H211283   2.433   5.136   6.060  0.1536 -1.1890 -0.3846
 2644WAT    EPW11284   2.358   5.117   6.074 -0.2467  0.9404  0.5223
 2645WAT      O11285   4.843   5.160   7.939  0.2622  0.4192  0.7284
 2645WAT     H111286   4.908   5.206   7.903 -0.4290 -0.5509 -2.0349
 2645WAT     H211287   4.772   5.206   7.919 -0.4650 -1.6175 -2.2176
 2645WAT    EPW11288   4.842   5.173   7.930  0.1847 -0.2711  0.1440
 2646WAT      O11289   5.933   6.144   6.525 -0.4132  0.1034  0.0537
 2646WAT     H111290   5.862   6.097   6.503 -0.2984  0.1023 -0.3245
 2646WAT     H211291   5.900   6.219   6.554 -0.5913 -0.1253  0.4628
 2646WAT    EPW11292   5.918   6.148   6.526  0.2246  0.1765 -0.0779
 2647WAT      O11293   4.560   6.016   6.442 -0.1589  0.1833  0.6920
 2647WAT     H111294   4.597   5.961   6.499 -0.8249 -0.7856  0.2067
 2647WAT     H211295   4.609   6.088   6.449  2.4211 -1.3361 -0.5934
 2647WAT    EPW11296   4.572   6.018   6.452  1.0263 -0.8341 -1.1005
 2648WAT      O11297   4.535   7.496   6.886 -0.5489  0.8117  0.0198
 2648WAT     H111298   4.543   7.429   6.941  2.0388 -2.3133 -3.6250
 2648WAT     H211299   4.582   7.560   6.924 -0.0545 -0.6345  2.0076
 2648WAT    EPW11300   4.543   7.496   6.900  1.1976  0.3217 -0.3873
 2649WAT      O11301   4.981   7.871   6.536  0.3322 -0.5008  0.4895
 2649WAT     H111302   5.054   7.824   6.544  0.9896  0.6542  1.7713
 2649WAT     H211303   4.938   7.832   6.470  2.6905 -0.4790 -1.1931
 2649WAT    EPW11304   4.985   7.859   6.527 -0.0113  0.1206 -0.1740
 2650WAT      O11305   6.596   4.850   6.449  0.0682 -0.2924  0.4146
 2650WAT     H111306   6.541   4.802   6.401 -0.9623  0.1736  1.0805
 2650WAT     H211307   6.621   4.914   6.395  0.3853 -0.8194 -0.0620
 2650WAT    EPW11308   6.592   4.852   6.434  0.2094 -0.4421 -0.7811
 2651WAT      O11309   5.027   5.356   5.933  0.5039  0.5411  0.0602
 2651WAT     H111310   4.982   5.287   5.962  2.0644 -1.2817 -1.5634
 2651WAT     H211311   4.967   5.419   5.930 -1.5364 -1.2794 -0.3106
 2651WAT    EPW11312   5.011   5.355   5.937  0.5112 -0.3851 -0.6506
 2652WAT      O11313   6.497   6.839   5.007 -0.2494  0.1841  0.2416
 2652WAT     H111314   6.444   6.909   5.009  0.0937  0.4445  0.2534
 2652WAT     H211315   6.570   6.868   5.044  0.0962 -0.0187 -0.2827
 2652WAT    EPW11316   6.500   6.854   5.013 -0.2156 -0.2764 -0.3318
 2653WAT      O11317   4.659   6.817   5.182 -0.0855 -0.1890 -0.0045
 2653WAT     H111318   4.648   6.903   5.171 -0.2010 -0.1389  0.4578
 2653WAT     H211319   4.651   6.807   5.269  1.1071 -0.4986  0.0846
 2653WAT    EPW11320   4.656   6.828   5.193  0.0134 -0.2150  0.4762
 2654WAT      O11321   4.694   5.852   6.602  0.5735 -0.0374 -0.5632
 2654WAT     H111322   4.726   5.875   6.680  0.1235  0.5121 -0.5342
 2654WAT     H211323   4.764   5.825   6.558  0.5790 -2.6365  0.7894
 2654WAT    EPW11324   4.709   5.851   6.607 -0.5102 -0.6995 -0.0449
 2655WAT      O11325   6.031   5.701   7.163  0.3646 -0.0946 -0.3474
 2655WAT     H111326   6.060   5.767   7.113 -0.2322  1.4101  1.2011
 2655WAT     H211327   6.050   5.726   7.244 -0.6504 -1.4412  0.3474
 2655WAT    EPW11328   6.038   5.714   7.167 -0.4722  0.2592  0.1258
 2656WAT      O11329   5.547   5.010   7.278 -0.4655  0.3436  0.2429
 2656WAT     H111330   5.490   4.975   7.335 -1.8014  1.5846 -0.2467
 2656WAT     H211331   5.563   5.089   7.311 -0.0977  0.5175 -0.3357
 2656WAT    EPW11332   5.541   5.017   7.291  0.1699  0.3245  0.5033
 2657WAT      O11333   5.639   6.383   4.955 -0.0139 -1.0950  0.0293
 2657WAT     H111334   5.618   6.389   5.039 -1.7617 -0.5360 -0.4138
 2657WAT     H211335   5.570   6.344   4.919  0.4055 -0.7164 -1.2515
 2657WAT    EPW11336   5.626   6.378   4.962 -0.1576  0.8016  0.2048
 2658WAT      O11337   3.404   6.579   3.956 -0.9970 -0.1021 -0.1142
 2658WAT     H111338   3.321   6.591   3.977 -0.9570  1.2818 -0.6604
 2658WAT     H211339   3.400   6.525   3.887 -1.5185  0.6955 -0.7322
 2658WAT    EPW11340   3.391   6.573   3.949 -0.3681 -0.2665 -0.8352
 2659WAT      O11341   5.640   5.206   5.709 -0.2454  0.2938 -0.0319
 2659WAT     H111342   5.591   5.258   5.659  0.3805  1.0798  0.1527
 2659WAT     H211343   5.645   5.132   5.662  0.4962  1.0838 -1.2493
 2659WAT    EPW11344   5.634   5.202   5.695 -0.1084 -0.4367 -0.0751
 2660WAT      O11345   4.751   5.212   6.469  0.6676  0.1284  0.2616
 2660WAT     H111346   4.703   5.163   6.524  0.6928  0.1715  0.3219
 2660WAT     H211347   4.829   5.171   6.469  0.0104 -1.2513 -1.5540
 2660WAT    EPW11348   4.756   5.199   6.477  0.6193  0.2836  0.9797
 2661WAT      O11349   5.419   6.806   5.938 -0.3880  0.4345  0.8878
 2661WAT     H111350   5.463   6.832   6.009 -0.8975  0.8942  1.0425
 2661WAT     H211351   5.364   6.746   5.969  0.7697 -0.8565  0.5345
 2661WAT    EPW11352   5.418   6.801   5.953  0.6597 -0.5216  0.8207
 2662WAT      O11353   6.009   4.989   5.715 -0.4229  0.1195  0.9194
 2662WAT     H111354   6.054   5.008   5.643  0.8070  0.8361  1.8364
 2662WAT     H211355   6.019   5.060   5.764 -1.7069 -0.1354  1.5846
 2662WAT    EPW11356   6.017   5.003   5.711 -0.6618 -0.6630 -0.0964
 2663WAT      O11357   4.135   5.977   6.249  0.3103 -0.2042  0.1844
 2663WAT     H111358   4.084   6.032   6.205  0.5725 -0.4573 -0.4409
 2663WAT     H211359   4.088   5.957   6.319  0.3119  1.0133  0.5603
 2663WAT    EPW11360   4.121   5.983   6.253 -0.4222  0.4182 -0.2082
 2664WAT      O11361   5.770   5.718   4.920 -0.0648 -0.0257  0.1322
 2664WAT     H111362   5.725   5.659   4.875 -0.4226 -1.3522  2.0829
 2664WAT     H211363   5.836   5.739   4.867  0.3835 -2.5872 -0.4519
 2664WAT    EPW11364   5.773   5.712   4.906 -0.2828 -0.8298 -0.7512
 2665WAT      O11365   4.509   7.779   6.556 -0.2938 -0.1276 -0.1197
 2665WAT     H111366   4.505   7.771   6.469  1.1029 -0.9675 -0.1392
 2665WAT     H211367   4.521   7.864   6.568 -0.2650 -0.0339 -0.7626
 2665WAT    EPW11368   4.510   7.790   6.545 -0.2611  0.2115 -0.5273
 2666WAT      O11369   5.680   5.411   6.453  0.0328  0.5328 -0.2427
 2666WAT     H111370   5.641   5.400   6.530 -1.0948 -1.1968 -1.0084
 2666WAT     H211371   5.739   5.346   6.450  0.9218  1.3182 -0.3525
 2666WAT    EPW11372   5.683   5.399   6.464  0.5333  0.1314  0.8532
 2667WAT      O11373   4.697   6.224   6.754 -0.5036  0.1121 -0.5434
 2667WAT     H111374   4.730   6.258   6.827 -0.1947 -1.3255  0.0188
 2667WAT     H211375   4.735   6.146   6.749 -1.8585 -0.5280 -1.2965
 2667WAT    EPW11376   4.707   6.218   6.764  0.5584  0.3379 -0.3389
 2668WAT      O11377   4.944   7.210   5.898 -0.0247  0.3007  0.9184
 2668WAT     H111378   4.934   7.126   5.877 -0.2742  0.8773 -1.5225
 2668WAT     H211379   4.916   7.214   5.980 -4.0179 -1.2724 -0.1709
 2668WAT    EPW11380   4.939   7.198   5.907  0.3953 -0.1476 -1.1600
 2669WAT      O11381   5.635   5.119   6.157  0.2086 -0.1046 -0.4055
 2669WAT     H111382   5.593   5.171   6.101  1.6661  2.0043  0.2977
 2669WAT     H211383   5.719   5.140   6.145  0.7131 -1.0594  1.1441
 2669WAT    EPW11384   5.641   5.130   6.147 -0.3667  0.1659 -0.9063
 2670WAT      O11385   5.857   4.000   6.849  0.0103  0.0635 -0.2255
 2670WAT     H111386   5.805   4.065   6.824  0.7450  0.9736  0.5447
 2670WAT     H211387   5.850   4.000   6.936 -1.7752 -2.4216 -0.2613
 2670WAT    EPW11388   5.848   4.010   6.858 -0.7207  0.4402 -0.3716
 2671WAT      O11389   6.291   5.968   7.314  0.3461  0.5746 -0.3786
 2671WAT     H111390   6.309   6.039   7.362  1.7900  0.0895 -0.1567
 2671WAT     H211391   6.367   5.927   7.309 -0.3143 -0.6144 -1.1040
 2671WAT    EPW11392   6.305   5.973   7.320 -0.1363 -0.1797 -0.2556
 2672WAT      O11393   5.235   5.445   7.335  0.1329 -0.3611  0.7093
 2672WAT     H111394   5.248   5.367   7.297 -1.4341 -0.2060 -0.2093
 2672WAT     H211395   5.216   5.498   7.268 -2.1088  0.0474  1.5951
 2672WAT    EPW11396   5.234   5.441   7.319  0.3298 -0.2842  0.0016
 2673WAT      O11397   5.143   6.543   6.282  0.5778 -0.4394  0.0039
 2673WAT     H111398   5.142   6.467   6.326  0.0136  1.5371  3.8116
 2673WAT     H211399   5.066   6.579   6.300  1.2098  1.4722 -0.8392
 2673WAT    EPW11400   5.132   6.537   6.291  0.0083 -0.6330 -0.2818
 2674WAT      O11401   5.505   5.408   7.541  0.0881 -0.3060  0.3616
 2674WAT     H111402   5.532   5.393   7.622  0.2983  0.1315  0.3706
 2674WAT     H211403   5.434   5.358   7.534 -0.7904  0.7572  1.3014
 2674WAT    EPW11404   5.499   5.398   7.552  0.7036 -0.2410 -0.2042
 2675WAT      O11405   3.932   7.712   7.373  0.0631  0.6500 -0.4561
 2675WAT     H111406   3.875   7.678   7.317  0.5328 -1.1265  0.0768
 2675WAT     H211407   3.890   7.711   7.449 -0.3571  2.4946 -0.6191
 2675WAT    EPW11408   3.917   7.707   7.376 -1.0731  0.0032 -0.2375
 2676WAT      O11409   6.733   4.987   0.185  0.0928  0.0230 -0.5363
 2676WAT     H111410   6.780   5.060   0.197  0.0251  0.3164 -1.9099
 2676WAT     H211411   6.793   4.925   0.171  0.1470  0.5200 -2.9632
 2676WAT    EPW11412   6.748   4.989   0.185 -0.0626  0.6976  0.3433
 2677WAT      O11413   5.699   6.569   7.523 -0.1543  0.5689  0.2305
 2677WAT     H111414   5.625   6.613   7.508  1.0069  2.2496 -0.8975
 2677WAT     H211415   5.693   6.500   7.471 -1.4867 -0.0318  1.1299
 2677WAT    EPW11416   5.687   6.565   7.513  0.4101  0.1342 -0.5828
 2678WAT      O11417   5.534   6.233   4.283 -0.0103 -0.7075 -0.6574
 2678WAT     H111418   5.530   6.148   4.302  1.6076 -0.3925  1.4712
 2678WAT     H211419   5.460   6.265   4.316  0.5049 -0.9486  0.8000
 2678WAT    EPW11420   5.522   6.225   4.291  0.0234 -0.9939  0.6761
 2679WAT      O11421   4.891   5.806   6.216 -0.0437 -0.1921 -0.2110
 2679WAT     H111422   4.809   5.784   6.194 -0.4570  0.8066  0.2806
 2679WAT     H211423   4.893   5.892   6.204  0.9581 -0.2111 -0.2516
 2679WAT    EPW11424   4.879   5.815   6.211 -0.3557  0.1403 -1.1498
 2680WAT      O11425   4.539   7.457   6.055  0.1693 -0.0827  0.2372
 2680WAT     H111426   4.457   7.434   6.035  0.5816 -0.4581 -1.1252
 2680WAT     H211427   4.575   7.383   6.081  0.5938 -0.3522 -1.0381
 2680WAT    EPW11428   4.532   7.443   6.056 -0.3981  0.3402 -0.5450
 2681WAT      O11429   4.452   4.549   6.838  0.0110 -0.0173 -0.3403
 2681WAT     H111430   4.498   4.572   6.909 -1.1192 -1.0618  0.7717
 2681WAT     H211431   4.403   4.619   6.821  1.0224  0.6156 -0.7428
 2681WAT    EPW11432   4.452   4.563   6.846  0.1825  0.4702 -1.4163
 2682WAT      O11433   5.943   6.708   7.169  0.1732 -0.0749 -0.3775
 2682WAT     H111434   6.002   6.664   7.122 -0.2537 -0.2205 -0.7952
 2682WAT     H211435   5.868   6.692   7.126 -0.6135 -1.9448  1.5017
 2682WAT    EPW11436   5.940   6.699   7.156  1.1814  0.1098  0.4303
 2683WAT      O11437   6.245   5.745   4.549 -0.1925 -0.5332  0.2321
 2683WAT     H111438   6.290   5.740   4.475 -0.6780 -0.5229 -0.0709
 2683WAT     H211439   6.209   5.666   4.557 -1.1338 -0.1649 -0.1956
 2683WAT    EPW11440   6.246   5.733   4.539  0.4846 -0.2024 -0.4127
 2684WAT      O11441   5.483   4.983   6.617 -0.0984 -0.1677 -0.4821
 2684WAT     H111442   5.492   5.032   6.689  0.8838 -0.9318 -0.0790
 2684WAT     H211443   5.544   5.015   6.563  1.1293 -1.4503  0.0863
 2684WAT    EPW11444   5.493   4.995   6.620  0.4913  0.2904 -0.0766
 2685WAT      O11445   6.472   4.270   5.296 -0.1251 -0.5212  0.0548
 2685WAT     H111446   6.488   4.187   5.315 -3.0891 -1.3370 -0.4878
 2685WAT     H211447   6.529   4.289   5.234 -0.7540 -2.8795 -1.3414
 2685WAT    EPW11448   6.482   4.261   5.290 -0.1527 -0.5478 -0.8181
 2686WAT      O11449   5.570   6.298   6.013 -0.1652  0.2320  0.0688
 2686WAT     H111450   5.604   6.319   5.935  0.5976  0.8977  0.5606
 2686WAT     H211451   5.513   6.235   5.994 -0.9726  1.2773 -1.2135
 2686WAT    EPW11452   5.566   6.292   5.999 -0.4406  0.2122 -0.4140
 2687WAT      O11453   4.757   6.481   0.513 -0.2094  0.2700 -0.5724
 2687WAT     H111454   4.818   6.465   0.573 -2.2779 -1.4154  1.2457
 2687WAT     H211455   4.776   6.424   0.449  1.3081  1.2539 -1.0597
 2687WAT    EPW11456   4.769   6.470   0.512  0.2307  0.5838  0.2288
 2688WAT      O11457   5.942   5.318   6.465  0.0645 -0.0571 -0.1393
 2688WAT     H111458   6.001   5.382   6.461  2.0800 -1.5147  2.7046
 2688WAT     H211459   5.936   5.291   6.383  0.3515  2.6740 -1.1626
 2688WAT    EPW11460   5.950   5.324   6.453  0.1275  0.0725 -0.5054
 2689WAT      O11461   4.025   6.181   4.272  0.1320  0.3149  0.4304
 2689WAT     H111462   3.950   6.150   4.241 -0.4924 -0.7620  2.8236
 2689WAT     H211463   4.023   6.160   4.357  2.7928  0.9368  0.7353
 2689WAT    EPW11464   4.014   6.173   4.280 -0.3132  0.1583 -0.6066
 2690WAT      O11465   5.174   4.443   5.247  0.0634 -0.3534 -0.0357
 2690WAT     H111466   5.226   4.406   5.306 -0.7209  0.7493  1.4078
 2690WAT     H211467   5.119   4.379   5.225  0.8527 -0.9966 -0.1714
 2690WAT    EPW11468   5.174   4.428   5.252  0.5723 -0.3533  0.4013
 2691WAT      O11469   5.945   4.988   6.446  0.1107 -0.3611 -0.2323
 2691WAT     H111470   5.935   4.921   6.391 -0.4523 -0.1030 -0.4534
 2691WAT     H211471   5.942   4.951   6.525 -0.1624 -0.6005 -0.3548
 2691WAT    EPW11472   5.943   4.973   6.450  0.2151 -0.3559  0.4510
 2692WAT      O11473   5.350   6.071   5.071 -0.4136 -0.2340  0.0624
 2692WAT     H111474   5.434   6.050   5.075 -0.3542 -0.0256 -0.0535
 2692WAT     H211475   5.327   6.081   5.154 -0.6269 -1.4555  0.1608
 2692WAT    EPW11476   5.359   6.070   5.084 -0.2473  0.8591  0.2735
 2693WAT      O11477   6.851   5.207   7.012 -0.1387  0.0764  0.3088
 2693WAT     H111478   6.790   5.160   6.971 -0.2002  1.0401 -0.7478
 2693WAT     H211479   6.815   5.286   7.017  0.6922  0.4567  0.4298
 2693WAT    EPW11480   6.837   5.212   7.007 -0.1402 -0.2032  0.0329
 2694WAT      O11481   3.839   6.011   3.935  0.6020 -0.8329 -0.6091
 2694WAT     H111482   3.884   6.078   3.902  0.7960 -0.5095  0.3000
 2694WAT     H211483   3.823   6.034   4.017  0.9913 -2.0528 -0.1628
 2694WAT    EPW11484   3.843   6.024   3.942 -0.1795 -0.6075 -0.4048
 2695WAT      O11485   3.816   5.236   6.434 -0.0773  0.5511 -0.3631
 2695WAT     H111486   3.846   5.203   6.508 -0.5674  0.0342 -0.3829
 2695WAT     H211487   3.840   5.320   6.436  0.3039  0.4284  0.1619
 2695WAT    EPW11488   3.824   5.243   6.445  0.1863  0.3602 -0.1174
 2696WAT      O11489   4.698   6.484   5.238  0.5702 -0.4322  0.4972
 2696WAT     H111490   4.627   6.510   5.194  0.9980 -1.1108 -0.6386
 2696WAT     H211491   4.730   6.419   5.189  2.1225  0.0170  0.8539
 2696WAT    EPW11492   4.692   6.478   5.224 -0.3622  0.0570 -0.6867
 2697WAT      O11493   5.143   6.317   6.475  0.3014 -0.0982  0.6957
 2697WAT     H111494   5.133   6.362   6.549 -2.7380  0.1990  0.2493
 2697WAT     H211495   5.080   6.257   6.479 -0.6762  0.5918 -2.0622
 2697WAT    EPW11496   5.132   6.315   6.487 -0.4546  0.7891 -0.4582
 2698WAT      O11497   5.117   6.068   6.004  0.4343  0.1091 -0.1083
 2698WAT     H111498   5.184   6.082   5.949 -0.7591  0.2780 -1.6083
 2698WAT     H211499   5.071   6.006   5.963  0.6723 -1.4465  1.8559
 2698WAT    EPW11500   5.120   6.061   5.990 -0.4602  0.0861 -0.2594
 2699WAT      O11501   6.135   7.295   0.220  0.3190  0.1788  0.2180
 2699WAT     H111502   6.081   7.292   0.152 -0.9580 -1.0114  1.2223
 2699WAT     H211503   6.175   7.373   0.211 -0.2747  0.3357 -1.4973
 2699WAT    EPW11504   6.133   7.306   0.209 -0.1964  0.0872  0.5121
 2700WAT      O11505   4.752   5.556   6.456  0.0644  0.0356  0.9697
 2700WAT     H111506   4.666   5.569   6.461 -0.0463 -0.6427  0.9417
 2700WAT     H211507   4.765   5.486   6.507  0.5699  0.0133  0.8125
 2700WAT    EPW11508   4.741   5.547   6.464  0.7832 -0.3930 -0.8550
 2701WAT      O11509   5.745   4.395   5.612 -0.2884  0.0961 -0.4244
 2701WAT     H111510   5.700   4.325   5.587  0.0195 -0.8327  1.4143
 2701WAT     H211511   5.686   4.459   5.610 -0.8510 -0.4262 -1.1371
 2701WAT    EPW11512   5.729   4.394   5.608 -0.2420  0.7263  0.8527
 2702WAT      O11513   5.026   6.694   7.789  0.3495 -0.0967 -0.2242
 2702WAT     H111514   4.962   6.702   7.848  0.0003 -2.4118 -0.1839
 2702WAT     H211515   5.098   6.713   7.835 -0.1953  1.8878 -0.1043
 2702WAT    EPW11516   5.027   6.698   7.805  0.4615  0.1897 -0.3701
 2703WAT      O11517   4.794   5.510   5.920 -0.0182 -0.1360 -0.5109
 2703WAT     H111518   4.776   5.504   6.005 -1.0089 -0.3186 -0.7158
 2703WAT     H211519   4.760   5.587   5.897 -0.0128 -0.2196 -0.8042
 2703WAT    EPW11520   4.786   5.520   5.929 -0.3680  0.6238  0.0558
 2704WAT      O11521   5.394   7.446   5.317  0.6144 -0.3469 -0.2961
 2704WAT     H111522   5.412   7.410   5.394  0.9692  0.1487 -0.1373
 2704WAT     H211523   5.396   7.379   5.261  1.8021 -0.4998 -0.1018
 2704WAT    EPW11524   5.397   7.431   5.320 -0.5263 -0.6201  0.0233
 2705WAT      O11525   6.866   3.593   7.604 -0.1989 -0.3332  0.5645
 2705WAT     H111526   6.836   3.519   7.640 -1.8376  0.0876  0.1588
 2705WAT     H211527   6.793   3.639   7.588  0.7677  1.3042  0.6414
 2705WAT    EPW11528   6.851   3.589   7.607 -0.1101  0.0715 -0.2611
 2706WAT      O11529   5.505   4.188   6.168 -0.2785 -0.1651  0.0038
 2706WAT     H111530   5.459   4.155   6.101 -0.1175  1.0778 -0.7712
 2706WAT     H211531   5.538   4.118   6.207 -1.0667 -0.9760 -0.7232
 2706WAT    EPW11532   5.503   4.173   6.164 -0.6870 -0.1639  0.1672
 2707WAT      O11533   3.097   6.364   7.850 -0.4970  0.4460  0.6379
 2707WAT     H111534   3.071   6.426   7.906  1.5657  1.0792  0.9621
 2707WAT     H211535   3.163   6.325   7.891  0.1648 -0.0155 -0.7949
 2707WAT    EPW11536   3.103   6.367   7.864  0.1038  0.3337 -0.4218
 2708WAT      O11537   6.277   6.395   7.936 -0.3876 -0.0180 -0.2912
 2708WAT     H111538   6.231   6.369   7.867 -2.7170  2.5364  0.0936
 2708WAT     H211539   6.349   6.429   7.901 -1.9867  2.2054 -1.7299
 2708WAT    EPW11540   6.281   6.396   7.921  0.2867  0.2077 -0.2896
 2709WAT      O11541   5.551   6.486   7.166  0.2107 -0.2619 -0.0644
 2709WAT     H111542   5.474   6.469   7.128  0.5397 -2.1126 -0.0015
 2709WAT     H211543   5.579   6.408   7.191  2.2545  0.3411 -0.3099
 2709WAT    EPW11544   5.544   6.472   7.164 -0.5327 -0.4375  0.4267
 2710WAT      O11545   4.966   5.052   6.572  0.3333  0.5124  0.0681
 2710WAT     H111546   5.042   5.052   6.530  0.0625  0.9030 -0.4314
 2710WAT     H211547   4.928   4.979   6.546 -0.3894  1.3853 -1.4061
 2710WAT    EPW11548   4.972   5.042   6.562  0.1342 -0.2996 -0.3259
 2711WAT      O11549   4.588   5.848   4.325  0.6419  0.3018 -0.0125
 2711WAT     H111550   4.587   5.765   4.352 -2.3901  0.4987  0.8645
 2711WAT     H211551   4.520   5.853   4.271 -0.3733  2.5500  1.3116
 2711WAT    EPW11552   4.578   5.836   4.321  1.2212 -0.4451 -0.4346
 2712WAT      O11553   4.151   6.869   7.238  0.3515  0.0473 -0.1693
 2712WAT     H111554   4.092   6.923   7.272  0.7532  1.3226 -1.3866
 2712WAT     H211555   4.103   6.811   7.193 -0.0060  0.8251 -0.8071
 2712WAT    EPW11556   4.135   6.868   7.236  0.2574 -0.2588  0.1573
 2713WAT      O11557   5.813   6.390   6.564 -0.4204  0.4499  0.3883
 2713WAT     H111558   5.772   6.442   6.508  0.0469 -1.9433 -2.4196
 2713WAT     H211559   5.776   6.409   6.641 -1.5151  3.5082 -0.7406
 2713WAT    EPW11560   5.802   6.400   6.567 -0.3405  0.3555  0.4082
 2714WAT      O11561   5.616   6.576   0.491 -0.1537  0.0198  0.1538
 2714WAT     H111562   5.684   6.522   0.495 -0.3114 -0.1937 -0.0051
 2714WAT     H211563   5.592   6.573   0.407 -1.5786 -1.4586  0.5434
 2714WAT    EPW11564   5.623   6.567   0.479  0.7666 -0.5863  0.1583
 2715WAT      O11565   5.562   6.601   5.803 -0.7697  0.0110 -0.2063
 2715WAT     H111566   5.606   6.670   5.771 -1.2107  0.4245  0.0580
 2715WAT     H211567   5.505   6.638   5.858 -0.0027 -0.6813  1.0830
 2715WAT    EPW11568   5.560   6.617   5.806  1.3497  0.1876  1.0392
 2716WAT      O11569   5.404   6.249   4.864  0.2007  0.0931 -0.2537
 2716WAT     H111570   5.379   6.191   4.924  1.3928 -0.4617 -0.2657
 2716WAT     H211571   5.353   6.318   4.880 -0.6131 -0.6336  0.3459
 2716WAT    EPW11572   5.393   6.251   4.875  0.8557  0.3511  0.7273
 2717WAT      O11573   5.345   0.240   5.167  0.1167  0.3236 -0.4642
 2717WAT     H111574   5.366   0.215   5.086 -0.9541  0.1053 -0.6932
 2717WAT     H211575   5.402   0.197   5.217  0.1302 -0.3461 -1.0388
 2717WAT    EPW11576   5.357   0.230   5.162 -0.1610 -0.0212 -0.6520
 2718WAT      O11577   5.948   7.016   6.918 -0.0152 -0.5465 -0.1470
 2718WAT     H111578   5.987   6.980   6.987 -0.9667 -0.4362  0.4668
 2718WAT     H211579   5.900   6.951   6.886 -0.0294 -0.4306 -0.3638
 2718WAT    EPW11580   5.947   7.001   6.923  0.0953  0.5459 -0.3880
 2719WAT      O11581   5.880   5.647   0.393 -0.2362 -0.3878  0.0972
 2719WAT     H111582   5.818   5.685   0.441 -0.1896 -0.5769  0.3070
 2719WAT     H211583   5.892   5.570   0.432  1.9382  0.6287  1.6019
 2719WAT    EPW11584   5.872   5.641   0.406 -0.2252 -0.1700 -0.0510
 2720WAT      O11585   0.316   4.874   0.853  0.1662  0.4443 -0.1579
 2720WAT     H111586   0.319   4.790   0.876  1.2348  0.3580 -0.5692
 2720WAT     H211587   0.257   4.876   0.790 -0.4575  0.1487  0.4032
 2720WAT    EPW11588   0.308   4.862   0.847  0.3847 -1.0060 -0.7153
 2721WAT      O11589   5.472   5.998   5.317 -0.6116 -0.0851 -0.8956
 2721WAT     H111590   5.493   5.938   5.377 -1.4045  0.3161 -0.2090
 2721WAT     H211591   5.541   6.052   5.318  0.1250 -0.9807 -1.5463
 2721WAT    EPW11592   5.486   5.997   5.326  0.6830 -0.5764 -0.5792
 2722WAT      O11593   5.033   5.919   6.958  0.1351 -0.3283  0.1671
 2722WAT     H111594   4.958   5.920   7.002 -0.0960  1.2599 -0.1998
 2722WAT     H211595   5.052   5.834   6.951 -1.0984 -0.7090  1.1361
 2722WAT    EPW11596   5.025   5.907   6.963  0.1268  0.8788 -0.4458
 2723WAT      O11597   4.771   3.472   4.965  0.2445 -0.2003  0.2754
 2723WAT     H111598   4.836   3.518   4.929  0.5109  0.7721  1.9175
 2723WAT     H211599   4.702   3.494   4.915  0.7891  0.2664 -0.2999
 2723WAT    EPW11600   4.770   3.482   4.952 -0.5739  0.2733  0.3541
 2724WAT      O11601   5.064   5.986   4.151 -0.3685 -0.0668  0.5333
 2724WAT     H111602   5.132   6.026   4.188 -0.7681  1.2751 -0.1054
 2724WAT     H211603   5.096   5.909   4.126  0.2711 -0.4728  2.3970
 2724WAT    EPW11604   5.079   5.981   4.153  0.2810 -0.2321 -0.0910
 2725WAT      O11605   5.087   6.937   6.796  0.8452  0.4073  0.2017
 2725WAT     H111606   5.165   6.945   6.757  0.7782  0.0475 -0.0068
 2725WAT     H211607   5.062   7.020   6.808  0.2111  0.5392 -1.8132
 2725WAT    EPW11608   5.095   6.951   6.792 -0.0064  0.0200  0.1243
 2726WAT      O11609   4.415   5.528   5.752 -0.3251 -0.2410  0.7588
 2726WAT     H111610   4.353   5.526   5.690  1.6213 -0.1671 -1.3274
 2726WAT     H211611   4.469   5.591   5.724 -0.0712  0.8040  3.3428
 2726WAT    EPW11612   4.414   5.537   5.739 -0.8351 -0.4225 -0.1466
 2727WAT      O11613   5.039   5.197   5.506 -0.9673  0.3536  0.0985
 2727WAT     H111614   5.048   5.251   5.438  0.1771  0.4536  0.3175
 2727WAT     H211615   4.952   5.189   5.514 -1.1484 -0.3094 -1.8995
 2727WAT    EPW11616   5.027   5.203   5.497 -0.1539 -0.0651  0.4434
 2728WAT      O11617   4.736   7.519   4.981 -0.6792  0.2564  0.0378
 2728WAT     H111618   4.812   7.558   4.965 -1.3135  1.1585 -0.9087
 2728WAT     H211619   4.724   7.467   4.912 -1.4588  0.9956 -0.3967
 2728WAT    EPW11620   4.745   7.517   4.968 -0.3266 -0.3428 -0.2080
 2729WAT      O11621   5.982   6.504   7.800  0.2316 -0.7093  0.3370
 2729WAT     H111622   5.984   6.425   7.837  0.8028 -0.2467  1.3387
 2729WAT     H211623   6.020   6.491   7.723 -1.3425 -1.7839 -0.3049
 2729WAT    EPW11624   5.988   6.490   7.794  0.2568 -0.5259 -0.6338
 2730WAT      O11625   4.718   6.130   0.801  0.7013  0.2260 -0.0639
 2730WAT     H111626   4.706   6.136   0.714 -1.4817 -0.3385  0.1538
 2730WAT     H211627   4.722   6.044   0.815  0.7231  0.3050  0.4357
 2730WAT    EPW11628   4.717   6.118   0.790  0.3739  0.4488  0.4129
 2731WAT      O11629   4.558   7.107   4.837  0.2595 -0.2281  0.7086
 2731WAT     H111630   4.478   7.133   4.813  0.6014  0.7658  0.6032
 2731WAT     H211631   4.568   7.032   4.794 -0.2939  0.0597  0.0356
 2731WAT    EPW11632   4.547   7.100   4.827  0.2674 -0.2096  0.3946
 2732WAT      O11633   5.548   5.586   5.746  0.2667 -0.6446 -0.1801
 2732WAT     H111634   5.611   5.554   5.798  0.3388 -1.0822 -0.5322
 2732WAT     H211635   5.523   5.517   5.700 -0.4207 -0.4532 -0.1016
 2732WAT    EPW11636   5.554   5.571   5.747 -0.7582  0.0192  0.2972
 2733WAT      O11637   4.876   6.179   7.249 -0.0650  0.0868  0.4821
 2733WAT     H111638   4.936   6.223   7.295  0.3311  0.2226 -0.1638
 2733WAT     H211639   4.811   6.237   7.239 -0.6957 -0.3227  1.9147
 2733WAT    EPW11640   4.875   6.194   7.254 -0.1059 -0.2038  0.2694
 2734WAT      O11641   5.629   6.615   4.134 -0.4404 -0.0198  0.2072
 2734WAT     H111642   5.622   6.570   4.059 -0.6712  0.8190 -0.2907
 2734WAT     H211643   5.704   6.659   4.123 -0.7376  0.4968  0.2502
 2734WAT    EPW11644   5.639   6.615   4.121  0.4471 -0.0536  0.2806
 2735WAT      O11645   5.203   6.474   6.754 -0.1897  0.1853 -0.4428
 2735WAT     H111646   5.155   6.530   6.707 -1.5628 -0.9444 -0.4450
 2735WAT     H211647   5.144   6.418   6.785  1.1830 -1.4511 -0.6793
 2735WAT    EPW11648   5.187   6.474   6.752  0.6911 -1.2028  0.2880
 2736WAT      O11649   5.511   6.016   6.758  0.2311 -0.3903 -0.5816
 2736WAT     H111650   5.425   6.021   6.772  0.0353 -0.6559 -1.6292
 2736WAT     H211651   5.522   6.052   6.679  0.8928 -1.5609 -1.0607
 2736WAT    EPW11652   5.500   6.022   6.748  0.3219  0.6486 -0.8406
 2737WAT      O11653   4.758   5.777   5.854 -0.0759  0.0137 -0.4862
 2737WAT     H111654   4.721   5.773   5.776  0.2996 -0.0620 -0.6630
 2737WAT     H211655   4.697   5.815   5.904 -0.7097 -0.8832 -0.5650
 2737WAT    EPW11656   4.744   5.782   5.850 -0.0319  0.3537 -0.5525
 2738WAT      O11657   6.495   6.194   0.771  0.0751  0.1583  0.0091
 2738WAT     H111658   6.476   6.119   0.731 -0.9591 -0.0230  0.8058
 2738WAT     H211659   6.418   6.235   0.776  0.4889  0.9198  0.3120
 2738WAT    EPW11660   6.481   6.189   0.766  0.7184 -0.4750 -0.0299
 2739WAT      O11661   3.911   4.821   6.473 -0.2872  0.0924  0.0503
 2739WAT     H111662   3.855   4.863   6.421 -0.7486 -0.0776  0.4059
 2739WAT     H211663   3.976   4.878   6.485 -0.9817  0.7592  0.6661
 2739WAT    EPW11664   3.913   4.835   6.467 -0.0121 -0.1348  0.5569
 2740WAT      O11665   5.414   7.974   5.948 -0.1379 -0.5459 -0.2470
 2740WAT     H111666   5.404   8.003   5.867 -0.2993 -0.3197 -0.1453
 2740WAT     H211667   5.426   7.888   5.937 -1.5530 -0.7516 -0.4239
 2740WAT    EPW11668   5.414   7.965   5.934 -0.4168  0.4962 -0.2484
 2741WAT      O11669   6.099   6.301   0.174 -0.4129  0.2727  0.0598
 2741WAT     H111670   6.137   6.366   0.129  0.3164 -0.0074  0.2590
 2741WAT     H211671   6.120   6.229   0.129 -2.1718  0.2471 -0.8084
 2741WAT    EPW11672   6.108   6.300   0.160 -0.3962  0.6814  0.2365
 2742WAT      O11673   5.942   4.104   7.439  0.5432 -0.3061 -0.0421
 2742WAT     H111674   5.986   4.083   7.512  0.4829  0.1363  0.1264
 2742WAT     H211675   5.912   4.185   7.456  1.8059  0.4335 -1.1424
 2742WAT    EPW11676   5.944   4.113   7.453 -0.1263  0.2362 -0.8047
 2743WAT      O11677   5.485   6.682   5.226 -0.3706  0.4425  0.1590
 2743WAT     H111678   5.509   6.614   5.276 -0.7578  1.0217  1.1587
 2743WAT     H211679   5.409   6.706   5.260 -0.6118  0.8991 -0.6836
 2743WAT    EPW11680   5.477   6.675   5.238  1.3548  0.0961  0.9728
 2744WAT      O11681   4.721   6.462   6.625  0.4096 -0.4507 -0.6323
 2744WAT     H111682   4.635   6.470   6.637  0.5947 -0.2767  0.6789
 2744WAT     H211683   4.738   6.380   6.648  0.6593 -0.3714 -0.5300
 2744WAT    EPW11684   4.711   6.451   6.630 -0.0223 -1.3450  0.3851
 2745WAT      O11685   5.878   5.353   7.267 -0.3028 -0.1210  0.2031
 2745WAT     H111686   5.858   5.432   7.235  1.3695 -0.3428 -1.5736
 2745WAT     H211687   5.915   5.312   7.199 -1.0386 -2.4315  1.1056
 2745WAT    EPW11688   5.881   5.359   7.252  0.4135  0.3706 -0.4986
 2746WAT      O11689   6.442   6.665   0.576  0.5732 -0.2578  0.7123
 2746WAT     H111690   6.440   6.746   0.542  1.7636 -0.4159  0.2256
 2746WAT     H211691   6.371   6.627   0.543  0.5880  0.2523  0.0711
 2746WAT    EPW11692   6.431   6.672   0.566  0.1546 -0.4958 -0.9026
 2747WAT      O11693   4.873   5.812   4.321  0.1408 -0.2371  0.2662
 2747WAT     H111694   4.796   5.853   4.326  0.0786 -0.2965 -0.1635
 2747WAT     H211695   4.922   5.867   4.274  0.3360 -0.2361  0.4714
 2747WAT    EPW11696   4.869   5.826   4.315  0.1599  0.1259 -0.4439
 2748WAT      O11697   5.683   6.557   7.803  0.3595  0.5872 -0.7158
 2748WAT     H111698   5.677   6.556   7.716  0.5284  0.4403 -0.7280
 2748WAT     H211699   5.769   6.558   7.817  0.4781 -2.5706 -0.5455
 2748WAT    EPW11700   5.695   6.557   7.792  0.1767 -0.8838  0.1436
 2749WAT      O11701   6.501   6.194   0.344  0.0659  0.7546  0.3330
 2749WAT     H111702   6.476   6.219   0.265 -1.4148 -1.3795  0.0449
 2749WAT     H211703   6.588   6.198   0.340 -0.0143  1.9066 -0.9402
 2749WAT    EPW11704   6.510   6.198   0.332  0.0605 -0.4132 -0.7312
 2750WAT      O11705   5.453   5.676   7.717 -0.1006 -0.5658  0.2219
 2750WAT     H111706   5.489   5.651   7.792 -1.2805  0.3327  1.1080
 2750WAT     H211707   5.507   5.738   7.688 -0.6389  0.4298  1.2947
 2750WAT    EPW11708   5.466   5.681   7.724  0.3737 -0.4354  0.2469
 2751WAT      O11709   5.353   5.320   8.040  0.7080 -0.4822  0.3686
 2751WAT     H111710   5.417   5.265   8.021  2.4462  1.6333 -0.2943
 2751WAT     H211711   5.394   5.396   8.053 -1.6916  1.2332 -1.1881
 2751WAT    EPW11712   5.368   5.323   8.039  0.5953 -0.0091  0.5534
 2752WAT      O11713   5.526   5.867   0.227 -0.0567  0.6516  0.1738
 2752WAT     H111714   5.610   5.844   0.223 -0.1832  0.1843 -0.0112
 2752WAT     H211715   5.528   5.954   0.230  0.4509  0.6250  0.8586
 2752WAT    EPW11716   5.539   5.876   0.227 -0.7625 -0.0079 -0.0826
 2753WAT      O11717   6.138   6.419   5.743  0.2433  0.0280  0.0316
 2753WAT     H111718   6.137   6.358   5.681 -1.5855 -0.3018  0.3320
 2753WAT     H211719   6.188   6.384   5.806 -2.1133 -1.9993  0.9303
 2753WAT    EPW11720   6.146   6.405   5.743 -0.1114  0.1343 -0.3098
 2754WAT      O11721   6.225   5.079   6.482 -0.0663  0.1156 -0.2024
 2754WAT     H111722   6.140   5.060   6.476  0.6936 -3.5306 -1.8997
 2754WAT     H211723   6.257   5.013   6.528  2.2271 -0.1980 -2.0790
 2754WAT    EPW11724   6.217   5.067   6.488 -0.8146  0.5588 -1.3303
 2755WAT      O11725   5.705   5.105   6.475  0.3374  0.1124  0.5597
 2755WAT     H111726   5.786   5.075   6.462  0.4934  0.9161 -0.4581
 2755WAT     H211727   5.670   5.103   6.395 -0.8324 -0.6975  1.0613
 2755WAT    EPW11728   5.712   5.100   6.461  0.3465 -0.5290 -0.0702
 2756WAT      O11729   4.643   6.316   7.650 -0.3336 -0.0950 -0.7505
 2756WAT     H111730   4.692   6.271   7.706 -1.4773 -0.3943  0.0521
 2756WAT     H211731   4.635   6.262   7.582 -0.1405 -0.3323 -0.5860
 2756WAT    EPW11732   4.649   6.301   7.648  0.3817  0.0676  0.8540
 2757WAT      O11733   5.268   6.552   7.559 -0.3902  0.6788  0.2349
 2757WAT     H111734   5.213   6.618   7.544  0.7050  1.2186 -1.8575
 2757WAT     H211735   5.333   6.567   7.502 -0.6889 -2.8546 -1.2672
 2757WAT    EPW11736   5.269   6.564   7.548  0.0232 -0.3627 -0.4791
 2758WAT      O11737   5.518   6.146   0.291 -0.4118 -0.1788  0.1738
 2758WAT     H111738   5.458   6.179   0.238  0.2316 -0.8889 -1.0537
 2758WAT     H211739   5.593   6.164   0.251 -0.0175 -3.1798 -0.6957
 2758WAT    EPW11740   5.520   6.154   0.278  0.3406 -1.2871  0.3040
 2759WAT      O11741   5.806   5.342   5.037 -0.3766  0.0723  0.0129
 2759WAT     H111742   5.837   5.422   5.056 -1.7727  0.7703 -0.5142
 2759WAT     H211743   5.801   5.342   4.950 -1.2301 -0.2507  0.0530
 2759WAT    EPW11744   5.810   5.354   5.027 -0.0485  0.0647  0.0174
 2760WAT      O11745   3.874   6.634   5.085 -0.1870 -0.0482 -1.0414
 2760WAT     H111746   3.806   6.666   5.041 -0.3686  0.2960 -0.5167
 2760WAT     H211747   3.905   6.571   5.032 -1.4288 -0.7902 -0.9236
 2760WAT    EPW11748   3.869   6.629   5.071  0.5568 -0.0709  0.1305
 2761WAT      O11749   5.307   6.221   7.490 -0.1715 -0.2796  0.1670
 2761WAT     H111750   5.368   6.168   7.458  0.7989 -0.4756  2.1612
 2761WAT     H211751   5.349   6.263   7.554 -1.5045  1.3462  0.0244
 2761WAT    EPW11752   5.323   6.219   7.495 -0.2285  0.0316  0.3209
 2762WAT      O11753   5.010   6.427   7.957 -0.1752  0.4612  0.0732
 2762WAT     H111754   4.938   6.454   7.916 -0.6758  1.3670  1.4807
 2762WAT     H211755   4.995   6.448   8.040 -0.4532 -3.8154  1.3294
 2762WAT    EPW11756   4.997   6.434   7.963  0.2201  0.6243 -0.5609
 2763WAT      O11757   6.095   5.241   7.084 -0.0978 -0.2487 -0.5884
 2763WAT     H111758   6.155   5.269   7.140 -2.1950 -2.0469  2.9654
 2763WAT     H211759   6.122   5.161   7.063 -0.2138 -0.2428 -0.7662
 2763WAT    EPW11760   6.108   5.233   7.089 -0.3889  0.4525  0.8380
 2764WAT      O11761   3.935   7.051   7.275 -0.0367  0.5194  0.0558
 2764WAT     H111762   3.854   7.019   7.280  0.6715 -1.6622 -1.0512
 2764WAT     H211763   3.928   7.115   7.216 -1.1899  1.3039  1.0014
 2764WAT    EPW11764   3.922   7.056   7.267  0.1565 -0.0595 -0.2177
 2765WAT      O11765   4.998   5.921   5.780 -0.4814  0.7340 -0.6061
 2765WAT     H111766   5.030   5.879   5.711  1.2225  2.0220 -0.6770
 2765WAT     H211767   4.925   5.878   5.799  0.9932 -2.0806 -0.8218
 2765WAT    EPW11768   4.992   5.909   5.773  0.0437  0.2264 -0.0448
 2766WAT      O11769   5.919   5.210   6.197  0.4950 -0.0707 -0.4557
 2766WAT     H111770   5.946   5.127   6.203  0.1844 -0.0702  2.5382
 2766WAT     H211771   5.980   5.248   6.147  1.3109 -1.8297 -0.8657
 2766WAT    EPW11772   5.932   5.203   6.190 -0.5304  0.0166 -0.4666
 2767WAT      O11773   5.941   4.337   6.792  0.0800  0.5185  0.1456
 2767WAT     H111774   6.008   4.282   6.799  0.2939  0.7672  0.0820
 2767WAT     H211775   5.894   4.322   6.864 -0.2993 -0.3131 -0.2631
 2767WAT    EPW11776   5.944   4.327   6.803  0.4331 -0.2366 -0.0078
 2768WAT      O11777   5.731   6.798   4.818  0.1788 -0.3980  0.4255
 2768WAT     H111778   5.804   6.775   4.860  0.7844  0.9555  0.1699
 2768WAT     H211779   5.671   6.744   4.850  1.3316 -1.6968  0.4779
 2768WAT    EPW11780   5.733   6.787   4.829  0.3001  0.0581  0.4818
 2769WAT      O11781   5.463   7.479   7.988  0.2620 -0.2969 -0.0161
 2769WAT     H111782   5.509   7.531   8.042  1.3112  0.0940 -1.2126
 2769WAT     H211783   5.393   7.527   7.968  1.2481  0.7546 -1.1515
 2769WAT    EPW11784   5.460   7.494   7.993 -0.2667 -0.6162 -0.8505
 2770WAT      O11785   4.723   3.600   7.713  0.1187 -0.1885  0.4923
 2770WAT     H111786   4.702   3.544   7.650  0.3275 -0.2095  0.4394
 2770WAT     H211787   4.679   3.672   7.692 -0.1305 -0.3248  0.5469
 2770WAT    EPW11788   4.713   3.602   7.700 -0.2302  0.0393 -0.8568
 2771WAT      O11789   5.680   7.548   6.587 -0.2918 -0.1785 -0.3980
 2771WAT     H111790   5.750   7.497   6.583  0.9169  1.4045 -0.4153
 2771WAT     H211791   5.687   7.585   6.666 -1.1899 -0.0860 -0.3517
 2771WAT    EPW11792   5.691   7.546   6.598 -0.5847  0.1642  0.1710
 2772WAT      O11793   5.112   4.655   5.631  0.2694 -0.4360  0.5783
 2772WAT     H111794   5.084   4.649   5.549  0.8332  0.5140  0.2923
 2772WAT     H211795   5.039   4.668   5.677  0.0900  0.9395 -0.0262
 2772WAT    EPW11796   5.097   4.656   5.626  0.2246 -0.2455 -0.0813
 2773WAT      O11797   4.885   6.009   6.758 -0.2466 -0.5291  0.0034
 2773WAT     H111798   4.947   5.993   6.817 -1.9162  1.6191  2.5581
 2773WAT     H211799   4.924   5.991   6.682  2.9825 -0.7036  1.5378
 2773WAT    EPW11800   4.900   6.004   6.755 -0.5414 -0.3058 -0.3947
 2774WAT      O11801   4.424   5.974   4.562 -0.0977  0.5925 -0.2910
 2774WAT     H111802   4.477   5.917   4.522 -0.1308 -0.1763  0.6979
 2774WAT     H211803   4.346   5.954   4.530 -0.0288  0.4848 -0.3948
 2774WAT    EPW11804   4.421   5.962   4.552 -0.2549  0.4719 -0.1081
 2775WAT      O11805   5.256   5.922   7.172 -0.6347 -0.3731 -0.1486
 2775WAT     H111806   5.198   5.962   7.120 -0.7456  1.4937  1.2931
 2775WAT     H211807   5.207   5.890   7.237 -0.1604  0.6779  0.7591
 2775WAT    EPW11808   5.240   5.923   7.174 -0.2207  0.6955  0.0008
 2776WAT      O11809   5.737   4.476   8.041 -0.2608 -0.3567 -0.5349
 2776WAT     H111810   5.678   4.526   8.000 -0.6677  1.1016  1.6323
 2776WAT     H211811   5.703   4.396   8.035 -1.1976  0.0715 -1.4391
 2776WAT    EPW11812   5.723   4.472   8.034  0.0637 -0.2738 -0.6492
 2777WAT      O11813   6.240   6.388   0.830 -0.4733 -0.0124  0.1674
 2777WAT     H111814   6.229   6.443   0.896  0.6493 -1.1264  1.3637
 2777WAT     H211815   6.185   6.323   0.848  0.2928 -0.6187  0.3754
 2777WAT    EPW11816   6.231   6.386   0.842 -0.0814 -0.3191  0.3431
 2778WAT      O11817   3.828   5.525   7.501  0.2806 -0.1791 -0.1228
 2778WAT     H111818   3.750   5.489   7.483 -0.6428  2.3366 -1.7226
 2778WAT     H211819   3.849   5.491   7.578 -2.5763 -0.7216  0.5238
 2778WAT    EPW11820   3.819   5.515   7.509  0.4176  0.5027 -0.6370
 2779WAT      O11821   6.239   7.241   1.666  0.0581  0.4020 -0.3489
 2779WAT     H111822   6.231   7.180   1.604 -2.0095 -2.0336  2.0334
 2779WAT     H211823   6.191   7.308   1.636  1.7431  0.6515 -2.6935
 2779WAT    EPW11824   6.230   7.242   1.653 -0.2155 -0.3518 -0.5845
 2780WAT      O11825   4.924   6.304   5.583  0.0397  0.3225 -0.1266
 2780WAT     H111826   4.979   6.371   5.572  0.5498 -0.1496 -0.5505
 2780WAT     H211827   4.864   6.335   5.638 -0.1431  1.3544 -0.8799
 2780WAT    EPW11828   4.923   6.319   5.589 -0.7534  0.4796  0.1699
 2781WAT      O11829   4.992   5.163   6.217  0.0817  0.2908 -0.3424
 2781WAT     H111830   4.905   5.164   6.227  0.1239 -0.4809  0.1677
 2781WAT     H211831   5.008   5.083   6.187  0.8003 -0.2310  1.3499
 2781WAT    EPW11832   4.981   5.151   6.214 -0.1398 -0.1215  0.0165
 2782WAT      O11833   6.266   6.847   1.690  0.3394  0.5800  0.3778
 2782WAT     H111834   6.348   6.819   1.675  0.0344 -0.5430  0.7169
 2782WAT     H211835   6.273   6.893   1.763  0.8455  1.3940 -0.1636
 2782WAT    EPW11836   6.279   6.850   1.698 -0.2681  0.4459 -0.7751
 2783WAT      O11837   6.789   6.742   0.609  0.0396 -0.2688  0.5080
 2783WAT     H111838   6.783   6.828   0.612 -0.5180 -0.3048  0.4038
 2783WAT     H211839   6.845   6.727   0.543  1.9879  0.0742  1.9684
 2783WAT    EPW11840   6.797   6.752   0.600 -0.3596 -0.4455 -0.3145
 2784WAT      O11841   4.959   5.500   7.637 -0.2834  0.2279 -0.0923
 2784WAT     H111842   5.027   5.545   7.607  0.1785 -0.4129 -0.0137
 2784WAT     H211843   4.952   5.433   7.582 -0.4057 -0.1001  0.3167
 2784WAT    EPW11844   4.968   5.497   7.624  0.4785  1.3514 -0.0174
 2785WAT      O11845   6.086   7.235   7.318 -0.4451  0.3568 -0.1395
 2785WAT     H111846   6.172   7.223   7.327 -0.6163 -0.3102  0.8302
 2785WAT     H211847   6.064   7.177   7.257 -0.0541  1.2764 -1.1793
 2785WAT    EPW11848   6.096   7.224   7.311 -0.7712 -0.2266 -0.2039
 2786WAT      O11849   5.631   5.463   7.826  0.0597  0.5082  0.2708
 2786WAT     H111850   5.699   5.434   7.873 -0.1150 -0.6102 -0.1517
 2786WAT     H211851   5.568   5.475   7.885 -0.0943 -0.6882  0.3598
 2786WAT    EPW11852   5.632   5.461   7.842  0.1352 -1.4177  0.5155
 2787WAT      O11853   6.283   6.591   6.186  0.2909 -0.4153  0.0632
 2787WAT     H111854   6.297   6.668   6.147 -0.6369 -0.5801 -0.6204
 2787WAT     H211855   6.276   6.535   6.120 -0.4295 -0.8584  0.5001
 2787WAT    EPW11856   6.284   6.594   6.171  0.2841 -0.1396 -0.5536
 2788WAT      O11857   6.233   6.476   0.565  0.6368 -0.5121 -0.4981
 2788WAT     H111858   6.199   6.407   0.524 -0.8446  0.5415 -1.1113
 2788WAT     H211859   6.236   6.451   0.648  0.9332 -1.6068 -0.8149
 2788WAT    EPW11860   6.229   6.462   0.571  0.6915 -0.2476  0.6040
 2789WAT      O11861   3.397   6.738   7.255  0.4588 -0.4174 -0.2222
 2789WAT     H111862   3.336   6.789   7.220  0.7029  0.4127  0.5166
 2789WAT     H211863   3.366   6.721   7.335  0.6583 -0.9414 -0.2549
 2789WAT    EPW11864   3.384   6.743   7.261  1.1373 -0.0995  0.1664
 2790WAT      O11865   3.166   6.549   5.613  0.2432 -0.1584 -0.5748
 2790WAT     H111866   3.120   6.536   5.540  0.3621 -0.7112 -0.5544
 2790WAT     H211867   3.107   6.543   5.676  0.2811 -0.5421 -0.5712
 2790WAT    EPW11868   3.151   6.546   5.611  0.6692 -0.3074 -0.1262
 2791WAT      O11869   7.085   4.928   7.621  0.1763  0.3765  0.3569
 2791WAT     H111870   7.023   4.872   7.645  1.0422  0.1626  2.2717
 2791WAT     H211871   7.060   4.953   7.541 -1.2455 -1.2615  0.2320
 2791WAT    EPW11872   7.072   4.924   7.613 -0.2980  0.2833  0.4153
 2792WAT      O11873   6.265   5.329   6.830  0.7891  0.4034 -0.7604
 2792WAT     H111874   6.303   5.272   6.884 -0.5985 -0.3549 -0.5357
 2792WAT     H211875   6.329   5.352   6.776  1.1615 -2.3425 -1.6270
 2792WAT    EPW11876   6.280   5.324   6.830 -0.6216  0.9742 -1.0224
 2793WAT      O11877   4.734   7.870   5.533 -0.1028 -0.1889 -0.4970
 2793WAT     H111878   4.781   7.797   5.545  0.8811  0.3891 -0.7328
 2793WAT     H211879   4.777   7.911   5.469 -0.6983  0.5561 -0.4261
 2793WAT    EPW11880   4.747   7.865   5.525  0.4742 -0.1313 -0.4289
 2794WAT      O11881   4.336   5.770   6.911  0.5471  0.0905 -0.3321
 2794WAT     H111882   4.373   5.732   6.842 -1.3200 -2.3446 -0.1246
 2794WAT     H211883   4.302   5.843   6.878  2.1452  0.4423 -1.3130
 2794WAT    EPW11884   4.337   5.775   6.896 -0.6024  0.8673  0.6427
 2795WAT      O11885   3.842   6.063   6.497  0.4208  0.3864  0.4838
 2795WAT     H111886   3.785   6.076   6.433  0.1703 -2.5456 -0.0046
 2795WAT     H211887   3.792   6.054   6.568  0.2019 -1.8696  0.1065
 2795WAT    EPW11888   3.826   6.064   6.498  0.2413 -0.7290 -0.0806
 2796WAT      O11889   6.192   4.009   7.999 -0.4346 -0.6148  0.2402
 2796WAT     H111890   6.172   4.094   8.009  0.1628 -0.6064  1.5545
 2796WAT     H211891   6.115   3.972   7.983 -0.6235  0.2428 -0.9745
 2796WAT    EPW11892   6.178   4.016   7.998  0.0601 -0.0911 -0.6946
 2797WAT      O11893   5.276   6.768   4.877  0.8730  0.4975 -0.5803
 2797WAT     H111894   5.290   6.773   4.791 -0.0611 -3.7784 -1.2073
 2797WAT     H211895   5.355   6.751   4.910  1.1338  1.5513 -0.6359
 2797WAT    EPW11896   5.290   6.766   4.869  0.6679  0.4536  0.0442
 2798WAT      O11897   5.402   6.481   5.554  0.1470  0.1268  0.1118
 2798WAT     H111898   5.397   6.555   5.599 -1.4576 -0.3030  0.7273
 2798WAT     H211899   5.352   6.497   5.484 -1.0098 -0.6485  0.7227
 2798WAT    EPW11900   5.394   6.494   5.550  0.1939  0.0547  0.4188
 2799WAT      O11901   6.098   6.229   5.511 -0.0939 -0.0649 -0.4852
 2799WAT     H111902   6.113   6.297   5.459  2.0258 -0.0547  0.0443
 2799WAT     H211903   6.170   6.180   5.503 -0.5395 -1.0362  0.9361
 2799WAT    EPW11904   6.111   6.232   5.502  0.0676  0.6895  0.2854
 2800WAT      O11905   5.944   5.376   7.528  0.3782 -0.5334  0.3162
 2800WAT     H111906   5.936   5.355   7.444 -1.7405 -2.0305  0.8047
 2800WAT     H211907   5.910   5.456   7.533 -1.7795 -1.3693  0.0516
 2800WAT    EPW11908   5.938   5.384   7.517 -0.5226  0.8318 -0.1450
 2801WAT      O11909   6.593   5.518   7.890 -0.4108  0.2346  0.2323
 2801WAT     H111910   6.594   5.442   7.848  2.1274  0.8223 -0.9527
 2801WAT     H211911   6.557   5.573   7.832 -1.0612  0.1930  0.5915
 2801WAT    EPW11912   6.588   5.515   7.875  0.2312  0.1877 -0.7333
 2802WAT      O11913   4.758   4.322   6.596  0.0336  0.5515  0.1614
 2802WAT     H111914   4.725   4.307   6.517  2.4572  1.3246 -1.0755
 2802WAT     H211915   4.737   4.405   6.612  1.2337  1.0295 -0.6063
 2802WAT    EPW11916   4.750   4.332   6.587  0.7261  0.6541 -1.1444
 2803WAT      O11917   5.905   7.366   7.113  0.7843  0.6112 -0.4472
 2803WAT     H111918   5.956   7.353   7.044  0.2201 -2.1641 -0.4564
 2803WAT     H211919   5.960   7.357   7.181  0.8074  0.3729 -0.4976
 2803WAT    EPW11920   5.921   7.363   7.113  0.6165 -0.3035 -0.3310
 2804WAT      O11921   5.182   5.813   6.561 -0.5088  0.0999  0.0243
 2804WAT     H111922   5.219   5.749   6.609  0.7256  0.5249 -0.3223
 2804WAT     H211923   5.105   5.779   6.538 -0.4904 -0.6981  1.0556
 2804WAT    EPW11924   5.176   5.798   6.565 -0.3844  0.3182 -0.5192
 2805WAT      O11925   5.130   5.330   6.379  0.3348 -0.7132 -0.1606
 2805WAT     H111926   5.102   5.279   6.314  2.8045  0.2137 -2.1228
 2805WAT     H211927   5.107   5.410   6.354  0.0589 -0.4659  0.8457
 2805WAT    EPW11928   5.123   5.334   6.366 -0.9386 -0.5946  0.6931
 2806WAT      O11929   4.482   5.391   4.506  0.0086 -0.0908  0.0659
 2806WAT     H111930   4.468   5.339   4.437 -1.2165  1.0705 -0.6231
 2806WAT     H211931   4.401   5.406   4.536  0.2563  1.9001 -0.1574
 2806WAT    EPW11932   4.468   5.385   4.500  0.1291 -0.5965 -0.8009
 2807WAT      O11933   5.898   7.062   7.434  0.1940 -0.3388 -0.3039
 2807WAT     H111934   5.970   7.110   7.437  0.8262 -1.2339 -0.8545
 2807WAT     H211935   5.914   6.996   7.489 -1.3527  0.9350  1.8260
 2807WAT    EPW11936   5.911   7.059   7.442  0.5915  0.1671 -0.1657
 2808WAT      O11937   5.476   5.603   6.938 -0.6417  0.3070  0.1748
 2808WAT     H111938   5.471   5.657   6.870 -1.0830  0.2586  0.1643
 2808WAT     H211939   5.514   5.531   6.904  0.2162  0.7111  0.2602
 2808WAT    EPW11940   5.481   5.600   6.923 -0.2540  0.5577 -0.7217
 2809WAT      O11941   5.402   6.303   6.759  0.0905  0.1085 -0.0648
 2809WAT     H111942   5.342   6.367   6.757 -1.9469 -1.5593  1.9204
 2809WAT     H211943   5.393   6.264   6.682 -2.7554 -1.0895  0.7098
 2809WAT    EPW11944   5.392   6.307   6.748 -0.2144  0.1241 -0.0952
 2810WAT      O11945   5.543   6.432   8.016  0.4464 -0.2342  0.0332
 2810WAT     H111946   5.462   6.438   7.987 -0.1709  0.6580  1.7578
 2810WAT     H211947   5.584   6.498   7.976  0.1582 -0.3069 -0.3819
 2810WAT    EPW11948   5.537   6.443   8.006 -0.4061  0.1120 -0.3761
 2811WAT      O11949   5.933   4.926   6.141 -0.0416 -0.0106 -0.6372
 2811WAT     H111950   5.878   4.858   6.141 -0.3174  0.2008 -0.0873
 2811WAT     H211951   6.012   4.889   6.143 -0.1428 -0.3230 -1.7844
 2811WAT    EPW11952   5.936   4.911   6.142  0.1262  0.4389  0.2596
 2812WAT      O11953   4.783   7.323   6.525  0.4899  0.2797 -0.3399
 2812WAT     H111954   4.717   7.374   6.553 -0.8235 -0.2964 -2.2544
 2812WAT     H211955   4.766   7.310   6.441  1.2052 -2.7032 -0.1405
 2812WAT    EPW11956   4.771   7.329   6.517 -0.4648 -0.7697 -0.4556
 2813WAT      O11957   5.807   4.997   5.922 -0.2916 -0.0628  0.2906
 2813WAT     H111958   5.849   4.971   5.994 -0.2925  0.8542  0.6357
 2813WAT     H211959   5.852   4.960   5.857  0.1519 -0.2965  0.7274
 2813WAT    EPW11960   5.820   4.987   5.923  0.5780  0.5601 -0.3554
 2814WAT      O11961   5.385   6.824   4.632 -0.1437 -0.9158  0.0296
 2814WAT     H111962   5.471   6.837   4.624  0.0007 -1.1759  0.9760
 2814WAT     H211963   5.356   6.826   4.550  0.5843  0.3765 -0.2287
 2814WAT    EPW11964   5.393   6.827   4.619  0.1537  0.6353  0.0714
 2815WAT      O11965   4.038   6.599   6.880  0.0077 -0.1592  0.0228
 2815WAT     H111966   4.087   6.633   6.816 -0.9935 -0.2209 -0.7992
 2815WAT     H211967   4.068   6.517   6.887 -0.6317 -0.5134 -1.1766
 2815WAT    EPW11968   4.050   6.592   6.872  0.7077 -1.1056  0.0477
 2816WAT      O11969   5.128   5.278   6.696  0.5261  0.0948  0.2225
 2816WAT     H111970   5.100   5.245   6.620  0.5681 -0.4653  0.4394
 2816WAT     H211971   5.148   5.360   6.677 -0.3649  0.2323 -0.1501
 2816WAT    EPW11972   5.127   5.285   6.682  0.6208  0.1441  0.4980
 2817WAT      O11973   4.582   5.274   6.082  0.5358 -0.1881 -0.4900
 2817WAT     H111974   4.644   5.217   6.060  0.4377 -0.9344  1.0944
 2817WAT     H211975   4.627   5.346   6.102  0.8435 -0.4697 -0.1460
 2817WAT    EPW11976   4.598   5.276   6.081 -0.2209 -0.3005 -0.5685
 2818WAT      O11977   5.143   5.573   5.651  0.2422 -0.1472  0.1058
 2818WAT     H111978   5.178   5.595   5.728  0.2453  0.9637 -0.2027
 2818WAT     H211979   5.167   5.489   5.641 -0.5292 -0.6114  1.7295
 2818WAT    EPW11980   5.151   5.564   5.661  0.6883 -0.2870 -0.3402
 2819WAT      O11981   5.370   7.092   4.667 -0.0284 -0.3671  0.4294
 2819WAT     H111982   5.367   7.005   4.674  1.6665 -0.4145  1.2225
 2819WAT     H211983   5.388   7.105   4.583 -3.4003 -0.5887 -0.4547
 2819WAT    EPW11984   5.372   7.081   4.656  0.4216  0.8196  0.1901
 2820WAT      O11985   5.268   7.869   7.328 -0.7171 -0.2923  0.1846
 2820WAT     H111986   5.342   7.897   7.365 -0.6283 -2.0627  1.4623
 2820WAT     H211987   5.296   7.817   7.263 -0.8873  1.7042 -1.6022
 2820WAT    EPW11988   5.283   7.866   7.324  0.5747  0.1836 -0.0711
 2821WAT      O11989   5.772   6.112   4.791  0.3257 -0.0798 -0.2583
 2821WAT     H111990   5.762   6.191   4.756 -0.0507 -0.2419 -0.5204
 2821WAT     H211991   5.804   6.128   4.870 -0.9016  0.3900  0.1484
 2821WAT    EPW11992   5.775   6.126   4.797 -0.3604 -0.0318 -0.2160
 2822WAT      O11993   6.718   7.002   7.718  0.2383 -0.1577  0.2052
 2822WAT     H111994   6.795   6.968   7.740  0.8292 -0.6531 -2.2962
 2822WAT     H211995   6.667   6.933   7.706  0.2750 -0.0127 -0.9418
 2822WAT    EPW11996   6.722   6.987   7.719 -0.3052  0.3239  0.1656
 2823WAT      O11997   5.809   5.786   7.812 -0.4559  0.1978  0.0951
 2823WAT     H111998   5.854   5.747   7.877  0.9706  0.4105 -0.7186
 2823WAT     H211999   5.819   5.732   7.745  0.7777  1.4575 -0.7973
 2823WAT    EPW12000   5.817   5.773   7.812 -0.1623  0.3568  0.3882
 2824WAT      O12001   6.478   7.850   1.733  0.0119  0.0254 -0.2527
 2824WAT     H112002   6.435   7.814   1.666  1.3211  0.4486 -1.3609
 2824WAT     H212003   6.496   7.783   1.785 -2.1100 -0.1446  0.3511
 2824WAT    EPW12004   6.474   7.835   1.731  0.5253 -0.1548 -0.3936
 2825WAT      O12005   6.744   6.511   7.470  0.9265 -0.2090 -0.4153
 2825WAT     H112006   6.748   6.590   7.434 -0.6287 -0.2876 -0.8265
 2825WAT     H212007   6.809   6.512   7.528 -0.0399  1.9605  0.7521
 2825WAT    EPW12008   6.754   6.523   7.473  0.1424 -0.2772 -1.0429
 2826WAT      O12009   3.700   6.914   7.325  0.5414 -0.1043  0.1215
 2826WAT     H112010   3.698   6.828   7.334  0.1793 -0.3822 -2.0188
 2826WAT     H212011   3.656   6.928   7.250  0.3675  1.9504  0.5385
 2826WAT    EPW12012   3.693   6.904   7.315  0.1057  0.4132 -0.2539
 2827WAT      O12013   6.006   7.422   2.945 -0.2979  0.0203 -0.2513
 2827WAT     H112014   5.954   7.368   2.901 -0.4351 -1.5402  1.6729
 2827WAT     H212015   6.033   7.374   3.013  3.1929  0.9565 -0.8077
 2827WAT    EPW12016   6.002   7.407   2.949  0.0760 -0.4969  0.4201
 2828WAT      O12017   2.961   6.975   7.113 -0.1486  0.1753 -0.4797
 2828WAT     H112018   2.888   6.927   7.103 -1.8599  2.8075 -1.7777
 2828WAT     H212019   2.975   7.007   7.034  0.1851  2.7116  0.5216
 2828WAT    EPW12020   2.952   6.972   7.100  0.4335 -0.7679 -0.2359
 2829WAT      O12021   6.403   4.978   3.781 -0.1182  0.2544  0.4978
 2829WAT     H112022   6.337   4.927   3.756 -0.7588  0.0641  2.4050
 2829WAT     H212023   6.470   4.952   3.731 -1.2366 -0.1823 -0.8173
 2829WAT    EPW12024   6.403   4.967   3.770 -0.0542  0.0625 -0.5962
 2830WAT      O12025   5.058   6.725   4.487  0.0816 -0.2520  0.2409
 2830WAT     H112026   5.011   6.709   4.416  0.6518  0.0387 -0.2089
 2830WAT     H212027   5.124   6.774   4.458  0.6938 -0.6900  0.8504
 2830WAT    EPW12028   5.061   6.730   4.472 -1.0160  0.3200  0.4840
 2831WAT      O12029   4.804   7.534   2.958 -0.1357  0.1725 -0.7757
 2831WAT     H112030   4.881   7.513   2.993 -0.5725 -0.8805 -0.3919
 2831WAT     H212031   4.824   7.585   2.890  0.8244  0.8876  0.0286
 2831WAT    EPW12032   4.818   7.538   2.953  0.7405 -1.2085  0.1526
 2832WAT      O12033   7.133   7.640   4.113 -0.2378 -0.4585  0.6179
 2832WAT     H112034   7.159   7.559   4.132 -1.3133 -0.3695  2.8049
 2832WAT     H212035   7.056   7.648   4.155 -0.0581  1.7517  0.6783
 2832WAT    EPW12036   7.125   7.629   4.122 -0.5621 -0.2290  0.4715
 2833WAT      O12037   4.652   5.500   3.407  0.4082  0.8195 -0.1588
 2833WAT     H112038   4.610   5.535   3.475  0.1401 -0.6089  0.4406
 2833WAT     H212039   4.624   5.417   3.405  0.4191  0.8020 -2.0020
 2833WAT    EPW12040   4.641   5.493   3.417 -0.0991 -0.5179 -0.0600
 2834WAT      O12041   6.287   4.198   2.502  0.0752  0.3988 -0.3518
 2834WAT     H112042   6.300   4.276   2.465 -0.7340  0.4697 -0.4996
 2834WAT     H212043   6.200   4.193   2.511  0.0045 -1.0116 -1.5092
 2834WAT    EPW12044   6.276   4.209   2.498 -0.3183  0.0082  0.2161
 2835WAT      O12045   5.243   5.660   4.730  0.0295 -0.0621  0.3302
 2835WAT     H112046   5.179   5.675   4.672  0.2971 -0.3943 -0.0536
 2835WAT     H212047   5.304   5.718   4.708 -0.4218  0.7414  1.1467
 2835WAT    EPW12048   5.242   5.671   4.718  0.0926  0.0213 -0.2918
 2836WAT      O12049   5.418   6.849   1.815  0.0077 -0.3112 -0.4433
 2836WAT     H112050   5.379   6.859   1.892 -3.4423  1.1637 -2.1818
 2836WAT     H212051   5.359   6.807   1.768  2.7364 -2.9109 -1.9149
 2836WAT    EPW12052   5.404   6.844   1.820 -0.0928  0.5572 -0.0394
 2837WAT      O12053   5.738   6.319   3.555 -0.5297  0.1957  0.0245
 2837WAT     H112054   5.713   6.236   3.539  1.6803 -0.7319  0.9688
 2837WAT     H212055   5.745   6.321   3.642  1.4680  0.7144 -0.1136
 2837WAT    EPW12056   5.735   6.307   3.566 -0.3776 -0.1297  0.0577
 2838WAT      O12057   4.125   7.512   3.382  0.3929 -0.2927 -0.0078
 2838WAT     H112058   4.121   7.591   3.346  1.7052  0.8832  2.2175
 2838WAT     H212059   4.209   7.490   3.375  0.3633 -0.7272  0.8420
 2838WAT    EPW12060   4.137   7.520   3.376 -0.4670  0.8921  0.2907
 2839WAT      O12061   3.828   6.028   3.131  0.3832  0.0239 -0.1123
 2839WAT     H112062   3.860   6.030   3.213 -0.8234 -0.9856  0.4108
 2839WAT     H212063   3.743   6.042   3.142  0.3870  1.2553 -1.3559
 2839WAT    EPW12064   3.820   6.030   3.145 -0.3647 -0.2964 -0.5190
 2840WAT      O12065   4.903   6.535   4.912  0.3745 -0.2822  0.2006
 2840WAT     H112066   4.987   6.514   4.908  0.8777  1.2517  1.3649
 2840WAT     H212067   4.869   6.476   4.966  0.7167 -0.8963 -0.2558
 2840WAT    EPW12068   4.910   6.523   4.920 -0.1561  0.1963 -0.9464
 2841WAT      O12069   6.331   6.050   3.443  0.5195 -0.2012 -0.5530
 2841WAT     H112070   6.322   6.076   3.360  2.5484  0.5763 -0.5792
 2841WAT     H212071   6.345   6.125   3.486 -2.8622 -0.2540  0.9839
 2841WAT    EPW12072   6.332   6.065   3.437  0.1947 -0.5176  0.0733
 2842WAT      O12073   5.861   6.383   3.807 -0.1929 -0.3618  0.2023
 2842WAT     H112074   5.793   6.422   3.845 -0.3994  0.4929 -0.9924
 2842WAT     H212075   5.898   6.447   3.760 -0.3495 -1.5070 -1.5598
 2842WAT    EPW12076   5.857   6.398   3.806 -0.6255 -0.0486 -0.0130
 2843WAT      O12077   6.072   7.089   4.908  0.3233 -0.0882 -0.1793
 2843WAT     H112078   6.052   7.147   4.970 -0.2894 -0.6242  0.1273
 2843WAT     H212079   5.999   7.043   4.898  1.1114 -1.4960  0.3112
 2843WAT    EPW12080   6.058   7.091   4.915  0.2361 -0.3825 -0.0684
 2844WAT      O12081   4.857   5.072   3.430 -0.1449  0.0591  0.4485
 2844WAT     H112082   4.817   5.135   3.384  1.1415  0.6046  0.0196
 2844WAT     H212083   4.794   5.041   3.481 -0.8230  1.7116  0.6967
 2844WAT    EPW12084   4.842   5.077   3.431  0.3069  0.0285 -0.1832
 2845WAT      O12085   6.939   4.904   3.335  0.2367  0.1604 -0.0104
 2845WAT     H112086   6.906   4.957   3.275  1.0258  1.9857  1.0916
 2845WAT     H212087   7.025   4.908   3.321  0.3958  0.2415  0.9255
 2845WAT    EPW12088   6.947   4.912   3.324  0.4616  0.0817  0.2009
 2846WAT      O12089   5.949   5.778   3.257  0.0503 -0.4308  0.3528
 2846WAT     H112090   6.034   5.763   3.244  0.3282  0.9008  0.5182
 2846WAT     H212091   5.944   5.791   3.343 -0.8315 -3.3565  0.8509
 2846WAT    EPW12092   5.961   5.777   3.267 -0.1169  0.6702  0.4195
 2847WAT      O12093   6.085   6.300   5.152 -0.0028 -0.3074  0.4148
 2847WAT     H112094   6.102   6.345   5.225  2.5644  0.4172 -0.5204
 2847WAT     H212095   6.070   6.361   5.092 -2.6167 -0.9021  0.3464
 2847WAT    EPW12096   6.085   6.316   5.154  0.9202 -0.1918 -0.0924
 2848WAT      O12097   4.844   6.008   3.211 -0.2852 -0.2941 -0.0578
 2848WAT     H112098   4.910   5.960   3.180  0.1804  0.3999 -0.1595
 2848WAT     H212099   4.860   6.013   3.296  1.4218  2.2769 -0.4551
 2848WAT    EPW12100   4.856   6.001   3.219 -0.1608  0.7211 -0.0355
 2849WAT      O12101   3.752   6.307   4.572  0.3536  0.2641 -0.1109
 2849WAT     H112102   3.736   6.343   4.650  0.5674 -0.4357  0.2719
 2849WAT     H212103   3.693   6.343   4.520  0.6766  1.2996  0.2096
 2849WAT    EPW12104   3.741   6.318   4.576 -1.0401  1.0348 -1.1527
 2850WAT      O12105   4.587   5.018   4.426  0.0523  0.1055  0.4026
 2850WAT     H112106   4.560   4.941   4.394  2.0986  0.2219 -1.9602
 2850WAT     H212107   4.529   5.074   4.395 -0.2811 -0.2681  0.3426
 2850WAT    EPW12108   4.575   5.015   4.416 -0.1310 -0.1431 -0.3899
 2851WAT      O12109   4.642   5.624   4.540  0.6405  0.3994  0.9971
 2851WAT     H112110   4.604   5.667   4.606  0.9702 -0.1860  1.5840
 2851WAT     H212111   4.584   5.561   4.521  0.1211  1.1204  0.0872
 2851WAT    EPW12112   4.628   5.621   4.547 -0.0863 -0.3692  0.7909
 2852WAT      O12113   3.782   6.078   4.190 -0.1585 -0.1248 -0.3909
 2852WAT     H112114   3.736   6.020   4.236 -2.0234  1.4436 -0.1601
 2852WAT     H212115   3.724   6.139   4.168  1.4553  1.0858 -1.6515
 2852WAT    EPW12116   3.767   6.078   4.193  0.5445 -0.6303 -0.2694
 2853WAT      O12117   3.965   6.203   3.347 -0.0726 -0.5984  0.0288
 2853WAT     H112118   3.924   6.262   3.297  0.4460 -0.9839 -0.8719
 2853WAT     H212119   4.033   6.178   3.298  0.4518 -0.9902  0.9349
 2853WAT    EPW12120   3.969   6.208   3.333 -0.0268  0.3162 -0.2140
 2854WAT      O12121   5.657   6.065   2.429  0.7055 -0.2910 -0.2922
 2854WAT     H112122   5.605   5.997   2.443  0.7482 -0.1669  0.5340
 2854WAT     H212123   5.731   6.044   2.471  0.8809  0.0729 -0.4125
 2854WAT    EPW12124   5.660   6.052   2.437 -0.0514  0.8923  0.0864
 2855WAT      O12125   6.652   6.638   3.317  0.2070  0.1739 -0.2264
 2855WAT     H112126   6.702   6.700   3.280  2.3757 -1.4934 -0.2801
 2855WAT     H212127   6.689   6.625   3.395 -1.0958 -0.0616  0.3743
 2855WAT    EPW12128   6.665   6.645   3.323  0.6205 -0.1475 -0.1689
 2856WAT      O12129   6.349   7.641   3.694  0.4207 -0.0939  0.8132
 2856WAT     H112130   6.350   7.724   3.667  1.2448 -0.0587  0.9108
 2856WAT     H212131   6.433   7.626   3.714  0.1178 -0.6482  1.7034
 2856WAT    EPW12132   6.362   7.651   3.693  0.6990 -0.2168 -0.0682
 2857WAT      O12133   5.559   6.257   3.158 -0.0352  0.4798 -0.2915
 2857WAT     H112134   5.585   6.214   3.086  2.1732  1.0133  0.1221
 2857WAT     H212135   5.567   6.197   3.221  1.1733  0.8895 -0.0235
 2857WAT    EPW12136   5.564   6.242   3.156  0.0752  0.4587  0.1983
 2858WAT      O12137   4.677   6.263   2.725 -0.1021  0.3435 -0.2012
 2858WAT     H112138   4.701   6.184   2.751  0.3996  0.2312 -0.9491
 2858WAT     H212139   4.613   6.285   2.780 -0.1834 -0.5397  0.0722
 2858WAT    EPW12140   4.671   6.255   2.737 -0.3295 -0.3850  0.8502
 2859WAT      O12141   6.742   6.500   3.781 -0.0147 -0.1148 -0.5322
 2859WAT     H112142   6.699   6.565   3.820 -0.3219 -0.1687 -0.7822
 2859WAT     H212143   6.791   6.467   3.845 -0.3562 -0.0613 -0.2378
 2859WAT    EPW12144   6.743   6.505   3.796  0.0472 -0.9888  0.8836
 2860WAT      O12145   5.687   7.598   3.810 -0.4188 -0.4021 -0.3035
 2860WAT     H112146   5.690   7.636   3.731 -1.0781  0.8142  0.2194
 2860WAT     H212147   5.749   7.538   3.806  1.5508  1.5388 -0.8061
 2860WAT    EPW12148   5.696   7.595   3.798  0.2930 -0.0499  0.0586
 2861WAT      O12149   4.853   5.284   3.200  0.3557 -0.3866 -0.0427
 2861WAT     H112150   4.864   5.371   3.196  0.0812 -0.3861 -1.2859
 2861WAT     H212151   4.785   5.269   3.148  0.0521 -1.3046  0.5917
 2861WAT    EPW12152   4.845   5.295   3.192 -0.4847 -0.7395  0.1942
 2862WAT      O12153   6.576   6.545   2.161 -0.0302 -0.7677 -0.4615
 2862WAT     H112154   6.556   6.528   2.244 -2.1793 -1.1097 -1.0007
 2862WAT     H212155   6.585   6.632   2.160  0.7695 -0.8278  0.2565
 2862WAT    EPW12156   6.575   6.556   2.173 -0.2364  0.5855  0.3796
 2863WAT      O12157   4.147   7.197   3.254 -0.0083  0.3375  0.4285
 2863WAT     H112158   4.140   7.185   3.168 -0.2807 -0.8036  0.5978
 2863WAT     H212159   4.198   7.268   3.261 -1.7067  1.7787 -0.7039
 2863WAT    EPW12160   4.153   7.206   3.243  0.4850 -0.6926 -0.3016
 2864WAT      O12161   4.987   4.607   5.373  0.6346 -0.6965  0.2589
 2864WAT     H112162   5.041   4.546   5.342  0.1224 -0.1379 -1.8957
 2864WAT     H212163   4.991   4.671   5.313 -0.6779  0.3444  1.2158
 2864WAT    EPW12164   4.996   4.608   5.360  0.7463 -0.4843  0.2906
 2865WAT      O12165   5.136   4.895   4.122 -0.0985  0.0691  0.3004
 2865WAT     H112166   5.097   4.830   4.079 -1.0392  0.8261 -0.0089
 2865WAT     H212167   5.161   4.949   4.059 -1.1042  0.9747  0.6448
 2865WAT    EPW12168   5.134   4.893   4.106 -0.5373 -0.3320 -0.0036
 2866WAT      O12169   5.578   4.872   2.553 -0.5960 -0.0687 -0.1073
 2866WAT     H112170   5.603   4.905   2.630  0.8219  1.6962 -1.2215
 2866WAT     H212171   5.650   4.833   2.523 -0.6976  0.4789 -1.1109
 2866WAT    EPW12172   5.592   4.871   2.560  0.7028  0.2135  0.0397
 2867WAT      O12173   0.300   7.167   2.850  0.0666 -0.2591 -0.3048
 2867WAT     H112174   0.217   7.141   2.843 -0.1468 -0.2458  1.5887
 2867WAT     H212175   0.293   7.247   2.885  0.8510 -1.3237  2.5317
 2867WAT    EPW12176   0.286   7.175   2.854 -0.0685 -0.5588 -0.6129
 2868WAT      O12177   4.820   6.931   2.847  0.4543  0.3680 -0.0156
 2868WAT     H112178   4.738   6.927   2.876  0.2819 -0.2268 -0.5434
 2868WAT     H212179   4.859   6.986   2.902  0.3501 -1.3162  1.8644
 2868WAT    EPW12180   4.814   6.938   2.859 -0.3637  0.7437  0.3603
 2869WAT      O12181   6.132   5.422   4.864 -0.7541 -0.3102  0.4634
 2869WAT     H112182   6.160   5.494   4.905 -2.1061  0.2876  0.3753
 2869WAT     H212183   6.138   5.360   4.925 -1.5372  0.3106  1.1908
 2869WAT    EPW12184   6.137   5.423   4.879 -0.1700  0.5205  0.1909
 2870WAT      O12185   4.772   5.725   4.908  1.2574 -0.1949  0.2786
 2870WAT     H112186   4.761   5.775   4.978  0.8821  1.9393 -1.2247
 2870WAT     H212187   4.817   5.775   4.853  1.4486 -1.7538 -1.0799
 2870WAT    EPW12188   4.777   5.740   4.910  0.1037  0.0750 -0.1512
 2871WAT      O12189   3.976   6.152   4.544  0.2064  0.5621  0.3268
 2871WAT     H112190   3.893   6.180   4.539 -0.2229 -0.8756 -3.0451
 2871WAT     H212191   3.968   6.069   4.569  0.9208  1.1355  2.6905
 2871WAT    EPW12192   3.962   6.144   4.547 -0.9105  0.0253  1.0813
 2872WAT      O12193   3.594   6.662   2.951  0.1557  0.1166 -0.0090
 2872WAT     H112194   3.645   6.648   2.882  1.0805  0.5381  0.5560
 2872WAT     H212195   3.552   6.736   2.931  1.2668  0.8712  0.3168
 2872WAT    EPW12196   3.595   6.671   2.938  0.4264 -0.4755 -0.5119
 2873WAT      O12197   6.609   5.451   2.894 -0.3564 -0.4373  0.4279
 2873WAT     H112198   6.543   5.394   2.904 -1.0453  0.0873 -0.8612
 2873WAT     H212199   6.674   5.403   2.862 -0.4010 -0.8011  0.8816
 2873WAT    EPW12200   6.609   5.435   2.891  0.6821 -0.3212  0.0587
 2874WAT      O12201   4.812   5.314   3.795 -0.4384 -0.4890  0.1453
 2874WAT     H112202   4.824   5.385   3.745  0.1143 -0.3941  0.4034
 2874WAT     H212203   4.784   5.254   3.738 -0.9917 -0.0520 -0.0654
 2874WAT    EPW12204   4.809   5.316   3.779 -0.1119  0.5503 -0.3489
 2875WAT      O12205   4.318   5.869   4.079 -0.2678  0.2326  0.2397
 2875WAT     H112206   4.319   5.934   4.138 -0.3861 -1.3276  2.0324
 2875WAT     H212207   4.233   5.856   4.063 -0.3902 -0.9778  1.6726
 2875WAT    EPW12208   4.306   5.877   4.085 -0.9775 -0.2606 -0.3654
 2876WAT      O12209   5.486   5.119   2.417 -0.5452  0.1919 -0.0492
 2876WAT     H112210   5.515   5.044   2.451 -0.9699 -0.5064 -1.1643
 2876WAT     H212211   5.407   5.129   2.454 -0.2561  0.4013  0.5279
 2876WAT    EPW12212   5.479   5.109   2.428  0.0731 -0.4847 -0.6841
 2877WAT      O12213   5.296   6.545   4.152  0.0146  0.9768  0.1680
 2877WAT     H112214   5.344   6.618   4.161  0.7947  0.5810 -0.6359
 2877WAT     H212215   5.223   6.573   4.113 -1.0245  1.7947  2.4902
 2877WAT    EPW12216   5.293   6.560   4.147 -0.1785  0.2769  0.7057
 2878WAT      O12217   6.441   5.264   4.140  0.2071  0.2360  0.0147
 2878WAT     H112218   6.485   5.312   4.198 -0.7629  1.0414  0.1173
 2878WAT     H212219   6.495   5.261   4.071 -0.3565  3.0639 -0.7021
 2878WAT    EPW12220   6.456   5.271   4.138  0.6633 -0.4468 -0.5048
 2879WAT      O12221   7.851   6.836   3.486 -0.1499 -0.3739 -0.3410
 2879WAT     H112222   7.854   6.920   3.510  0.1284 -0.6954  0.7940
 2879WAT     H212223   7.800   6.799   3.547 -1.4991 -0.7715 -1.6591
 2879WAT    EPW12224   7.843   6.843   3.499  0.1986  0.0155  0.5468
 2880WAT      O12225   3.866   5.648   3.658 -0.1333 -0.4153 -0.3530
 2880WAT     H112226   3.894   5.599   3.724  0.1863  0.5310  0.2376
 2880WAT     H212227   3.936   5.657   3.608 -0.2359 -0.7016 -0.5469
 2880WAT    EPW12228   3.880   5.642   3.661  0.2387 -0.3123 -0.0433
 2881WAT      O12229   6.276   6.752   3.547 -0.0889  0.2178 -0.2749
 2881WAT     H112230   6.353   6.750   3.590 -0.2093 -1.1180 -0.0598
 2881WAT     H212231   6.300   6.753   3.463  0.1585  0.9287 -0.1999
 2881WAT    EPW12232   6.291   6.752   3.541  0.3680 -0.2008  0.3201
 2882WAT      O12233   3.914   7.552   4.543 -0.0287 -0.3803 -0.6499
 2882WAT     H112234   3.832   7.536   4.569  0.5695 -0.6396  1.1835
 2882WAT     H212235   3.923   7.638   4.556  0.2701 -0.5076 -0.0268
 2882WAT    EPW12236   3.903   7.562   4.549  0.8996 -0.4185  0.3506
 2883WAT      O12237   5.272   4.464   3.520  0.2873  0.1437  0.3853
 2883WAT     H112238   5.230   4.449   3.445  1.0269 -2.4554  0.3821
 2883WAT     H212239   5.211   4.500   3.571 -0.9843 -0.4721 -0.6484
 2883WAT    EPW12240   5.257   4.467   3.516  0.3434  0.1291 -0.6093
 2884WAT      O12241   5.036   5.635   3.417  0.0197  0.1298 -0.1639
 2884WAT     H112242   5.091   5.574   3.447 -1.0468 -0.7145  0.1346
 2884WAT     H212243   5.050   5.703   3.469  2.4108  0.7760 -1.5229
 2884WAT    EPW12244   5.046   5.636   3.429 -0.8805  0.9163 -0.8682
 2885WAT      O12245   5.011   4.542   3.632 -0.3456  0.6051 -0.2690
 2885WAT     H112246   5.022   4.628   3.639  0.0045  0.5632 -0.2876
 2885WAT     H212247   4.940   4.526   3.682 -0.1124  0.8304  0.1399
 2885WAT    EPW12248   5.002   4.552   3.641 -0.5553  0.4528 -0.4318
 2886WAT      O12249   4.911   5.762   3.813  0.3739  0.2296  0.4575
 2886WAT     H112250   4.857   5.747   3.880  0.1991 -0.1744  0.2350
 2886WAT     H212251   4.936   5.845   3.824  2.0498 -0.4342  2.2293
 2886WAT    EPW12252   4.907   5.772   3.825 -0.5292  1.1396  0.3794
 2887WAT      O12253   6.850   6.592   3.538 -0.5450  0.0536 -0.6187
 2887WAT     H112254   6.802   6.577   3.609  0.2553 -0.5933 -0.1965
 2887WAT     H212255   6.891   6.517   3.525  3.0595  1.4897  1.1314
 2887WAT    EPW12256   6.849   6.579   3.547 -0.2202 -0.4674 -0.7232
 2888WAT      O12257   6.236   6.022   3.995 -0.2514  0.1408  0.3879
 2888WAT     H112258   6.163   6.069   4.001  0.1746  0.6242  2.4431
 2888WAT     H212259   6.259   6.009   4.078  1.5059 -0.7842 -0.1954
 2888WAT    EPW12260   6.229   6.027   4.008 -0.0169 -0.6082 -0.3027
 2889WAT      O12261   4.263   7.370   6.089  0.3216  0.4311  0.2324
 2889WAT     H112262   4.299   7.319   6.150 -1.3735  0.5136  1.3973
 2889WAT     H212263   4.259   7.448   6.128 -1.0904  0.4092  0.1785
 2889WAT    EPW12264   4.268   7.374   6.104  0.7796 -0.2922  0.1528
 2890WAT      O12265   5.532   5.956   4.814 -0.0190 -0.0774  0.2656
 2890WAT     H112266   5.536   5.919   4.893  0.4215  1.5911  1.0814
 2890WAT     H212267   5.593   6.018   4.818 -0.3310  0.3646 -1.2259
 2890WAT    EPW12268   5.542   5.960   4.826 -0.1342  0.4268 -0.0687
 2891WAT      O12269   5.349   4.820   3.469  0.2486 -0.4197  0.1489
 2891WAT     H112270   5.269   4.825   3.503  0.4181 -0.1904  0.5237
 2891WAT     H212271   5.338   4.773   3.397 -0.1941 -0.5366  0.2909
 2891WAT    EPW12272   5.336   4.814   3.463 -0.3814  0.2816 -0.6242
 2892WAT      O12273   6.665   7.744   3.226  0.2450 -0.5874 -0.7560
 2892WAT     H112274   6.679   7.758   3.311 -0.8959  2.1285 -0.9051
 2892WAT     H212275   6.742   7.716   3.196  0.7988 -1.1388  1.0605
 2892WAT    EPW12276   6.678   7.742   3.234 -0.2292 -0.0931 -0.5934
 2893WAT      O12277   4.692   5.956   3.669 -0.4797 -0.2875  0.2139
 2893WAT     H112278   4.610   5.980   3.651 -0.9171 -2.6137 -1.3048
 2893WAT     H212279   4.682   5.880   3.712  0.8603 -0.6432 -0.0660
 2893WAT    EPW12280   4.679   5.948   3.672  0.0678 -0.0791  0.3120
 2894WAT      O12281   5.399   6.194   3.531 -0.4987  0.1327 -0.3645
 2894WAT     H112282   5.317   6.168   3.513 -0.4306 -0.1083 -0.3265
 2894WAT     H212283   5.448   6.141   3.483 -0.3614  0.2273 -0.3268
 2894WAT    EPW12284   5.394   6.182   3.521 -0.1930 -0.2087  0.4285
 2895WAT      O12285   4.591   5.237   3.369 -0.1070 -0.3057 -0.2158
 2895WAT     H112286   4.610   5.227   3.284  0.3446 -1.8174  0.0327
 2895WAT     H212287   4.581   5.155   3.398  0.5606  0.1317  1.3741
 2895WAT    EPW12288   4.592   5.223   3.361  0.6300  0.3822 -0.0532
 2896WAT      O12289   5.991   6.393   4.670  0.4128  0.0597 -0.3066
 2896WAT     H112290   6.029   6.315   4.661  0.5935 -0.1672  1.8381
 2896WAT     H212291   5.914   6.383   4.630  0.3841 -1.2664  0.0316
 2896WAT    EPW12292   5.985   6.380   4.663 -0.1852  0.1644 -0.8222
 2897WAT      O12293   5.853   5.456   3.564 -0.8611  0.0949  0.4736
 2897WAT     H112294   5.939   5.460   3.573 -0.6427  0.3554 -1.4484
 2897WAT     H212295   5.823   5.502   3.633  0.5134  0.1832  1.0427
 2897WAT    EPW12296   5.861   5.464   3.576 -0.1379  0.1239 -0.3293
 2898WAT      O12297   5.794   4.605   2.682 -0.2147 -0.2655  0.4369
 2898WAT     H112298   5.813   4.669   2.626  4.1225  0.9643  2.8831
 2898WAT     H212299   5.827   4.534   2.643  2.8477  0.5865  1.2495
 2898WAT    EPW12300   5.802   4.604   2.668  0.0887  0.0176 -0.1753
 2899WAT      O12301   5.208   5.366   2.782 -0.0194 -0.1529  0.2071
 2899WAT     H112302   5.153   5.425   2.816  0.2454 -0.1007  0.5592
 2899WAT     H212303   5.273   5.415   2.750 -0.5418 -0.1721 -0.8992
 2899WAT    EPW12304   5.210   5.382   2.782 -0.0164 -0.6694 -0.2843
 2900WAT      O12305   4.706   6.305   4.403  0.1624  0.0748 -0.5402
 2900WAT     H112306   4.756   6.248   4.445 -0.5318 -0.4789 -0.4539
 2900WAT     H212307   4.757   6.331   4.336  1.2464  0.9263  0.5742
 2900WAT    EPW12308   4.721   6.301   4.399 -0.2167  0.2678 -0.0159
 2901WAT      O12309   4.299   5.708   4.432  0.2110 -0.0634  0.2420
 2901WAT     H112310   4.262   5.665   4.498 -0.6472  1.0359  0.5179
 2901WAT     H212311   4.233   5.755   4.399  1.2563  1.7595  0.5729
 2901WAT    EPW12312   4.284   5.709   4.437 -0.2712  0.1357 -0.8035
 2902WAT      O12313   4.849   5.539   3.642  0.1470 -0.3766 -0.5112
 2902WAT     H112314   4.891   5.528   3.566  1.5400 -0.7031  0.2677
 2902WAT     H212315   4.887   5.610   3.676  0.5808 -1.0893  0.5309
 2902WAT    EPW12316   4.861   5.548   3.636 -0.6101 -0.2913 -0.4828
 2903WAT      O12317   4.340   6.776   4.079  0.1581 -0.3240  0.3252
 2903WAT     H112318   4.314   6.723   4.015 -0.8846 -1.1223  1.3621
 2903WAT     H212319   4.306   6.740   4.150 -0.6546  1.7743  1.0795
 2903WAT    EPW12320   4.331   6.763   4.080  0.1846 -0.6616 -0.4391
 2904WAT      O12321   5.563   5.585   4.774  0.5203 -0.5807  0.1132
 2904WAT     H112322   5.503   5.525   4.751  0.3247 -0.4906  0.3861
 2904WAT     H212323   5.589   5.617   4.697  0.3047 -0.7074 -0.0147
 2904WAT    EPW12324   5.558   5.581   4.759  0.9275 -0.1286 -0.5018
 2905WAT      O12325   6.777   5.772   2.732  0.1901 -0.2862 -0.3585
 2905WAT     H112326   6.703   5.729   2.749 -0.5235  0.3190 -1.7783
 2905WAT     H212327   6.804   5.799   2.811  0.2482 -2.6026  0.4709
 2905WAT    EPW12328   6.770   5.770   2.746  0.0985  0.6873  0.5525
 2906WAT      O12329   4.112   7.281   3.758  0.0402  0.2902  0.3712
 2906WAT     H112330   4.137   7.271   3.841 -3.5375  1.3812  1.7668
 2906WAT     H212331   4.092   7.200   3.733  0.2809  0.0666  0.8866
 2906WAT    EPW12332   4.113   7.267   3.767 -0.3857  0.1780 -0.6149
 2907WAT      O12333   4.667   6.650   3.712  0.1809  0.3405 -0.1005
 2907WAT     H112334   4.587   6.628   3.687  0.2403  1.6684 -1.6566
 2907WAT     H212335   4.697   6.699   3.646  2.0885  0.3134  0.6561
 2907WAT    EPW12336   4.660   6.654   3.698  0.1963  0.1475  0.0106
 2908WAT      O12337   6.361   5.552   5.335 -0.1041 -0.3117 -0.6684
 2908WAT     H112338   6.388   5.481   5.378 -0.1601  0.6564  1.0730
 2908WAT     H212339   6.274   5.545   5.337 -0.1659  0.4363  0.7410
 2908WAT    EPW12340   6.352   5.541   5.342 -0.8520  0.3719 -0.2130
 2909WAT      O12341   4.463   6.658   4.455 -0.1573 -0.3262  0.3507
 2909WAT     H112342   4.530   6.679   4.402 -0.9544 -0.7154 -0.8557
 2909WAT     H212343   4.502   6.616   4.521  0.8012 -0.6292 -0.3781
 2909WAT    EPW12344   4.479   6.655   4.457 -0.0358  0.5602 -0.6333
 2910WAT      O12345   4.673   6.566   2.899 -0.1639  0.7993 -0.0241
 2910WAT     H112346   4.625   6.504   2.937  0.3272  1.7108  2.3110
 2910WAT     H212347   4.755   6.544   2.920  0.1950  1.0326 -1.1243
 2910WAT    EPW12348   4.678   6.554   2.908 -0.8977 -0.1931 -0.5197
 2911WAT      O12349   4.771   5.060   4.094  0.2777 -0.3130  0.1346
 2911WAT     H112350   4.751   5.110   4.163  1.3312  1.5825 -0.8737
 2911WAT     H212351   4.701   5.068   4.042 -0.0913 -0.9379  0.5235
 2911WAT    EPW12352   4.758   5.069   4.096 -0.4256 -0.0977 -0.2056
 2912WAT      O12353   6.104   7.496   4.943 -0.2812  0.2968 -0.0720
 2912WAT     H112354   6.051   7.499   4.874  0.1075  0.0061 -0.3954
 2912WAT     H212355   6.181   7.471   4.908 -0.0489  0.2746  0.4455
 2912WAT    EPW12356   6.108   7.492   4.927  0.1654  0.7670  0.0507
 2913WAT      O12357   5.136   5.568   3.839 -0.3476  0.2931  0.8731
 2913WAT     H112358   5.097   5.645   3.823 -0.3104  0.2696  0.6605
 2913WAT     H212359   5.205   5.569   3.785 -0.0431  0.3430  1.2631
 2913WAT    EPW12360   5.140   5.580   3.829 -0.7701  0.0714 -0.0293
 2914WAT      O12361   5.924   6.497   4.319  0.0654  0.3306  0.4873
 2914WAT     H112362   5.854   6.446   4.327 -0.7892  1.0432 -1.6333
 2914WAT     H212363   5.973   6.454   4.261  0.7291  0.5281  0.8953
 2914WAT    EPW12364   5.921   6.483   4.311  0.4788 -1.0653 -0.2531
 2915WAT      O12365   7.017   5.351   3.339  0.3046  0.2000  0.1281
 2915WAT     H112366   7.013   5.275   3.382  1.8289  0.5489  0.9609
 2915WAT     H212367   7.036   5.327   3.257 -1.2655 -0.4019 -0.0841
 2915WAT    EPW12368   7.019   5.336   3.333  0.4143 -0.4812  0.1375
 2916WAT      O12369   5.443   6.696   3.837  0.0795 -0.0614  0.0927
 2916WAT     H112370   5.517   6.734   3.861  0.8878 -1.8580  0.6203
 2916WAT     H212371   5.444   6.701   3.749  0.0582  1.2168  0.1438
 2916WAT    EPW12372   5.454   6.702   3.827  0.0624 -0.2885  0.1910
 2917WAT      O12373   5.118   5.897   5.000  0.5397  0.7595  0.4629
 2917WAT     H112374   5.119   5.811   5.014  0.9235  0.9659  1.7922
 2917WAT     H212375   5.203   5.917   4.991  0.7667  1.4480  3.3246
 2917WAT    EPW12376   5.131   5.887   5.001  0.5278  0.3256 -0.1910
 2918WAT      O12377   6.878   6.099   2.288  0.1539  0.6695  0.1334
 2918WAT     H112378   6.844   6.027   2.253 -1.0741  1.0262  0.5431
 2918WAT     H212379   6.936   6.068   2.346 -2.7971 -0.2215  2.9019
 2918WAT    EPW12380   6.881   6.084   2.291 -0.0916 -0.5717 -0.2314
 2919WAT      O12381   5.411   6.813   4.162 -0.0944  0.3372  0.2974
 2919WAT     H112382   5.388   6.835   4.081  0.0015  3.6046  1.0321
 2919WAT     H212383   5.490   6.778   4.153 -0.3299  0.1129 -1.0440
 2919WAT    EPW12384   5.419   6.811   4.149 -0.2833 -1.2151 -0.0959
 2920WAT      O12385   4.348   3.992   5.511  0.0896 -0.4330 -0.4199
 2920WAT     H112386   4.329   4.072   5.483  0.5682 -0.5505 -1.1269
 2920WAT     H212387   4.273   3.948   5.501  0.1710 -0.4004 -1.3022
 2920WAT    EPW12388   4.334   3.997   5.505 -0.4937 -0.3131  0.1617
 2921WAT      O12389   6.436   5.666   4.837 -0.3621  0.4156  0.2281
 2921WAT     H112390   6.488   5.736   4.842  1.9364 -1.1787 -0.1795
 2921WAT     H212391   6.459   5.618   4.905 -0.7253 -0.7138 -0.4246
 2921WAT    EPW12392   6.447   5.670   4.848 -0.2594 -0.2134 -0.1187
 2922WAT      O12393   4.120   5.891   4.327  0.4686 -0.1510 -0.5399
 2922WAT     H112394   4.168   5.964   4.326  1.5075 -0.8061 -0.0766
 2922WAT     H212395   4.080   5.892   4.249 -0.4056  1.4480 -0.1169
 2922WAT    EPW12396   4.121   5.902   4.315  0.2100  0.0973  0.2447
 2923WAT      O12397   4.898   6.659   5.228  0.6073  0.1465  0.1805
 2923WAT     H112398   4.839   6.596   5.226  0.0343  0.6350  1.0823
 2923WAT     H212399   4.854   6.730   5.202  1.0234  0.3350 -0.0220
 2923WAT    EPW12400   4.883   6.660   5.224 -0.0392 -0.7825 -0.6282
 2924WAT      O12401   5.732   6.345   4.581 -0.2195  0.6239  0.0049
 2924WAT     H112402   5.714   6.410   4.526  1.9141 -0.1489 -1.7638
 2924WAT     H212403   5.671   6.286   4.564  0.2261  0.5272 -1.3746
 2924WAT    EPW12404   5.720   6.346   4.570 -0.4940  0.4230 -0.0467
 2925WAT      O12405   5.165   5.694   4.114  0.2222 -0.2141 -0.5795
 2925WAT     H112406   5.143   5.666   4.035 -2.7154  2.9303 -1.1219
 2925WAT     H212407   5.121   5.641   4.168 -0.4626 -0.3414 -1.2504
 2925WAT    EPW12408   5.155   5.682   4.111 -0.4118 -0.4434 -0.0994
 2926WAT      O12409   5.010   5.518   2.927  0.3514 -0.7871  0.1767
 2926WAT     H112410   5.036   5.511   3.010  1.2433 -1.3204 -0.1410
 2926WAT     H212411   4.927   5.491   2.929 -0.3378  1.1863  1.2503
 2926WAT    EPW12412   5.002   5.513   2.939  0.0697 -0.6557 -0.2194
 2927WAT      O12413   7.238   6.971   3.963 -0.5346  0.3239 -0.5147
 2927WAT     H112414   7.166   6.967   3.914 -0.0480  2.0111 -1.4671
 2927WAT     H212415   7.254   6.888   3.984 -4.2173  0.0535  2.0449
 2927WAT    EPW12416   7.230   6.958   3.959  1.1717  0.4421  0.0436
 2928WAT      O12417   6.115   5.472   3.239 -0.0384  0.4387 -0.6527
 2928WAT     H112418   6.085   5.415   3.179  1.1360  0.7671 -1.5805
 2928WAT     H212419   6.114   5.426   3.313 -0.7297 -0.2375 -1.0627
 2928WAT    EPW12420   6.110   5.457   3.241 -0.0123  0.7692  0.2408
 2929WAT      O12421   5.416   6.324   4.035 -0.5915 -0.4739 -0.5898
 2929WAT     H112422   5.376   6.399   4.055  0.9679  0.0310  0.7895
 2929WAT     H212423   5.456   6.301   4.109  0.8380 -1.4768 -1.6238
 2929WAT    EPW12424   5.416   6.331   4.049 -1.4475 -0.0298  0.2328
 2930WAT      O12425   4.581   6.844   2.933  0.4999 -0.0982  0.3028
 2930WAT     H112426   4.495   6.832   2.941  0.2799  0.7361 -0.6688
 2930WAT     H212427   4.614   6.764   2.948 -0.3623 -0.2290  1.6230
 2930WAT    EPW12428   4.573   6.830   2.936  1.1146 -0.0489  0.5776
 2931WAT      O12429   5.356   4.337   3.152  0.2074  0.4738  0.0861
 2931WAT     H112430   5.329   4.282   3.089  0.9934 -1.1845  1.1439
 2931WAT     H212431   5.386   4.405   3.107 -1.3224  0.3291 -1.2671
 2931WAT    EPW12432   5.356   4.339   3.136 -0.1125  0.6372  0.3932
 2932WAT      O12433   6.533   7.208   3.189 -0.5841  0.1053 -0.3448
 2932WAT     H112434   6.476   7.275   3.195  0.2516  0.7322  1.5048
 2932WAT     H212435   6.610   7.247   3.194 -0.0585 -0.9444 -0.0331
 2932WAT    EPW12436   6.536   7.224   3.191 -0.8860 -1.2483  0.0925
 2933WAT      O12437   6.687   6.353   4.338 -0.0991 -0.6286  0.4188
 2933WAT     H112438   6.769   6.380   4.328  0.0376 -0.9158  0.7591
 2933WAT     H212439   6.647   6.422   4.375 -0.2831 -0.0740 -0.7588
 2933WAT    EPW12440   6.693   6.367   4.342 -0.5090  1.5408 -0.6123
 2934WAT      O12441   6.142   6.151   6.712 -0.4990 -0.1137 -0.3283
 2934WAT     H112442   6.204   6.198   6.671 -0.0357 -0.7300 -0.3422
 2934WAT     H212443   6.080   6.141   6.651 -0.4208  0.1352 -0.4504
 2934WAT    EPW12444   6.142   6.157   6.697  1.0950 -0.1361  0.0219
 2935WAT      O12445   5.417   6.089   3.914  0.2213  0.3575  0.5155
 2935WAT     H112446   5.400   6.163   3.957  0.3064 -0.3920  1.9073
 2935WAT     H212447   5.455   6.039   3.975  1.0777 -0.4815 -0.6620
 2935WAT    EPW12448   5.420   6.093   3.930 -0.2556 -0.8759 -0.0502
 2936WAT      O12449   4.650   4.907   2.796  0.1771  0.3511 -0.1075
 2936WAT     H112450   4.610   4.934   2.868  0.7817 -1.6354  1.0378
 2936WAT     H212451   4.735   4.909   2.817  0.3507 -0.4250 -0.6953
 2936WAT    EPW12452   4.657   4.912   2.810  0.1860  0.3060 -1.0209
 2937WAT      O12453   6.559   6.292   4.768 -0.0542 -0.0679 -0.3069
 2937WAT     H112454   6.610   6.254   4.709 -0.0332  0.9897 -1.0064
 2937WAT     H212455   6.615   6.317   4.830 -0.1542 -1.7391  0.5096
 2937WAT    EPW12456   6.575   6.290   4.769 -0.5908 -0.4062 -0.1876
 2938WAT      O12457   4.914   4.818   3.738  0.2862 -0.1068 -0.3038
 2938WAT     H112458   4.913   4.890   3.787  1.7496  0.6010 -1.2374
 2938WAT     H212459   4.832   4.811   3.710  0.0410  1.0155  0.0862
 2938WAT    EPW12460   4.902   4.828   3.741  0.1647  0.2783 -0.0636
 2939WAT      O12461   5.147   5.554   3.149 -0.0051 -0.2332 -0.3215
 2939WAT     H112462   5.208   5.492   3.150 -0.6412 -0.9128  1.7585
 2939WAT     H212463   5.132   5.570   3.234 -1.5306  1.1029 -0.7755
 2939WAT    EPW12464   5.154   5.547   3.162 -0.7879 -0.4581  0.1848
 2940WAT      O12465   6.327   6.115   5.111 -0.1742  0.1688 -0.1252
 2940WAT     H112466   6.356   6.151   5.037  0.6880  2.7310  1.3231
 2940WAT     H212467   6.249   6.152   5.123  0.1702  0.6388  0.7682
 2940WAT    EPW12468   6.320   6.126   5.102  0.1508  0.1311  0.1268
 2941WAT      O12469   4.823   5.156   4.366 -0.0841 -0.5491  0.2424
 2941WAT     H112470   4.802   5.240   4.371 -1.6044 -0.7337 -1.6332
 2941WAT     H212471   4.760   5.116   4.412  0.0027 -0.7178  0.2161
 2941WAT    EPW12472   4.810   5.162   4.373  0.5080 -0.6670 -0.3001
 2942WAT      O12473   5.595   6.046   3.376 -0.2022  0.1942  0.2132
 2942WAT     H112474   5.560   5.968   3.386  0.6769 -0.1258  0.9370
 2942WAT     H212475   5.662   6.032   3.321 -1.3317  0.8510 -1.4142
 2942WAT    EPW12476   5.600   6.033   3.369 -0.7422  0.0868 -0.0728
 2943WAT      O12477   5.308   7.565   2.124  0.2243  0.4918  0.8026
 2943WAT     H112478   5.292   7.632   2.179  1.4743  1.8223 -0.3507
 2943WAT     H212479   5.235   7.558   2.078  0.3798  1.7673  0.2959
 2943WAT    EPW12480   5.295   7.574   2.125  0.0356 -0.0903  0.7555
 2944WAT      O12481   4.817   6.444   3.819 -0.2410 -0.4025 -0.3218
 2944WAT     H112482   4.882   6.425   3.763  0.0004 -1.0065  0.1465
 2944WAT     H212483   4.769   6.503   3.776  1.5568  1.3693 -0.0387
 2944WAT    EPW12484   4.820   6.450   3.805 -0.4757  0.5240 -0.5209
 2945WAT      O12485   4.758   5.848   5.142  0.1840 -0.0967 -0.2475
 2945WAT     H112486   4.812   5.801   5.192 -0.6947  0.2309  1.0384
 2945WAT     H212487   4.680   5.835   5.179 -0.2141  1.6156 -0.4426
 2945WAT    EPW12488   4.755   5.839   5.155 -0.3674 -0.0132  0.4446
 2946WAT      O12489   8.005   6.888   2.315 -0.5322  0.2527 -0.2505
 2946WAT     H112490   8.034   6.931   2.386 -0.5831 -1.0877  0.6121
 2946WAT     H212491   7.988   6.808   2.345 -0.4648 -0.3813 -1.8224
 2946WAT    EPW12492   8.006   6.883   2.330 -0.3624  1.0710 -1.0601
 2947WAT      O12493   3.958   5.780   3.349 -0.2369  0.3768 -0.1222
 2947WAT     H112494   4.015   5.724   3.314  0.0256  0.7227 -0.2548
 2947WAT     H212495   3.881   5.742   3.336 -0.1105  0.3263 -0.7506
 2947WAT    EPW12496   3.955   5.766   3.342 -0.1270  0.0120 -0.0203
 2948WAT      O12497   6.573   5.766   3.839  0.2656 -0.1886 -0.2420
 2948WAT     H112498   6.547   5.849   3.839  0.7260  0.0728  2.7125
 2948WAT     H212499   6.624   5.761   3.909  0.4601 -2.9300 -0.4705
 2948WAT    EPW12500   6.577   5.777   3.849 -0.3104 -0.1059  0.4800
 2949WAT      O12501   5.017   5.093   3.032 -0.3486  0.4428  0.4740
 2949WAT     H112502   4.957   5.153   3.051 -1.4330 -0.8389  1.2643
 2949WAT     H212503   4.977   5.041   2.974  0.0993 -0.2545  0.7779
 2949WAT    EPW12504   5.002   5.094   3.026 -0.3024 -0.1317 -0.7873
 2950WAT      O12505   3.349   5.522   5.096  0.3421 -0.3569 -0.3587
 2950WAT     H112506   3.365   5.604   5.122 -1.9011  0.0323  0.0031
 2950WAT     H212507   3.366   5.475   5.168  2.0555 -0.3062 -0.6917
 2950WAT    EPW12508   3.354   5.527   5.111 -0.1036  0.0861  0.3409
 2951WAT      O12509   6.160   7.047   4.327  0.3202  0.0924 -0.3122
 2951WAT     H112510   6.159   7.048   4.414 -0.6686 -0.2056 -0.3000
 2951WAT     H212511   6.190   6.968   4.307 -0.8285 -0.3868 -0.2095
 2951WAT    EPW12512   6.164   7.035   4.337 -0.3898  0.3539 -0.0116
 2952WAT      O12513   5.248   5.056   3.177 -0.0878  0.1120 -0.5292
 2952WAT     H112514   5.170   5.060   3.140 -0.5518 -1.2941  0.2457
 2952WAT     H212515   5.231   5.062   3.262  0.8201  1.5862 -0.4068
 2952WAT    EPW12516   5.234   5.058   3.184  0.8206  0.0113 -0.3573
 2953WAT      O12517   5.653   4.821   4.087 -0.1203 -0.0724  0.0420
 2953WAT     H112518   5.692   4.899   4.086 -1.5641  0.6861  0.1047
 2953WAT     H212519   5.572   4.839   4.116 -0.3060 -1.6786  0.6459
 2953WAT    EPW12520   5.647   4.835   4.091  0.5812 -0.2219  0.7443
 2954WAT      O12521   4.731   5.647   4.070  0.2963 -0.3883 -0.8118
 2954WAT     H112522   4.768   5.669   4.145  3.5680  1.0299 -2.6411
 2954WAT     H212523   4.742   5.560   4.066  1.3734 -0.2879 -0.2379
 2954WAT    EPW12524   4.738   5.637   4.080 -0.0863 -0.4623  0.6213
 2955WAT      O12525   6.009   6.581   3.224  0.6314  0.1587 -0.1933
 2955WAT     H112526   6.007   6.533   3.296  1.7721 -0.5674 -0.6069
 2955WAT     H212527   5.934   6.562   3.184  0.9596 -1.1380 -0.2435
 2955WAT    EPW12528   5.998   6.571   3.229 -0.6057 -0.3961  0.1279
 2956WAT      O12529   5.622   7.184   4.689 -0.5597  0.2596  0.5707
 2956WAT     H112530   5.554   7.135   4.713  0.1452 -1.1748 -0.2646
 2956WAT     H212531   5.611   7.193   4.603 -1.6444  3.1392  0.9078
 2956WAT    EPW12532   5.610   7.178   4.680  0.6913  0.3314  0.2005
 2957WAT      O12533   6.697   6.187   4.569  0.4713 -0.4811  0.6483
 2957WAT     H112534   6.696   6.228   4.491 -1.3310 -0.5538  0.5764
 2957WAT     H212535   6.702   6.103   4.547 -0.2090 -0.5113  0.5873
 2957WAT    EPW12536   6.697   6.181   4.554  0.4898 -0.3246  0.0453
 2958WAT      O12537   6.202   7.174   3.473  0.2796  0.6641  0.1947
 2958WAT     H112538   6.204   7.231   3.539  1.2292 -1.7495  2.4133
 2958WAT     H212539   6.285   7.147   3.466 -0.2909 -1.2383  0.0460
 2958WAT    EPW12540   6.215   7.178   3.481  0.4084 -0.0710 -0.3398
 2959WAT      O12541   6.521   6.264   3.921  0.0358 -0.3014 -0.3355
 2959WAT     H112542   6.439   6.276   3.894 -0.2804 -1.9954 -0.2243
 2959WAT     H212543   6.568   6.315   3.868 -0.9261 -0.6544 -1.5489
 2959WAT    EPW12544   6.516   6.274   3.909 -0.5611 -0.9140 -0.5602
 2960WAT      O12545   5.431   4.872   4.456  0.3352  0.1806  0.3914
 2960WAT     H112546   5.378   4.851   4.522 -0.6642  1.0608 -0.0891
 2960WAT     H212547   5.506   4.833   4.476 -0.9507 -2.6270  0.2226
 2960WAT    EPW12548   5.434   4.864   4.468  0.3609  0.4879 -0.5809
 2961WAT      O12549   6.506   5.476   4.604 -0.0722  0.3705  0.5289
 2961WAT     H112550   6.499   5.516   4.682  3.2866  0.0407  1.1475
 2961WAT     H212551   6.510   5.392   4.624  1.5055  0.3178  0.1515
 2961WAT    EPW12552   6.506   5.470   4.619  0.0289  0.5951  0.2691
 2962WAT      O12553   7.241   7.533   2.172 -0.4311 -0.6416  0.0416
 2962WAT     H112554   7.205   7.551   2.095  0.4791  0.5295 -0.1383
 2962WAT     H212555   7.276   7.609   2.197 -0.8322 -0.9448  1.6876
 2962WAT    EPW12556   7.241   7.547   2.165  0.1778 -0.9062  0.3121
 2963WAT      O12557   5.585   6.743   3.577 -0.1314 -0.1660 -0.3519
 2963WAT     H112558   5.649   6.798   3.600  0.7095 -0.8817 -0.9224
 2963WAT     H212559   5.533   6.793   3.528 -1.2089  0.9957  1.8536
 2963WAT    EPW12560   5.587   6.759   3.573 -0.0577 -0.6051  0.5193
 2964WAT      O12561   4.288   6.123   4.235 -0.3284  0.6944 -0.6829
 2964WAT     H112562   4.340   6.185   4.266  0.1613  0.0094 -0.1037
 2964WAT     H212563   4.208   6.156   4.243 -0.1922  0.6685  1.0180
 2964WAT    EPW12564   4.284   6.137   4.240 -0.3287  0.3745 -0.9761
 2965WAT      O12565   4.756   5.167   5.236 -0.0135  0.0605 -0.2623
 2965WAT     H112566   4.748   5.249   5.207  0.8279  0.8325  1.4947
 2965WAT     H212567   4.779   5.122   5.165 -0.3534  1.3723 -1.2370
 2965WAT    EPW12568   4.758   5.173   5.221 -0.0205  0.0754  0.1636
 2966WAT      O12569   6.636   5.137   3.484  0.2280 -0.0377  0.1180
 2966WAT     H112570   6.594   5.061   3.479  2.1909 -1.3579  1.7778
 2966WAT     H212571   6.601   5.175   3.555  0.9425 -0.5802  0.7783
 2966WAT    EPW12572   6.625   5.131   3.494 -0.0715 -0.3951 -0.0939
 2967WAT      O12573   5.192   5.237   4.584  0.1057 -0.0273  0.2977
 2967WAT     H112574   5.237   5.302   4.622  0.2121  0.2579 -0.2984
 2967WAT     H212575   5.203   5.252   4.499 -2.7235  1.2155  0.0411
 2967WAT    EPW12576   5.201   5.249   4.577  0.5267  0.9221  1.1533
 2968WAT      O12577   5.092   6.225   3.684  0.1363 -0.1730  0.4558
 2968WAT     H112578   5.114   6.194   3.606 -1.9419  2.3713 -1.3387
 2968WAT     H212579   5.158   6.277   3.706  0.7261 -0.8911  0.3810
 2968WAT    EPW12580   5.105   6.228   3.676 -0.7220 -0.0623  0.4021
 2969WAT      O12581   5.587   6.035   3.718  0.4345  0.0772 -0.0804
 2969WAT     H112582   5.543   6.060   3.789  1.1043 -0.5922  0.6004
 2969WAT     H212583   5.539   6.063   3.652 -0.0640  0.9742  0.6498
 2969WAT    EPW12584   5.574   6.043   3.719  0.0415 -0.6590 -0.9082
 2970WAT      O12585   5.697   5.751   5.320  0.3885  0.2053  0.6618
 2970WAT     H112586   5.709   5.722   5.401 -0.5113  1.8659  1.4395
 2970WAT     H212587   5.771   5.795   5.303  0.7629 -0.5128  0.3886
 2970WAT    EPW12588   5.710   5.753   5.329 -0.0733 -0.4965 -0.1355
 2971WAT      O12589   4.363   5.914   3.560 -0.5108 -0.1086  0.1969
 2971WAT     H112590   4.381   5.921   3.475 -0.3125 -1.1238  0.1482
 2971WAT     H212591   4.279   5.936   3.565 -0.7649 -0.9298 -0.3911
 2971WAT    EPW12592   4.353   5.919   3.548 -0.3892  0.7289  0.2012
 2972WAT      O12593   5.385   7.231   5.152 -0.5246  0.0654  0.2222
 2972WAT     H112594   5.369   7.148   5.172 -0.0974 -0.3197 -0.9114
 2972WAT     H212595   5.374   7.234   5.065 -2.3114  1.6182  0.4146
 2972WAT    EPW12596   5.381   7.220   5.142  0.6157  0.2546  0.1293
 2973WAT      O12597   6.079   7.434   4.356  0.1453  0.0400  0.3665
 2973WAT     H112598   6.020   7.484   4.315  0.1565 -0.2076  0.0434
 2973WAT     H212599   6.034   7.397   4.421  0.6733  2.3742  2.2029
 2973WAT    EPW12600   6.063   7.436   4.360 -0.3833  0.0848  0.2648
 2974WAT      O12601   7.067   5.130   2.728  0.0494  0.5993  0.5690
 2974WAT     H112602   7.057   5.134   2.641 -2.0938  1.5991  0.7961
 2974WAT     H212603   7.141   5.174   2.741  1.2493 -0.8947 -0.8451
 2974WAT    EPW12604   7.076   5.137   2.717 -0.3365 -0.6073  0.0918
 2975WAT      O12605   5.913   4.940   3.226 -0.5981  0.0372  0.4090
 2975WAT     H112606   5.977   4.958   3.171 -0.6434 -1.4130 -0.1673
 2975WAT     H212607   5.932   4.860   3.255 -1.4298  0.1218  1.2562
 2975WAT    EPW12608   5.925   4.930   3.222 -0.6612  0.1056 -0.3842
 2976WAT      O12609   6.234   5.659   4.108  0.0655 -0.0205  0.0723
 2976WAT     H112610   6.213   5.575   4.103  2.2863 -0.6156 -0.0711
 2976WAT     H212611   6.186   5.696   4.045 -2.3930 -0.7800  1.3638
 2976WAT    EPW12612   6.224   5.652   4.098 -0.6964 -0.0460 -0.4204
 2977WAT      O12613   4.502   5.748   5.223 -0.0233  0.1505 -0.5949
 2977WAT     H112614   4.526   5.670   5.254 -0.5073 -0.0626 -0.7305
 2977WAT     H212615   4.453   5.727   5.154  0.3784  0.5953 -1.0164
 2977WAT    EPW12616   4.498   5.733   5.217  0.0922 -0.0184 -0.5051
 2978WAT      O12617   6.261   5.899   6.775 -0.0962  0.1300 -0.0011
 2978WAT     H112618   6.240   5.982   6.761  1.5170  0.4431 -0.8577
 2978WAT     H212619   6.261   5.893   6.862  0.7604  1.3389  0.1091
 2978WAT    EPW12620   6.258   5.911   6.786  0.0350 -0.4964  0.4154
 2979WAT      O12621   4.300   6.546   3.874  0.0500 -1.1468  0.4917
 2979WAT     H112622   4.340   6.570   3.801  0.8566 -1.8944  0.6727
 2979WAT     H212623   4.217   6.532   3.849  0.5394 -2.4117 -0.5131
 2979WAT    EPW12624   4.293   6.547   3.860  0.5040  0.9158  1.1325
 2980WAT      O12625   7.106   6.449   3.314  0.2711  0.5610 -0.4384
 2980WAT     H112626   7.078   6.395   3.251 -0.3278 -0.4496  0.6583
 2980WAT     H212627   7.185   6.473   3.286 -1.1985  2.8142 -3.1996
 2980WAT    EPW12628   7.114   6.445   3.301 -0.5203 -0.8825 -0.5128
 2981WAT      O12629   6.407   5.758   4.312  0.0879  0.2116 -0.2494
 2981WAT     H112630   6.355   5.730   4.248 -0.5803 -1.7673  1.0341
 2981WAT     H212631   6.405   5.844   4.305 -0.6095  0.0783 -2.3583
 2981WAT    EPW12632   6.399   5.766   4.302 -0.3954  0.4331 -0.0983
 2982WAT      O12633   6.084   5.944   4.440 -0.5838 -0.0636 -0.0866
 2982WAT     H112634   6.051   5.918   4.363  0.4879  0.5053 -0.7697
 2982WAT     H212635   6.130   5.875   4.467 -0.9693 -0.2677  0.0450
 2982WAT    EPW12636   6.086   5.930   4.432  0.6678  0.2353  0.1991
 2983WAT      O12637   6.129   7.154   2.755 -0.2178  0.1145 -0.0996
 2983WAT     H112638   6.169   7.076   2.765 -1.6293 -0.6479 -0.1941
 2983WAT     H212639   6.137   7.191   2.833 -1.7090 -1.2150  0.7522
 2983WAT    EPW12640   6.136   7.148   2.768 -0.0149 -0.2414  0.3731
 2984WAT      O12641   5.323   7.802   3.554 -0.5273  0.5785 -0.8538
 2984WAT     H112642   5.377   7.734   3.542 -1.8947 -0.5635 -0.7615
 2984WAT     H212643   5.355   7.863   3.500  2.0059  0.6993  0.5936
 2984WAT    EPW12644   5.336   7.801   3.544  0.7280 -0.0044 -0.6687
 2985WAT      O12645   4.343   5.699   4.986  0.1966 -0.1879 -0.4786
 2985WAT     H112646   4.406   5.724   4.931  0.3011 -1.7519 -1.1273
 2985WAT     H212647   4.299   5.772   5.001  2.1831  0.9735  0.0403
 2985WAT    EPW12648   4.346   5.713   4.980  0.9538  0.0854  0.0147
 2986WAT      O12649   5.788   7.089   4.915  0.0923 -0.0842 -0.3553
 2986WAT     H112650   5.737   7.019   4.922 -0.1484 -0.0242 -1.3809
 2986WAT     H212651   5.755   7.133   4.847  1.1846  0.2184 -0.7263
 2986WAT    EPW12652   5.776   7.085   4.906  0.9597  0.1723 -0.9522
 2987WAT      O12653   5.098   6.301   3.169  0.1577  0.1128  0.4155
 2987WAT     H112654   5.125   6.218   3.166  0.1618  0.0651  1.6239
 2987WAT     H212655   5.169   6.346   3.145  0.2714 -0.1964  0.1501
 2987WAT    EPW12656   5.113   6.295   3.165  0.1792 -0.3495 -0.1008
 2988WAT      O12657   4.105   5.993   3.668  0.8951  0.2597  0.1470
 2988WAT     H112658   4.039   5.991   3.611  0.5691 -0.0346  0.5268
 2988WAT     H212659   4.086   6.061   3.720  0.5000 -0.2596  0.7021
 2988WAT    EPW12660   4.093   6.002   3.667  0.0386  0.2055  0.2358
 2989WAT      O12661   4.783   6.939   4.051 -0.3560  0.1526 -0.1089
 2989WAT     H112662   4.724   6.948   3.987  0.4868 -0.6686 -1.0396
 2989WAT     H212663   4.749   6.876   4.102 -1.6128  1.6407  0.9801
 2989WAT    EPW12664   4.769   6.931   4.049  0.9119 -0.2236  0.7094
 2990WAT      O12665   5.583   5.743   3.260  0.0507 -0.2358  1.0105
 2990WAT     H112666   5.630   5.670   3.257 -0.7337 -0.7285 -2.0429
 2990WAT     H212667   5.511   5.720   3.305  0.6089 -0.7835  1.6390
 2990WAT    EPW12668   5.579   5.729   3.266  0.1963  0.1735 -0.0726
 2991WAT      O12669   6.346   7.452   4.811  0.0208 -0.1618 -0.0198
 2991WAT     H112670   6.389   7.517   4.850 -2.7089  1.4082  0.6290
 2991WAT     H212671   6.300   7.493   4.749 -2.1039 -1.3399  0.6761
 2991WAT    EPW12672   6.345   7.468   4.807 -0.7554  0.6314 -0.3137
 2992WAT      O12673   6.070   5.798   3.909 -0.2871 -0.3067 -0.3086
 2992WAT     H112674   6.110   5.876   3.917 -0.5651 -0.1921 -0.0098
 2992WAT     H212675   6.129   5.749   3.868  0.5214 -0.4093  0.9438
 2992WAT    EPW12676   6.085   5.803   3.904  0.0860 -0.2189 -0.1468
 2993WAT      O12677   4.427   6.248   4.623 -0.4320 -0.0156 -0.3970
 2993WAT     H112678   4.487   6.296   4.581  0.4670  1.3829  2.2803
 2993WAT     H212679   4.443   6.167   4.596  1.6326  0.5161 -0.9728
 2993WAT    EPW12680   4.438   6.243   4.613 -0.6178 -0.0030 -0.1106
 2994WAT      O12681   6.560   7.366   3.456  0.4604  0.1204  0.3035
 2994WAT     H112682   6.583   7.326   3.530  1.5208 -0.5245 -0.3625
 2994WAT     H212683   6.636   7.386   3.419 -0.0639  0.4633 -0.6037
 2994WAT    EPW12684   6.575   7.363   3.462  0.5103  0.6635  0.2505
 2995WAT      O12685   4.932   6.033   3.807 -0.3195 -0.0168  0.5782
 2995WAT     H112686   4.962   6.106   3.769 -0.3916 -1.0062 -1.5149
 2995WAT     H212687   4.854   6.021   3.772  0.1404 -1.6751 -0.0011
 2995WAT    EPW12688   4.925   6.042   3.796 -0.3823 -0.9024  0.1680
 2996WAT      O12689   5.679   7.406   4.898  0.2592  0.0136  0.2479
 2996WAT     H112690   5.648   7.350   4.840  2.0420  1.5659 -2.4585
 2996WAT     H212691   5.612   7.459   4.914 -0.3283 -0.5429 -0.3309
 2996WAT    EPW12692   5.665   7.406   4.892 -0.0535 -0.1758 -0.9608
 2997WAT      O12693   5.522   6.948   5.010 -0.4239  0.2500  0.3403
 2997WAT     H112694   5.530   6.862   4.995 -0.9641  0.4017 -0.8923
 2997WAT     H212695   5.456   6.952   5.067 -0.4387 -0.1583  0.3569
 2997WAT    EPW12696   5.513   6.936   5.016 -0.5022  0.0612  0.0229
 2998WAT      O12697   5.418   6.754   3.130 -0.4371 -0.1483 -0.4059
 2998WAT     H112698   5.498   6.788   3.131  0.4175 -1.7231 -2.8830
 2998WAT     H212699   5.412   6.711   3.206  2.3159 -2.3345 -1.2397
 2998WAT    EPW12700   5.429   6.752   3.141 -0.2166 -0.1985  0.2520
 2999WAT      O12701   5.006   4.783   5.166 -0.0515 -0.3866  0.1670
 2999WAT     H112702   4.952   4.836   5.123  2.8830  3.1019  0.3327
 2999WAT     H212703   5.061   4.755   5.105  0.9657  0.2891  0.7479
 2999WAT    EPW12704   5.006   4.787   5.151  0.3171 -0.1006  0.6339
 3000WAT      O12705   6.394   5.068   3.101 -0.4794  0.0965 -0.6582
 3000WAT     H112706   6.390   5.106   3.180  0.2405  0.7828 -0.9494
 3000WAT     H212707   6.360   4.989   3.116 -1.0240  0.4718  0.1847
 3000WAT    EPW12708   6.388   5.062   3.115  0.1270 -0.0824 -0.0563
 3001WAT      O12709   5.743   5.677   5.570  0.3731 -0.0183  0.3268
 3001WAT     H112710   5.700   5.647   5.640 -0.4068  1.0922  0.3427
 3001WAT     H212711   5.813   5.716   5.606 -1.4182  3.0561  0.8159
 3001WAT    EPW12712   5.747   5.678   5.586 -0.1330 -0.6021 -0.9983
 3002WAT      O12713   4.880   6.428   3.019 -0.8060 -0.4256 -0.0462
 3002WAT     H112714   4.964   6.424   2.997  0.0227  2.9164  1.9645
 3002WAT     H212715   4.876   6.381   3.093 -0.6005 -0.1469  0.1414
 3002WAT    EPW12716   4.892   6.420   3.027  0.0441 -0.8156 -0.2116
 3003WAT      O12717   5.994   6.196   3.994  0.4211 -0.4995 -0.4306
 3003WAT     H112718   5.920   6.189   4.041  0.7189 -0.1875  0.0901
 3003WAT     H212719   5.968   6.241   3.923  0.1789 -0.0851 -0.0862
 3003WAT    EPW12720   5.979   6.202   3.990 -0.2140 -0.2027  0.3891
 3004WAT      O12721   5.189   6.489   4.864 -0.4385 -0.3185 -0.1373
 3004WAT     H112722   5.192   6.574   4.881 -0.5405 -0.4837  0.7994
 3004WAT     H212723   5.180   6.485   4.778 -1.4406  0.6404 -0.1086
 3004WAT    EPW12724   5.188   6.501   4.854  0.8965  0.1208  0.5799
 3005WAT      O12725   4.660   6.982   2.594 -0.1906 -0.0942 -0.2125
 3005WAT     H112726   4.587   6.949   2.629 -0.4259 -0.4450 -1.0057
 3005WAT     H212727   4.724   6.942   2.638 -0.4803 -0.3618 -0.0331
 3005WAT    EPW12728   4.659   6.971   2.605 -0.0832  1.0978  0.0290
 3006WAT      O12729   5.290   6.004   4.344  0.1746  0.3132  0.4477
 3006WAT     H112730   5.308   6.025   4.426  0.7781 -0.0735  0.4158
 3006WAT     H212731   5.282   5.917   4.346  1.1747  0.1948 -0.0791
 3006WAT    EPW12732   5.291   5.994   4.356  0.3899  0.5398  0.4407
 3007WAT      O12733   7.083   5.355   4.036 -0.2925 -0.3283 -0.2306
 3007WAT     H112734   7.163   5.332   4.060 -0.1893  0.9732  0.7181
 3007WAT     H212735   7.066   5.302   3.968  0.2157 -2.6654  1.3480
 3007WAT    EPW12736   7.092   5.343   4.029 -0.3242 -1.4426  0.6075
 3008WAT      O12737   4.681   6.762   1.503 -0.0760 -0.6121  0.0884
 3008WAT     H112738   4.719   6.780   1.580  0.3320 -0.2930 -0.1853
 3008WAT     H212739   4.700   6.831   1.454  1.1468 -1.5676 -0.8442
 3008WAT    EPW12740   4.689   6.775   1.507 -0.1956  0.0102  0.0009
 3009WAT      O12741   5.822   6.020   3.196 -0.4356 -0.2294 -0.1217
 3009WAT     H112742   5.840   6.026   3.111 -3.4093 -0.8811 -0.9415
 3009WAT     H212743   5.865   5.948   3.221 -1.6501 -1.6650 -1.8397
 3009WAT    EPW12744   5.831   6.010   3.187 -0.0360 -0.6725 -0.7653
 3010WAT      O12745   5.612   6.467   3.888 -0.3472  0.1133 -0.5430
 3010WAT     H112746   5.570   6.538   3.859 -0.6944 -0.2651 -0.9897
 3010WAT     H212747   5.549   6.419   3.923  0.0477  0.4867  0.7257
 3010WAT    EPW12748   5.597   6.471   3.889  1.3765 -0.0952  0.0373
 3011WAT      O12749   6.281   6.237   4.366 -0.1726  0.2088  0.1456
 3011WAT     H112750   6.235   6.204   4.432 -0.5726  0.9175  0.2272
 3011WAT     H212751   6.340   6.289   4.405 -1.0579  1.4267 -0.0814
 3011WAT    EPW12752   6.283   6.240   4.382  0.0368 -0.1129  0.0060
 3012WAT      O12753   6.265   7.641   3.978  0.7653  0.7609 -0.1546
 3012WAT     H112754   6.179   7.627   3.979  0.5338  2.0127 -0.4435
 3012WAT     H212755   6.281   7.665   3.896  1.6450 -0.7689 -0.4576
 3012WAT    EPW12756   6.255   7.642   3.966 -0.5833  0.9974 -0.6617
 3013WAT      O12757   5.865   6.456   2.459 -0.6673 -0.1902 -0.1365
 3013WAT     H112758   5.919   6.524   2.458  1.0817 -1.4980 -0.5637
 3013WAT     H212759   5.867   6.430   2.542 -0.1434 -0.5858 -0.2666
 3013WAT    EPW12760   5.874   6.462   2.471  0.2917  0.0766  0.1566
 3014WAT      O12761   5.671   7.345   2.159 -0.3496  0.1650  0.5768
 3014WAT     H112762   5.721   7.343   2.087 -1.6101 -1.1348 -0.3437
 3014WAT     H212763   5.724   7.316   2.222  0.4202  0.0315 -0.1106
 3014WAT    EPW12764   5.686   7.340   2.157  0.1400 -0.1497 -0.6088
 3015WAT      O12765   5.119   5.170   3.415 -0.5521 -0.4447 -0.1024
 3015WAT     H112766   5.036   5.164   3.438 -0.7379  1.1684 -0.1902
 3015WAT     H212767   5.163   5.161   3.490 -0.7894 -1.3744 -0.0685
 3015WAT    EPW12768   5.113   5.168   3.429 -0.1972 -0.7507 -1.0623
 3016WAT      O12769   7.234   4.281   4.265  0.4216 -0.2476  0.4169
 3016WAT     H112770   7.297   4.334   4.294 -0.2107  0.0783  1.2309
 3016WAT     H212771   7.177   4.335   4.227 -0.0301 -0.3792  0.8946
 3016WAT    EPW12772   7.235   4.297   4.264 -0.4554  0.0555 -1.0378
 3017WAT      O12773   5.088   5.051   4.339 -0.1602  0.0203 -0.0941
 3017WAT     H112774   5.086   5.003   4.266  0.0630  0.1876 -0.2107
 3017WAT     H212775   5.006   5.080   4.346  0.3554  2.1845 -1.7491
 3017WAT    EPW12776   5.075   5.048   4.329  0.4044 -0.5110 -0.7198
 3018WAT      O12777   5.962   5.900   3.495  0.6304 -0.4969 -0.3356
 3018WAT     H112778   6.046   5.876   3.502  1.0409  0.8477 -0.3052
 3018WAT     H212779   5.965   5.987   3.506 -0.4447 -0.0840 -2.7533
 3018WAT    EPW12780   5.975   5.910   3.498  0.0417  0.4654 -0.5044
 3019WAT      O12781   4.899   7.937   2.978  0.4504  0.3130  0.6378
 3019WAT     H112782   4.855   7.872   3.014  0.4854  0.2549  0.5749
 3019WAT     H212783   4.841   8.003   2.977 -0.1151 -0.1672 -0.7596
 3019WAT    EPW12784   4.884   7.937   2.983 -0.1699 -0.6402 -0.1487
 3020WAT      O12785   4.997   6.855   6.082 -0.7838 -0.1832  0.3489
 3020WAT     H112786   5.064   6.892   6.123  0.3658 -0.8865 -0.8199
 3020WAT     H212787   5.001   6.888   6.001 -1.8580 -0.2283  0.2589
 3020WAT    EPW12788   5.007   6.865   6.076  0.2427 -0.6029 -0.0330
 3021WAT      O12789   5.943   4.479   3.144 -0.2698  0.2897 -0.4745
 3021WAT     H112790   5.965   4.525   3.215  0.6455  1.5123 -1.4791
 3021WAT     H212791   5.857   4.486   3.141 -0.2420  1.0203  0.0281
 3021WAT    EPW12792   5.934   4.487   3.154 -0.4119 -0.4154 -0.5107
 3022WAT      O12793   7.353   6.507   3.196  0.8883  0.1546 -0.1502
 3022WAT     H112794   7.323   6.558   3.132  1.1937  2.0035  1.0959
 3022WAT     H212795   7.427   6.475   3.164 -0.5396 -1.5913 -1.9003
 3022WAT    EPW12796   7.360   6.510   3.182 -0.3924  0.3554 -0.2176
 3023WAT      O12797   4.365   6.629   5.763  0.3877 -0.4131  0.3267
 3023WAT     H112798   4.396   6.683   5.824  0.0652  0.4578 -0.2651
 3023WAT     H212799   4.304   6.583   5.804 -1.1292  1.4245  0.2546
 3023WAT    EPW12800   4.361   6.630   5.778  0.2206  0.3285 -0.6913
 3024WAT      O12801   6.553   7.414   4.505  0.1547  0.4284  0.4967
 3024WAT     H112802   6.496   7.374   4.557 -2.4040  0.4186 -2.1289
 3024WAT     H212803   6.510   7.483   4.475  1.1336 -0.0336 -2.2876
 3024WAT    EPW12804   6.538   7.419   4.508  0.3856 -0.2895 -0.2190
 3025WAT      O12805   4.994   4.680   3.981  0.1437  0.2631 -0.0092
 3025WAT     H112806   4.982   4.710   3.900 -2.5297  0.1608  0.2703
 3025WAT     H212807   5.071   4.639   3.976  0.0156  0.1606 -2.5374
 3025WAT    EPW12808   5.004   4.678   3.968 -0.1884  0.6302  0.9555
 3026WAT      O12809   6.719   4.679   4.307 -0.1213 -0.3341 -0.3613
 3026WAT     H112810   6.634   4.660   4.310 -0.1633 -0.2272 -0.8299
 3026WAT     H212811   6.736   4.682   4.222  0.2308  0.1892 -0.2761
 3026WAT    EPW12812   6.709   4.676   4.295 -0.4601 -0.0382  0.2614
 3027WAT      O12813   3.995   0.040   5.040  0.4830  0.3269  0.2905
 3027WAT     H112814   4.062   0.089   5.013  1.3984 -1.2212 -0.3405
 3027WAT     H212815   4.001  -0.032   4.992 -0.6914 -0.5252  1.3533
 3027WAT    EPW12816   4.005   0.037   5.029 -0.6535 -1.0444  0.4414
 3028WAT      O12817   5.957   5.810   2.764 -0.1630 -0.1000 -1.0335
 3028WAT     H112818   6.017   5.817   2.701  0.1675  2.1148 -0.5648
 3028WAT     H212819   5.888   5.776   2.723 -0.0593  1.5259 -2.6897
 3028WAT    EPW12820   5.956   5.806   2.749  0.0780  0.2819 -0.6905
 3029WAT      O12821   5.416   4.577   3.017 -0.5388  0.0531 -0.2456
 3029WAT     H112822   5.389   4.609   2.941 -0.1053  0.0724 -0.3940
 3029WAT     H212823   5.377   4.628   3.076 -1.3698 -0.3520 -0.4387
 3029WAT    EPW12824   5.407   4.589   3.015 -0.1929 -0.3033  0.5861
 3030WAT      O12825   3.723   7.473   4.972 -0.2942  0.1308 -0.1229
 3030WAT     H112826   3.697   7.491   5.054 -2.2580 -1.3248 -0.3541
 3030WAT     H212827   3.649   7.448   4.932  0.7543  0.0902 -2.1508
 3030WAT    EPW12828   3.708   7.472   4.979  0.0121 -0.1873  0.0651
 3031WAT      O12829   5.659   4.993   2.792 -0.3367 -0.5925  0.0733
 3031WAT     H112830   5.589   5.008   2.841  0.1532 -0.7950  0.8477
 3031WAT     H212831   5.707   4.939   2.840  0.8732  0.4101  0.0595
 3031WAT    EPW12832   5.656   4.987   2.806  0.3375 -0.3024 -0.0210
 3032WAT      O12833   4.383   7.306   2.558 -0.3265  0.3258 -0.8247
 3032WAT     H112834   4.300   7.333   2.550 -0.0745  2.9074  2.6802
 3032WAT     H212835   4.400   7.319   2.643  3.3867 -1.1300 -1.1753
 3032WAT    EPW12836   4.373   7.312   2.570 -0.3226 -0.1045  0.2854
 3033WAT      O12837   5.729   5.421   2.893 -0.4017 -0.3979 -0.2780
 3033WAT     H112838   5.780   5.479   2.933 -1.3195  0.7143 -0.6649
 3033WAT     H212839   5.715   5.360   2.955 -0.6199  0.5414  0.6287
 3033WAT    EPW12840   5.734   5.421   2.908 -0.5267  0.3790  0.0861
 3034WAT      O12841   7.047   6.063   2.919  0.3178  0.2386  0.2102
 3034WAT     H112842   7.131   6.081   2.937  0.3858  0.0965  0.0327
 3034WAT     H212843   7.036   6.094   2.838  0.7849 -1.6052 -0.6066
 3034WAT    EPW12844   7.058   6.070   2.910  0.4111 -0.6251 -0.5503
 3035WAT      O12845   5.434   6.207   4.571  0.1129 -0.2009 -0.6738
 3035WAT     H112846   5.406   6.278   4.528  1.1766 -0.7706 -2.4152
 3035WAT     H212847   5.430   6.231   4.655 -1.0505  1.3456 -1.1173
 3035WAT    EPW12848   5.429   6.221   4.577  0.2966 -0.1090  0.5847
 3036WAT      O12849   6.977   4.585   4.336  0.1179 -0.0124 -0.2353
 3036WAT     H112850   6.894   4.609   4.341  0.4817  1.3021 -0.1099
 3036WAT     H212851   7.021   4.661   4.339  1.2827 -0.6150 -1.1487
 3036WAT    EPW12852   6.971   4.600   4.337  0.0896 -0.2051 -0.4545
 3037WAT      O12853   5.680   5.716   4.554  0.2803 -0.0544 -0.3800
 3037WAT     H112854   5.720   5.792   4.568 -2.2993  1.6926 -1.5549
 3037WAT     H212855   5.708   5.692   4.475  1.1055 -0.3459 -0.0036
 3037WAT    EPW12856   5.690   5.724   4.544  0.2235 -0.4945 -0.7197
 3038WAT      O12857   5.817   6.227   4.221  0.0202  0.0623 -0.3922
 3038WAT     H112858   5.840   6.178   4.289  1.1195 -1.0766 -1.5148
 3038WAT     H212859   5.731   6.233   4.228  0.2350  1.9013  2.3048
 3038WAT    EPW12860   5.808   6.220   4.232  0.3249  0.5398  0.0050
 3039WAT      O12861   4.721   4.603   5.423  0.0451 -0.0246 -0.0618
 3039WAT     H112862   4.726   4.631   5.505  2.3305 -0.4287 -0.0052
 3039WAT     H212863   4.804   4.606   5.395 -0.6619  0.0277 -2.3324
 3039WAT    EPW12864   4.734   4.608   5.431  0.4644  0.0395 -0.7514
 3040WAT      O12865   5.419   7.484   6.088  0.2495 -0.5379 -0.6952
 3040WAT     H112866   5.412   7.565   6.056 -0.4030 -0.3813 -0.1758
 3040WAT     H212867   5.420   7.434   6.016  2.3642  0.0101 -1.1018
 3040WAT    EPW12868   5.418   7.489   6.072  0.0246  0.0413  0.2128
 3041WAT      O12869   3.993   6.230   3.834 -0.4724  0.4462 -0.2034
 3041WAT     H112870   4.009   6.258   3.753  0.8803 -1.4861 -0.6851
 3041WAT     H212871   4.059   6.261   3.880 -1.7101  2.3106  0.4363
 3041WAT    EPW12872   4.005   6.239   3.829  0.0268 -0.4083 -0.4693
 3042WAT      O12873   4.920   6.884   4.665 -0.5519 -0.1143  0.4425
 3042WAT     H112874   4.964   6.842   4.602 -0.1231 -0.6664  1.0889
 3042WAT     H212875   4.969   6.954   4.680 -0.4942 -0.1385  0.3720
 3042WAT    EPW12876   4.934   6.888   4.658  0.1540 -0.9697  0.2826
 3043WAT      O12877   5.089   6.251   4.627 -0.5145  0.3754 -0.0187
 3043WAT     H112878   5.168   6.259   4.661  0.1330  1.4598 -1.6713
 3043WAT     H212879   5.062   6.333   4.617 -0.8860  0.1086 -1.5405
 3043WAT    EPW12880   5.096   6.264   4.630  0.4005  0.5451 -0.3962
 3044WAT      O12881   5.606   5.365   2.486 -0.7676  0.5990 -0.2557
 3044WAT     H112882   5.652   5.318   2.544 -1.3835 -0.0070 -0.2373
 3044WAT     H212883   5.547   5.308   2.457 -0.0560  0.6826 -1.9859
 3044WAT    EPW12884   5.604   5.349   2.491  0.5918 -0.6359  0.4036
 3045WAT      O12885   7.341   6.112   2.997 -0.1366  0.0536 -0.0254
 3045WAT     H112886   7.344   6.032   3.031  0.1072 -0.0427 -0.2734
 3045WAT     H212887   7.334   6.164   3.067 -0.8339 -0.2097  0.1151
 3045WAT    EPW12888   7.340   6.108   3.013  0.2810 -0.1198 -0.4074
 3046WAT      O12889   4.284   6.737   2.502  0.3559  0.0505 -0.5472
 3046WAT     H112890   4.366   6.712   2.488  0.1680 -0.2949 -1.0312
 3046WAT     H212891   4.273   6.802   2.446  0.8160  1.2122  0.6493
 3046WAT    EPW12892   4.295   6.743   2.492  0.3203 -0.0887  0.5106
 3047WAT      O12893   7.691   7.640   2.016 -0.2563  0.0559  0.3651
 3047WAT     H112894   7.694   7.651   1.930 -2.4622 -0.9292  0.0880
 3047WAT     H212895   7.745   7.702   2.047 -0.9622  1.7759 -1.6380
 3047WAT    EPW12896   7.699   7.651   2.008  0.2450 -0.1858  0.0968
 3048WAT      O12897   4.380   5.214   1.019 -0.0894  0.6410 -0.3182
 3048WAT     H112898   4.400   5.259   0.946  0.4640 -0.4524 -0.8639
 3048WAT     H212899   4.453   5.168   1.034  0.1967  1.6119  1.5420
 3048WAT    EPW12900   4.394   5.214   1.010 -1.2300 -0.4607 -0.2760
 3049WAT      O12901   6.221   6.612   1.355 -0.0103 -0.2952  0.4646
 3049WAT     H112902   6.168   6.646   1.415 -1.5171  1.3239 -1.6256
 3049WAT     H212903   6.247   6.681   1.309  0.1900 -1.5362 -1.3981
 3049WAT    EPW12904   6.217   6.627   1.357  0.0381 -0.6581 -0.3529
 3050WAT      O12905   6.167   5.685   1.701 -0.3064  0.1513  0.0352
 3050WAT     H112906   6.210   5.758   1.724 -1.0413  0.9521 -0.9989
 3050WAT     H212907   6.229   5.624   1.698  0.8239  1.3117 -1.6066
 3050WAT    EPW12908   6.183   5.687   1.704 -0.0734 -0.1173 -0.0436
 3051WAT      O12909   5.613   6.962   0.682  0.7501 -0.5748 -0.2328
 3051WAT     H112910   5.534   6.927   0.675  0.6243 -0.2032 -0.6597
 3051WAT     H212911   5.655   6.932   0.612  1.1724 -1.2321  0.2843
 3051WAT    EPW12912   5.608   6.952   0.671  0.0039 -0.6373  0.4143
 3052WAT      O12913   5.345   5.517   1.919 -0.5916  0.2525 -0.0081
 3052WAT     H112914   5.270   5.476   1.937 -0.1095 -0.3999  0.5611
 3052WAT     H212915   5.403   5.478   1.972  0.4829 -0.3189 -1.5596
 3052WAT    EPW12916   5.342   5.505   1.930  0.1022 -0.9396  0.7494
 3053WAT      O12917   6.579   7.227   0.898 -0.3010 -0.0013  0.1717
 3053WAT     H112918   6.526   7.185   0.953  0.6150 -1.2834  0.1036
 3053WAT     H212919   6.646   7.251   0.948 -0.5124  0.8353  0.0719
 3053WAT    EPW12920   6.581   7.225   0.913  0.7947 -0.0081 -0.2145
 3054WAT      O12921   4.109   5.087   1.050  0.0697  0.1790  0.1397
 3054WAT     H112922   4.071   5.150   1.003 -0.2924 -0.9213 -1.0820
 3054WAT     H212923   4.192   5.116   1.058  0.1926  0.3174 -1.3473
 3054WAT    EPW12924   4.116   5.101   1.044  0.0806  0.1098 -0.5799
 3055WAT      O12925   5.068   6.928   2.325  0.2841  0.3900 -0.1178
 3055WAT     H112926   5.140   6.941   2.373  0.3740 -1.4623  0.3216
 3055WAT     H212927   5.100   6.905   2.247  0.1347  1.8165 -0.6247
 3055WAT    EPW12928   5.084   6.926   2.320 -0.1862  0.2513  0.8021
 3056WAT      O12929   5.974   6.075   2.221  0.3188 -0.2816  0.0192
 3056WAT     H112930   5.976   6.125   2.292 -0.8509 -1.7925  1.1829
 3056WAT     H212931   6.054   6.085   2.187  1.1948 -0.1294  1.9920
 3056WAT    EPW12932   5.986   6.084   2.226  0.9004  0.5884 -0.2088
 3057WAT      O12933   5.185   6.401   0.868 -0.4699 -0.2026 -0.0734
 3057WAT     H112934   5.206   6.416   0.951  0.2415  1.0214 -0.4451
 3057WAT     H212935   5.104   6.371   0.872 -0.3263 -0.4735  1.0868
 3057WAT    EPW12936   5.176   6.399   0.881 -0.3073 -0.4184 -0.6219
 3058WAT      O12937   5.502   0.108   2.200 -0.4732 -0.5138 -0.2945
 3058WAT     H112938   5.554   0.038   2.207  1.2365  0.4290 -2.3064
 3058WAT     H212939   5.515   0.151   2.275 -1.0563 -1.9856  0.6916
 3058WAT    EPW12940   5.511   0.104   2.212  0.1541 -0.3197  0.3600
 3059WAT      O12941   5.752   5.904   1.567 -0.2077 -0.6912 -0.0079
 3059WAT     H112942   5.836   5.916   1.545 -0.2656 -1.8233 -0.9232
 3059WAT     H212943   5.738   5.965   1.628  0.5086  1.3199 -1.7408
 3059WAT    EPW12944   5.762   5.915   1.573 -0.4414 -0.0486 -0.0535
 3060WAT      O12945   6.291   6.913   1.962  0.4963 -0.4169 -0.3231
 3060WAT     H112946   6.246   6.839   1.962  0.2903 -0.3135 -1.7010
 3060WAT     H212947   6.230   6.974   1.970  0.6047 -0.3698  0.1451
 3060WAT    EPW12948   6.275   6.911   1.963  0.3865  0.6098  0.1077
 3061WAT      O12949   7.375   7.380   3.390  0.2867 -0.2937 -0.1109
 3061WAT     H112950   7.366   7.415   3.311 -1.1609  2.5138  1.1483
 3061WAT     H212951   7.322   7.311   3.389  0.2984 -0.3057 -1.5386
 3061WAT    EPW12952   7.366   7.375   3.378 -1.0965 -0.2041  0.1029
 3062WAT      O12953   5.753   6.475   3.110 -0.1705 -0.1507 -0.2055
 3062WAT     H112954   5.737   6.392   3.092  0.4573 -0.4491  0.5285
 3062WAT     H212955   5.729   6.483   3.194  1.2185 -0.0265  0.2086
 3062WAT    EPW12956   5.747   6.464   3.120 -0.2613 -0.0334 -0.4316
 3063WAT      O12957   5.019   6.043   0.603  0.4855  0.3777  0.9576
 3063WAT     H112958   5.035   5.971   0.648  0.2019 -0.2251  0.1207
 3063WAT     H212959   5.081   6.042   0.541 -0.7796 -0.2923 -0.3562
 3063WAT    EPW12960   5.031   6.033   0.600 -0.2506  0.3249  0.7808
 3064WAT      O12961   7.226   4.155   2.521  0.0631 -0.4300 -0.0716
 3064WAT     H112962   7.150   4.193   2.542  0.9250  1.8798 -0.7559
 3064WAT     H212963   7.284   4.203   2.566  1.4687  1.0208 -3.1594
 3064WAT    EPW12964   7.223   4.168   2.531  0.9389 -0.2432 -0.6351
 3065WAT      O12965   5.509   4.615   2.734 -0.2808  0.0000  0.3089
 3065WAT     H112966   5.596   4.615   2.739 -0.1094 -2.6304 -1.3491
 3065WAT     H212967   5.487   4.532   2.750 -2.5553  0.6841  1.1221
 3065WAT    EPW12968   5.518   4.603   2.737 -0.1879 -0.0889 -0.2771
 3066WAT      O12969   6.317   5.615   2.659  0.3920 -0.4303 -0.0661
 3066WAT     H112970   6.283   5.568   2.724  0.8207 -1.9753 -0.9019
 3066WAT     H212971   6.345   5.555   2.602  0.7700  0.8512 -1.3112
 3066WAT    EPW12972   6.316   5.599   2.660  0.1660 -0.2714  0.0184
 3067WAT      O12973   5.127   6.426   2.869 -0.3270  0.1639 -0.0647
 3067WAT     H112974   5.177   6.497   2.869 -1.7538  1.2865 -2.6930
 3067WAT     H212975   5.173   6.368   2.823 -0.0426  0.0829  0.3214
 3067WAT    EPW12976   5.141   6.428   2.862  0.7395 -1.0499 -0.4541
 3068WAT      O12977   3.945   6.144   2.169  0.1236  0.2366  0.1712
 3068WAT     H112978   3.871   6.187   2.152 -0.3323  0.5742  2.5882
 3068WAT     H212979   3.919   6.062   2.183  0.1209  0.4284  1.3829
 3068WAT    EPW12980   3.930   6.138   2.169 -0.1543  0.1256  0.2771
 3069WAT      O12981   6.762   7.380   1.685 -0.0218  0.0747 -0.4386
 3069WAT     H112982   6.793   7.434   1.623  1.0426  0.0209  0.0234
 3069WAT     H212983   6.690   7.421   1.713  0.0105  0.5718 -1.0482
 3069WAT    EPW12984   6.756   7.394   1.680 -1.0139 -0.0905  0.1067
 3070WAT      O12985   6.378   7.239   2.560  0.1678 -0.1689  0.2094
 3070WAT     H112986   6.308   7.243   2.507  0.1777 -0.7763  0.1414
 3070WAT     H212987   6.416   7.316   2.549 -0.7831  0.3852  0.6472
 3070WAT    EPW12988   6.373   7.251   2.550 -0.3413  0.0866 -0.5946
 3071WAT      O12989   6.039   7.386   1.541 -0.1155  0.0992  0.4882
 3071WAT     H112990   5.972   7.330   1.540  0.2751 -0.3554 -0.4767
 3071WAT     H212991   6.000   7.463   1.556 -0.8622 -0.1655 -0.0465
 3071WAT    EPW12992   6.023   7.389   1.543  0.0809 -0.8169 -1.0478
 3072WAT      O12993   5.498   5.576   2.615 -0.2419 -0.0056  0.2057
 3072WAT     H112994   5.500   5.563   2.702  0.7185 -0.7435  0.0901
 3072WAT     H212995   5.532   5.502   2.583 -0.1961  0.4379 -0.7932
 3072WAT    EPW12996   5.503   5.563   2.623 -0.3106  0.1733 -0.6419
 3073WAT      O12997   6.614   4.693   4.030 -0.1848 -0.2685  0.2005
 3073WAT     H112998   6.573   4.764   4.000 -0.9431  0.6501  3.1105
 3073WAT     H212999   6.552   4.632   4.031 -0.1768 -0.2805  0.0565
 3073WAT    EPW13000   6.599   4.694   4.025  0.9134 -0.2743  0.2789
 3074WAT      O13001   5.264   7.195   1.800 -0.6132 -0.2192  0.4707
 3074WAT     H113002   5.259   7.148   1.727  0.6489  0.2739  0.0413
 3074WAT     H213003   5.242   7.276   1.774 -1.1968 -0.2435  0.8636
 3074WAT    EPW13004   5.260   7.200   1.786  0.4322  0.0972  0.5827
 3075WAT      O13005   6.414   4.014   2.727  0.3011  0.7268 -0.0218
 3075WAT     H113006   6.386   4.074   2.671 -0.6031 -0.4190 -0.8279
 3075WAT     H213007   6.494   3.993   2.698  0.1608  0.7222 -0.3995
 3075WAT    EPW13008   6.422   4.019   2.715 -0.7609 -0.3056 -0.3741
 3076WAT      O13009   7.253   6.890   2.679  0.2531  0.3541 -0.8053
 3076WAT     H113010   7.242   6.920   2.760 -2.6080 -0.1269 -0.9050
 3076WAT     H213011   7.290   6.957   2.637  1.5733  0.6858  0.8159
 3076WAT    EPW13012   7.257   6.904   2.685 -0.0390 -0.0345  0.5372
 3077WAT      O13013   4.617   6.461   3.193  0.4581  0.3325  0.2244
 3077WAT     H113014   4.631   6.541   3.161 -0.0110  1.2128  2.0667
 3077WAT     H213015   4.680   6.452   3.253 -0.5602  0.0741  1.2842
 3077WAT    EPW13016   4.629   6.471   3.198 -0.3073 -1.0224  0.4905
 3078WAT      O13017   4.316   6.505   1.096  0.5255  0.3755 -0.6795
 3078WAT     H113018   4.350   6.426   1.110  2.3311  1.1750 -0.1539
 3078WAT     H213019   4.301   6.506   1.011  0.6160 -0.4761 -0.7151
 3078WAT    EPW13020   4.319   6.494   1.086  0.6132 -1.6040 -0.4024
 3079WAT      O13021   4.178   7.812   1.518  0.2894  0.5036  0.0835
 3079WAT     H113022   4.237   7.784   1.576  0.4715  1.5415  0.4227
 3079WAT     H213023   4.141   7.881   1.557 -0.7902  0.1912 -0.3380
 3079WAT    EPW13024   4.181   7.818   1.532  0.1267 -0.1964  0.1570
 3080WAT      O13025   6.884   3.527   3.268  0.0179  0.9490 -0.1131
 3080WAT     H113026   6.855   3.535   3.351 -1.5114  1.1645 -0.6318
 3080WAT     H213027   6.949   3.584   3.263 -0.5788  1.7252  0.6549
 3080WAT    EPW13028   6.889   3.536   3.280 -0.2699  0.4366 -0.0015
 3081WAT      O13029   7.029   5.998   1.866  0.2868  0.1728 -0.4628
 3081WAT     H113030   7.088   5.999   1.930 -0.8241 -1.2321  0.6495
 3081WAT     H213031   6.960   6.039   1.901  0.2209  0.8703 -1.3726
 3081WAT    EPW13032   7.027   6.005   1.881  0.0568  0.1822  0.1033
 3082WAT      O13033   6.584   6.261   3.143  0.0987  0.2965 -0.2728
 3082WAT     H113034   6.539   6.335   3.157  1.8026  1.3591 -0.2427
 3082WAT     H213035   6.652   6.267   3.197  0.7427 -0.8898 -0.9018
 3082WAT    EPW13036   6.587   6.273   3.153 -0.4843  0.2149 -0.5794
 3083WAT      O13037   6.463   7.357   1.985 -0.1448  0.2209 -0.4576
 3083WAT     H113038   6.387   7.345   2.026  0.0453 -0.1881 -0.2315
 3083WAT     H213039   6.464   7.294   1.924  0.5753 -0.5553  0.3425
 3083WAT    EPW13040   6.452   7.346   1.982  1.4220 -0.3140  0.0088
 3084WAT      O13041   5.641   7.957   1.801  0.3221  0.1885 -0.3254
 3084WAT     H113042   5.587   8.024   1.818  0.4070  0.5444 -1.3657
 3084WAT     H213043   5.593   7.887   1.818 -0.2552  0.5143 -0.5742
 3084WAT    EPW13044   5.626   7.957   1.806  0.6240  0.6909  0.0430
 3085WAT      O13045   0.190   5.973   2.021 -0.2404 -0.1386  0.1885
 3085WAT     H113046   0.217   6.030   1.961 -0.4427  0.0397  0.2661
 3085WAT     H213047   0.128   5.928   1.980 -2.3178  1.7323  1.0322
 3085WAT    EPW13048   0.184   5.975   2.006 -0.1497 -0.1516  0.6902
 3086WAT      O13049   4.712   5.536   2.987  0.1895 -0.4320  0.5247
 3086WAT     H113050   4.637   5.501   3.015 -0.5618  0.9701  0.3342
 3086WAT     H213051   4.756   5.554   3.060  0.0672 -0.6717  0.6562
 3086WAT    EPW13052   4.708   5.533   3.002  0.9077  0.1549 -0.9673
 3087WAT      O13053   6.044   6.156   3.412 -0.3214 -0.0992 -0.1455
 3087WAT     H113054   6.125   6.143   3.383 -0.6053  1.6806 -1.9926
 3087WAT     H213055   5.995   6.139   3.342 -1.6054 -1.2508  0.9624
 3087WAT    EPW13056   6.049   6.151   3.397  0.3577 -0.1495 -0.0493
 3088WAT      O13057   5.109   7.079   2.000  0.5269 -0.0632 -0.3839
 3088WAT     H113058   5.030   7.114   1.997  0.4717 -0.1414  0.1050
 3088WAT     H213059   5.145   7.104   1.925 -0.6348 -1.6556 -1.5329
 3088WAT    EPW13060   5.103   7.088   1.988  0.8101  0.4805 -0.1457
 3089WAT      O13061   6.228   5.871   1.960  0.2127  0.1743 -0.2259
 3089WAT     H113062   6.144   5.845   1.963  0.6893 -1.4442  0.2828
 3089WAT     H213063   6.227   5.949   1.998 -1.2407  0.7268 -1.2967
 3089WAT    EPW13064   6.215   5.879   1.966 -0.0790 -0.5288  0.7951
 3090WAT      O13065   5.147   6.728   1.294 -0.0850 -0.2588 -0.2914
 3090WAT     H113066   5.141   6.674   1.363  1.4201 -0.3931 -0.2439
 3090WAT     H213067   5.064   6.750   1.279 -0.3779  0.6654  2.2517
 3090WAT    EPW13068   5.134   6.723   1.302 -0.2952 -0.2212 -0.5115
 3091WAT      O13069   5.605   6.460   2.385 -0.1142  0.2253 -0.4347
 3091WAT     H113070   5.544   6.432   2.441 -0.8836 -0.4157 -1.5649
 3091WAT     H213071   5.674   6.475   2.436 -0.7003 -0.6307  0.6452
 3091WAT    EPW13072   5.607   6.458   2.401 -0.7144 -0.8054  0.0576
 3092WAT      O13073   7.614   5.029   1.661  0.7177 -0.0618  0.4171
 3092WAT     H113074   7.566   4.991   1.723  1.2850 -1.9595 -0.2489
 3092WAT     H213075   7.587   4.992   1.587 -2.4833  4.5417 -1.2221
 3092WAT    EPW13076   7.603   5.018   1.659  0.0656  0.8290  0.4515
 3093WAT      O13077   7.092   6.524   2.955  0.3500  0.1967  0.3781
 3093WAT     H113078   7.092   6.565   2.878  1.4284  0.7605  0.6484
 3093WAT     H213079   7.035   6.459   2.945 -0.4119  0.9802 -0.5028
 3093WAT    EPW13080   7.083   6.521   2.942 -0.0541  0.5312 -0.2195
 3094WAT      O13081   6.215   4.631   2.153  0.3683  0.5768  0.2584
 3094WAT     H113082   6.233   4.571   2.213  1.8072 -0.5689 -1.2191
 3094WAT     H213083   6.238   4.706   2.192 -1.1988  0.1908  2.0262
 3094WAT    EPW13084   6.221   4.634   2.167  0.3694  0.5716 -0.6606
 3095WAT      O13085   7.243   7.025   2.002  0.2481  0.5758  0.4536
 3095WAT     H113086   7.199   7.060   2.068  0.8276  3.0409 -0.3629
 3095WAT     H213087   7.319   7.068   2.003  1.1728 -0.9402 -0.4439
 3095WAT    EPW13088   7.248   7.037   2.012  0.8872 -0.4953  0.0367
 3096WAT      O13089   5.086   6.992   0.733  0.2172  0.0088 -0.6954
 3096WAT     H113090   5.123   7.002   0.655 -0.9310  1.1520 -1.1358
 3096WAT     H213091   5.122   7.055   0.781  1.1293 -0.8663 -0.1844
 3096WAT    EPW13092   5.097   7.003   0.728 -0.3280 -0.5200  0.0450
 3097WAT      O13093   6.707   6.451   1.797 -0.1351 -0.0301 -0.3499
 3097WAT     H113094   6.750   6.486   1.729  0.6522 -0.2515  0.0214
 3097WAT     H213095   6.752   6.479   1.866 -1.8045  1.4399  0.2088
 3097WAT    EPW13096   6.720   6.460   1.797 -0.2441  1.1178  0.0597
 3098WAT      O13097   4.510   7.163   2.868 -0.6269  0.1053  0.4572
 3098WAT     H113098   4.489   7.104   2.807 -1.4761  0.6115  0.2345
 3098WAT     H213099   4.514   7.116   2.941 -2.7812 -0.0314  0.5494
 3098WAT    EPW13100   4.507   7.147   2.870  0.5440 -0.5912  0.6694
 3099WAT      O13101   4.797   5.464   1.428 -0.7542 -0.3937  0.3133
 3099WAT     H113102   4.828   5.541   1.456  1.0165 -0.2746 -1.7071
 3099WAT     H213103   4.841   5.407   1.477  1.7198 -0.1642 -1.4124
 3099WAT    EPW13104   4.808   5.467   1.439  1.1031 -0.4611 -0.8132
 3100WAT      O13105   5.551   6.709   2.260 -0.0988 -0.0227  0.4808
 3100WAT     H113106   5.595   6.666   2.198  0.0992 -0.3425  0.8450
 3100WAT     H213107   5.560   6.659   2.331  1.0706  1.1595  1.2017
 3100WAT    EPW13108   5.558   6.695   2.261  0.8396 -0.2791 -0.1103
 3101WAT      O13109   7.456   5.670   2.290 -0.7574  0.1317  0.5152
 3101WAT     H113110   7.391   5.674   2.232 -1.9726  0.2738  1.8364
 3101WAT     H213111   7.431   5.605   2.343  1.0234 -0.9533  0.1155
 3101WAT    EPW13112   7.443   5.661   2.289  0.1504 -0.3780 -0.8168
 3102WAT      O13113   6.872   6.381   2.821 -0.1786 -0.4421 -0.3974
 3102WAT     H113114   6.797   6.353   2.855 -0.1748  0.5408  0.5114
 3102WAT     H213115   6.897   6.317   2.768 -1.0740 -1.2941  0.1823
 3102WAT    EPW13116   6.865   6.367   2.818  0.0932 -0.0367 -0.1786
 3103WAT      O13117   6.918   5.489   1.938 -0.0348 -0.0397 -0.7093
 3103WAT     H113118   6.861   5.510   1.875 -0.3493 -0.7821 -0.6838
 3103WAT     H213119   6.913   5.402   1.942  0.3188 -0.0353  0.0312
 3103WAT    EPW13120   6.909   5.480   1.929 -0.7997  0.6962 -0.4423
 3104WAT      O13121   6.058   7.556   2.056 -0.2649  0.2483 -0.3959
 3104WAT     H113122   5.979   7.541   2.022 -0.8345  1.2164  0.4439
 3104WAT     H213123   6.077   7.637   2.028 -0.1680  0.5455  0.4917
 3104WAT    EPW13124   6.049   7.566   2.046  0.2160 -0.0000 -1.0730
 3105WAT      O13125   6.530   6.030   2.447  0.4274 -0.3428  0.3244
 3105WAT     H113126   6.565   5.971   2.393 -0.3051  0.9323 -1.6492
 3105WAT     H213127   6.558   6.106   2.416  0.1654  0.4438  1.9315
 3105WAT    EPW13128   6.539   6.032   2.435  0.6969  0.3283  0.4323
 3106WAT      O13129   6.092   5.712   2.538 -0.1670  0.0276 -0.2609
 3106WAT     H113130   6.035   5.647   2.548  1.0125 -0.8660  0.9799
 3106WAT     H213131   6.167   5.678   2.566  0.3503  2.1537  1.1742
 3106WAT    EPW13132   6.095   5.697   2.543 -1.2091  0.5857 -0.1735
 3107WAT      O13133   7.282   6.249   0.764  0.3347  0.0646 -0.1076
 3107WAT     H113134   7.204   6.288   0.769 -0.3304 -0.8178 -2.1730
 3107WAT     H213135   7.270   6.174   0.807 -0.3136 -0.4977 -1.2094
 3107WAT    EPW13136   7.269   6.244   0.771 -0.1996  0.2384  0.1350
 3108WAT      O13137   6.002   6.733   1.769  0.3623  0.0137  0.2914
 3108WAT     H113138   6.017   6.733   1.855 -0.5104 -1.4503  0.4931
 3108WAT     H213139   6.073   6.771   1.735  1.6382 -1.1358  1.5412
 3108WAT    EPW13140   6.015   6.738   1.776 -0.3824  0.8143 -0.2998
 3109WAT      O13141   4.831   6.819   1.736 -0.4985  0.3951  0.1786
 3109WAT     H113142   4.777   6.829   1.804  0.8352  0.3100  1.3089
 3109WAT     H213143   4.876   6.747   1.757  0.3156  0.6807 -0.5347
 3109WAT    EPW13144   4.830   6.810   1.749  0.2560 -0.1837 -0.3548
 3110WAT      O13145   4.705   5.818   2.247 -0.1922  0.1348  0.4494
 3110WAT     H113146   4.753   5.854   2.183 -0.1576 -0.7287 -0.0244
 3110WAT     H213147   4.725   5.866   2.316 -1.5274  2.1846 -0.5037
 3110WAT    EPW13148   4.715   5.830   2.248 -0.2233 -0.1129 -0.3295
 3111WAT      O13149   7.717   6.197   3.505 -0.4063 -0.1453 -0.3679
 3111WAT     H113150   7.769   6.150   3.557 -0.3984 -1.2016 -1.2897
 3111WAT     H213151   7.749   6.278   3.511  0.3139 -0.4757  0.3606
 3111WAT    EPW13152   7.730   6.202   3.513 -0.0544  0.2059  0.0464
 3112WAT      O13153   6.890   5.423   1.127  0.6568  0.6393 -0.1272
 3112WAT     H113154   6.964   5.452   1.091  1.1811 -2.2044 -1.6204
 3112WAT     H213155   6.896   5.336   1.120 -2.5928  0.2637  0.1842
 3112WAT    EPW13156   6.902   5.414   1.121 -0.2813 -0.1832  0.0118
 3113WAT      O13157   5.643   5.606   3.721  0.2428 -0.2959  0.0099
 3113WAT     H113158   5.650   5.647   3.797 -2.6310 -0.4627  0.4839
 3113WAT     H213159   5.649   5.670   3.662 -0.4903  0.3077  0.5652
 3113WAT    EPW13160   5.645   5.622   3.723 -0.3370 -0.1946  0.1158
 3114WAT      O13161   6.499   5.179   1.744  0.3504 -0.2347  0.3947
 3114WAT     H113162   6.429   5.153   1.790 -1.7994  2.4948 -1.0549
 3114WAT     H213163   6.475   5.164   1.661  1.1441  1.4678 -0.1793
 3114WAT    EPW13164   6.485   5.173   1.739  0.0917  0.2033  0.7965
 3115WAT      O13165   5.389   7.417   1.073 -0.4258 -0.4814  0.6437
 3115WAT     H113166   5.356   7.353   1.022 -1.7818  1.2398 -0.7913
 3115WAT     H213167   5.323   7.473   1.080  1.5533  2.3099 -0.8548
 3115WAT    EPW13168   5.374   7.416   1.066  0.2388 -0.0369 -0.5659
 3116WAT      O13169   5.211   5.122   2.525  0.1110  0.0753 -0.2280
 3116WAT     H113170   5.176   5.067   2.467 -1.2278  0.5888  0.0627
 3116WAT     H213171   5.205   5.079   2.600 -1.4049  0.7712  0.0857
 3116WAT    EPW13172   5.205   5.107   2.527  0.7131 -0.5134 -0.6983
 3117WAT      O13173   8.093   5.826   4.180  0.0026  0.4468 -0.0516
 3117WAT     H113174   8.082   5.747   4.216  0.0423  0.2202 -0.5282
 3117WAT     H213175   8.036   5.825   4.113 -1.8692  1.7686  1.4287
 3117WAT    EPW13176   8.083   5.814   4.175  0.8431  0.2362  0.0473
 3118WAT      O13177   5.665   6.958   1.952  0.2678 -0.8872  0.0665
 3118WAT     H113178   5.601   6.916   1.910 -0.2387  0.7378 -0.8387
 3118WAT     H213179   5.646   6.946   2.036 -1.1008 -0.6255 -0.1897
 3118WAT    EPW13180   5.653   6.950   1.958  0.5869 -0.2337 -0.5468
 3119WAT      O13181   7.023   5.059   2.175 -0.2795  0.1461  0.4475
 3119WAT     H113182   7.049   5.115   2.236  2.1848  1.0521 -1.2698
 3119WAT     H213183   7.076   4.990   2.187 -0.1276  0.1243 -0.3078
 3119WAT    EPW13184   7.035   5.057   2.186  0.3419 -0.1806 -0.4138
 3120WAT      O13185   6.802   6.807   1.801 -0.2813  0.0182 -0.4344
 3120WAT     H113186   6.731   6.855   1.820 -0.9621 -0.1717 -2.3111
 3120WAT     H213187   6.837   6.791   1.879 -2.6140 -0.3531  0.6299
 3120WAT    EPW13188   6.796   6.812   1.815 -0.5601  0.3798  0.7164
 3121WAT      O13189   4.594   7.962   1.374  0.2959  0.0082 -0.7141
 3121WAT     H113190   4.514   7.932   1.354  0.6015 -0.7752 -0.7644
 3121WAT     H213191   4.590   8.046   1.350  0.2723 -0.5864 -3.0371
 3121WAT    EPW13192   4.581   7.970   1.367  0.7781 -0.4334  0.2608
 3122WAT      O13193   5.067   6.095   1.439  0.2439 -0.5133  0.0694
 3122WAT     H113194   5.111   6.110   1.366 -0.3853  0.0869 -0.1861
 3122WAT     H213195   5.012   6.161   1.445 -0.7612 -1.3454  0.2944
 3122WAT    EPW13196   5.066   6.107   1.429 -0.2876 -0.4644 -0.2392
 3123WAT      O13197   7.270   5.841   2.148  0.3911 -0.1351 -0.0729
 3123WAT     H113198   7.255   5.906   2.092  0.6732 -0.4527 -0.5322
 3123WAT     H213199   7.319   5.878   2.210  1.2032 -0.0830 -0.7287
 3123WAT    EPW13200   7.275   5.856   2.149 -0.3913  0.4384  0.1986
 3124WAT      O13201   4.409   5.742   2.394 -0.1450  0.0219  0.3555
 3124WAT     H113202   4.472   5.760   2.336 -0.0833  1.7317  0.9194
 3124WAT     H213203   4.355   5.809   2.388 -1.8928 -1.3350  0.0105
 3124WAT    EPW13204   4.410   5.754   2.385 -0.3170  0.2527 -1.1396
 3125WAT      O13205   4.756   7.612   1.819 -0.0584 -0.0921 -0.5692
 3125WAT     H113206   4.733   7.548   1.874 -0.1344  0.2482 -0.2008
 3125WAT     H213207   4.742   7.577   1.740 -1.1151 -0.1632 -0.3659
 3125WAT    EPW13208   4.751   7.597   1.816  0.2546  0.0968 -0.8570
 3126WAT      O13209   4.524   5.811   0.657  0.6239 -0.0259 -0.7528
 3126WAT     H113210   4.611   5.804   0.657  0.6248 -0.2361  0.5076
 3126WAT     H213211   4.498   5.753   0.717 -0.4507 -0.6169 -1.7584
 3126WAT    EPW13212   4.533   5.802   0.666 -0.0300  0.6459 -0.1806
 3127WAT      O13213   7.505   6.842   3.216 -0.0842 -0.1546 -0.3014
 3127WAT     H113214   7.590   6.826   3.226 -0.3082 -1.1759  0.0842
 3127WAT     H213215   7.469   6.808   3.288 -0.7736  0.7237 -0.2158
 3127WAT    EPW13216   7.512   6.834   3.228  0.7422 -0.4474  0.3917
 3128WAT      O13217   6.120   7.120   1.902  0.0700 -0.2666  0.1068
 3128WAT     H113218   6.166   7.160   1.839  1.1758 -3.5146 -1.3563
 3128WAT     H213219   6.039   7.116   1.869  0.0990  0.1839 -0.0188
 3128WAT    EPW13220   6.115   7.125   1.887  0.0185  0.3515 -0.0098
 3129WAT      O13221   6.046   5.269   3.056 -0.0551  0.8398 -0.2539
 3129WAT     H113222   6.061   5.227   2.981  0.0147  0.5569 -0.0813
 3129WAT     H213223   5.960   5.283   3.055 -0.1978 -0.0044  0.0567
 3129WAT    EPW13224   6.036   5.265   3.044 -0.2734  0.4172 -0.9941
 3130WAT      O13225   5.824   5.400   2.316 -0.6692  0.0967  0.6422
 3130WAT     H113226   5.798   5.356   2.246 -1.0475 -1.2387  1.5790
 3130WAT     H213227   5.756   5.395   2.370  0.3051 -0.5869  1.8566
 3130WAT    EPW13228   5.810   5.393   2.314  0.4453 -0.0735  0.1876
 3131WAT      O13229   6.824   6.044   1.377  0.0141  0.0745  0.7440
 3131WAT     H113230   6.786   6.115   1.343  0.8866  0.6298  0.8845
 3131WAT     H213231   6.796   6.043   1.460 -2.7065 -1.6973 -0.0653
 3131WAT    EPW13232   6.814   6.054   1.384 -0.8252 -0.2329  0.2711
 3132WAT      O13233   6.398   6.027   1.755  0.0620  0.7646 -0.3834
 3132WAT     H113234   6.386   6.034   1.841  0.2735  2.4926 -0.4570
 3132WAT     H213235   6.317   6.025   1.724 -0.0214  0.7491 -0.1678
 3132WAT    EPW13236   6.384   6.028   1.763 -0.2244  0.5038  0.7216
 3133WAT      O13237   5.348   5.664   3.382 -0.3371  0.0457  0.0843
 3133WAT     H113238   5.355   5.599   3.440  1.3632 -0.9730 -1.1737
 3133WAT     H213239   5.289   5.717   3.419 -1.1864 -1.7728  1.5506
 3133WAT    EPW13240   5.340   5.662   3.396 -0.7879  0.3776  0.4107
 3134WAT      O13241   4.639   0.281   1.977  0.2941 -0.0497 -0.7878
 3134WAT     H113242   4.703   0.341   1.980  0.7455 -0.5702  0.6163
 3134WAT     H213243   4.580   0.311   2.034  0.5650 -0.9629 -0.0067
 3134WAT    EPW13244   4.640   0.294   1.986 -0.0662  0.3660 -0.5893
 3135WAT      O13245   6.402   6.025   4.247 -0.3199 -0.7736 -0.3272
 3135WAT     H113246   6.464   6.055   4.192 -0.0989 -0.1530  0.2380
 3135WAT     H213247   6.381   6.096   4.294 -1.1228 -1.0947 -0.1873
 3135WAT    EPW13248   6.408   6.040   4.246  0.6863 -0.0336  0.7349
 3136WAT      O13249   5.578   5.397   2.037  0.2787  0.8144  0.6292
 3136WAT     H113250   5.656   5.436   2.036  0.8327 -0.0640  2.7931
 3136WAT     H213251   5.595   5.317   2.006 -0.1083  1.1310 -0.4182
 3136WAT    EPW13252   5.592   5.391   2.033  0.7696  0.0767  0.2238
 3137WAT      O13253   6.484   6.353   2.694 -0.1264 -0.3844 -0.0878
 3137WAT     H113254   6.508   6.388   2.770 -2.2521 -2.6008  1.7731
 3137WAT     H213255   6.404   6.383   2.681 -0.1731 -0.8337 -0.9165
 3137WAT    EPW13256   6.476   6.363   2.704 -0.5424  0.1669 -0.3001
 3138WAT      O13257   7.510   6.719   1.484  0.0071  0.2137  0.2728
 3138WAT     H113258   7.498   6.773   1.417 -0.2209 -0.0290  0.1172
 3138WAT     H213259   7.504   6.772   1.554  0.1906  0.4565  0.1065
 3138WAT    EPW13260   7.507   6.735   1.484  1.0249 -0.1238  0.6210
 3139WAT      O13261   5.254   7.076   1.526  0.2189  0.2695  0.1513
 3139WAT     H113262   5.191   7.021   1.551 -0.8543  0.8614 -1.1285
 3139WAT     H213263   5.280   7.044   1.449  0.5050  0.8227  0.0134
 3139WAT    EPW13264   5.248   7.063   1.519 -0.0879 -0.4596 -0.1751
 3140WAT      O13265   5.679   5.470   3.335 -0.2659  0.2163  0.0602
 3140WAT     H113266   5.734   5.473   3.402  1.1520 -1.8245 -0.9124
 3140WAT     H213267   5.602   5.457   3.372  0.5401 -1.3336  1.3173
 3140WAT    EPW13268   5.676   5.469   3.350  0.3465  0.0237 -0.0751
 3141WAT      O13269   4.838   5.922   2.480  0.1913 -0.3437  0.0419
 3141WAT     H113270   4.833   5.914   2.566  0.2719  1.0445  0.2049
 3141WAT     H213271   4.901   5.866   2.458 -1.1061 -2.1089  0.6121
 3141WAT    EPW13272   4.847   5.912   2.489 -0.6025 -0.1672  0.5274
 3142WAT      O13273   6.926   6.776   2.068  0.3091 -0.2196 -0.7134
 3142WAT     H113274   6.928   6.862   2.085 -2.2082 -0.6933  3.2460
 3142WAT     H213275   7.008   6.751   2.080  0.7425  1.3661 -0.0246
 3142WAT    EPW13276   6.938   6.785   2.072  0.0860  0.4030  0.0964
 3143WAT      O13277   6.815   6.696   2.606 -0.0750  0.1872  0.6442
 3143WAT     H113278   6.801   6.708   2.691 -2.4916  0.0466  0.3147
 3143WAT     H213279   6.770   6.760   2.567  1.1169  0.3563 -0.5647
 3143WAT    EPW13280   6.806   6.707   2.613 -0.1229 -0.2036  0.0037
 3144WAT      O13281   7.422   5.551   1.572  0.2583 -0.7819 -0.1524
 3144WAT     H113282   7.473   5.531   1.504  0.0362 -1.9124  0.0017
 3144WAT     H213283   7.350   5.583   1.535  0.3053 -1.0017 -0.4352
 3144WAT    EPW13284   7.419   5.553   1.556  0.1906  0.0179 -0.0026
 3145WAT      O13285   4.712   6.785   0.159 -0.0526  0.2693 -0.8994
 3145WAT     H113286   4.690   6.867   0.179  0.6103  0.0474  0.9252
 3145WAT     H213287   4.756   6.794   0.084 -1.3287  1.3695 -1.5560
 3145WAT    EPW13288   4.715   6.799   0.151 -0.3346  0.9811 -0.4012
 3146WAT      O13289   4.875   5.287   2.221  0.5731  0.6253  0.5500
 3146WAT     H113290   4.836   5.237   2.162  2.1462 -0.1939  0.1471
 3146WAT     H213291   4.841   5.366   2.208 -0.1419  0.1553 -0.4768
 3146WAT    EPW13292   4.864   5.291   2.211  0.6634 -0.1911  0.0083
 3147WAT      O13293   6.086   7.913   1.410  0.5671 -0.1027 -0.4984
 3147WAT     H113294   6.064   7.846   1.358 -0.0099  0.1532 -0.5921
 3147WAT     H213295   6.130   7.967   1.358  0.7925 -0.2804 -0.4916
 3147WAT    EPW13296   6.089   7.911   1.395 -0.6371  1.1785 -0.0620
 3148WAT      O13297   7.713   5.753   2.432  0.1532 -0.0639 -0.2807
 3148WAT     H113298   7.638   5.715   2.408  0.0301 -1.3624  1.8553
 3148WAT     H213299   7.771   5.721   2.375 -0.5910 -0.6129 -0.7470
 3148WAT    EPW13300   7.710   5.742   2.420 -0.1846 -0.6294  0.3990
 3149WAT      O13301   7.803   7.401   3.934  0.5308  0.8070  0.1083
 3149WAT     H113302   7.856   7.335   3.957 -1.3630 -0.0697  2.3617
 3149WAT     H213303   7.764   7.371   3.861  0.2115 -0.3011  0.7059
 3149WAT    EPW13304   7.805   7.387   3.926 -0.0942  0.1828  0.3285
 3150WAT      O13305   7.460   5.572   1.081 -0.6834  0.4482  0.1493
 3150WAT     H113306   7.483   5.573   1.166  4.7919 -1.0208 -0.8789
 3150WAT     H213307   7.482   5.651   1.053  2.3114 -0.4947 -0.5606
 3150WAT    EPW13308   7.467   5.584   1.090 -1.0708 -0.3168  0.3778
 3151WAT      O13309   4.843   6.159   8.050 -0.3678  0.4156  0.1774
 3151WAT     H113310   4.844   6.090   8.105 -1.8454 -0.5100 -0.8863
 3151WAT     H213311   4.787   6.214   8.088 -1.6226 -0.3520 -0.4799
 3151WAT    EPW13312   4.835   6.157   8.064  0.2486 -0.3552 -0.6434
 3152WAT      O13313   7.559   7.042   2.786 -0.3434 -0.3342  0.4825
 3152WAT     H113314   7.555   7.111   2.733  1.4611 -1.5021 -1.3258
 3152WAT     H213315   7.583   7.076   2.863  0.0476  1.1057 -0.2443
 3152WAT    EPW13316   7.562   7.057   2.790  0.7506  0.0003 -0.0861
 3153WAT      O13317   3.533   4.511   1.951 -0.3334  0.0077 -0.0292
 3153WAT     H113318   3.454   4.547   1.953 -0.8278 -0.8885 -1.4987
 3153WAT     H213319   3.540   4.482   1.869  1.5942  0.1997  0.0181
 3153WAT    EPW13320   3.522   4.512   1.939  0.2995 -0.4981 -0.2350
 3154WAT      O13321   5.855   5.451   1.571  0.2059  0.5879  0.2546
 3154WAT     H113322   5.908   5.456   1.641  0.5885 -0.3963  0.0542
 3154WAT     H213323   5.787   5.405   1.600  0.5494 -0.1701 -0.1175
 3154WAT    EPW13324   5.853   5.445   1.586 -0.6859 -0.0010 -0.2477
 3155WAT      O13325   5.596   6.953   1.602 -0.2907  0.0130  0.0799
 3155WAT     H113326   5.525   6.931   1.648 -1.5167  0.3276 -1.5891
 3155WAT     H213327   5.652   6.889   1.621 -1.8361 -1.5587 -0.3353
 3155WAT    EPW13328   5.594   6.940   1.612  0.3127  0.1104  0.1935
 3156WAT      O13329   5.790   6.204   1.489  0.2616 -0.4672  0.5145
 3156WAT     H113330   5.808   6.142   1.548 -1.9497 -0.7943  0.9496
 3156WAT     H213331   5.848   6.266   1.507  0.6552 -1.2058  2.0331
 3156WAT    EPW13332   5.801   6.204   1.501 -0.1669 -0.4412 -0.0912
 3157WAT      O13333   6.840   6.053   3.691  0.2485 -0.0317  0.0168
 3157WAT     H113334   6.818   5.969   3.688  0.9754 -0.2179 -1.0811
 3157WAT     H213335   6.920   6.054   3.656 -0.1558  1.2272 -0.9716
 3157WAT    EPW13336   6.849   6.040   3.685  0.7359  0.3586 -0.6852
 3158WAT      O13337   4.280   6.528   2.220  0.0860  0.6906  0.0669
 3158WAT     H113338   4.234   6.571   2.160 -1.0166 -0.8641 -0.2737
 3158WAT     H213339   4.225   6.522   2.288  0.8308  1.2536  0.7415
 3158WAT    EPW13340   4.265   6.533   2.221 -0.7143  0.5293  0.0789
 3159WAT      O13341   4.665   7.134   1.503  0.2360 -0.2077  0.1463
 3159WAT     H113342   4.651   7.179   1.577  1.4611  1.2467 -0.4402
 3159WAT     H213343   4.586   7.105   1.481 -0.3601  0.4132  1.3653
 3159WAT    EPW13344   4.651   7.136   1.511 -0.2631  0.1158 -0.5692
 3160WAT      O13345   5.706   5.803   0.546 -0.4978  0.1265 -0.3076
 3160WAT     H113346   5.663   5.790   0.620  0.3700 -0.1606  0.1588
 3160WAT     H213347   5.699   5.889   0.533  1.3114  0.5959  1.3775
 3160WAT    EPW13348   5.698   5.814   0.555 -0.0161  0.1354 -0.9420
 3161WAT      O13349   7.240   6.825   2.266 -0.3715  0.2720 -0.5922
 3161WAT     H113350   7.272   6.755   2.307  1.0248  1.3642  0.2951
 3161WAT     H213351   7.211   6.793   2.190 -1.1317 -1.4803  0.3618
 3161WAT    EPW13352   7.240   6.810   2.261 -0.8416  0.3299 -0.7909
 3162WAT      O13353   4.799   4.239   2.416  0.4436  0.0926 -0.0035
 3162WAT     H113354   4.872   4.203   2.385  0.6224  0.5924 -0.1728
 3162WAT     H213355   4.753   4.259   2.345  0.1598 -0.1756  0.1011
 3162WAT    EPW13356   4.803   4.237   2.401  0.7505 -0.9298  0.2029
 3163WAT      O13357   7.186   5.922   1.627 -1.0081 -0.3472 -0.0874
 3163WAT     H113358   7.134   5.923   1.697  1.3394 -0.2564  1.7707
 3163WAT     H213359   7.147   5.977   1.572 -2.9370 -0.4068  1.1220
 3163WAT    EPW13360   7.173   5.930   1.629 -0.7928 -1.0213  0.8993
 3164WAT      O13361   4.584   7.671   7.932 -0.7767 -0.1796 -0.0584
 3164WAT     H113362   4.648   7.728   7.949  0.8173 -1.1712 -2.1231
 3164WAT     H213363   4.590   7.614   7.997 -0.1023  0.2055  0.2359
 3164WAT    EPW13364   4.595   7.671   7.944  0.2150  1.0148 -0.4599
 3165WAT      O13365   4.607   7.127   2.073 -0.6375 -0.3585  0.0797
 3165WAT     H113366   4.596   7.097   2.154 -1.6152  0.3711  0.2375
 3165WAT     H213367   4.626   7.056   2.027 -3.8852 -1.4970  0.2265
 3165WAT    EPW13368   4.608   7.112   2.078  0.1064  0.2147  0.0534
 3166WAT      O13369   7.221   4.496   1.022 -0.0414 -0.2642  0.0819
 3166WAT     H113370   7.229   4.436   0.959 -2.1558 -0.4370 -0.1171
 3166WAT     H213371   7.292   4.486   1.071  1.4632 -0.4157 -2.0246
 3166WAT    EPW13372   7.233   4.486   1.020 -0.1718  0.8875 -0.2009
 3167WAT      O13373   5.907   4.705   1.615  0.7148  0.3273 -0.1656
 3167WAT     H113374   5.868   4.663   1.681 -0.4907 -1.5825 -1.9513
 3167WAT     H213375   5.990   4.710   1.640  0.5313 -1.4398  1.0060
 3167WAT    EPW13376   5.913   4.699   1.629  0.0705  0.2734  0.6265
 3168WAT      O13377   6.163   4.140   4.019 -0.2649 -0.4795 -0.2872
 3168WAT     H113378   6.189   4.059   3.999 -2.8040 -1.5033  0.1571
 3168WAT     H213379   6.233   4.174   4.059  2.1305 -1.1417 -3.4962
 3168WAT    EPW13380   6.177   4.133   4.022 -0.7680 -1.2839  0.6225
 3169WAT      O13381   5.795   4.419   2.361 -0.5932  0.1540  0.3598
 3169WAT     H113382   5.826   4.338   2.351 -0.5600  0.3512 -1.3883
 3169WAT     H213383   5.730   4.423   2.303  0.9358  2.1352 -1.3691
 3169WAT    EPW13384   5.790   4.407   2.351 -0.1813  0.2169  0.2970
 3170WAT      O13385   0.112   7.743   2.555  0.4899 -0.0679 -0.3900
 3170WAT     H113386   0.127   7.718   2.637 -0.9949 -0.2647 -0.1389
 3170WAT     H213387   0.037   7.702   2.535  0.2849  0.7925 -1.4727
 3170WAT    EPW13388   0.103   7.734   2.564 -0.2365  0.7081  0.8505
 3171WAT      O13389   5.816   6.796   2.418  0.3871  0.3556  0.1243
 3171WAT     H113390   5.819   6.753   2.342 -0.6446 -1.8054  1.1988
 3171WAT     H213391   5.892   6.839   2.420  0.8231 -0.2207 -1.7314
 3171WAT    EPW13392   5.828   6.796   2.407  0.8695 -1.1019 -0.8441
 3172WAT      O13393   6.465   6.083   2.977 -0.6768  0.4482 -0.3187
 3172WAT     H113394   6.510   6.146   3.017 -3.5953  2.5450 -0.0065
 3172WAT     H213395   6.469   6.016   3.033  1.7059  0.5975 -0.2147
 3172WAT    EPW13396   6.472   6.082   2.991 -0.0221  0.2580 -0.3567
 3173WAT      O13397   7.350   6.584   1.800 -0.5811 -0.0173  0.3842
 3173WAT     H113398   7.378   6.657   1.761 -0.3528  1.2714  2.7759
 3173WAT     H213399   7.423   6.540   1.815 -0.3332  0.8135  1.7893
 3173WAT    EPW13400   7.365   6.589   1.796  0.2911  0.2476  0.2108
 3174WAT      O13401   5.288   6.386   1.824  0.3501 -0.2499  0.0589
 3174WAT     H113402   5.217   6.347   1.857  1.0166 -2.0437 -0.5171
 3174WAT     H213403   5.354   6.341   1.858  1.2552  1.2985  0.4678
 3174WAT    EPW13404   5.287   6.374   1.834  0.9801  0.3036  0.3571
 3175WAT      O13405   7.596   6.452   2.834 -0.1135 -0.7046  0.2002
 3175WAT     H113406   7.565   6.375   2.810 -1.6119 -0.0427 -0.0943
 3175WAT     H213407   7.547   6.509   2.790  0.8202  0.4219  0.5640
 3175WAT    EPW13408   7.585   6.449   2.824 -0.3914 -0.3164 -0.1842
 3176WAT      O13409   7.635   5.486   2.170  0.2342 -0.3997 -0.0236
 3176WAT     H113410   7.566   5.539   2.165  0.6249  0.0408 -0.9545
 3176WAT     H213411   7.630   5.438   2.098  0.2442 -1.1932  0.4983
 3176WAT    EPW13412   7.624   5.487   2.159  0.1805 -0.0942  0.4218
 3177WAT      O13413   5.258   6.656   1.685  0.2669 -0.4026 -0.5032
 3177WAT     H113414   5.212   6.608   1.629 -0.2465 -1.2342  0.5934
 3177WAT     H213415   5.290   6.597   1.742  1.4095  0.3222 -0.3502
 3177WAT    EPW13416   5.256   6.640   1.685  0.2131 -0.0618  0.3434
 3178WAT      O13417   4.591   7.845   1.802 -0.3683  0.0681 -0.7052
 3178WAT     H113418   4.625   7.922   1.782  0.6936  0.0213  0.7397
 3178WAT     H213419   4.661   7.796   1.821 -1.1175  0.0980  2.8598
 3178WAT    EPW13420   4.607   7.849   1.802 -0.6740  0.6115 -0.7933
 3179WAT      O13421   5.693   6.536   3.395  0.4513  0.1874 -0.3089
 3179WAT     H113422   5.689   6.605   3.449 -1.0473  0.2567 -0.4814
 3179WAT     H213423   5.700   6.468   3.449  0.1846  0.3502 -0.0637
 3179WAT    EPW13424   5.694   6.536   3.411  0.1304 -0.1059 -0.1859
 3180WAT      O13425   5.743   5.276   3.129  0.1431 -0.0615  0.1864
 3180WAT     H113426   5.719   5.326   3.196 -3.1332  1.6691 -1.9881
 3180WAT     H213427   5.723   5.195   3.155 -1.8307  0.6641  1.0612
 3180WAT    EPW13428   5.737   5.271   3.143  0.3876 -0.1264  0.0409
 3181WAT      O13429   5.921   5.600   2.970 -0.4088 -0.1655 -0.5858
 3181WAT     H113430   5.941   5.668   2.920 -2.4416 -0.3167 -1.7277
 3181WAT     H213431   5.918   5.634   3.051 -1.0609  1.0519 -1.0894
 3181WAT    EPW13432   5.923   5.615   2.975 -0.0778 -0.1690  0.4368
 3182WAT      O13433   5.494   5.816   2.410 -0.9177  0.4441 -0.1460
 3182WAT     H113434   5.439   5.794   2.473  0.5454 -1.7656  0.4714
 3182WAT     H213435   5.538   5.742   2.394  1.1600  1.8317 -1.2978
 3182WAT    EPW13436   5.493   5.802   2.417 -0.0602  0.7174 -0.6791
 3183WAT      O13437   7.268   6.302   2.508  0.3605  0.0432  0.4712
 3183WAT     H113438   7.351   6.312   2.533 -0.1618  0.2445  2.2225
 3183WAT     H213439   7.222   6.319   2.580 -1.2130 -0.1750 -0.4305
 3183WAT    EPW13440   7.273   6.306   2.522 -0.0433  0.0771 -0.5009
 3184WAT      O13441   6.938   5.419   2.659  0.0320  0.2216  0.1903
 3184WAT     H113442   6.884   5.353   2.674  0.2261  0.5250  2.6123
 3184WAT     H213443   6.964   5.443   2.739  1.3207  2.0927 -0.7134
 3184WAT    EPW13444   6.934   5.413   2.673  0.4559  0.6003  0.2078
 3185WAT      O13445   5.232   4.166   2.977 -0.5981  0.0399  0.0640
 3185WAT     H113446   5.249   4.083   2.997 -0.6476  0.2184  0.8787
 3185WAT     H213447   5.167   4.161   2.919  0.8090 -0.5742 -1.5377
 3185WAT    EPW13448   5.225   4.153   2.971 -0.5252 -0.3791  0.5693
 3186WAT      O13449   6.569   6.166   2.082 -0.3390  0.0849  0.9789
 3186WAT     H113450   6.530   6.221   2.027 -0.3773  0.3010  1.2178
 3186WAT     H213451   6.573   6.212   2.157  0.2065 -0.0027  1.0042
 3186WAT    EPW13452   6.563   6.181   2.085 -0.5803  0.2206 -0.3284
 3187WAT      O13453   6.438   6.478   2.433 -0.2768  0.6494  0.2228
 3187WAT     H113454   6.440   6.564   2.448  0.9580  0.9150 -1.2332
 3187WAT     H213455   6.505   6.447   2.479 -1.1991  0.3129  1.3916
 3187WAT    EPW13456   6.448   6.486   2.442  0.0298 -0.7144 -0.4353
 3188WAT      O13457   0.766   6.612   3.477  0.1904  0.0495 -0.1934
 3188WAT     H113458   0.690   6.610   3.520 -0.7013  1.8058 -1.5493
 3188WAT     H213459   0.748   6.573   3.401  0.5846  0.5969 -0.5732
 3188WAT    EPW13460   0.752   6.606   3.472 -0.8922  0.3565 -1.0842
 3189WAT      O13461   0.639   6.626   1.214 -0.1084  0.3441  0.2921
 3189WAT     H113462   0.692   6.565   1.182 -1.0290  0.8399 -2.5172
 3189WAT     H213463   0.692   6.693   1.232  0.4619  0.1772 -0.6933
 3189WAT    EPW13464   0.654   6.627   1.212  0.0738  0.2904 -0.2738
 3190WAT      O13465   6.160   5.533   1.016  0.6149 -0.9279 -0.2379
 3190WAT     H113466   6.226   5.482   0.990  1.5754 -0.2683  0.8408
 3190WAT     H213467   6.198   5.593   1.066 -0.6522  0.2086 -0.5764
 3190WAT    EPW13468   6.176   5.534   1.020 -0.0531 -0.6735 -0.4836
 3191WAT      O13469   4.828   4.388   1.570  0.2185  0.1216 -0.1496
 3191WAT     H113470   4.829   4.348   1.493 -1.1005 -1.3751  0.5704
 3191WAT     H213471   4.759   4.442   1.564 -0.8984 -1.1667  0.4916
 3191WAT    EPW13472   4.818   4.390   1.558 -0.1411 -0.1026 -0.4480
 3192WAT      O13473   6.466   5.227   3.698  0.4066  0.6313  0.2431
 3192WAT     H113474   6.459   5.147   3.730 -0.2885  0.8143  0.5702
 3192WAT     H213475   6.385   5.259   3.704  0.9179  1.8177  1.3260
 3192WAT    EPW13476   6.453   5.220   3.703 -0.1547  0.7904 -0.4385
 3193WAT      O13477   6.138   7.138   1.152 -0.1038  0.2125  0.4334
 3193WAT     H113478   6.059   7.101   1.144  0.0492  0.0906 -0.8036
 3193WAT     H213479   6.120   7.219   1.177 -0.7022  0.4508 -0.6722
 3193WAT    EPW13480   6.123   7.144   1.154 -1.2873  0.3631 -0.5033
 3194WAT      O13481   6.024   6.345   2.899  0.3695 -0.0136 -0.3471
 3194WAT     H113482   5.940   6.365   2.892  0.3704 -0.0434 -0.4420
 3194WAT     H213483   6.064   6.404   2.849  0.3926 -0.0968 -0.4258
 3194WAT    EPW13484   6.018   6.357   2.891  0.6072 -0.2238  0.4486
 3195WAT      O13485   5.961   6.447   1.739  0.0313 -0.4775 -0.4274
 3195WAT     H113486   5.983   6.526   1.770  2.3141 -1.4406  0.6144
 3195WAT     H213487   5.876   6.442   1.756 -0.1336  1.6390 -0.2923
 3195WAT    EPW13488   5.952   6.458   1.746 -0.3187 -0.3700 -0.6369
 3196WAT      O13489   5.018   4.481   2.320 -0.0024 -0.2407  0.0105
 3196WAT     H113490   5.067   4.469   2.391 -0.1646 -1.1638 -0.0283
 3196WAT     H213491   5.009   4.401   2.287 -1.5847 -0.1217  0.0618
 3196WAT    EPW13492   5.024   4.468   2.326  0.2415  0.9206  0.1051
 3197WAT      O13493   5.112   5.822   1.451 -0.7769  0.3388 -0.8115
 3197WAT     H113494   5.176   5.765   1.436 -2.0543 -1.4502  0.1327
 3197WAT     H213495   5.153   5.898   1.460  1.4234 -0.9910  1.4984
 3197WAT    EPW13496   5.127   5.825   1.450 -0.2807  0.6085 -0.1423
 3198WAT      O13497   7.210   5.540   0.272 -0.0963 -0.5510  0.1244
 3198WAT     H113498   7.150   5.489   0.310  0.2591 -0.3076  1.0341
 3198WAT     H213499   7.162   5.597   0.227 -0.5336 -0.8092  0.2538
 3198WAT    EPW13500   7.194   5.541   0.271 -0.3956 -0.4671  0.2452
 3199WAT      O13501   6.698   6.047   2.649 -0.2955 -1.0503 -0.3688
 3199WAT     H113502   6.723   5.968   2.677 -0.4770 -0.6638  0.9566
 3199WAT     H213503   6.654   6.030   2.576 -1.8481 -2.3555  0.8182
 3199WAT    EPW13504   6.695   6.033   2.642 -0.0089 -0.4931  0.5622
 3200WAT      O13505   4.660   5.144   1.749  0.9860  0.5846 -0.3262
 3200WAT     H113506   4.623   5.223   1.746  1.8034  1.0036  0.1071
 3200WAT     H213507   4.653   5.115   1.668  0.3822  0.9660 -0.4189
 3200WAT    EPW13508   4.654   5.152   1.737  0.6974  0.0076 -0.0718
 3201WAT      O13509   5.860   7.906   1.971  0.2736 -0.3388 -0.4482
 3201WAT     H113510   5.924   7.865   1.929  0.3884 -0.3297 -0.2831
 3201WAT     H213511   5.798   7.915   1.911  0.2457 -0.7614 -0.4801
 3201WAT    EPW13512   5.861   7.902   1.956  1.1814 -0.4879 -0.0183
 3202WAT      O13513   4.306   4.362   2.100 -0.4416  0.0708 -0.1791
 3202WAT     H113514   4.389   4.370   2.076  0.2701 -2.4833  1.1203
 3202WAT     H213515   4.308   4.374   2.187 -0.8913 -2.5868  0.2967
 3202WAT    EPW13516   4.318   4.365   2.110  0.0720 -0.4621  0.5063
 3203WAT      O13517   7.227   6.325   2.788  0.2463  0.0042  0.1458
 3203WAT     H113518   7.209   6.398   2.832 -0.0915  0.6934 -1.0831
 3203WAT     H213519   7.244   6.267   2.851 -1.5375  0.5718  1.2190
 3203WAT    EPW13520   7.227   6.327   2.804  0.3709  0.0980 -0.2170
 3204WAT      O13521   5.884   6.703   2.167 -0.0635 -0.0552  0.4406
 3204WAT     H113522   5.837   6.654   2.113  0.9557 -0.1941 -0.3443
 3204WAT     H213523   5.889   6.780   2.125  2.5603 -0.7869 -0.7975
 3204WAT    EPW13524   5.878   6.707   2.153 -0.1874 -0.1217  0.3063
 3205WAT      O13525   5.831   7.223   2.791  0.4551  0.5023 -0.1383
 3205WAT     H113526   5.811   7.286   2.735  0.3920 -0.3964 -1.1562
 3205WAT     H213527   5.913   7.201   2.769 -0.4431 -1.6214 -1.6509
 3205WAT    EPW13528   5.840   7.229   2.779 -0.7626  0.0438 -0.3791
 3206WAT      O13529   7.599   7.257   2.567 -0.1616 -0.2468 -0.3584
 3206WAT     H113530   7.644   7.296   2.630 -1.0646  0.1502  0.0583
 3206WAT     H213531   7.644   7.277   2.494  1.8535 -2.1124  0.2722
 3206WAT    EPW13532   7.612   7.266   2.565  0.5537 -0.1246 -0.5293
 3207WAT      O13533   5.483   5.219   1.434 -0.0966  0.0693 -0.0838
 3207WAT     H113534   5.494   5.304   1.416  3.7531  0.2187  2.0843
 3207WAT     H213535   5.396   5.211   1.440 -0.6152  4.1930  1.0332
 3207WAT    EPW13536   5.472   5.230   1.432 -0.0880 -0.2894  0.1111
 3208WAT      O13537   4.642   6.220   1.144  0.1024  0.1890  0.4862
 3208WAT     H113538   4.655   6.303   1.167  0.0469  1.5627 -3.5471
 3208WAT     H213539   4.565   6.221   1.104  1.2446 -1.0602 -2.0254
 3208WAT    EPW13540   4.633   6.233   1.141 -0.0510 -0.1145 -0.0808
 3209WAT      O13541   6.771   5.067   3.179  0.2307  0.5018 -0.0507
 3209WAT     H113542   6.731   5.030   3.111 -0.8052 -0.9931  1.3094
 3209WAT     H213543   6.705   5.097   3.228  0.9102  0.6084  0.8188
 3209WAT    EPW13544   6.755   5.066   3.176  0.3850  0.4063 -1.0948
 3210WAT      O13545   7.831   6.658   1.335  0.3933 -0.2383 -0.2099
 3210WAT     H113546   7.838   6.727   1.387  0.0962  0.5728 -1.2011
 3210WAT     H213547   7.862   6.592   1.383  1.4594  0.7276  0.4734
 3210WAT    EPW13548   7.837   6.658   1.350 -0.3265  0.0243  0.2474
 3211WAT      O13549   6.796   6.728   2.877 -0.2146  0.2624 -0.5684
 3211WAT     H113550   6.749   6.755   2.946  1.4050  0.5701  0.4798
 3211WAT     H213551   6.873   6.706   2.913  0.7378  0.5896 -2.3067
 3211WAT    EPW13552   6.800   6.729   2.893  0.0881 -0.6909 -0.0330
 3212WAT      O13553   6.945   6.177   2.645 -0.4388  0.0846 -0.3837
 3212WAT     H113554   6.867   6.139   2.642 -0.0152 -0.8431  0.0554
 3212WAT     H213555   6.990   6.137   2.582 -0.2397  0.4500 -0.4765
 3212WAT    EPW13556   6.940   6.166   2.635 -0.8542 -0.2401 -0.6379
 3213WAT      O13557   5.250   5.808   2.313  0.4886 -0.1418 -0.2942
 3213WAT     H113558   5.255   5.807   2.226  1.1431 -0.5614 -0.2571
 3213WAT     H213559   5.332   5.818   2.339  0.4840 -1.3457  0.2809
 3213WAT    EPW13560   5.263   5.809   2.304 -0.3610 -0.0820  0.0445
 3214WAT      O13561   5.595   5.947   1.338 -0.6184  0.2341  0.7112
 3214WAT     H113562   5.630   6.020   1.306  1.7283 -2.1394 -2.8581
 3214WAT     H213563   5.643   5.930   1.409  0.3369  1.0039  0.2683
 3214WAT    EPW13564   5.607   5.955   1.344 -0.3030  0.0137 -0.1805
 3215WAT      O13565   7.135   4.908   1.792 -0.0786  0.0880  0.7174
 3215WAT     H113566   7.126   4.987   1.757  0.6143  0.2111  0.7953
 3215WAT     H213567   7.143   4.855   1.723  1.7650  0.3883  0.6393
 3215WAT    EPW13568   7.135   4.912   1.777 -0.0724 -0.2115 -0.3843
 3216WAT      O13569   5.687   5.647   2.291 -0.1173  0.0403  0.4218
 3216WAT     H113570   5.681   5.662   2.205  1.9098 -2.0724 -0.1789
 3216WAT     H213571   5.742   5.580   2.297 -0.1080  0.1664  3.4145
 3216WAT    EPW13572   5.694   5.639   2.279 -0.6759 -0.4152 -0.6195
 3217WAT      O13573   4.701   6.154   1.581  0.1564 -0.5518 -0.1497
 3217WAT     H113574   4.680   6.112   1.508 -0.3789 -1.0654  0.2925
 3217WAT     H213575   4.642   6.126   1.639  0.2220  0.2733  0.3360
 3217WAT    EPW13576   4.689   6.144   1.579 -0.4319  0.0372 -0.4657
 3218WAT      O13577   5.660   5.704   1.747  0.0447 -0.6347 -0.4776
 3218WAT     H113578   5.577   5.728   1.745 -0.0198 -0.8368 -0.2597
 3218WAT     H213579   5.702   5.772   1.711 -0.0025  0.3591  1.2372
 3218WAT    EPW13580   5.654   5.718   1.741  0.7257  0.4156 -0.0048
 3219WAT      O13581   4.173   6.290   2.640  0.2587 -0.1541  0.1379
 3219WAT     H113582   4.254   6.277   2.609 -0.2796 -1.0457 -0.9642
 3219WAT     H213583   4.147   6.362   2.599 -0.2861 -1.0817 -1.2060
 3219WAT    EPW13584   4.181   6.299   2.629  0.4576 -0.6208  0.2258
 3220WAT      O13585   4.982   4.750   1.496  0.5451 -0.2158  0.5076
 3220WAT     H113586   5.016   4.675   1.523 -0.3978 -0.3045  1.5278
 3220WAT     H213587   4.899   4.729   1.479  0.0380  0.7540  1.6427
 3220WAT    EPW13588   4.975   4.736   1.498  0.8245 -0.3197  0.3818
 3221WAT      O13589   5.217   5.070   3.667 -0.5782  0.3873  0.3867
 3221WAT     H113590   5.170   5.135   3.701  1.8894  1.3708  2.1914
 3221WAT     H213591   5.209   5.006   3.727 -1.8175 -0.5020 -0.6763
 3221WAT    EPW13592   5.209   5.070   3.681  0.2157 -0.2325  0.5837
 3222WAT      O13593   5.822   3.990   3.040 -0.2143 -0.5855 -0.3330
 3222WAT     H113594   5.868   3.939   3.093 -1.9526 -0.4280  1.4551
 3222WAT     H213595   5.742   3.953   3.041 -0.5597  0.0147 -2.0582
 3222WAT    EPW13596   5.817   3.977   3.048 -0.9971  0.8492  0.5116
 3223WAT      O13597   4.707   7.284   7.438  0.3265 -0.7899 -0.2334
 3223WAT     H113598   4.749   7.360   7.446 -1.6432  0.3108  0.2374
 3223WAT     H213599   4.721   7.262   7.355 -0.6300  1.1210 -0.9718
 3223WAT    EPW13600   4.715   7.292   7.427  0.0883 -0.0407  0.1861
 3224WAT      O13601   6.923   5.791   3.417 -0.2070 -0.3200  0.5173
 3224WAT     H113602   6.845   5.795   3.457 -0.3294 -0.6940  0.3237
 3224WAT     H213603   6.908   5.737   3.349 -0.4077  1.4578 -0.9283
 3224WAT    EPW13604   6.909   5.784   3.413 -0.1963  0.1070 -0.4742
 3225WAT      O13605   5.701   5.787   3.539  0.0354 -0.0942 -0.2887
 3225WAT     H113606   5.779   5.825   3.542  0.2001 -0.4538 -0.0369
 3225WAT     H213607   5.694   5.762   3.455  0.8877 -1.5118  0.0448
 3225WAT    EPW13608   5.711   5.789   3.527  0.3542  0.1635  0.1789
 3226WAT      O13609   7.545   7.216   1.317  0.5871  0.2758  0.1866
 3226WAT     H113610   7.468   7.182   1.295 -0.2868  1.4276  1.3593
 3226WAT     H213611   7.539   7.300   1.292  1.8092  0.1906 -0.5145
 3226WAT    EPW13612   7.533   7.224   1.310 -0.2461  1.0550 -0.2895
 3227WAT      O13613   7.105   7.253   2.470  0.2499  0.1516  0.2361
 3227WAT     H113614   7.181   7.237   2.511 -0.5161  1.0334  2.0926
 3227WAT     H213615   7.108   7.339   2.454 -0.6023  0.3271  0.9261
 3227WAT    EPW13616   7.117   7.263   2.474 -0.4020  0.6620 -0.6290
 3228WAT      O13617   6.053   6.245   2.415  0.1295 -0.3285  0.4515
 3228WAT     H113618   6.127   6.272   2.377  0.4706 -1.5249  0.1980
 3228WAT     H213619   6.001   6.315   2.411  0.9111  0.2398 -0.2615
 3228WAT    EPW13620   6.056   6.259   2.409  1.4235  0.0589 -0.4229
 3229WAT      O13621   6.016   6.884   1.294 -0.2919  0.2793  0.5174
 3229WAT     H113622   5.955   6.946   1.287  0.0002  0.4828 -0.3795
 3229WAT     H213623   6.010   6.842   1.217  1.6868  1.2402 -0.2212
 3229WAT    EPW13624   6.006   6.887   1.281 -0.2240  0.0596  0.6509
 3230WAT      O13625   6.260   5.142   1.855  0.4443  0.2848 -0.3569
 3230WAT     H113626   6.188   5.112   1.815  0.8074 -0.7766 -0.2558
 3230WAT     H213627   6.240   5.224   1.874 -0.0015  0.6190 -2.1065
 3230WAT    EPW13628   6.246   5.149   1.852 -0.0874  0.7498 -0.1166
 3231WAT      O13629   6.442   6.005   3.799 -0.3599 -1.2333 -0.6920
 3231WAT     H113630   6.371   6.013   3.848  0.1620 -1.6215  0.1459
 3231WAT     H213631   6.486   6.078   3.815  0.5465 -2.0296  0.6593
 3231WAT    EPW13632   6.438   6.017   3.808 -0.3403  0.0482 -0.4711
 3232WAT      O13633   7.169   5.689   1.501  0.6205  0.6236 -0.5225
 3232WAT     H113634   7.162   5.717   1.419 -0.5110 -0.3796 -0.7953
 3232WAT     H213635   7.169   5.763   1.548 -1.3813  1.1639 -1.2820
 3232WAT    EPW13636   7.168   5.704   1.496  0.3099 -0.5026  0.3738
 3233WAT      O13637   7.600   7.062   3.615 -0.2605  0.4284 -0.1791
 3233WAT     H113638   7.663   7.088   3.561  2.0147 -1.8556  1.1171
 3233WAT     H213639   7.639   7.061   3.693 -1.0999 -3.1065  0.3898
 3233WAT    EPW13640   7.615   7.065   3.619 -0.5450 -0.6531 -0.6457
 3234WAT      O13641   6.230   5.762   3.260 -0.2312 -0.0692  1.0481
 3234WAT     H113642   6.265   5.765   3.340  1.5939  0.2465  0.2994
 3234WAT     H213643   6.213   5.677   3.248  0.0267 -0.1941  1.5588
 3234WAT    EPW13644   6.233   5.750   3.270 -0.8105  0.0894 -0.7826
 3235WAT      O13645   5.409   6.039   2.920 -0.0133  0.7033 -0.7732
 3235WAT     H113646   5.427   5.957   2.945 -0.3885  0.8357 -0.0315
 3235WAT     H213647   5.487   6.076   2.911  0.1634  0.2129 -1.3034
 3235WAT    EPW13648   5.423   6.032   2.922 -0.0067 -0.0227 -0.0216
 3236WAT      O13649   5.556   3.946   1.678  0.5948  0.5132  0.0808
 3236WAT     H113650   5.515   3.959   1.754  0.0240 -0.3010 -0.0704
 3236WAT     H213651   5.640   3.946   1.701  0.5177  1.8375  0.4557
 3236WAT    EPW13652   5.562   3.948   1.693  0.1548 -0.7633 -0.1965
 3237WAT      O13653   7.899   6.282   0.848 -0.3208  0.4411  0.1838
 3237WAT     H113654   7.926   6.331   0.915  1.1338  1.3517 -1.0112
 3237WAT     H213655   7.932   6.322   0.778 -0.1123 -1.5802 -0.9575
 3237WAT    EPW13656   7.908   6.295   0.847  0.1086  0.1207 -0.5645
 3238WAT      O13657   5.186   7.747   3.040  0.1097 -0.1616 -0.0455
 3238WAT     H113658   5.164   7.737   2.956 -1.6790 -1.8879  0.5511
 3238WAT     H213659   5.184   7.833   3.051 -2.2987  0.0311 -1.1834
 3238WAT    EPW13660   5.182   7.758   3.029 -0.5818 -0.1560  0.4942
 3239WAT      O13661   7.682   7.359   3.420 -0.1050 -0.6137 -0.4694
 3239WAT     H113662   7.621   7.309   3.381 -1.6849 -0.1647  1.2875
 3239WAT     H213663   7.698   7.316   3.494 -1.2911  1.2388  0.9483
 3239WAT    EPW13664   7.675   7.345   3.425  0.1694 -0.4351  0.0729
 3240WAT      O13665   6.907   4.389   2.871 -0.4313 -0.3694 -0.0893
 3240WAT     H113666   6.937   4.432   2.801 -2.0128 -0.3001 -0.7713
 3240WAT     H213667   6.837   4.435   2.894 -0.0238 -0.4896  1.4671
 3240WAT    EPW13668   6.901   4.402   2.864  0.0957  0.2974 -0.0670
 3241WAT      O13669   5.212   5.753   2.809  0.0257 -0.4263 -0.0039
 3241WAT     H113670   5.151   5.703   2.847 -1.0252  0.5726 -0.3109
 3241WAT     H213671   5.285   5.734   2.853 -0.3009 -2.2822 -0.1719
 3241WAT    EPW13672   5.214   5.743   2.821 -0.7414 -0.6224 -0.1240
 3242WAT      O13673   4.897   7.151   2.230  0.4572 -0.6586 -0.3485
 3242WAT     H113674   4.946   7.092   2.272 -0.5430 -0.4183  1.2186
 3242WAT     H213675   4.830   7.104   2.200  0.9855 -0.7623 -1.4308
 3242WAT    EPW13676   4.894   7.135   2.232 -0.0386 -0.0452 -1.3285
 3243WAT      O13677   6.253   6.142   3.184 -0.1760  0.4955 -0.9054
 3243WAT     H113678   6.245   6.228   3.173  0.3192  0.9539  1.6607
 3243WAT     H213679   6.302   6.117   3.116 -1.0766  2.0497 -2.1885
 3243WAT    EPW13680   6.259   6.151   3.172  0.4841  0.1717 -0.2296
 3244WAT      O13681   5.161   5.688   1.128  0.0073 -0.1355 -0.1581
 3244WAT     H113682   5.132   5.763   1.161 -0.4173 -0.7390  0.8892
 3244WAT     H213683   5.108   5.628   1.164 -0.8776 -0.8103 -2.3643
 3244WAT    EPW13684   5.149   5.690   1.138 -0.5900  0.1873 -0.0635
 3245WAT      O13685   5.678   6.473   1.768  0.4357 -0.4131  0.4135
 3245WAT     H113686   5.700   6.548   1.729  0.0321  0.1259  1.1979
 3245WAT     H213687   5.632   6.431   1.707  1.8256 -0.6474 -0.5116
 3245WAT    EPW13688   5.674   6.478   1.753 -0.0736  0.0575 -0.9186
 3246WAT      O13689   7.390   6.247   1.421  0.0757 -0.4531 -0.0981
 3246WAT     H113690   7.453   6.285   1.466 -0.0267 -0.2302 -0.1388
 3246WAT     H213691   7.317   6.277   1.458 -0.0168  0.3515 -0.9052
 3246WAT    EPW13692   7.388   6.257   1.433  0.6835  0.1414  0.0215
 3247WAT      O13693   4.685   6.985   1.243 -0.1699  0.3313  0.4228
 3247WAT     H113694   4.651   7.002   1.164  2.3988  0.0439 -0.8634
 3247WAT     H213695   4.677   7.060   1.286 -0.4347  0.9044 -0.6027
 3247WAT    EPW13696   4.679   6.998   1.237  0.3901 -0.1405 -0.6543
 3248WAT      O13697   5.262   6.041   2.479 -0.6478 -0.5998  0.4476
 3248WAT     H113698   5.239   5.965   2.442  0.6353 -0.8903  0.1837
 3248WAT     H213699   5.291   6.088   2.411  3.9539 -1.9592  1.1154
 3248WAT    EPW13700   5.263   6.037   2.463  0.6899 -0.3509 -0.2012
 3249WAT      O13701   6.194   7.314   2.091  0.6150  0.2903 -0.6826
 3249WAT     H113702   6.152   7.390   2.092  0.0662  0.0443  2.2948
 3249WAT     H213703   6.142   7.263   2.041 -1.3697  0.6977  0.8463
 3249WAT    EPW13704   6.180   7.318   2.084 -0.1343 -0.5067  0.3440
 3250WAT      O13705   8.074   5.229   1.087 -0.0265 -0.2983 -0.2722
 3250WAT     H113706   8.039   5.309   1.083  0.6359 -0.0399 -1.6526
 3250WAT     H213707   8.155   5.243   1.116 -0.4211 -0.6872  1.1032
 3250WAT    EPW13708   8.081   5.243   1.091 -0.1975 -0.0167 -0.1725
 3251WAT      O13709   6.708   6.156   1.621 -0.2980  0.6403  0.2571
 3251WAT     H113710   6.726   6.164   1.706  3.0693  1.2599 -0.3561
 3251WAT     H213711   6.713   6.238   1.592 -0.4035  0.3168 -0.6873
 3251WAT    EPW13712   6.711   6.169   1.630 -0.6712 -0.4406 -1.2107
 3252WAT      O13713   6.663   4.857   3.724  0.4237 -0.2095 -0.2942
 3252WAT     H113714   6.722   4.834   3.664 -0.8642 -0.2673 -1.5757
 3252WAT     H213715   6.616   4.785   3.735  0.0750  0.0751  0.1158
 3252WAT    EPW13716   6.665   4.843   3.717 -0.1296 -0.0781 -0.4734
 3253WAT      O13717   0.533   5.748   2.274  0.4655 -0.1885 -0.6749
 3253WAT     H113718   0.478   5.694   2.233  1.2267 -1.6950  0.2083
 3253WAT     H213719   0.511   5.740   2.358  1.8118 -0.6108 -0.3349
 3253WAT    EPW13720   0.521   5.739   2.280 -0.1833 -0.4317  0.4332
 3254WAT      O13721   5.481   5.496   2.883  0.2899  0.1141 -0.5619
 3254WAT     H113722   5.565   5.472   2.888  0.1783 -0.2169 -0.1935
 3254WAT     H213723   5.476   5.566   2.935 -0.2157 -1.4762  1.6610
 3254WAT    EPW13724   5.492   5.503   2.891  0.0340  0.0968  0.1610
 3255WAT      O13725   7.058   5.992   2.470  0.5454 -0.3623 -0.1679
 3255WAT     H113726   7.048   5.908   2.491  0.6725 -0.7048 -1.3817
 3255WAT     H213727   7.135   5.995   2.429  0.9443  0.5151  0.5946
 3255WAT    EPW13728   7.068   5.980   2.467 -0.7954  0.1838 -0.3052
 3256WAT      O13729   5.020   6.741   2.851 -0.4354  0.5940  0.8435
 3256WAT     H113730   4.951   6.793   2.859 -0.7152  0.3449  0.0214
 3256WAT     H213731   5.022   6.720   2.767 -0.1047 -0.4326  1.0889
 3256WAT    EPW13732   5.010   6.746   2.840  0.3405  0.4312 -0.1282
 3257WAT      O13733   6.545   7.047   1.528 -0.5669  0.0756  0.1890
 3257WAT     H113734   6.533   6.969   1.564  0.4920 -1.0320 -1.6669
 3257WAT     H213735   6.632   7.059   1.533 -0.6766  1.0038  0.1637
 3257WAT    EPW13736   6.556   7.037   1.534  0.2448  0.2438 -0.4611
 3258WAT      O13737   5.862   7.123   1.855 -0.1608  0.6954 -0.6224
 3258WAT     H113738   5.807   7.060   1.880  0.1297  0.6760 -0.0121
 3258WAT     H213739   5.853   7.125   1.768 -0.1458 -0.2079 -0.6525
 3258WAT    EPW13740   5.853   7.114   1.846  0.3594  0.6130 -0.3724
 3259WAT      O13741   5.178   5.388   1.446 -0.4508 -0.3290  0.5228
 3259WAT     H113742   5.111   5.407   1.394  0.1101  0.7228  0.1536
 3259WAT     H213743   5.176   5.301   1.450 -1.3930 -0.3502 -0.0728
 3259WAT    EPW13744   5.168   5.378   1.439  0.8729  0.2817 -0.8303
 3260WAT      O13745   4.083   6.483   7.593  0.1886 -0.6424  0.2652
 3260WAT     H113746   4.071   6.563   7.560  0.6583 -0.6597  0.0437
 3260WAT     H213747   4.125   6.497   7.668  1.9887 -0.7568 -0.6533
 3260WAT    EPW13748   4.087   6.497   7.599 -0.3243 -0.4080 -0.5989
 3261WAT      O13749   5.286   5.280   1.757  0.5474  0.2068 -0.1993
 3261WAT     H113750   5.258   5.290   1.675 -1.0580  0.6411  0.3491
 3261WAT     H213751   5.272   5.358   1.793  3.6711  0.8525 -0.1249
 3261WAT    EPW13752   5.280   5.293   1.750  0.2154  0.4435 -0.0747
 3262WAT      O13753   6.717   5.851   0.593 -0.1409 -0.4877  0.1644
 3262WAT     H113754   6.654   5.805   0.553  2.0430 -3.0836 -0.6388
 3262WAT     H213755   6.763   5.789   0.635  2.6152  1.0320 -0.3762
 3262WAT    EPW13756   6.714   5.835   0.593  0.1102  0.0320  0.2080
 3263WAT      O13757   6.575   5.617   2.197  0.2156 -0.4780 -0.0842
 3263WAT     H113758   6.498   5.653   2.175  0.3390  0.1740  0.5386
 3263WAT     H213759   6.566   5.599   2.281  1.6801  2.1225  0.7252
 3263WAT    EPW13760   6.562   5.620   2.206  1.4903 -0.2359  0.6169
 3264WAT      O13761   6.551   6.496   1.188 -0.0976 -0.0121 -0.0592
 3264WAT     H113762   6.589   6.419   1.200 -1.9090 -0.9916 -0.2081
 3264WAT     H213763   6.553   6.533   1.267  1.8441  0.3493 -0.2348
 3264WAT    EPW13764   6.557   6.490   1.201 -0.1791 -0.6733 -0.6650
 3265WAT      O13765   5.741   4.570   1.783  0.4760 -0.3647 -0.6285
 3265WAT     H113766   5.735   4.508   1.722 -1.7705  0.3279 -1.1952
 3265WAT     H213767   5.660   4.601   1.790  0.9974  0.7200  1.5512
 3265WAT    EPW13768   5.728   4.566   1.775  0.3039  0.4893  0.0564
 3266WAT      O13769   4.743   5.266   1.119  0.2343 -0.8578  0.1937
 3266WAT     H113770   4.788   5.262   1.194  0.3934 -1.0663  0.0868
 3266WAT     H213771   4.803   5.290   1.061  0.0959 -0.6259  0.1453
 3266WAT    EPW13772   4.758   5.269   1.121  0.3679 -0.2352  0.4800
 3267WAT      O13773   6.074   5.311   8.032 -0.5542 -0.1881 -0.1405
 3267WAT     H113774   6.054   5.349   8.108 -1.5915  0.5589 -0.7483
 3267WAT     H213775   6.150   5.348   8.010 -0.9351  0.6501 -0.1114
 3267WAT    EPW13776   6.082   5.322   8.040  0.2306 -0.4108 -0.0081
 3268WAT      O13777   6.140   5.094   1.440  0.4591 -0.4644 -0.1005
 3268WAT     H113778   6.128   5.179   1.453 -0.6381 -0.2945 -1.8309
 3268WAT     H213779   6.224   5.082   1.459  0.2800  0.6614  1.6479
 3268WAT    EPW13780   6.150   5.105   1.445 -0.1967  0.4561  0.0886
 3269WAT      O13781   7.019   6.252   1.691  0.3616  0.0452  0.4283
 3269WAT     H113782   7.023   6.184   1.745 -1.7496  0.6088  1.4224
 3269WAT     H213783   7.045   6.319   1.741  1.0628  0.1973 -0.1186
 3269WAT    EPW13784   7.023   6.252   1.707 -0.3124 -0.2726 -1.1732
 3270WAT      O13785   6.089   6.028   1.184  0.2981 -0.4213  0.0413
 3270WAT     H113786   6.047   5.972   1.132  2.1221 -1.1586 -0.7403
 3270WAT     H213787   6.173   6.004   1.176  1.2510  2.7366 -0.7000
 3270WAT    EPW13788   6.095   6.016   1.175  0.3352 -0.5431  0.0914
 3271WAT      O13789   5.230   5.131   1.477  0.1672  0.0260 -0.9176
 3271WAT     H113790   5.226   5.101   1.396 -2.3164 -0.8437 -0.5733
 3271WAT     H213791   5.182   5.074   1.523  1.4688  0.4963  1.1751
 3271WAT    EPW13792   5.222   5.118   1.472  0.1171 -0.6671  0.5439
 3272WAT      O13793   4.695   0.190   1.337  0.2381  0.2969  0.1436
 3272WAT     H113794   4.699   0.218   1.254  2.6972 -0.5527 -0.1184
 3272WAT     H213795   4.776   0.205   1.367 -0.9463  1.9489  2.9364
 3272WAT    EPW13796   4.708   0.197   1.329  0.6104 -0.1464  0.0186
 3273WAT      O13797   7.125   6.791   1.152 -0.5483  0.7240 -0.2387
 3273WAT     H113798   7.165   6.715   1.167  0.0606  1.0082 -0.3933
 3273WAT     H213799   7.047   6.767   1.121 -0.4214  0.1640 -0.1406
 3273WAT    EPW13800   7.120   6.776   1.150 -0.1695 -0.0982  0.3250
 3274WAT      O13801   3.710   5.853   1.070 -0.2858  0.1045 -0.0163
 3274WAT     H113802   3.795   5.848   1.085 -0.4122  0.1193  0.7538
 3274WAT     H213803   3.689   5.773   1.041  0.1206  0.3365 -0.9876
 3274WAT    EPW13804   3.719   5.840   1.068  0.6800  0.4575  0.1735
 3275WAT      O13805   6.779   7.116   8.019 -0.2899 -0.8929 -0.8505
 3275WAT     H113806   6.813   7.172   7.961 -2.4716  0.9896 -0.4961
 3275WAT     H213807   6.840   7.111   8.081 -0.4143  2.1929 -0.2980
 3275WAT    EPW13808   6.793   7.124   8.019  0.4470 -0.0283  0.5644
 3276WAT      O13809   7.119   7.259   0.326  0.1366  0.5101 -0.1719
 3276WAT     H113810   7.121   7.183   0.283  1.7524  0.4105  0.0190
 3276WAT     H213811   7.174   7.309   0.281 -1.1516  1.7023 -0.4730
 3276WAT    EPW13812   7.128   7.255   0.313  0.4470  0.2249  0.2810
 3277WAT      O13813   4.383   7.699   1.675 -0.1220  0.3795 -0.0186
 3277WAT     H113814   4.450   7.743   1.711  0.1953 -0.6335  0.6915
 3277WAT     H213815   4.422   7.639   1.625 -0.5033  0.0330  0.0907
 3277WAT    EPW13816   4.399   7.696   1.673 -0.0962  0.2867  0.0397
 3278WAT      O13817   6.840   1.328   7.627  0.0660  0.2555  0.6087
 3278WAT     H113818   6.782   1.392   7.612 -0.3848 -0.1026  0.7680
 3278WAT     H213819   6.807   1.261   7.581 -0.3490 -0.3217  1.7155
 3278WAT    EPW13820   6.826   1.328   7.618  0.5421  0.3047  0.1634
 3279WAT      O13821   5.585   5.879   7.595 -0.2458  0.2849 -0.2560
 3279WAT     H113822   5.531   5.919   7.539 -1.3167  0.0959  0.6174
 3279WAT     H213823   5.624   5.818   7.546  0.9276  1.9147 -1.4501
 3279WAT    EPW13824   5.583   5.876   7.579 -0.1961  0.0806 -0.1711
 3280WAT      O13825   5.547   5.492   1.380 -0.1801 -0.0531 -0.1564
 3280WAT     H113826   5.508   5.491   1.302 -1.5425  0.5698  0.4833
 3280WAT     H213827   5.615   5.546   1.369 -0.5124  0.2285 -0.8412
 3280WAT    EPW13828   5.551   5.500   1.367  0.2151 -0.1405 -0.9700
 3281WAT      O13829   5.567   5.807   1.116  0.3368 -0.2282  0.0264
 3281WAT     H113830   5.534   5.727   1.129 -1.6451  0.6584  0.7485
 3281WAT     H213831   5.571   5.841   1.197  1.5485  0.2989 -0.2261
 3281WAT    EPW13832   5.563   5.800   1.130  0.0158 -1.0044 -0.8858
 3282WAT      O13833   7.126   6.331   1.451  0.2348  0.1138  0.3965
 3282WAT     H113834   7.082   6.313   1.524 -0.2597 -1.2058 -0.1889
 3282WAT     H213835   7.075   6.388   1.409 -1.0745 -1.4984 -0.3356
 3282WAT    EPW13836   7.112   6.337   1.455 -0.3687 -0.9301  0.1599
 3283WAT      O13837   4.273   7.319   0.912  0.7419  0.0841  0.6573
 3283WAT     H113838   4.201   7.305   0.958 -0.6498  0.7817 -1.1785
 3283WAT     H213839   4.256   7.393   0.869  3.5432  1.6198  1.9302
 3283WAT    EPW13840   4.260   7.328   0.912  1.4754 -0.4537 -0.6629
 3284WAT      O13841   4.804   5.795   0.765 -0.0984 -0.2657  0.1637
 3284WAT     H113842   4.891   5.801   0.777  1.1930 -3.3102 -4.6922
 3284WAT     H213843   4.774   5.769   0.842  3.4139  0.2398  1.8876
 3284WAT    EPW13844   4.813   5.792   0.778  0.2742  0.2035 -0.1571
 3285WAT      O13845   5.786   5.570   1.951 -0.5162  0.6325  0.1786
 3285WAT     H113846   5.748   5.599   1.878 -0.2986  0.0319 -0.1762
 3285WAT     H213847   5.852   5.625   1.964  0.7966 -0.5025 -1.2979
 3285WAT    EPW13848   5.790   5.582   1.942 -0.5915 -0.0070  0.3761
 3286WAT      O13849   6.563   7.346   1.173 -0.1614 -0.3020 -0.3441
 3286WAT     H113850   6.490   7.366   1.129 -0.0997 -0.2997 -0.4454
 3286WAT     H213851   6.533   7.307   1.245 -0.2630 -0.3025 -0.3856
 3286WAT    EPW13852   6.548   7.343   1.177  0.5185  0.5327  0.2592
 3287WAT      O13853   5.431   5.058   1.042 -0.4052 -0.2313 -0.6320
 3287WAT     H113854   5.497   5.051   1.099 -1.8365  1.2981  1.3893
 3287WAT     H213855   5.433   4.983   0.998  1.8889 -0.7292  0.2109
 3287WAT    EPW13856   5.441   5.046   1.044  0.9158  0.8888  0.2655
 3288WAT      O13857   5.394   5.763   1.741 -0.6695 -0.0606  0.0317
 3288WAT     H113858   5.353   5.739   1.668 -1.5245 -1.3787  0.8865
 3288WAT     H213859   5.348   5.722   1.804  0.6002  0.2710  1.2191
 3288WAT    EPW13860   5.381   5.753   1.740 -0.1997 -0.0038  0.0257
 3289WAT      O13861   5.770   5.371   0.790 -0.0985  0.4654 -0.0587
 3289WAT     H113862   5.847   5.336   0.811 -0.3973 -0.2297 -0.0948
 3289WAT     H213863   5.757   5.431   0.852  0.4573  0.5806 -0.0429
 3289WAT    EPW13864   5.780   5.375   0.802 -0.2496 -0.4777 -0.5291
 3290WAT      O13865   5.854   7.386   1.951 -0.0078 -0.7213  0.4140
 3290WAT     H113866   5.858   7.307   1.914  0.4765 -0.6660  0.3484
 3290WAT     H213867   5.804   7.432   1.896 -1.1737 -1.2677  0.9771
 3290WAT    EPW13868   5.847   7.381   1.938 -0.0337 -0.5504 -0.9660
 3291WAT      O13869   5.160   6.502   1.133  0.6261  0.2858  0.3391
 3291WAT     H113870   5.164   6.583   1.166 -2.3512  0.0735  1.4444
 3291WAT     H213871   5.191   6.452   1.197 -0.1361  0.3427  0.7639
 3291WAT    EPW13872   5.165   6.507   1.147 -0.1124  0.1322  0.5962
 3292WAT      O13873   5.013   5.471   1.240  0.0077 -0.0998  0.0842
 3292WAT     H113874   5.047   5.424   1.175  0.3463 -2.4167  1.7897
 3292WAT     H213875   4.928   5.472   1.223  0.0283 -1.1287 -0.1664
 3292WAT    EPW13876   5.006   5.464   1.228 -1.0498  0.9849  0.4183
 3293WAT      O13877   6.440   5.096   1.482  0.8655 -0.0809  0.1408
 3293WAT     H113878   6.471   5.017   1.460  2.2714  0.2273  0.8914
 3293WAT     H213879   6.482   5.150   1.428  1.2942  0.3044  0.8461
 3293WAT    EPW13880   6.451   5.092   1.471  0.3639  0.4605  0.2434
 3294WAT      O13881   6.584   5.812   1.407 -0.6622 -0.0338  0.0210
 3294WAT     H113882   6.609   5.808   1.491  0.4689 -0.6364 -0.3378
 3294WAT     H213883   6.658   5.803   1.362 -1.2973 -0.0462 -1.0628
 3294WAT    EPW13884   6.598   5.810   1.413 -0.5342  0.4972 -0.2267
 3295WAT      O13885   7.578   4.540   1.123  0.1716  0.0093 -0.1685
 3295WAT     H113886   7.530   4.575   1.187  0.6592 -0.2716  0.3674
 3295WAT     H213887   7.637   4.602   1.106  0.6001 -0.2641  0.2912
 3295WAT    EPW13888   7.580   4.554   1.130 -0.5203 -0.5908  0.2371
 3296WAT      O13889   5.309   6.954   1.275  0.1546  0.2889 -0.2272
 3296WAT     H113890   5.363   6.945   1.208 -0.7198 -0.1159 -0.8953
 3296WAT     H213891   5.280   6.873   1.290  0.4323  0.3536  0.7284
 3296WAT    EPW13892   5.312   6.941   1.267 -0.3849  0.6923  0.6512
 3297WAT      O13893   5.814   5.142   1.837  0.7723  0.1807  0.0360
 3297WAT     H113894   5.886   5.137   1.788 -0.6174 -0.4945 -2.0914
 3297WAT     H213895   5.762   5.197   1.793 -0.9818 -1.3171  0.0944
 3297WAT    EPW13896   5.817   5.149   1.824 -0.6114  0.1079  0.0503
 3298WAT      O13897   6.221   6.940   0.682  0.5031 -0.3149  0.1846
 3298WAT     H113898   6.134   6.946   0.673  0.3577  0.8307  1.8416
 3298WAT     H213899   6.232   6.876   0.739  0.9048 -1.7669 -1.4450
 3298WAT    EPW13900   6.210   6.932   0.689  0.2999  0.9257  0.7428
 3299WAT      O13901   5.508   6.322   1.141 -0.4085 -0.0942  0.3542
 3299WAT     H113902   5.568   6.259   1.147 -1.1023 -0.7925  0.1751
 3299WAT     H213903   5.521   6.356   1.062 -1.2772 -1.3438 -0.3633
 3299WAT    EPW13904   5.519   6.318   1.130  0.1661 -0.3749  0.0399
 3300WAT      O13905   6.182   7.435   7.780 -0.1274 -0.0107 -0.0690
 3300WAT     H113906   6.210   7.376   7.721 -0.3217 -0.3830  0.2042
 3300WAT     H213907   6.095   7.429   7.774 -0.1487  0.4017 -0.1865
 3300WAT    EPW13908   6.173   7.425   7.770 -0.8583  0.3167  0.1897
 3301WAT      O13909   6.139   4.595   0.150 -0.0244 -0.4302 -0.2242
 3301WAT     H113910   6.168   4.677   0.157 -0.4286 -0.1800 -1.3157
 3301WAT     H213911   6.053   4.602   0.162  0.0564 -0.8478  0.6775
 3301WAT    EPW13912   6.131   4.608   0.152  0.6091 -0.2371 -0.1523
 3302WAT      O13913   6.795   6.178   1.910 -0.7786  0.0833 -0.1963
 3302WAT     H113914   6.767   6.260   1.900 -0.9073  0.3386  1.8077
 3302WAT     H213915   6.732   6.140   1.957 -1.2350 -1.5217 -1.9646
 3302WAT    EPW13916   6.782   6.185   1.916  0.5229 -0.9771  0.4151
 3303WAT      O13917   4.515   6.550   1.905  0.0922 -0.2706 -0.2883
 3303WAT     H113918   4.450   6.493   1.916  0.6017 -0.9363 -0.7363
 3303WAT     H213919   4.579   6.503   1.870  0.6629  0.4850 -0.2860
 3303WAT    EPW13920   4.515   6.535   1.902  0.9927  0.5446  0.2038
 3304WAT      O13921   6.950   5.156   0.748  0.0029 -0.1827 -0.6572
 3304WAT     H113922   7.010   5.219   0.740  1.0867 -1.0752  0.0726
 3304WAT     H213923   6.981   5.092   0.698 -0.0522 -0.8497  0.1323
 3304WAT    EPW13924   6.963   5.156   0.740 -0.2309  0.9400  0.1433
 3305WAT      O13925   6.496   5.703   0.823 -0.4753  0.1119 -0.2421
 3305WAT     H113926   6.477   5.681   0.905  1.1345 -2.6035 -0.4875
 3305WAT     H213927   6.429   5.670   0.777 -0.9206  0.8495 -0.1506
 3305WAT    EPW13928   6.483   5.695   0.828  0.3033 -0.2725  0.1389
 3306WAT      O13929   6.596   5.421   0.415 -0.4026 -0.0253  0.5102
 3306WAT     H113930   6.669   5.397   0.456 -0.1953  0.6171  0.5289
 3306WAT     H213931   6.533   5.397   0.471 -0.1478  0.4447  1.0093
 3306WAT    EPW13932   6.598   5.414   0.430 -0.1968 -0.2361 -0.3228
 3307WAT      O13933   7.120   5.237   1.454  0.1335 -0.3202  0.1507
 3307WAT     H113934   7.058   5.297   1.442  1.6452  1.4875  0.9343
 3307WAT     H213935   7.102   5.206   1.534  0.4478  0.4952  0.5500
 3307WAT    EPW13936   7.108   5.241   1.464  0.1220 -0.2532 -0.8385
 3308WAT      O13937   5.469   6.036   1.782  0.4523  0.0402  0.4638
 3308WAT     H113938   5.411   6.051   1.718 -0.1849  0.3519  1.0984
 3308WAT     H213939   5.453   5.953   1.804 -0.6036  0.4760  1.4479
 3308WAT    EPW13940   5.458   6.026   1.776  0.0333 -0.7639 -0.7743
 3309WAT      O13941   7.815   6.085   0.521 -0.0133  0.1291  0.0228
 3309WAT     H113942   7.781   6.070   0.442 -0.3484  2.3957 -0.3127
 3309WAT     H213943   7.754   6.133   0.561  1.1272  0.9580  0.8139
 3309WAT    EPW13944   7.801   6.090   0.515  0.5148 -0.4880  0.1441
 3310WAT      O13945   6.043   5.250   2.402  0.2324  0.7595 -0.6389
 3310WAT     H113946   5.971   5.299   2.397  0.0604  0.5519 -0.3085
 3310WAT     H213947   6.060   5.229   2.319  0.8148  2.0872 -0.8735
 3310WAT    EPW13948   6.035   5.254   2.389  0.1999  0.0837  0.1554
 3311WAT      O13949   7.085   5.731   0.122 -0.1211  0.3779  0.2417
 3311WAT     H113950   7.070   5.817   0.131 -0.6887  0.3662 -0.5000
 3311WAT     H213951   7.109   5.723   0.039  3.0638  0.2356  1.0517
 3311WAT    EPW13952   7.087   5.743   0.111 -0.0562  0.1759  0.3441
 3312WAT      O13953   5.876   5.860   2.447 -0.5772 -0.3075 -0.0869
 3312WAT     H113954   5.876   5.923   2.388 -0.0056 -0.9030 -0.7397
 3312WAT     H213955   5.961   5.851   2.468 -0.8704  0.8719  1.9153
 3312WAT    EPW13956   5.889   5.868   2.441  0.3354 -0.1651 -0.3468
 3313WAT      O13957   7.073   6.795   1.454 -0.0475  0.0756 -0.0035
 3313WAT     H113958   7.121   6.723   1.462 -1.2542 -0.7741 -0.2059
 3313WAT     H213959   7.081   6.816   1.370  0.1080  0.0307 -0.0001
 3313WAT    EPW13960   7.081   6.788   1.443  0.1436 -0.0350 -0.7368
 3314WAT      O13961   7.991   5.736   0.007 -0.0022  0.0565  0.3193
 3314WAT     H113962   7.932   5.735   0.071 -0.1725  0.3868  0.1688
 3314WAT     H213963   7.995   5.820  -0.016 -1.3331 -0.2917 -1.3912
 3314WAT    EPW13964   7.983   5.748   0.013 -0.0789  0.2720  0.1371
 3315WAT      O13965   7.041   5.692   0.804  0.5046  0.2105  0.1139
 3315WAT     H113966   6.955   5.686   0.788  0.5351  0.1534 -0.0340
 3315WAT     H213967   7.066   5.762   0.759  0.1635  1.4971  1.8065
 3315WAT    EPW13968   7.032   5.701   0.795  0.1350  0.5078 -0.0613
 3316WAT      O13969   0.253   6.858   1.280  0.1764  0.6110 -0.1064
 3316WAT     H113970   0.216   6.905   1.216  0.3944 -0.0045 -0.6994
 3316WAT     H213971   0.230   6.776   1.260  1.4109  0.2692 -0.1983
 3316WAT    EPW13972   0.244   6.852   1.267  0.4185 -0.7530 -0.4174
 3317WAT      O13973   7.997   6.417   2.102  0.7317 -0.1671  0.1969
 3317WAT     H113974   7.971   6.356   2.158  0.5343 -0.8106 -0.5804
 3317WAT     H213975   7.927   6.431   2.053  2.0629 -2.9679 -2.8811
 3317WAT    EPW13976   7.983   6.410   2.103 -0.6874 -0.2011 -0.0066
 3318WAT      O13977   4.626   7.031   0.271 -0.1943  0.5493  0.0867
 3318WAT     H113978   4.704   7.063   0.293  0.9274 -1.6848 -0.4344
 3318WAT     H213979   4.605   7.076   0.199  0.6897  1.0283  0.1208
 3318WAT    EPW13980   4.634   7.043   0.264 -0.0717 -0.5994 -0.1991
 3319WAT      O13981   5.253   6.132   0.953  0.1033 -0.0758  0.0025
 3319WAT     H113982   5.254   6.210   0.914 -0.1373  0.0559  0.2553
 3319WAT     H213983   5.336   6.107   0.951  0.1185 -0.0079 -0.4677
 3319WAT    EPW13984   5.265   6.140   0.947  0.2711 -0.2840 -0.0387
 3320WAT      O13985   6.919   4.745   0.798 -0.3430  0.7444 -0.8709
 3320WAT     H113986   6.850   4.776   0.754 -0.7100  1.6033  0.2341
 3320WAT     H213987   6.907   4.777   0.878 -0.7411 -2.3264  0.4174
 3320WAT    EPW13988   6.907   4.755   0.803 -0.4000 -0.9561 -0.0514
 3321WAT      O13989   4.033   6.574   0.487  0.5830 -0.3825 -0.5899
 3321WAT     H113990   4.004   6.639   0.536 -0.6057 -1.4509  0.2046
 3321WAT     H213991   4.114   6.561   0.515  0.4341  0.0091  0.0320
 3321WAT    EPW13992   4.041   6.581   0.498 -0.6539  0.2484 -0.2307
 3322WAT      O13993   5.231   5.415   0.373 -0.1438  0.1435 -0.3602
 3322WAT     H113994   5.195   5.381   0.445  1.7066 -0.9080  0.1280
 3322WAT     H213995   5.313   5.432   0.397 -0.0829  1.8579 -1.6092
 3322WAT    EPW13996   5.238   5.413   0.388  0.2687  0.1978  0.4986
 3323WAT      O13997   6.099   4.702   7.640 -0.1814 -0.0882  0.2331
 3323WAT     H113998   6.077   4.775   7.597  0.0210  0.4358  1.0024
 3323WAT     H213999   6.035   4.693   7.699 -0.5215 -0.8659 -0.2400
 3323WAT    EPW14000   6.086   4.711   7.643 -0.1063 -0.1138 -0.2672
 3324WAT      O14001   7.117   4.976   0.616  0.1268 -0.1387  0.3488
 3324WAT     H114002   7.192   5.013   0.593  1.3021 -1.5013  1.7746
 3324WAT     H214003   7.106   4.912   0.557 -1.1653  1.4199 -1.2356
 3324WAT    EPW14004   7.126   4.972   0.604  0.1042  0.4828  0.4970
 3325WAT      O14005   5.890   5.884   0.984 -0.6728 -0.3451 -0.3248
 3325WAT     H114006   5.936   5.829   0.934  0.4404  0.5622 -0.3313
 3325WAT     H214007   5.841   5.831   1.033  0.5496 -1.3608 -0.1590
 3325WAT    EPW14008   5.890   5.868   0.984  0.2673 -0.3764 -0.7666
 3326WAT      O14009   5.699   6.913   1.229  0.0495 -0.3227  0.4071
 3326WAT     H114010   5.705   6.868   1.155 -0.1276 -2.0142  1.3748
 3326WAT     H214011   5.633   6.874   1.271 -0.2096  0.9551  1.2272
 3326WAT    EPW14012   5.691   6.901   1.224  0.9689  0.3035 -0.3773
 3327WAT      O14013   4.945   6.547   1.812  0.3563  0.0237 -0.0203
 3327WAT     H114014   4.944   6.536   1.899  1.7597 -0.2574 -0.0120
 3327WAT     H214015   5.027   6.526   1.790  0.0451  0.1819 -1.4074
 3327WAT    EPW14016   4.957   6.542   1.822 -0.3617  0.0792 -0.3463
 3328WAT      O14017   6.081   5.751   0.534 -0.3475 -0.4592 -0.1048
 3328WAT     H114018   6.112   5.797   0.467  0.2427 -0.3566  0.2285
 3328WAT     H214019   6.001   5.729   0.509 -1.9465  3.3573  0.9268
 3328WAT    EPW14020   6.074   5.755   0.520  0.3525  0.7538 -0.7620
 3329WAT      O14021   6.139   5.921   0.308  0.1585 -0.2369 -0.0455
 3329WAT     H114022   6.124   5.949   0.227 -0.0285 -2.3760 -0.7917
 3329WAT     H214023   6.207   5.970   0.334 -1.1546  2.0039 -0.6264
 3329WAT    EPW14024   6.147   5.933   0.300 -0.1468 -0.2890 -0.0826
 3330WAT      O14025   6.002   4.940   1.246  0.1744  0.3517  0.2546
 3330WAT     H114026   6.030   4.981   1.317 -0.3782  1.3730 -0.0908
 3330WAT     H214027   5.919   4.967   1.238  0.2472  0.3064 -0.8004
 3330WAT    EPW14028   5.994   4.950   1.255  0.3294 -1.2541  0.3550
 3331WAT      O14029   6.956   7.295   1.244 -0.1946 -0.5884 -0.0209
 3331WAT     H114030   7.007   7.342   1.192 -1.5763  1.2558  0.1938
 3331WAT     H214031   6.988   7.309   1.324  0.1740 -1.0817 -0.0777
 3331WAT    EPW14032   6.968   7.304   1.249 -0.0100 -0.3174  0.2613
 3332WAT      O14033   4.834   5.668   0.496 -0.8084 -0.0731 -0.5200
 3332WAT     H114034   4.915   5.694   0.477 -0.5206 -1.4365 -1.2768
 3332WAT     H214035   4.823   5.694   0.579  0.2747  0.4136 -0.5076
 3332WAT    EPW14036   4.845   5.676   0.505 -0.2662 -0.5093 -0.4500
 3333WAT      O14037   6.016   5.933   1.458  0.2750 -0.6285 -0.0906
 3333WAT     H114038   6.052   5.856   1.442  1.8477 -0.1681  1.0549
 3333WAT     H214039   6.023   5.975   1.381  2.9550 -0.2851  0.2461
 3333WAT    EPW14040   6.022   5.928   1.444  0.1200 -0.5876 -0.4260
 3334WAT      O14041   5.243   4.297   1.530 -0.2622 -0.4945 -0.4606
 3334WAT     H114042   5.199   4.370   1.547 -2.0191 -1.3066 -1.2689
 3334WAT     H214043   5.192   4.255   1.472  1.3884 -1.6914 -1.1254
 3334WAT    EPW14044   5.229   4.301   1.524  0.1763 -0.1033 -0.3541
 3335WAT      O14045   4.718   7.248   0.622 -0.4470 -0.6410  0.2390
 3335WAT     H114046   4.738   7.166   0.601 -1.7615 -0.4965 -1.8186
 3335WAT     H214047   4.633   7.245   0.640 -1.0301  0.5796 -1.9832
 3335WAT    EPW14048   4.708   7.235   0.621 -0.1385  0.0114 -0.2013
 3336WAT      O14049   6.421   6.622   0.147  0.2741 -0.0570 -0.1570
 3336WAT     H114050   6.442   6.645   0.066  3.5409 -0.7772  0.3221
 3336WAT     H214051   6.437   6.695   0.193 -0.0178 -0.1101  0.0270
 3336WAT    EPW14052   6.427   6.636   0.142  0.4300  0.2715 -0.0120
 3337WAT      O14053   7.396   5.647   2.007  0.0218  0.6543  0.2548
 3337WAT     H114054   7.437   5.661   1.931 -1.2381  1.2385 -0.3548
 3337WAT     H214055   7.364   5.725   2.027 -1.5295  0.0632  0.2273
 3337WAT    EPW14056   7.397   5.661   1.998 -0.9646 -0.4360  0.8547
 3338WAT      O14057   5.685   6.536   2.036 -0.2138 -0.3118 -0.7174
 3338WAT     H114058   5.688   6.530   1.949  1.6086 -1.7089 -0.6248
 3338WAT     H214059   5.694   6.453   2.062 -1.7378 -0.0350  0.8099
 3338WAT    EPW14060   5.687   6.523   2.027  0.0578 -0.2224  0.5882
 3339WAT      O14061   4.696   6.402   1.774 -0.3774  0.3069 -0.5649
 3339WAT     H114062   4.768   6.452   1.778 -1.7215  2.3578 -0.4234
 3339WAT     H214063   4.678   6.398   1.689  0.4278 -1.0743 -0.6966
 3339WAT    EPW14064   4.704   6.409   1.762 -0.0977 -1.2890 -0.4129
 3340WAT      O14065   6.136   6.680   2.027  0.1717 -0.1581  0.3165
 3340WAT     H114066   6.082   6.656   2.092 -0.1239  0.3828  0.2823
 3340WAT     H214067   6.203   6.624   2.034  0.3784  0.1938  1.3968
 3340WAT    EPW14068   6.138   6.668   2.038  0.7029 -0.4443  0.4200
 3341WAT      O14069   5.506   6.896   7.283 -0.5954  0.2647 -0.2719
 3341WAT     H114070   5.450   6.924   7.223  1.9150  4.2724 -1.1175
 3341WAT     H214071   5.495   6.953   7.349  0.9958 -0.1258  0.3736
 3341WAT    EPW14072   5.496   6.909   7.284 -0.3123 -0.3944 -0.1720
 3342WAT      O14073   6.012   5.498   1.799  0.5824  0.4682 -0.0689
 3342WAT     H114074   6.061   5.566   1.775 -0.1953  0.6009 -1.3792
 3342WAT     H214075   5.944   5.535   1.839  0.3125  0.4468 -0.5050
 3342WAT    EPW14076   6.010   5.514   1.801  0.0485 -0.7372  0.3845
 3343WAT      O14077   4.860   7.359   3.792  0.1924  0.3426 -0.0250
 3343WAT     H114078   4.886   7.382   3.872  0.7045 -0.6902  0.1153
 3343WAT     H214079   4.779   7.391   3.788  0.6111  1.5043  0.4236
 3343WAT    EPW14080   4.852   7.367   3.803 -0.2627  0.5909 -0.8935
 3344WAT      O14081   5.060   5.245   0.532  0.2877 -0.3910 -0.1134
 3344WAT     H114082   5.079   5.169   0.570  0.1416 -0.4398 -0.1364
 3344WAT     H214083   4.990   5.227   0.484  0.1880 -0.2183 -0.0355
 3344WAT    EPW14084   5.053   5.231   0.531 -0.5138  0.2644 -0.4149
 3345WAT      O14085   5.210   5.607   7.570 -0.1964  0.8959  0.6343
 3345WAT     H114086   5.219   5.545   7.510 -1.0697  2.7398 -1.5284
 3345WAT     H214087   5.283   5.600   7.618  0.0020 -1.3595  0.1152
 3345WAT    EPW14088   5.222   5.597   7.569 -0.4071  0.3045  0.2688
 3346WAT      O14089   6.143   6.087   1.645  0.7429 -0.0990  0.4778
 3346WAT     H114090   6.178   6.149   1.595 -3.1242  1.3798 -0.7619
 3346WAT     H214091   6.104   6.034   1.588  0.7239 -1.5326  1.7492
 3346WAT    EPW14092   6.143   6.088   1.629 -0.3245 -0.3092 -0.3490
 3347WAT      O14093   7.449   6.375   1.180 -0.6307  0.1785 -0.0832
 3347WAT     H114094   7.382   6.425   1.154 -0.4707  1.0398  1.0919
 3347WAT     H214095   7.421   6.340   1.255  0.7652  1.8183  1.2802
 3347WAT    EPW14096   7.435   6.377   1.187  0.4754  0.4832 -0.1974
 3348WAT      O14097   5.837   6.672   1.409  0.0249 -0.3352 -0.2740
 3348WAT     H114098   5.764   6.678   1.363 -0.1175  0.2526  0.0132
 3348WAT     H214099   5.887   6.735   1.376  0.9164 -1.5642 -1.3502
 3348WAT    EPW14100   5.834   6.682   1.397  0.2413  0.6600  0.3461
 3349WAT      O14101   6.411   5.332   1.258  0.2794  0.0279  0.1375
 3349WAT     H114102   6.482   5.325   1.208  2.2481  0.7019  2.6280
 3349WAT     H214103   6.418   5.412   1.293 -0.7702 -0.5307  1.7591
 3349WAT    EPW14104   6.423   5.343   1.256  0.2609 -0.2641 -0.5377
 3350WAT      O14105   6.258   5.103   1.136 -0.3485 -0.4116  0.4047
 3350WAT     H114106   6.284   5.164   1.192  1.8218 -2.1145  1.4033
 3350WAT     H214107   6.179   5.081   1.164 -0.8054  1.2952  0.5305
 3350WAT    EPW14108   6.250   5.109   1.148  0.2520  0.3006  0.6324
 3351WAT      O14109   6.796   6.886   1.354  0.3604  0.7928 -0.3133
 3351WAT     H114110   6.791   6.965   1.318  0.2830  1.2164  0.5922
 3351WAT     H214111   6.831   6.901   1.432 -1.0949  0.1433  0.5066
 3351WAT    EPW14112   6.801   6.900   1.360  0.7211 -0.4119  0.2860
 3352WAT      O14113   5.856   4.509   1.438  0.2223  0.5068  0.0963
 3352WAT     H114114   5.875   4.550   1.364 -0.1942  0.4809 -0.0300
 3352WAT     H214115   5.848   4.574   1.496 -0.2256  0.5974 -0.0572
 3352WAT    EPW14116   5.857   4.524   1.436  0.5967 -0.0875 -0.8675
 3353WAT      O14117   5.820   4.470   2.041 -0.4093  0.1639  0.2477
 3353WAT     H114118   5.806   4.515   1.968 -1.1170 -1.2892 -0.5699
 3353WAT     H214119   5.757   4.496   2.095  0.6537  1.9134  0.7280
 3353WAT    EPW14120   5.809   4.480   2.038 -0.1104 -0.7031 -0.3219
 3354WAT      O14121   6.225   5.775   7.745  0.3852 -1.0220 -0.5624
 3354WAT     H114122   6.185   5.699   7.760  1.2656 -1.6146 -1.1141
 3354WAT     H214123   6.309   5.757   7.757  0.6550 -0.2804 -1.2255
 3354WAT    EPW14124   6.231   5.761   7.749  0.4819  0.3215  0.2883
 3355WAT      O14125   4.428   7.609   0.591  0.8689  0.2626  0.3308
 3355WAT     H114126   4.452   7.679   0.545  2.3970  0.0497  0.7530
 3355WAT     H214127   4.381   7.562   0.535  2.5466  0.0759 -0.9801
 3355WAT    EPW14128   4.424   7.613   0.576  0.5617  0.4788 -0.6192
 3356WAT      O14129   4.883   7.280   0.838 -0.4202 -0.2650  0.2598
 3356WAT     H114130   4.818   7.278   0.780 -0.7775  0.4650  0.6194
 3356WAT     H214131   4.955   7.286   0.789 -0.6505 -0.6393 -0.1274
 3356WAT    EPW14132   4.884   7.280   0.822  0.1660  0.8639  0.6141
 3357WAT      O14133   6.350   5.940   1.097  0.3439  0.0546 -0.7649
 3357WAT     H114134   6.425   5.985   1.093  0.2679  0.2991  0.2653
 3357WAT     H214135   6.317   5.947   1.016  2.7317 -2.4217 -2.0943
 3357WAT    EPW14136   6.356   5.948   1.084 -0.5983  0.2265 -0.0293
 3358WAT      O14137   7.593   5.521   1.329  0.3145  0.6137  0.0697
 3358WAT     H114138   7.643   5.469   1.280 -0.4184  0.3324 -0.3886
 3358WAT     H214139   7.647   5.586   1.352  2.0115 -1.5247  2.7469
 3358WAT    EPW14140   7.608   5.523   1.325  0.4835 -0.1567  0.8345
 3359WAT      O14141   5.842   0.168   7.725  0.5393  0.4136 -0.4572
 3359WAT     H114142   5.807   0.164   7.805  1.6565  2.1633  0.1681
 3359WAT     H214143   5.806   0.100   7.684 -0.8703  0.0847  1.1989
 3359WAT    EPW14144   5.831   0.157   7.731  0.2290  0.4730 -1.0880
 3360WAT      O14145   7.078   5.709   2.356  0.0909 -0.1512 -0.3498
 3360WAT     H114146   7.149   5.743   2.319  1.1603 -2.0151 -0.1252
 3360WAT     H214147   7.026   5.690   2.288 -0.7289  2.2101 -0.4559
 3360WAT    EPW14148   7.081   5.711   2.341 -0.1638  0.3080 -0.6861
 3361WAT      O14149   5.043   5.239   1.042  0.1598 -0.0454 -0.2741
 3361WAT     H114150   5.023   5.184   0.977  0.2761  1.7690 -1.9502
 3361WAT     H214151   5.126   5.259   1.026 -0.1309  1.2599 -0.2452
 3361WAT    EPW14152   5.052   5.234   1.030 -0.4625 -0.1937 -0.1811
 3362WAT      O14153   5.540   4.364   7.460 -0.5374  0.6561  0.2765
 3362WAT     H114154   5.627   4.366   7.457 -0.5632  1.0337 -0.4353
 3362WAT     H214155   5.519   4.293   7.412 -0.6775  1.9646 -1.7500
 3362WAT    EPW14156   5.549   4.354   7.452  0.8057 -0.1074 -0.4960
 3363WAT      O14157   6.607   0.145   2.041  0.1941  0.3283 -0.3225
 3363WAT     H114158   6.538   0.113   1.999 -0.1624 -1.3961  1.4300
 3363WAT     H214159   6.630   0.214   1.993 -2.1873  0.4340 -1.4556
 3363WAT    EPW14160   6.601   0.151   2.028  0.5356  0.0101  0.7427
 3364WAT      O14161   4.898   6.361   0.848  0.1378  0.1067  0.0215
 3364WAT     H114162   4.861   6.437   0.871  0.4576  0.2564  0.0425
 3364WAT     H214163   4.834   6.303   0.859 -0.0858  0.3632  0.0795
 3364WAT    EPW14164   4.883   6.363   0.853 -0.4650 -0.0592  0.1471
 3365WAT      O14165   6.471   7.436   1.687  0.0975  0.0177 -0.5717
 3365WAT     H114166   6.429   7.363   1.662 -1.8052 -0.0276  2.2634
 3365WAT     H214167   6.429   7.500   1.646 -1.1096 -0.2268  0.2416
 3365WAT    EPW14168   6.459   7.434   1.677  0.0357  0.5388 -0.1937
 3366WAT      O14169   7.508   6.505   2.167 -0.0428  0.1536 -0.1392
 3366WAT     H114170   7.539   6.576   2.207 -0.4290  1.8357 -2.6343
 3366WAT     H214171   7.425   6.501   2.194 -0.0516  0.6973 -0.0910
 3366WAT    EPW14172   7.500   6.515   2.177  0.4121 -0.7156  0.6310
 3367WAT      O14173   6.761   5.354   0.704 -0.0094 -0.4796 -0.0372
 3367WAT     H114174   6.708   5.325   0.766  0.3096 -0.9376  0.0299
 3367WAT     H214175   6.812   5.285   0.686 -0.0444 -0.3334 -0.7469
 3367WAT    EPW14176   6.761   5.340   0.710  0.2166  0.2232 -0.6778
 3368WAT      O14177   5.808   5.194   2.110  0.6785  0.8197  0.0668
 3368WAT     H114178   5.810   5.142   2.039  2.0318  0.4526  0.3553
 3368WAT     H214179   5.791   5.138   2.175  1.3218  0.8510  0.2695
 3368WAT    EPW14180   5.806   5.178   2.109 -0.3645 -0.4697  0.0853
 3369WAT      O14181   7.599   6.443   1.792  0.3048 -0.2989  0.3643
 3369WAT     H114182   7.601   6.356   1.797 -1.5822 -0.3366  1.3519
 3369WAT     H214183   7.611   6.459   1.707  0.5207 -1.5205  0.1445
 3369WAT    EPW14184   7.601   6.432   1.780  0.7530 -0.3323  0.6935
 3370WAT      O14185   6.610   7.302   0.451  0.3336 -0.6237  0.0961
 3370WAT     H114186   6.673   7.300   0.391 -0.2709  3.6602 -0.9646
 3370WAT     H214187   6.653   7.307   0.526  1.3525  1.2694 -0.5475
 3370WAT    EPW14188   6.626   7.302   0.453  0.2543 -0.6673  0.4994
 3371WAT      O14189   7.151   6.852   0.533 -0.2817 -0.1234 -0.0143
 3371WAT     H114190   7.201   6.883   0.597  0.6058 -1.0971 -0.1922
 3371WAT     H214191   7.130   6.772   0.561 -2.9016  0.7267  0.6603
 3371WAT    EPW14192   7.156   6.844   0.546  0.2065  0.2752 -0.3729
 3372WAT      O14193   4.898   3.548   0.526  0.2108 -0.4287  0.4460
 3372WAT     H114194   4.896   3.469   0.562  1.3732 -0.1821  1.0959
 3372WAT     H214195   4.975   3.551   0.485  0.6888  0.7190  1.3365
 3372WAT    EPW14196   4.909   3.537   0.525  0.6612 -0.0880 -0.3424
 3373WAT      O14197   4.461   3.702   7.969 -0.2040 -0.0879 -0.6729
 3373WAT     H114198   4.421   3.712   7.892  0.8328 -0.5893 -1.2983
 3373WAT     H214199   4.536   3.663   7.948 -0.9995 -2.7168  0.8387
 3373WAT    EPW14200   4.466   3.697   7.955 -0.2789  0.2192 -0.2378
 3374WAT      O14201   6.051   5.390   0.283  0.5765  0.9776  0.1925
 3374WAT     H114202   6.071   5.335   0.347  0.8431  1.0607  0.1802
 3374WAT     H214203   6.087   5.466   0.307  0.9484  0.9324 -0.2001
 3374WAT    EPW14204   6.059   5.393   0.296  0.7205  0.1273 -0.3642
 3375WAT      O14205   3.527   4.637   6.681  0.5316 -0.3713 -0.9246
 3375WAT     H114206   3.489   4.707   6.645 -0.0392 -0.4216 -0.4416
 3375WAT     H214207   3.611   4.648   6.663  0.1375 -1.6005 -4.4051
 3375WAT    EPW14208   3.533   4.649   6.673 -0.7769 -0.1477 -0.4781
 3376WAT      O14209   3.687   4.601   7.129  0.1574  0.3693 -0.2471
 3376WAT     H114210   3.754   4.656   7.130 -0.3039  1.0054 -1.6761
 3376WAT     H214211   3.710   4.541   7.070  0.4356 -0.7322  0.9306
 3376WAT    EPW14212   3.700   4.600   7.120  0.1296  0.1355 -0.1839
 3377WAT      O14213   5.389   4.680   7.141  0.3924 -0.1577  0.3930
 3377WAT     H114214   5.420   4.693   7.222 -0.9355 -0.1662  0.9261
 3377WAT     H214215   5.313   4.640   7.155  0.7101 -1.2819 -0.9236
 3377WAT    EPW14216   5.382   4.676   7.155 -0.0393  0.3250  0.3612
 3378WAT      O14217   4.314   2.682   0.800  0.4054  0.6877  0.4357
 3378WAT     H114218   4.253   2.642   0.753  0.3832  1.9398 -0.6469
 3378WAT     H214219   4.362   2.723   0.741  1.3139  1.0692  1.4034
 3378WAT    EPW14220   4.312   2.682   0.785  0.0614  0.7314  0.6658
 3379WAT      O14221   5.593   4.007   0.095 -0.2070 -0.1133  0.5006
 3379WAT     H114222   5.601   4.067   0.032 -0.2228 -1.5266 -0.9133
 3379WAT     H214223   5.581   4.055   0.167  3.7834  1.7793  0.2056
 3379WAT    EPW14224   5.593   4.023   0.096  0.5151  1.0194 -0.5058
 3380WAT      O14225   5.126   4.438   8.010  0.0512  0.1688  0.8606
 3380WAT     H114226   5.125   4.353   7.990 -0.0746  0.2535  0.5020
 3380WAT     H214227   5.054   4.448   8.058 -2.0149  0.7643 -2.0704
 3380WAT    EPW14228   5.115   4.427   8.014 -0.2574  0.4665  0.0847
 3381WAT      O14229   4.048   4.628   6.870 -0.4915 -0.3304  0.2553
 3381WAT     H114230   4.032   4.639   6.955 -2.9661 -0.2443 -0.1358
 3381WAT     H214231   4.030   4.544   6.856 -0.6184 -0.2227 -0.2602
 3381WAT    EPW14232   4.043   4.617   6.880  0.3951  0.6178  0.0822
 3382WAT      O14233   5.127   2.118   0.571 -0.2451  0.1255 -0.2176
 3382WAT     H114234   5.043   2.142   0.561  0.1750  3.1325  2.0056
 3382WAT     H214235   5.171   2.194   0.566  2.2158 -1.2079 -0.1668
 3382WAT    EPW14236   5.121   2.133   0.569  0.0996 -0.7098 -0.0501
 3383WAT      O14237   5.519   4.685   7.409 -0.3082 -0.1273  0.1472
 3383WAT     H114238   5.535   4.599   7.415 -0.3263 -0.1318  0.1289
 3383WAT     H214239   5.590   4.716   7.369 -1.2862 -0.4511 -1.9522
 3383WAT    EPW14240   5.532   4.677   7.404  0.4703  0.0474  0.3377
 3384WAT      O14241   4.794   5.825   7.102 -0.2623  0.4009  0.1804
 3384WAT     H114242   4.825   5.846   7.181  2.4013  0.9566 -0.9001
 3384WAT     H214243   4.710   5.847   7.106  0.3179  2.6393  2.1087
 3384WAT    EPW14244   4.786   5.831   7.114  0.3946  0.1604 -0.6031
 3385WAT      O14245   4.840   1.690   7.806 -0.4922 -0.5113 -0.3228
 3385WAT     H114246   4.899   1.746   7.839 -1.6639  1.0418 -0.7311
 3385WAT     H214247   4.842   1.624   7.862 -0.0814  0.5976  1.0459
 3385WAT    EPW14248   4.849   1.689   7.819 -0.2229  0.1188  1.3359
 3386WAT      O14249   4.984   3.665   1.510 -0.1478 -0.6830 -0.4647
 3386WAT     H114250   4.997   3.658   1.596  0.3913  1.3521 -0.3413
 3386WAT     H214251   5.038   3.605   1.477  2.1108  0.6717  0.5107
 3386WAT    EPW14252   4.994   3.655   1.518 -0.4592 -0.0632 -0.3013
 3387WAT      O14253   5.830   5.159   6.879  0.4341 -0.2568 -0.0662
 3387WAT     H114254   5.859   5.116   6.949  2.9365  1.4211  0.0545
 3387WAT     H214255   5.899   5.159   6.826  0.2240  2.6395 -0.4719
 3387WAT    EPW14256   5.844   5.153   6.882 -0.4386 -0.4070  0.1681
 3388WAT      O14257   4.014   2.952   0.634  0.2351  0.0302  0.4261
 3388WAT     H114258   4.040   2.876   0.601 -1.9557 -2.3967  3.5793
 3388WAT     H214259   3.930   2.957   0.610 -0.2857  0.1756  2.1460
 3388WAT    EPW14260   4.005   2.942   0.626  0.1124  0.3965 -0.1659
 3389WAT      O14261   5.292   4.544   0.468  0.0929 -0.1378 -0.3906
 3389WAT     H114262   5.255   4.616   0.435  2.4782  1.2997 -0.1370
 3389WAT     H214263   5.291   4.558   0.554  0.0249 -0.7222 -0.2919
 3389WAT    EPW14264   5.286   4.557   0.476  0.1673  0.1711 -0.3669
 3390WAT      O14265   5.731   3.948   7.663 -0.0243 -0.1512  0.7814
 3390WAT     H114266   5.768   3.869   7.663 -0.6150 -0.4296  0.9717
 3390WAT     H214267   5.705   3.959   7.580 -0.6633 -0.5025  0.9295
 3390WAT    EPW14268   5.733   3.938   7.651 -0.2301  0.2345  0.1916
 3391WAT      O14269   6.070   5.536   7.756  0.0912 -0.0410 -0.6816
 3391WAT     H114270   6.149   5.503   7.741 -0.8075 -2.2810 -0.8107
 3391WAT     H214271   6.017   5.486   7.708 -1.5761  0.3644  0.6376
 3391WAT    EPW14272   6.074   5.524   7.747  0.4543  0.4930  0.1829
 3392WAT      O14273   6.641   4.130   7.713 -0.3817  0.3338 -0.0156
 3392WAT     H114274   6.561   4.102   7.733 -0.0587  0.3055  1.3906
 3392WAT     H214275   6.680   4.136   7.791  1.6827 -1.7588 -0.7808
 3392WAT    EPW14276   6.635   4.127   7.727 -0.1219  0.0313 -0.0461
 3393WAT      O14277   4.589   3.149   6.646 -0.1006  0.5253 -0.4890
 3393WAT     H114278   4.560   3.219   6.689 -1.3381  0.3222 -0.9520
 3393WAT     H214279   4.642   3.184   6.585  0.5412  0.9165  0.2776
 3393WAT    EPW14280   4.593   3.165   6.643 -0.5875  0.2577  0.2055
 3394WAT      O14281   6.402   2.886   1.370  0.4076 -0.2257 -0.1961
 3394WAT     H114282   6.395   2.935   1.442  0.5143  1.8844 -1.5484
 3394WAT     H214283   6.414   2.944   1.307 -0.1353 -1.9813 -2.0136
 3394WAT    EPW14284   6.402   2.902   1.371  0.2039  0.3425 -0.4346
 3395WAT      O14285   4.659   2.796   0.735  0.2194 -0.4203 -0.2891
 3395WAT     H114286   4.647   2.730   0.680  2.1798 -0.6029 -0.5660
 3395WAT     H214287   4.713   2.763   0.796  0.5816  0.6623  0.0059
 3395WAT    EPW14288   4.666   2.782   0.736  0.0602  0.3470 -0.1440
 3396WAT      O14289   5.829   4.490   0.542 -0.3360  0.1663  0.6280
 3396WAT     H114290   5.773   4.550   0.512  0.9562  0.9379 -0.3677
 3396WAT     H214291   5.835   4.509   0.627 -0.4835  1.0155  0.4609
 3396WAT    EPW14292   5.822   4.502   0.551 -0.1901  0.1487  0.2758
 3397WAT      O14293   4.533   3.835   6.810  0.4413  0.3857  0.3231
 3397WAT     H114294   4.451   3.851   6.835  0.1245 -0.4462 -0.1356
 3397WAT     H214295   4.570   3.798   6.879  0.8641  2.0352  1.0212
 3397WAT    EPW14296   4.526   3.832   6.824 -0.0973 -0.3299 -0.3420
 3398WAT      O14297   5.513   3.424   6.138 -0.1791 -0.6772 -0.1393
 3398WAT     H114298   5.461   3.451   6.073 -0.0389 -1.9421 -0.8062
 3398WAT     H214299   5.581   3.478   6.133  0.1468 -1.1706 -1.5132
 3398WAT    EPW14300   5.515   3.436   6.128 -0.5638  0.3343  0.4706
 3399WAT      O14301   5.447   4.808   7.675 -0.4496  0.4798 -0.2351
 3399WAT     H114302   5.495   4.756   7.726 -0.7446  0.4331 -0.0020
 3399WAT     H214303   5.446   4.767   7.598 -3.0967 -1.3792  0.6864
 3399WAT    EPW14304   5.454   4.795   7.671  0.8579 -0.2226 -0.0831
 3400WAT      O14305   5.246   4.834   7.888  0.4869  0.3897  0.2076
 3400WAT     H114306   5.208   4.758   7.866 -2.0023  1.2787  1.0763
 3400WAT     H214307   5.292   4.855   7.817 -0.3647 -0.9659 -0.7926
 3400WAT    EPW14308   5.247   4.826   7.874  0.4578  0.1086 -0.9625
 3401WAT      O14309   5.064   3.157   7.453  0.4080 -0.0279  0.1750
 3401WAT     H114310   5.131   3.110   7.424  1.3725  0.3505  1.6861
 3401WAT     H214311   5.095   3.238   7.456 -0.3486  0.2753  0.2357
 3401WAT    EPW14312   5.078   3.162   7.449 -0.0315 -0.2434 -1.2333
 3402WAT      O14313   4.140   2.481   0.725 -0.3558 -0.3398  0.2075
 3402WAT     H114314   4.195   2.418   0.750  1.5560  1.3244  0.4535
 3402WAT     H214315   4.074   2.474   0.782  0.9606 -0.5871  1.7739
 3402WAT    EPW14316   4.139   2.471   0.737  0.2142  0.1576 -0.3059
 3403WAT      O14317   6.041   5.985   7.853 -0.5363 -0.3369 -0.2267
 3403WAT     H114318   5.977   5.927   7.867 -2.4811  1.2712 -1.8103
 3403WAT     H214319   6.098   5.941   7.804 -1.1665 -1.3747 -0.0654
 3403WAT    EPW14320   6.040   5.970   7.848  0.7180 -0.1230  0.2772
 3404WAT      O14321   6.937   2.960   0.234  0.0009  0.5316  0.1728
 3404WAT     H114322   6.941   2.900   0.297  1.1939 -0.9087 -1.1921
 3404WAT     H214323   6.852   2.964   0.214 -0.1218 -0.5175  0.4628
 3404WAT    EPW14324   6.925   2.952   0.241  0.0319 -0.1018 -0.3279
 3405WAT      O14325   6.551   3.631   7.952  0.3848  0.1951  0.0776
 3405WAT     H114326   6.518   3.665   8.024 -0.6049  0.5469 -0.5266
 3405WAT     H214327   6.505   3.669   7.888  0.1022 -1.3353 -0.6714
 3405WAT    EPW14328   6.540   3.642   7.953  0.4114  0.4220  0.0084
 3406WAT      O14329   5.923   3.246   0.273 -0.5680  0.1212 -0.3647
 3406WAT     H114330   5.891   3.194   0.335  0.9117  1.4871  1.6654
 3406WAT     H214331   5.928   3.324   0.311  1.7385  0.7340 -1.6906
 3406WAT    EPW14332   5.919   3.249   0.287 -0.0390  0.7077  0.1635
 3407WAT      O14333   5.100   3.790   0.417 -0.1110 -0.4724  0.2586
 3407WAT     H114334   5.177   3.827   0.436  0.0027 -0.2187 -0.6485
 3407WAT     H214335   5.043   3.856   0.427  0.0474 -0.1176 -1.0011
 3407WAT    EPW14336   5.103   3.805   0.421  0.3277 -0.0938  0.3110
 3408WAT      O14337   5.173   1.382   0.454 -0.0586  0.0453  0.1589
 3408WAT     H114338   5.127   1.456   0.469  0.2281  0.8135 -2.2765
 3408WAT     H214339   5.253   1.411   0.436  0.1511 -0.9097 -0.4924
 3408WAT    EPW14340   5.178   1.398   0.454  0.2447 -0.8924 -0.6377
 3409WAT      O14341   5.527   4.061   0.374  0.2730  0.5086 -0.4175
 3409WAT     H114342   5.560   4.116   0.434  1.5626 -1.7709  1.1631
 3409WAT     H214343   5.586   3.997   0.372 -2.0590 -1.7858 -0.6563
 3409WAT    EPW14344   5.541   4.060   0.383  0.3323 -0.5220 -0.0912
 3410WAT      O14345   4.088   2.175   1.116 -0.1267  0.4196 -0.1583
 3410WAT     H114346   4.062   2.121   1.179 -1.6777  1.9514  0.5781
 3410WAT     H214347   4.175   2.175   1.123 -0.2203 -0.2366  1.2878
 3410WAT    EPW14348   4.097   2.167   1.126 -0.2737 -0.4687  0.7555
 3411WAT      O14349   6.652   4.047   6.858  0.7941 -0.2579  0.0898
 3411WAT     H114350   6.669   4.128   6.832  1.6722 -0.3268  0.3812
 3411WAT     H214351   6.589   4.056   6.918  1.3932  0.2959  0.6522
 3411WAT    EPW14352   6.645   4.060   6.863  0.1342 -0.3197 -0.4114
 3412WAT      O14353   4.172   3.516   1.724 -0.0113 -0.3153  0.0320
 3412WAT     H114354   4.085   3.507   1.714 -0.2117  0.8749  0.5986
 3412WAT     H214355   4.204   3.455   1.671 -1.1910 -0.5664 -0.4401
 3412WAT    EPW14356   4.164   3.505   1.715 -0.3079  0.0080  0.1696
 3413WAT      O14357   5.212   4.604   7.697  0.0269  0.2967  0.2480
 3413WAT     H114358   5.277   4.551   7.722  0.3719  0.5214 -0.1618
 3413WAT     H214359   5.142   4.552   7.700  0.4635 -0.4046 -0.8244
 3413WAT    EPW14360   5.211   4.588   7.701 -0.0777  0.1831 -0.0475
 3414WAT      O14361   5.254   4.451   7.257 -0.3411 -0.2662  0.0126
 3414WAT     H114362   5.311   4.447   7.323 -2.0146  0.6449  1.5931
 3414WAT     H214363   5.178   4.470   7.296 -1.8223 -1.6433 -1.9652
 3414WAT    EPW14364   5.251   4.453   7.272  0.4844  0.2356  0.1104
 3415WAT      O14365   4.376   4.359   0.397 -0.4662 -0.1974 -0.0744
 3415WAT     H114366   4.385   4.322   0.318 -2.4358  0.8985 -0.8814
 3415WAT     H214367   4.389   4.292   0.452 -0.3830 -1.3033 -1.3619
 3415WAT    EPW14368   4.379   4.343   0.393 -0.4083  0.2655 -0.3458
 3416WAT      O14369   5.956   2.948   6.915  0.4062  0.1856  0.4884
 3416WAT     H114370   6.029   2.970   6.959  1.3311 -0.0189 -0.8685
 3416WAT     H214371   5.954   2.861   6.922  0.7656  0.1196 -0.1633
 3416WAT    EPW14372   5.967   2.939   6.923  0.4667  0.1827 -0.5639
 3417WAT      O14373   5.305   4.186   0.184  0.4521 -0.2991  0.7093
 3417WAT     H114374   5.356   4.255   0.200  1.0038 -0.6611  0.5315
 3417WAT     H214375   5.337   4.125   0.237  0.5219 -0.6796  0.2298
 3417WAT    EPW14376   5.317   4.188   0.194  0.0566  0.0048 -1.0288
 3418WAT      O14377   4.009   4.055   7.078 -0.1668  0.0255 -0.4321
 3418WAT     H114378   4.058   4.048   7.150  0.0803  0.8120 -0.5141
 3418WAT     H214379   3.939   4.099   7.105 -1.2739 -1.8186 -0.1192
 3418WAT    EPW14380   4.006   4.060   7.093 -0.0449 -0.6335 -0.2382
 3419WAT      O14381   5.993   2.899   7.876  0.3099  0.1002  0.2762
 3419WAT     H114382   6.067   2.871   7.838  0.4394  2.3450 -1.3786
 3419WAT     H214383   6.013   2.979   7.903 -0.9220 -0.0712  1.8161
 3419WAT    EPW14384   6.007   2.906   7.874  0.8899 -0.3163  0.0958
 3420WAT      O14385   5.867   3.160   7.934  0.4571  0.2264  0.4687
 3420WAT     H114386   5.876   3.246   7.935 -0.7781  0.3807  0.3209
 3420WAT     H214387   5.799   3.146   7.987 -1.1121 -0.3697 -1.5167
 3420WAT    EPW14388   5.858   3.170   7.942  0.0146 -0.3412  0.3685
 3421WAT      O14389   4.214   3.406   0.669 -0.6028 -0.0111 -0.3218
 3421WAT     H114390   4.290   3.406   0.626 -0.3194  1.7952  0.0949
 3421WAT     H214391   4.192   3.322   0.672  1.7055 -0.6685  0.1084
 3421WAT    EPW14392   4.222   3.394   0.663 -0.0991  0.0776 -0.3916
 3422WAT      O14393   3.890   3.324   0.209  0.2324 -0.5262 -0.2231
 3422WAT     H114394   3.914   3.340   0.291  1.5670 -1.6102 -0.3670
 3422WAT     H214395   3.917   3.395   0.165 -2.1430  0.9434  0.4807
 3422WAT    EPW14396   3.897   3.337   0.214 -0.0743 -0.0436 -0.2621
 3423WAT      O14397   4.791   3.854   8.015  0.5279  0.0214  0.2270
 3423WAT     H114398   4.742   3.917   8.051  0.4856 -1.0070  2.0946
 3423WAT     H214399   4.865   3.857   8.060  0.2104 -1.7830  0.9408
 3423WAT    EPW14400   4.794   3.864   8.027 -0.6414  0.3186 -0.6033
 3424WAT      O14401   4.353   4.751   0.193 -0.0824 -0.1473 -0.0259
 3424WAT     H114402   4.367   4.832   0.220  2.0039 -0.4064 -0.2115
 3424WAT     H214403   4.329   4.709   0.265  0.2562  0.3172  0.3627
 3424WAT    EPW14404   4.351   4.757   0.208 -0.8933  0.0781 -0.0392
 3425WAT      O14405   5.196   3.882   7.079 -0.1164  0.0983  0.1170
 3425WAT     H114406   5.218   3.965   7.063  1.1966 -0.3525 -0.6294
 3425WAT     H214407   5.243   3.837   7.020 -1.3596 -1.1279  0.0098
 3425WAT    EPW14408   5.206   3.887   7.068 -0.1881 -0.0777  0.0252
 3426WAT      O14409   6.042   4.036   0.561 -0.2418 -0.4343  0.5568
 3426WAT     H114410   6.087   4.035   0.636 -1.3736  1.4971  1.3507
 3426WAT     H214411   5.963   4.008   0.584 -0.1986 -1.2614 -0.2562
 3426WAT    EPW14412   6.037   4.032   0.576  0.0960 -1.1448 -0.9022
 3427WAT      O14413   6.733   4.507   6.928  0.1177  0.1195 -0.0838
 3427WAT     H114414   6.737   4.593   6.943  0.3042  0.0446  0.3102
 3427WAT     H214415   6.799   4.475   6.974 -0.1514 -0.2731  0.0395
 3427WAT    EPW14416   6.743   4.515   6.937 -0.5142 -0.6294 -0.2773
 3428WAT      O14417   5.325   3.942   1.494  0.1734 -0.1579 -0.1163
 3428WAT     H114418   5.285   3.892   1.553  0.4371 -0.8894 -0.5476
 3428WAT     H214419   5.384   3.986   1.542 -2.0123  2.0045  0.7757
 3428WAT    EPW14420   5.328   3.941   1.510  0.4089  0.0141  0.3861
 3429WAT      O14421   5.032   3.793   0.109  0.2540  0.1745  0.1079
 3429WAT     H114422   5.107   3.757   0.083  0.2638  0.7711 -0.7308
 3429WAT     H214423   5.046   3.810   0.194  0.5103 -1.0829  0.3350
 3429WAT    EPW14424   5.046   3.790   0.118 -0.1088  0.2153 -0.3351
 3430WAT      O14425   4.999   4.272   7.295 -0.7551 -0.2568 -0.0300
 3430WAT     H114426   5.074   4.254   7.336 -1.4846 -0.9259  1.0298
 3430WAT     H214427   5.019   4.261   7.211  0.5025  0.2126  0.1867
 3430WAT    EPW14428   5.013   4.268   7.288  0.2771  0.0114  0.2337
 3431WAT      O14429   6.811   4.128   7.925 -0.6556  0.3160 -0.2633
 3431WAT     H114430   6.842   4.059   7.884 -3.5033 -1.2174 -0.1133
 3431WAT     H214431   6.806   4.102   8.009 -0.8265  1.0503 -0.0322
 3431WAT    EPW14432   6.815   4.114   7.932 -0.1622 -0.0601  0.3059
 3432WAT      O14433   0.140   3.369   7.586  0.1327  0.1138 -0.0870
 3432WAT     H114434   0.134   3.311   7.650  3.9446 -1.4421 -0.8582
 3432WAT     H214435   0.094   3.333   7.521  0.8584 -1.1591  0.0705
 3432WAT    EPW14436   0.132   3.355   7.586 -0.6734 -0.0751  0.4837
 3433WAT      O14437   6.511   4.705   0.383  0.1113 -0.2196  0.3415
 3433WAT     H114438   6.561   4.670   0.321 -2.5174 -0.6847 -1.6856
 3433WAT     H214439   6.470   4.636   0.418 -0.6963  0.3144  0.4664
 3433WAT    EPW14440   6.512   4.690   0.379  0.0231  0.4232 -0.7393
 3434WAT      O14441   5.440   2.383   0.110 -0.1252 -0.0798 -0.8496
 3434WAT     H114442   5.425   2.450   0.055 -0.1845  1.9420  1.4613
 3434WAT     H214443   5.518   2.403   0.146  0.4311 -1.9158 -0.9398
 3434WAT    EPW14444   5.450   2.396   0.107 -0.7162  0.0904 -0.9388
 3435WAT      O14445   5.588   4.640   0.422 -0.0553 -0.5061  0.5063
 3435WAT     H114446   5.552   4.706   0.466  0.4062 -0.2413  0.4891
 3435WAT     H214447   5.520   4.598   0.388 -0.2693  1.5083 -1.7738
 3435WAT    EPW14448   5.573   4.643   0.424  0.3615  0.3894 -0.2431
 3436WAT      O14449   5.893   4.560   0.802  0.8826  0.0216  0.9069
 3436WAT     H114450   5.942   4.499   0.839  0.0160  0.1465  2.3480
 3436WAT     H214451   5.816   4.552   0.842  0.6243  1.7706  0.8534
 3436WAT    EPW14452   5.888   4.550   0.813 -0.2567  1.0318 -0.2284
 3437WAT      O14453   4.514   1.853   1.308  0.6712 -0.0283 -0.1844
 3437WAT     H114454   4.530   1.876   1.226  0.0670 -1.0748 -0.6133
 3437WAT     H214455   4.522   1.928   1.352  0.1225  0.7346 -1.3196
 3437WAT    EPW14456   4.517   1.868   1.302 -0.3746 -0.1647 -0.5392
 3438WAT      O14457   4.207   3.626   7.158  0.2211  0.2266  0.3113
 3438WAT     H114458   4.230   3.543   7.143 -0.4472 -0.3750  2.2701
 3438WAT     H214459   4.283   3.668   7.161  0.6030 -0.4112 -0.1728
 3438WAT    EPW14460   4.221   3.620   7.156  0.2060 -0.6629  0.9124
 3439WAT      O14461   4.942   3.912   7.469  0.2682  0.2650 -0.0986
 3439WAT     H114462   4.917   3.916   7.552 -0.8948 -0.2903 -0.3933
 3439WAT     H214463   4.870   3.935   7.425  0.5332 -0.5191 -0.9837
 3439WAT    EPW14464   4.927   3.916   7.474  0.1119  0.5128 -0.2850
 3440WAT      O14465   6.623   3.061   0.424  0.0232 -0.2009 -0.2776
 3440WAT     H114466   6.701   3.098   0.441 -0.2211  1.6134 -2.5254
 3440WAT     H214467   6.567   3.113   0.466 -0.1059 -0.0372 -0.6483
 3440WAT    EPW14468   6.626   3.074   0.433  0.6284 -0.0787  0.5121
 3441WAT      O14469   4.492   3.383   6.727  0.2011 -0.4939  0.0522
 3441WAT     H114470   4.550   3.419   6.782 -0.4736  0.7132  0.0021
 3441WAT     H214471   4.416   3.394   6.768 -0.4090  1.0057 -1.3425
 3441WAT    EPW14472   4.489   3.390   6.741 -0.6697 -0.1717  0.5036
 3442WAT      O14473   5.145   3.850   0.761  0.0293  0.2923 -0.6477
 3442WAT     H114474   5.184   3.910   0.811 -0.0650  1.0033 -1.3988
 3442WAT     H214475   5.172   3.870   0.680 -1.8577  0.8246 -1.2107
 3442WAT    EPW14476   5.155   3.862   0.756 -0.4661  0.9946 -0.3388
 3443WAT      O14477   7.174   4.402   0.361 -0.0070 -0.4154  0.0803
 3443WAT     H114478   7.230   4.408   0.428 -0.2119 -0.1432  0.2339
 3443WAT     H214479   7.206   4.337   0.313 -0.3684 -1.2665  0.9401
 3443WAT    EPW14480   7.187   4.393   0.364  0.1857 -0.2881  0.0732
 3444WAT      O14481   5.309   3.666   7.685  0.0787 -0.1692 -0.2600
 3444WAT     H114482   5.324   3.663   7.599  0.5609 -0.5630 -0.1694
 3444WAT     H214483   5.225   3.642   7.692  0.0599 -0.2119 -0.6190
 3444WAT    EPW14484   5.298   3.662   7.673 -0.6615 -0.4303 -0.9239
 3445WAT      O14485   6.065   3.521   7.119  0.5338 -0.1683 -0.8705
 3445WAT     H114486   6.123   3.556   7.173  0.5751 -1.9766  0.3532
 3445WAT     H214487   6.091   3.548   7.040  1.6590  0.9086 -0.1558
 3445WAT    EPW14488   6.078   3.530   7.115 -0.3658 -0.3412  0.0119
 3446WAT      O14489   6.555   4.900   1.325 -0.7029  0.2543  0.2495
 3446WAT     H114490   6.619   4.954   1.299  1.0376 -1.3897  0.8621
 3446WAT     H214491   6.513   4.881   1.251  0.3124  0.3975 -0.3872
 3446WAT    EPW14492   6.558   4.905   1.310 -0.0807  0.2385 -0.2203
 3447WAT      O14493   5.163   4.786   0.426 -0.5684 -0.6394  0.1534
 3447WAT     H114494   5.199   4.855   0.465 -0.1400 -0.6562 -0.2029
 3447WAT     H214495   5.101   4.820   0.376 -0.6659 -0.5568  0.3302
 3447WAT    EPW14496   5.159   4.801   0.425 -0.0651 -0.2347  0.0136
 3448WAT      O14497   5.253   3.576   0.852  0.3688  0.6564  0.4653
 3448WAT     H114498   5.211   3.647   0.824 -1.9807  0.0961  2.2370
 3448WAT     H214499   5.281   3.598   0.932 -0.0053 -0.2496  0.8601
 3448WAT    EPW14500   5.251   3.589   0.859  0.1383 -0.1445 -0.7573
 3449WAT      O14501   6.236   5.266   0.916 -0.4038 -0.2114 -0.1325
 3449WAT     H114502   6.309   5.240   0.876 -0.3730  1.1735 -1.0356
 3449WAT     H214503   6.230   5.212   0.984  0.2834 -1.7678 -1.2375
 3449WAT    EPW14504   6.246   5.254   0.920 -0.3671 -0.0292 -0.5497
 3450WAT      O14505   6.840   4.663   7.358 -0.0855  0.1924  0.4847
 3450WAT     H114506   6.894   4.598   7.336 -1.6743 -1.0154 -0.0057
 3450WAT     H214507   6.869   4.730   7.310  1.4327 -0.1704  0.8140
 3450WAT    EPW14508   6.853   4.663   7.347 -0.1677  0.1005 -0.0696
 3451WAT      O14509   6.098   3.131   0.565 -0.2910 -0.5799 -0.5268
 3451WAT     H114510   6.102   3.064   0.622  2.8728 -1.5615 -1.7230
 3451WAT     H214511   6.103   3.201   0.617  1.8819 -1.4293  0.5500
 3451WAT    EPW14512   6.099   3.131   0.581  0.6875  0.8032  0.1340
 3452WAT      O14513   5.936   3.139   6.688 -0.2243  0.1071  0.2500
 3452WAT     H114514   5.971   3.205   6.734 -1.1844  0.8936 -0.1181
 3452WAT     H214515   5.957   3.069   6.735  0.7714  0.6735  0.6851
 3452WAT    EPW14516   5.944   3.139   6.702  0.4831 -1.0900  0.1642
 3453WAT      O14517   5.967   3.922   0.207  0.3871  0.3381  0.1351
 3453WAT     H114518   5.898   3.919   0.260  0.3925 -0.5625  0.0923
 3453WAT     H214519   6.035   3.908   0.261  0.5236  0.9765  0.1372
 3453WAT    EPW14520   5.967   3.920   0.223  0.0913 -0.9503 -0.4758
 3454WAT      O14521   7.303   4.434   7.310  0.2788  0.1503  0.5354
 3454WAT     H114522   7.333   4.447   7.391 -0.0827  0.0428  0.6920
 3454WAT     H214523   7.315   4.348   7.297  0.0743  0.1126  0.5878
 3454WAT    EPW14524   7.309   4.423   7.320  0.2565 -0.7297 -0.2401
 3455WAT      O14525   5.799   4.703   7.380  0.3776  0.2109 -0.0407
 3455WAT     H114526   5.803   4.659   7.455 -1.1871 -1.0004 -0.6138
 3455WAT     H214527   5.861   4.765   7.389 -1.8603  2.3063  3.5904
 3455WAT    EPW14528   5.809   4.706   7.393  0.5832 -0.5129  0.1752
 3456WAT      O14529   6.055   2.669   7.358 -0.2452  0.7967  0.4152
 3456WAT     H114530   6.008   2.613   7.405  0.2213  0.0244 -0.0037
 3456WAT     H214531   6.116   2.618   7.322 -0.7522  1.3149 -1.2496
 3456WAT    EPW14532   6.057   2.653   7.360 -0.1934 -0.4578 -0.8399
 3457WAT      O14533   5.424   3.921   7.755 -0.1139  0.2603  0.2000
 3457WAT     H114534   5.509   3.937   7.768  0.0954 -0.2851 -0.3946
 3457WAT     H214535   5.424   3.842   7.719 -0.7157  1.1591 -1.9044
 3457WAT    EPW14536   5.437   3.911   7.752  0.1022 -0.2969 -0.3012
 3458WAT      O14537   6.839   3.148   7.896 -0.0283  0.0439  0.1659
 3458WAT     H114538   6.913   3.114   7.866  0.0540 -0.1986  0.6266
 3458WAT     H214539   6.865   3.195   7.965 -0.0504  1.6089 -0.8311
 3458WAT    EPW14540   6.854   3.150   7.902  0.3655 -0.1081 -0.5404
 3459WAT      O14541   5.295   4.181   7.755  0.0767  0.0504  0.2071
 3459WAT     H114542   5.315   4.096   7.755 -0.5029 -0.1268 -1.6451
 3459WAT     H214543   5.230   4.186   7.814 -2.5465 -1.5757 -2.2674
 3459WAT    EPW14544   5.288   4.169   7.764 -0.4469 -0.1556 -0.0038
 3460WAT      O14545   6.502   5.264   0.809 -0.7646  0.0178  0.2377
 3460WAT     H114546   6.532   5.264   0.891 -0.2563  1.6821  0.0912
 3460WAT     H214547   6.492   5.179   0.790  1.5823 -0.5435  1.1383
 3460WAT    EPW14548   6.505   5.251   0.818 -0.4403  0.8168  0.5644
 3461WAT      O14549   5.357   4.595   0.030  0.0255 -0.4015  0.2905
 3461WAT     H114550   5.326   4.671   0.057 -0.5720 -0.9819  1.2981
 3461WAT     H214551   5.287   4.552   0.002  0.1103 -1.1496  1.1708
 3461WAT    EPW14552   5.342   4.600   0.030  0.0832 -0.7916 -0.2955
 3462WAT      O14553   5.987   4.807   0.763 -0.3169  0.5233 -0.5319
 3462WAT     H114554   5.918   4.835   0.718  0.3932 -0.9731 -2.7007
 3462WAT     H214555   5.957   4.738   0.806 -0.2049 -0.2040 -1.5761
 3462WAT    EPW14556   5.973   4.801   0.763 -0.3380  0.0912 -0.0694
 3463WAT      O14557   4.674   3.232   7.091 -0.5094  0.0968  0.1386
 3463WAT     H114558   4.742   3.192   7.127 -0.8577  0.8782  1.7319
 3463WAT     H214559   4.708   3.273   7.022  0.5994  0.3475  0.8200
 3463WAT    EPW14560   4.689   3.232   7.086 -0.2591  1.0719 -0.4849
 3464WAT      O14561   6.301   5.166   7.513 -0.2298  0.2460 -0.2319
 3464WAT     H114562   6.234   5.113   7.497 -0.4474  0.8186 -1.2974
 3464WAT     H214563   6.264   5.238   7.545  0.0417 -0.1156  0.9488
 3464WAT    EPW14564   6.286   5.169   7.515  0.2132  0.4556 -0.3045
 3465WAT      O14565   5.481   4.703   6.684 -0.0361  0.2551  0.0957
 3465WAT     H114566   5.396   4.706   6.666  0.3546 -1.3674 -2.6001
 3465WAT     H214567   5.506   4.786   6.678 -1.0613  0.4962 -1.5674
 3465WAT    EPW14568   5.472   4.716   6.680  0.3836 -0.3659  0.0582
 3466WAT      O14569   4.460   3.392   0.540 -0.0857 -0.2417  0.2405
 3466WAT     H114570   4.516   3.423   0.480  0.4141  0.5599  1.0895
 3466WAT     H214571   4.460   3.306   0.525  1.1683 -0.2334  0.0237
 3466WAT    EPW14572   4.468   3.384   0.529 -0.6876  0.0395  0.2162
 3467WAT      O14573   4.385   5.001   6.513  0.5497 -0.0094 -0.9077
 3467WAT     H114574   4.421   4.922   6.518  0.9108  0.2238  2.2883
 3467WAT     H214575   4.434   5.042   6.453  1.7488 -1.5423 -1.0369
 3467WAT    EPW14576   4.398   4.996   6.505 -0.4936 -0.2489 -0.3190
 3468WAT      O14577   5.922   3.736   0.866  0.1883  0.3515  0.0915
 3468WAT     H114578   5.881   3.813   0.863 -2.5849 -0.9984 -0.4308
 3468WAT     H214579   5.926   3.718   0.952  2.4492  1.7544  0.3521
 3468WAT    EPW14580   5.916   3.744   0.878 -0.3059 -0.8023 -0.4798
 3469WAT      O14581   6.092   5.043   0.058  0.1047  0.2225 -0.1773
 3469WAT     H114582   6.078   5.119   0.016 -0.9766  1.0615  1.5561
 3469WAT     H214583   6.155   5.063   0.115 -1.6128  0.4918  1.7367
 3469WAT    EPW14584   6.099   5.057   0.060 -0.1698  1.4792 -0.4949
 3470WAT      O14585   4.655   4.665   7.005  0.4949 -0.3223 -0.0063
 3470WAT     H114586   4.635   4.746   6.981 -0.5499 -0.5973 -0.1030
 3470WAT     H214587   4.657   4.668   7.092 -1.3029 -0.5725  0.0691
 3470WAT    EPW14588   4.652   4.677   7.014  0.4002 -0.1657  0.5455
 3471WAT      O14589   6.705   4.292   6.678 -0.0549  0.2367  0.1090
 3471WAT     H114590   6.748   4.281   6.602 -1.9645  0.7582 -1.1321
 3471WAT     H214591   6.739   4.365   6.710 -0.1355  0.7651 -0.9567
 3471WAT    EPW14592   6.716   4.301   6.671 -0.0685 -0.0484 -0.0090
 3472WAT      O14593   5.614   3.285   7.246 -0.1250  0.4428  0.5345
 3472WAT     H114594   5.632   3.275   7.331 -0.5826 -1.6203  0.4450
 3472WAT     H214595   5.692   3.282   7.208 -0.0137 -0.1560  0.7888
 3472WAT    EPW14596   5.628   3.283   7.253 -1.3299 -0.8052  0.9139
 3473WAT      O14597   6.217   3.608   8.042 -0.4525 -0.2855  0.2828
 3473WAT     H114598   6.244   3.527   8.062  2.5609  0.8734  1.5043
 3473WAT     H214599   6.160   3.626   8.106  0.3507 -0.7695  1.1711
 3473WAT    EPW14600   6.212   3.598   8.055 -0.6480 -0.0074 -0.4967
 3474WAT      O14601   4.852   2.704   0.384  0.6820  0.2965 -0.1466
 3474WAT     H114602   4.907   2.638   0.369  0.4991 -0.4105  1.9912
 3474WAT     H214603   4.786   2.666   0.426  0.3601  1.7516  0.7169
 3474WAT    EPW14604   4.850   2.689   0.388 -0.1851  1.3949 -1.1015
 3475WAT      O14605   5.840   4.365   7.457 -0.4657  0.0858 -0.4199
 3475WAT     H114606   5.895   4.403   7.401  1.0075  0.1767  1.0127
 3475WAT     H214607   5.870   4.390   7.535 -1.4936 -1.3023  0.4635
 3475WAT    EPW14608   5.852   4.374   7.460  0.0722 -0.1635  0.6435
 3476WAT      O14609   5.504   4.878   0.574  0.0886 -0.0819 -0.0072
 3476WAT     H114610   5.484   4.950   0.529  0.7744 -0.2671 -0.6262
 3476WAT     H214611   5.441   4.873   0.634 -1.5508 -0.4302 -1.6450
 3476WAT    EPW14612   5.492   4.888   0.576  0.4527 -0.0332  0.6080
 3477WAT      O14613   4.719   5.603   7.258  0.0050 -0.5451 -0.0339
 3477WAT     H114614   4.742   5.664   7.199  0.1412  0.1440  0.7205
 3477WAT     H214615   4.635   5.589   7.242 -0.1205  0.1165  0.0238
 3477WAT    EPW14616   4.710   5.610   7.247  0.1900  0.0003 -1.2436
 3478WAT      O14617   6.433   3.605   0.664  0.1300 -0.3147 -0.3079
 3478WAT     H114618   6.405   3.568   0.590 -0.1369  0.2437 -0.4928
 3478WAT     H214619   6.499   3.553   0.689  0.0307 -0.6786 -0.7777
 3478WAT    EPW14620   6.439   3.592   0.656 -1.1524  0.1558  0.2371
 3479WAT      O14621   7.472   4.482   7.561 -0.2283 -0.3895 -0.2919
 3479WAT     H114622   7.552   4.502   7.587  0.3996 -1.2894 -1.4394
 3479WAT     H214623   7.450   4.414   7.611  0.2082 -0.9026 -0.7932
 3479WAT    EPW14624   7.480   4.475   7.572  0.1075 -0.1933 -0.3157
 3480WAT      O14625   5.557   4.612   7.881 -0.1329 -0.2949 -0.4749
 3480WAT     H114626   5.552   4.541   7.831 -1.2521 -0.4949 -0.1153
 3480WAT     H214627   5.487   4.606   7.933  1.1476 -0.2564  1.3596
 3480WAT    EPW14628   5.546   4.601   7.881 -0.0383  0.0915  0.2226
 3481WAT      O14629   6.197   3.875   0.377  0.1634 -0.2408  0.2296
 3481WAT     H114630   6.235   3.953   0.386  1.5369 -0.9061  0.4616
 3481WAT     H214631   6.159   3.862   0.454  0.9348 -0.2873  0.6199
 3481WAT    EPW14632   6.197   3.885   0.389  0.2028  0.3315 -0.4921
 3482WAT      O14633   5.183   3.384   7.397  0.2561  0.7834 -0.0197
 3482WAT     H114634   5.130   3.449   7.372  0.2153  1.2892  1.3253
 3482WAT     H214635   5.258   3.424   7.416  1.6672 -0.0697 -3.1799
 3482WAT    EPW14636   5.186   3.399   7.396 -0.7307  0.3098  0.0677
 3483WAT      O14637   6.477   4.366   7.129 -0.0273 -0.4570 -0.0937
 3483WAT     H114638   6.564   4.359   7.123  0.0535 -0.5938  0.9570
 3483WAT     H214639   6.465   4.403   7.207 -0.8923  0.4994 -0.6519
 3483WAT    EPW14640   6.488   4.370   7.140 -0.3510  0.8157 -0.3802
 3484WAT      O14641   4.499   5.283   6.346 -0.3273 -0.1334 -0.9235
 3484WAT     H114642   4.562   5.258   6.401  0.5737  1.1405 -1.3407
 3484WAT     H214643   4.535   5.273   6.267 -0.9540 -0.1687 -1.2117
 3484WAT    EPW14644   4.513   5.278   6.342  0.5483  1.0049  0.4407
 3485WAT      O14645   5.195   4.022   6.571 -0.6095 -0.2184 -0.6142
 3485WAT     H114646   5.187   4.102   6.537 -0.0960 -0.1138 -0.4940
 3485WAT     H214647   5.114   4.001   6.594 -0.6478  0.5617  0.0129
 3485WAT    EPW14648   5.182   4.031   6.569 -0.1485 -0.0118 -0.2268
 3486WAT      O14649   4.137   3.312   5.042 -0.2708  0.7171  0.1932
 3486WAT     H114650   4.095   3.356   5.104  0.6710  0.3515  1.1111
 3486WAT     H214651   4.103   3.344   4.968 -1.1030  1.4657  0.8746
 3486WAT    EPW14652   4.126   3.323   5.040  0.7676 -0.3708  0.6032
 3487WAT      O14653   4.336   5.256   5.996 -0.0367 -0.6552 -0.1093
 3487WAT     H114654   4.419   5.259   6.021  0.4640  1.3870 -1.6835
 3487WAT     H214655   4.337   5.203   5.926  0.7129  1.8729 -2.1888
 3487WAT    EPW14656   4.348   5.248   5.989 -0.4153 -0.1104  0.7566
 3488WAT      O14657   5.955   4.245   6.323 -0.0117  0.6676  0.1690
 3488WAT     H114658   5.990   4.168   6.299 -0.1080  0.6726  0.0081
 3488WAT     H214659   5.896   4.223   6.384  1.1148  0.7767  1.3334
 3488WAT    EPW14660   5.951   4.230   6.328  0.1241  0.1962  0.2768
 3489WAT      O14661   4.714   4.581   5.008  0.3419  0.5985  0.4399
 3489WAT     H114662   4.789   4.536   5.012 -0.6655 -1.4134 -1.3177
 3489WAT     H214663   4.735   4.651   4.961  1.5069  1.0540  1.5704
 3489WAT    EPW14664   4.729   4.585   5.002 -0.4083 -0.4345 -0.9950
 3490WAT      O14665   5.537   4.063   4.340  0.0683 -0.2332  0.1782
 3490WAT     H114666   5.481   4.001   4.316 -0.1117  0.5957 -1.6641
 3490WAT     H214667   5.490   4.137   4.334  0.4649  0.1884  1.6961
 3490WAT    EPW14668   5.522   4.065   4.336 -0.1098 -0.1027 -0.0971
 3491WAT      O14669   5.013   3.080   5.839  0.0298  0.5220  0.4351
 3491WAT     H114670   5.058   3.006   5.825 -0.4763 -0.0015  1.4538
 3491WAT     H214671   5.057   3.140   5.794  0.7594 -0.3045  0.0248
 3491WAT    EPW14672   5.026   3.078   5.831  0.4552  0.4171 -0.2562
 3492WAT      O14673   4.550   4.768   6.515 -0.3789  0.2214 -0.0545
 3492WAT     H114674   4.616   4.719   6.544  3.6065  3.4803 -2.5119
 3492WAT     H214675   4.535   4.737   6.434 -0.9235  0.3987 -0.0268
 3492WAT    EPW14676   4.558   4.756   6.507 -0.1672  0.0627  0.7627
 3493WAT      O14677   5.376   3.743   6.896 -0.4141  0.3279 -0.0849
 3493WAT     H114678   5.452   3.701   6.886 -1.4406 -1.7456  0.3973
 3493WAT     H214679   5.383   3.811   6.842  0.9154 -1.0347 -1.7284
 3493WAT    EPW14680   5.388   3.747   6.886  0.0520  0.4100 -0.6827
 3494WAT      O14681   4.559   4.299   5.776  0.2484 -0.2853  0.2095
 3494WAT     H114682   4.619   4.267   5.720  0.6194 -0.5725  0.7626
 3494WAT     H214683   4.494   4.242   5.770  1.6927 -2.3862  2.6734
 3494WAT    EPW14684   4.558   4.286   5.767  0.1019  0.1104  1.0475
 3495WAT      O14685   5.768   3.688   7.262  0.4333  0.6710  0.0047
 3495WAT     H114686   5.743   3.765   7.295  0.1040  1.0915 -1.1963
 3495WAT     H214687   5.840   3.707   7.217  1.0529  0.0433  0.6801
 3495WAT    EPW14688   5.775   3.702   7.260 -0.2304  0.1597 -0.6885
 3496WAT      O14689   3.905   3.504   6.601  1.3662  0.4769  0.1427
 3496WAT     H114690   3.871   3.445   6.546  0.2644  0.2580  1.0338
 3496WAT     H214691   3.980   3.527   6.562  0.5625  0.4414 -1.5402
 3496WAT    EPW14692   3.911   3.499   6.587  0.7890  0.5792 -0.3029
 3497WAT      O14693   4.416   3.581   6.085 -0.6825  0.2744  0.0703
 3497WAT     H114694   4.336   3.595   6.118 -0.2666 -2.2253  2.5082
 3497WAT     H214695   4.400   3.544   6.008 -1.8036  1.1075 -0.1413
 3497WAT    EPW14696   4.402   3.578   6.079 -0.4188 -0.0569 -0.4226
 3498WAT      O14697   6.423   4.054   6.199 -0.4119 -0.6736  0.0234
 3498WAT     H114698   6.457   4.128   6.230 -1.2849 -0.5049  0.6422
 3498WAT     H214699   6.476   3.992   6.230 -0.3607 -0.3846  0.5252
 3498WAT    EPW14700   6.436   4.055   6.208 -0.5138  0.4294 -0.8305
 3499WAT      O14701   5.724   3.771   5.028 -0.3297  0.5770 -0.5561
 3499WAT     H114702   5.808   3.771   5.002 -0.8038 -0.0423 -2.2033
 3499WAT     H214703   5.702   3.855   5.023  0.3035  0.8136  0.3381
 3499WAT    EPW14704   5.733   3.783   5.024  0.6477 -1.1005 -0.4124
 3500WAT      O14705   5.905   3.713   7.689  0.1204  0.0655 -0.2863
 3500WAT     H114706   5.988   3.719   7.715  0.0379  0.6436 -0.1358
 3500WAT     H214707   5.905   3.645   7.634  0.3789 -0.9502  0.9237
 3500WAT    EPW14708   5.918   3.704   7.685  0.9487 -0.3006 -0.9485
 3501WAT      O14709   6.161   4.216   4.880  0.0396  0.1296 -0.3328
 3501WAT     H114710   6.195   4.180   4.952  1.9186  1.7621 -0.3102
 3501WAT     H214711   6.077   4.228   4.901  0.1913 -0.8247  0.9790
 3501WAT    EPW14712   6.154   4.212   4.894  0.1937 -0.1977 -0.3556
 3502WAT      O14713   5.698   2.876   7.245  0.6323 -0.0806 -0.1460
 3502WAT     H114714   5.739   2.945   7.211  1.4622 -0.7735 -0.5729
 3502WAT     H214715   5.698   2.818   7.180 -0.0231 -0.5074  0.2235
 3502WAT    EPW14716   5.704   2.878   7.231  1.0156  0.8419 -0.4806
 3503WAT      O14717   4.897   2.803   5.147  0.5906  0.0677  0.6110
 3503WAT     H114718   4.857   2.880   5.140 -0.7339 -0.6822 -0.9364
 3503WAT     H214719   4.955   2.805   5.081  1.6829  0.3250  1.5488
 3503WAT    EPW14720   4.900   2.815   5.136 -0.1609 -0.5167  0.3176
 3504WAT      O14721   6.046   2.714   5.194  0.3818 -0.4138 -0.3547
 3504WAT     H114722   6.078   2.683   5.269 -0.4126  0.6421  0.4523
 3504WAT     H214723   5.980   2.660   5.176  0.4983 -0.6017 -0.2206
 3504WAT    EPW14724   6.041   2.701   5.202 -0.9221 -0.1966 -0.3443
 3505WAT      O14725   5.394   4.555   4.633 -0.4033  0.1861 -0.3984
 3505WAT     H114726   5.371   4.637   4.652 -0.6097  0.0013  0.1492
 3505WAT     H214727   5.479   4.552   4.652 -0.9248 -0.4493  2.1198
 3505WAT    EPW14728   5.403   4.566   4.638  0.2943 -0.5505  0.1377
 3506WAT      O14729   5.587   4.968   5.570 -0.8938  0.1245  0.1126
 3506WAT     H114730   5.511   4.966   5.614  0.8963  1.6953  3.7356
 3506WAT     H214731   5.632   4.901   5.603  0.2791  0.9089  0.1673
 3506WAT    EPW14732   5.582   4.958   5.582 -0.4855 -0.9128  0.1421
 3507WAT      O14733   5.450   4.511   4.927 -0.3387 -0.0054  0.5365
 3507WAT     H114734   5.425   4.458   4.862 -0.9091  1.8194 -0.8245
 3507WAT     H214735   5.375   4.541   4.959 -0.0256  0.0208  1.2688
 3507WAT    EPW14736   5.435   4.508   4.922 -0.1144 -0.8954  0.1844
 3508WAT      O14737   5.530   5.328   5.945  0.2700 -0.3821 -0.3953
 3508WAT     H114738   5.603   5.376   5.944 -0.0150  0.1336  1.2863
 3508WAT     H214739   5.537   5.279   5.873  1.0922  1.3916 -1.5819
 3508WAT    EPW14740   5.542   5.328   5.934 -0.4110 -0.1641  0.3460
 3509WAT      O14741   4.986   4.867   6.787 -0.2169 -0.1346 -0.4126
 3509WAT     H114742   4.962   4.905   6.862 -0.8103 -0.8772 -0.2206
 3509WAT     H214743   4.966   4.927   6.727 -0.4689  0.1470 -0.0536
 3509WAT    EPW14744   4.980   4.882   6.790 -0.0304  0.7869  0.1528
 3510WAT      O14745   3.798   3.848   5.952  0.0294  0.4130  0.5330
 3510WAT     H114746   3.835   3.923   5.930  1.2179  1.2684  4.5690
 3510WAT     H214747   3.722   3.872   5.988 -0.0621 -0.3931  0.9218
 3510WAT    EPW14748   3.792   3.862   5.954  0.9144 -0.6734 -0.2771
 3511WAT      O14749   4.648   3.430   7.462  0.2002 -0.3550  1.2832
 3511WAT     H114750   4.568   3.396   7.449  0.7576 -1.0608 -0.6102
 3511WAT     H214751   4.701   3.362   7.447  1.2065  0.2670  1.9144
 3511WAT    EPW14752   4.644   3.415   7.458  0.0183 -0.0468 -0.2735
 3512WAT      O14753   4.353   6.396   5.370 -0.4749 -0.0845 -0.5166
 3512WAT     H114754   4.288   6.357   5.415  0.1384 -2.0792 -1.2536
 3512WAT     H214755   4.323   6.399   5.289  0.1383 -0.5218 -0.7626
 3512WAT    EPW14756   4.339   6.391   5.365  0.2811 -0.5209 -0.4705
 3513WAT      O14757   6.028   3.519   4.520  0.0585  0.0942 -0.2910
 3513WAT     H114758   6.064   3.464   4.577 -1.6289  0.3249  1.1012
 3513WAT     H214759   6.059   3.492   4.443  0.1703 -2.1270  0.4420
 3513WAT    EPW14760   6.038   3.507   4.517 -0.4597 -0.2635 -0.2642
 3514WAT      O14761   6.618   5.090   7.563 -0.1556  0.2049 -0.1680
 3514WAT     H114762   6.688   5.097   7.615 -0.9654  1.3637  0.8259
 3514WAT     H214763   6.577   5.019   7.592  0.3521 -0.2120 -0.4523
 3514WAT    EPW14764   6.623   5.081   7.575 -0.4172  0.7241 -0.9243
 3515WAT      O14765   6.928   2.765   7.856  0.0363  0.3978 -0.5664
 3515WAT     H114766   6.901   2.732   7.933  0.8698 -0.8125 -0.7697
 3515WAT     H214767   7.013   2.779   7.869 -0.3634  3.1041 -0.3073
 3515WAT    EPW14768   6.936   2.762   7.869  0.3308 -0.7572 -0.3696
 3516WAT      O14769   5.574   4.558   6.916 -0.7879 -0.1940  0.0701
 3516WAT     H114770   5.562   4.604   6.843 -3.6402  0.2302  0.6837
 3516WAT     H214771   5.552   4.613   6.979  1.7704 -0.5118  1.3479
 3516WAT    EPW14772   5.569   4.573   6.914 -0.2811  0.1091 -0.4455
 3517WAT      O14773   4.510   4.829   5.783 -0.0586 -0.5647  0.3715
 3517WAT     H114774   4.484   4.792   5.708  0.7475 -1.9677  0.7478
 3517WAT     H214775   4.516   4.913   5.762  1.3325 -1.0615 -1.5342
 3517WAT    EPW14776   4.507   4.836   5.769  0.3847 -0.1066 -0.1131
 3518WAT      O14777   5.365   2.285   7.278  0.3291  0.0435 -0.6635
 3518WAT     H114778   5.289   2.242   7.280  0.7474 -0.7291 -0.7547
 3518WAT     H214779   5.377   2.310   7.360 -0.3567  0.7897 -0.7774
 3518WAT    EPW14780   5.355   2.282   7.290  0.6259 -0.4306  0.4732
 3519WAT      O14781   5.316   3.778   5.235  0.3092  0.3854  0.4931
 3519WAT     H114782   5.401   3.776   5.255  0.5042 -1.2033 -0.3593
 3519WAT     H214783   5.303   3.703   5.193 -1.7013  0.2263  1.2871
 3519WAT    EPW14784   5.327   3.767   5.232 -0.1982 -0.9668 -0.7824
 3520WAT      O14785   5.684   3.260   4.932  0.1407  0.2917 -0.2973
 3520WAT     H114786   5.736   3.226   4.871 -1.8331 -0.0188 -1.9043
 3520WAT     H214787   5.701   3.346   4.928  0.9258  0.1401 -0.3783
 3520WAT    EPW14788   5.694   3.268   4.922  0.0181 -0.6288  1.2020
 3521WAT      O14789   5.941   4.959   5.253  0.1827 -0.3101  0.1859
 3521WAT     H114790   5.949   5.033   5.300 -0.2822  0.0736 -0.3274
 3521WAT     H214791   5.913   4.987   5.176  0.9634 -0.9373 -0.3425
 3521WAT    EPW14792   5.938   4.974   5.249  0.1505 -0.4825  0.2717
 3522WAT      O14793   6.361   4.051   7.767 -0.3473 -0.3901  0.5196
 3522WAT     H114794   6.311   4.053   7.838  0.2713  0.3549  0.9563
 3522WAT     H214795   6.322   4.108   7.713  0.4155  0.7721  1.1517
 3522WAT    EPW14796   6.348   4.060   7.770 -0.4536  0.0752 -0.6043
 3523WAT      O14797   5.153   4.512   6.094  0.3237  0.4563 -0.2719
 3523WAT     H114798   5.144   4.575   6.034 -2.9378 -0.2668 -0.6968
 3523WAT     H214799   5.151   4.439   6.047  1.4571 -0.0663  0.4546
 3523WAT    EPW14800   5.151   4.511   6.078  0.2069 -0.3013 -0.3146
 3524WAT      O14801   4.060   3.740   6.883  0.4841  0.1462  0.1938
 3524WAT     H114802   4.121   3.689   6.847  2.1647  1.9802  0.2999
 3524WAT     H214803   4.063   3.718   6.968 -0.6776 -1.3585 -0.1030
 3524WAT    EPW14804   4.069   3.729   6.890  0.8475 -0.0989 -0.2905
 3525WAT      O14805   5.831   3.685   7.950  0.3808 -0.2384 -0.0977
 3525WAT     H114806   5.744   3.694   7.950  0.5186  1.4565 -0.2550
 3525WAT     H214807   5.851   3.683   7.865  0.4758 -1.0538 -0.0647
 3525WAT    EPW14808   5.821   3.686   7.937 -0.1327 -0.1316 -0.7608
 3526WAT      O14809   5.297   4.829   5.734  0.2084  0.0741  1.1187
 3526WAT     H114810   5.306   4.788   5.811  2.2136 -1.3422  0.2124
 3526WAT     H214811   5.260   4.768   5.683  0.2580  0.4955  0.5700
 3526WAT    EPW14812   5.293   4.814   5.738  1.6766  0.0860  0.2083
 3527WAT      O14813   5.466   4.417   4.380  0.0448 -0.3573  0.6637
 3527WAT     H114814   5.405   4.363   4.349  0.7116 -1.4789  1.2335
 3527WAT     H214815   5.434   4.443   4.457 -0.8498  1.1045 -0.1563
 3527WAT    EPW14816   5.452   4.413   4.387  0.4810 -0.2089  0.6657
 3528WAT      O14817   4.457   2.399   6.951 -0.1426  0.1795  0.2080
 3528WAT     H114818   4.416   2.436   7.019 -2.7763  0.6249 -1.5084
 3528WAT     H214819   4.398   2.343   6.919  1.7369 -1.4639 -0.6445
 3528WAT    EPW14820   4.442   2.396   6.956  0.4848  0.5617 -0.5217
 3529WAT      O14821   5.231   5.863   7.802 -0.5653 -0.1140  0.6356
 3529WAT     H114822   5.296   5.805   7.798  0.5423  1.1248 -0.3716
 3529WAT     H214823   5.270   5.934   7.837 -1.7446  0.2113  1.3544
 3529WAT    EPW14824   5.246   5.865   7.807  0.6214  0.3656 -1.1319
 3530WAT      O14825   4.752   3.039   5.131  0.5603  0.2617 -0.2611
 3530WAT     H114826   4.714   3.068   5.058 -1.2818 -0.5102  0.3479
 3530WAT     H214827   4.685   3.021   5.183  1.8351  0.7494  1.6333
 3530WAT    EPW14828   4.737   3.041   5.128  0.0407 -0.7324 -0.7637
 3531WAT      O14829   5.530   5.103   7.709  0.6890 -0.6094 -0.3048
 3531WAT     H114830   5.594   5.133   7.658  1.9837 -1.8687  0.5306
 3531WAT     H214831   5.540   5.017   7.706 -0.2584 -0.7743  0.7631
 3531WAT    EPW14832   5.541   5.095   7.701  0.0915 -0.0332 -0.0102
 3532WAT      O14833   5.702   3.446   4.302  0.9355 -0.3927  0.2475
 3532WAT     H114834   5.748   3.516   4.278  1.4974 -0.3551  1.3705
 3532WAT     H214835   5.645   3.478   4.360  0.9958 -0.7978  0.5398
 3532WAT    EPW14836   5.700   3.461   4.307 -0.1940 -0.2307 -0.0879
 3533WAT      O14837   5.400   6.236   6.484 -0.1862  0.5771  0.2197
 3533WAT     H114838   5.401   6.150   6.469  0.7018  0.0929  2.5585
 3533WAT     H214839   5.315   6.257   6.485 -0.3944 -0.1704 -0.7198
 3533WAT    EPW14840   5.388   6.227   6.482  0.2850 -0.6517  0.2531
 3534WAT      O14841   5.393   3.443   6.379 -0.3689 -0.2815  0.3062
 3534WAT     H114842   5.317   3.482   6.364 -1.1450 -1.4126  1.0835
 3534WAT     H214843   5.423   3.423   6.300 -0.9274  0.0782  0.0026
 3534WAT    EPW14844   5.386   3.446   6.365  0.2895 -0.7094  0.6355
 3535WAT      O14845   6.381   5.145   7.000 -0.3380  0.5150 -0.1691
 3535WAT     H114846   6.443   5.134   7.060 -0.9147  1.8190  0.7197
 3535WAT     H214847   6.331   5.074   7.009  0.5230 -0.1243 -0.2958
 3535WAT    EPW14848   6.383   5.133   7.010 -0.4355 -0.7889 -0.4606
 3536WAT      O14849   4.413   3.945   7.453  0.5071 -0.0962 -0.3786
 3536WAT     H114850   4.401   4.030   7.435  0.2332 -0.1224 -0.3136
 3536WAT     H214851   4.333   3.915   7.466  0.6184 -0.3254 -0.2145
 3536WAT    EPW14852   4.400   3.953   7.452 -0.3098  0.4831 -1.3017
 3537WAT      O14853   4.899   3.647   7.390 -0.3122 -0.0507  0.1976
 3537WAT     H114854   4.814   3.628   7.401  0.2385 -2.0270  1.5538
 3537WAT     H214855   4.906   3.728   7.421 -1.7450  0.2794 -0.2474
 3537WAT    EPW14856   4.887   3.656   7.396 -0.4436  0.2808 -0.0065
 3538WAT      O14857   4.158   4.434   7.128 -0.1796  0.2160  0.9399
 3538WAT     H114858   4.184   4.406   7.049  0.9866  0.4271  1.2337
 3538WAT     H214859   4.115   4.366   7.161  0.9540 -0.5690  0.8663
 3538WAT    EPW14860   4.156   4.420   7.121  0.4983  0.5455 -0.7658
 3539WAT      O14861   5.146   4.310   5.890  0.3413  0.1437  0.1506
 3539WAT     H114862   5.141   4.312   5.803  2.0906 -0.2319  0.0149
 3539WAT     H214863   5.070   4.272   5.913  0.2542 -0.6202 -1.2526
 3539WAT    EPW14864   5.134   4.305   5.881 -0.2257  0.6790 -0.5164
 3540WAT      O14865   5.253   4.874   6.282 -0.7582 -0.2435  0.1335
 3540WAT     H114866   5.235   4.924   6.351 -1.9783 -2.4017  1.4484
 3540WAT     H214867   5.215   4.798   6.300  1.4966 -1.8981 -1.5048
 3540WAT    EPW14868   5.245   4.870   6.295  0.6649  0.3688  0.3544
 3541WAT      O14869   5.408   3.788   5.840  0.0665  0.1885 -0.5215
 3541WAT     H114870   5.393   3.791   5.926 -0.0663 -1.5379 -0.4614
 3541WAT     H214871   5.401   3.704   5.820  1.9431  0.2905 -1.9080
 3541WAT    EPW14872   5.405   3.776   5.849  0.1591  0.0063 -0.5541
 3542WAT      O14873   5.489   3.360   5.682  0.0392  0.9300  0.3639
 3542WAT     H114874   5.472   3.349   5.597 -1.8126  0.6585  0.7234
 3542WAT     H214875   5.569   3.396   5.683 -0.4802  2.2808 -1.5436
 3542WAT    EPW14876   5.498   3.363   5.670  0.9647  0.0567  1.1293
 3543WAT      O14877   5.129   5.853   7.407  0.3053 -0.5224  0.3711
 3543WAT     H114878   5.134   5.917   7.466  3.7369  1.0010 -1.2894
 3543WAT     H214879   5.182   5.792   7.439 -0.9374 -1.4818  0.6836
 3543WAT    EPW14880   5.138   5.853   7.421 -0.5835 -0.4175  0.1357
 3544WAT      O14881   6.077   3.395   7.452  0.0510 -0.1512  0.1564
 3544WAT     H114882   6.074   3.308   7.446 -0.0384 -0.0817 -1.0834
 3544WAT     H214883   6.143   3.417   7.400  0.1546  0.5252  0.5574
 3544WAT    EPW14884   6.086   3.386   7.444  0.0650  0.0690  0.0801
 3545WAT      O14885   6.473   2.961   5.182  1.2109 -0.0334 -0.0668
 3545WAT     H114886   6.433   2.976   5.106 -0.4699 -0.3288  0.7057
 3545WAT     H214887   6.534   2.903   5.162  0.0514 -0.9860 -1.0235
 3545WAT    EPW14888   6.476   2.955   5.168 -0.2872  0.4175 -0.6519
 3546WAT      O14889   6.732   4.270   7.184  0.1748 -0.6644  0.5217
 3546WAT     H114890   6.732   4.255   7.270  2.2118 -1.1169  0.4989
 3546WAT     H214891   6.795   4.330   7.173  1.3776 -2.0695 -0.8219
 3546WAT    EPW14892   6.741   4.277   7.195 -0.0636 -0.5706  0.0921
 3547WAT      O14893   5.611   4.357   5.284 -0.4033  0.4156 -0.2836
 3547WAT     H114894   5.557   4.311   5.233  0.5674 -0.8730 -0.2100
 3547WAT     H214895   5.564   4.373   5.356 -1.5995  1.7670 -1.3057
 3547WAT    EPW14896   5.596   4.353   5.287  1.0347  0.0471 -0.1675
 3548WAT      O14897   4.817   4.739   6.088 -0.0128 -0.3002  0.2400
 3548WAT     H114898   4.900   4.766   6.088  0.2897 -1.1311  1.4082
 3548WAT     H214899   4.819   4.669   6.035 -0.3724  0.7131 -1.1670
 3548WAT    EPW14900   4.830   4.733   6.080 -1.2303  0.3840 -0.1413
 3549WAT      O14901   4.380   4.204   0.164 -0.6018  0.1626 -0.3538
 3549WAT     H114902   4.326   4.225   0.099 -1.8257 -1.4581  0.0776
 3549WAT     H214903   4.391   4.117   0.155 -0.9012 -0.1344  1.6528
 3549WAT    EPW14904   4.374   4.194   0.153  0.3025 -0.3339  0.0192
 3550WAT      O14905   6.253   5.477   6.285 -0.6265  0.4685 -0.1424
 3550WAT     H114906   6.242   5.429   6.213 -1.0032  1.9128 -1.0952
 3550WAT     H214907   6.172   5.502   6.306 -0.6132 -0.5514  1.2652
 3550WAT    EPW14908   6.240   5.474   6.277  0.0981 -0.7407  0.1994
 3551WAT      O14909   6.134   3.800   4.444 -0.0420  0.2583 -0.4684
 3551WAT     H114910   6.071   3.743   4.426  0.5203 -0.6769  0.4355
 3551WAT     H214911   6.171   3.814   4.366 -0.1164 -0.7129 -0.6884
 3551WAT    EPW14912   6.130   3.794   4.430 -0.4253  0.8418  0.9788
 3552WAT      O14913   4.994   4.246   5.191  0.3328  0.0146 -0.2198
 3552WAT     H114914   5.042   4.191   5.239 -0.2892  0.7457  1.2948
 3552WAT     H214915   4.919   4.252   5.235 -0.7089 -0.1435 -1.8939
 3552WAT    EPW14916   4.990   4.239   5.205 -0.3111  0.1154  0.2002
 3553WAT      O14917   6.412   4.025   5.447 -0.2049  0.6048 -0.1776
 3553WAT     H114918   6.341   4.059   5.486 -0.5686  0.5090 -0.7385
 3553WAT     H214919   6.409   3.941   5.468  0.1200  0.7184  0.3507
 3553WAT    EPW14920   6.401   4.018   5.456  0.3649 -0.1305  0.4359
 3554WAT      O14921   4.921   5.756   6.482 -0.4846 -0.3909  0.1939
 3554WAT     H114922   4.920   5.785   6.400  2.6736 -1.0857 -0.2240
 3554WAT     H214923   4.882   5.679   6.478 -0.5805 -0.3037 -0.6105
 3554WAT    EPW14924   4.915   5.749   6.470 -0.4703 -0.1633  0.2059
 3555WAT      O14925   6.403   3.503   6.857 -0.4848  0.1562 -0.0373
 3555WAT     H114926   6.464   3.547   6.812  0.2791 -0.8481 -0.0088
 3555WAT     H214927   6.335   3.559   6.859  0.5256  1.4332  0.1983
 3555WAT    EPW14928   6.402   3.518   6.850 -0.0204 -0.4495  0.2435
 3556WAT      O14929   5.831   5.160   7.662  0.0533 -0.0387 -0.3818
 3556WAT     H114930   5.853   5.238   7.627  6.6023  0.4141  3.0705
 3556WAT     H214931   5.847   5.104   7.597 -3.8560  1.1072 -2.6365
 3556WAT    EPW14932   5.837   5.163   7.647 -1.7329 -0.1109  1.4024
 3557WAT      O14933   5.244   5.069   6.837  0.3744  0.3326 -0.4027
 3557WAT     H114934   5.171   5.022   6.834  1.1222 -0.8385 -0.7743
 3557WAT     H214935   5.220   5.146   6.802 -0.7859  0.1444 -0.0578
 3557WAT    EPW14936   5.230   5.074   6.831  0.5876  0.9910  0.1296
 3558WAT      O14937   5.848   3.307   5.175 -0.4717  0.6065  0.4186
 3558WAT     H114938   5.767   3.340   5.171 -1.5617 -1.7136  0.9606
 3558WAT     H214939   5.844   3.238   5.122  0.4127 -0.8934  2.1843
 3558WAT    EPW14940   5.835   3.301   5.167  0.1863 -0.4106  0.2470
 3559WAT      O14941   5.522   4.538   5.783 -0.1653 -0.3944  0.0554
 3559WAT     H114942   5.546   4.471   5.834  0.4160 -0.4953 -0.3397
 3559WAT     H214943   5.534   4.608   5.833  0.9742 -0.4435 -0.1271
 3559WAT    EPW14944   5.528   4.538   5.798 -0.0840  0.0174 -0.8940
 3560WAT      O14945   4.398   4.700   5.560 -0.0813 -0.1435  0.1931
 3560WAT     H114946   4.330   4.753   5.547  0.1480 -0.1738 -1.3554
 3560WAT     H214947   4.364   4.620   5.551  0.1342 -0.1606 -0.5072
 3560WAT    EPW14948   4.383   4.696   5.557 -0.5207  0.4291  0.2849
 3561WAT      O14949   5.555   5.132   6.852 -0.2147 -0.2068  0.3020
 3561WAT     H114950   5.521   5.174   6.921  1.9973  1.0879  0.6814
 3561WAT     H214951   5.639   5.124   6.872 -0.0940 -2.6995 -0.8847
 3561WAT    EPW14952   5.562   5.137   6.865 -0.1415  0.1409  0.6565
 3562WAT      O14953   4.591   4.223   6.827  0.0385 -0.2058  0.0421
 3562WAT     H114954   4.651   4.261   6.775 -0.8606 -0.7826 -1.4677
 3562WAT     H214955   4.518   4.226   6.779 -0.3092 -2.8784  0.2732
 3562WAT    EPW14956   4.589   4.229   6.812 -0.9299 -1.1604 -0.0158
 3563WAT      O14957   4.796   3.534   5.233 -0.3176  0.2446  0.4155
 3563WAT     H114958   4.869   3.490   5.251 -0.5502  0.0038  0.7700
 3563WAT     H214959   4.797   3.541   5.146 -1.3600 -2.3297  0.1239
 3563WAT    EPW14960   4.807   3.529   5.223 -0.4577 -0.1434 -0.0099
 3564WAT      O14961   5.160   4.256   6.394  0.0836  0.0412 -0.5694
 3564WAT     H114962   5.229   4.307   6.375 -0.5232  1.3191  0.5076
 3564WAT     H214963   5.130   4.234   6.316  0.9279  0.5716 -1.0706
 3564WAT    EPW14964   5.166   4.260   6.380  0.2895 -0.1446  0.0811
 3565WAT      O14965   4.412   3.911   5.971  0.4591  0.0933  0.1147
 3565WAT     H114966   4.403   3.947   5.892 -0.9342 -0.6158 -0.0953
 3565WAT     H214967   4.391   3.827   5.957 -0.6305  0.1180  1.3695
 3565WAT    EPW14968   4.408   3.904   5.957 -0.3277  0.2896 -0.4106
 3566WAT      O14969   5.794   4.599   7.645  0.5159  0.1213  0.5476
 3566WAT     H114970   5.765   4.543   7.706  0.3169 -1.7294 -1.1493
 3566WAT     H214971   5.782   4.677   7.683  0.6397 -0.9155  2.9562
 3566WAT    EPW14972   5.788   4.603   7.660  0.2591 -0.5531  0.3660
 3567WAT      O14973   5.914   4.375   5.371 -0.1072  0.5049 -0.0406
 3567WAT     H114974   5.966   4.440   5.397 -0.2790  0.3823  0.6417
 3567WAT     H214975   5.844   4.384   5.421  0.1377 -0.5923  0.5372
 3567WAT    EPW14976   5.912   4.386   5.382  0.0879  0.9826 -0.2607
 3568WAT      O14977   4.510   4.050   7.847  0.7502 -0.7776  0.4893
 3568WAT     H114978   4.582   4.099   7.839  0.1817  0.3304  1.6306
 3568WAT     H214979   4.447   4.103   7.819  0.0600 -0.6205  2.2187
 3568WAT    EPW14980   4.512   4.065   7.842  0.8985 -0.3670  0.1065
 3569WAT      O14981   4.530   4.390   5.064 -0.6582  0.1998  0.8929
 3569WAT     H114982   4.583   4.454   5.036 -1.3741  0.8978  1.1206
 3569WAT     H214983   4.545   4.387   5.150  0.2303 -0.7539  0.7406
 3569WAT    EPW14984   4.540   4.399   5.072 -0.7177 -0.1376 -0.1596
 3570WAT      O14985   4.461   5.124   5.766 -0.9030  0.3432  0.2383
 3570WAT     H114986   4.449   5.109   5.681  0.6747 -1.2675  0.2428
 3570WAT     H214987   4.509   5.197   5.767  1.0102 -0.8486 -0.4164
 3570WAT    EPW14988   4.466   5.133   5.754 -0.1310 -0.1988 -0.6963
 3571WAT      O14989   4.913   3.618   6.790  0.3846  0.0677  0.3680
 3571WAT     H114990   4.920   3.671   6.858 -0.7353 -0.3625  0.8457
 3571WAT     H214991   4.987   3.572   6.791  1.7257  2.0730 -0.4936
 3571WAT    EPW14992   4.925   3.619   6.800 -0.9043  0.0662  0.1456
 3572WAT      O14993   6.194   3.707   7.298  0.4648  0.0990  0.3881
 3572WAT     H114994   6.278   3.691   7.313  0.4438 -0.8830 -0.3944
 3572WAT     H214995   6.195   3.777   7.247  0.9072 -0.6814 -0.7227
 3572WAT    EPW14996   6.206   3.715   7.293  0.3081 -0.6860  0.6788
 3573WAT      O14997   5.270   5.667   7.112  0.7230 -0.1480  0.2932
 3573WAT     H114998   5.283   5.751   7.135  1.3629 -0.3145  0.5765
 3573WAT     H214999   5.339   5.649   7.062  0.8707 -0.6621  0.6738
 3573WAT    EPW15000   5.282   5.677   7.108 -0.3940 -0.3761  0.3098
 3574WAT      O15001   5.271   2.776   6.921 -0.2560  0.3679  0.3793
 3574WAT     H115002   5.342   2.765   6.871 -0.6000  1.2391 -0.3348
 3574WAT     H215003   5.286   2.724   6.990 -0.0067 -1.3089 -0.8558
 3574WAT    EPW15004   5.284   2.766   6.924 -0.2054 -0.0803  0.3572
 3575WAT      O15005   5.780   3.185   4.355  0.1690  0.0435 -0.2432
 3575WAT     H115006   5.705   3.160   4.393  0.2867 -0.3055 -0.2338
 3575WAT     H215007   5.768   3.270   4.340 -0.0980  0.0629  0.0647
 3575WAT    EPW15008   5.767   3.194   4.359  0.5746  0.6218 -0.0656
 3576WAT      O15009   4.640   4.218   6.362  0.4079  0.3081 -0.1023
 3576WAT     H115010   4.691   4.152   6.335  1.5657  1.1240 -0.0208
 3576WAT     H215011   4.566   4.179   6.386  1.7586 -1.2630  1.8817
 3576WAT    EPW15012   4.637   4.202   6.362  0.5450 -0.1710  0.0902
 3577WAT      O15013   4.704   3.756   7.031  0.8964  0.0099 -0.0257
 3577WAT     H115014   4.649   3.714   7.085 -0.2075 -0.9739 -1.8058
 3577WAT     H215015   4.782   3.725   7.053  0.6284  0.4547  1.7024
 3577WAT    EPW15016   4.707   3.745   7.042  0.2794 -0.2755 -0.3757
 3578WAT      O15017   5.009   5.726   7.843 -0.1945  0.2724 -0.6575
 3578WAT     H115018   5.089   5.754   7.822 -0.5765  1.2846 -0.8227
 3578WAT     H215019   4.981   5.686   7.771  1.0756 -2.3448  0.1696
 3578WAT    EPW15020   5.017   5.724   7.829  0.1911  0.1958  0.0282
 3579WAT      O15021   5.556   4.191   5.597  0.2744 -0.0233 -0.2160
 3579WAT     H115022   5.555   4.210   5.682 -0.2502 -1.1618  0.0583
 3579WAT     H215023   5.532   4.107   5.595 -1.2745  0.4000 -1.5806
 3579WAT    EPW15024   5.552   4.181   5.609  1.1648  0.1295 -0.1291
 3580WAT      O15025   7.099   3.914   3.855  0.1798  0.3580 -0.1816
 3580WAT     H115026   7.118   3.864   3.924 -1.1152 -1.0875 -0.8072
 3580WAT     H215027   7.170   3.907   3.804 -0.0198 -0.9947 -0.3092
 3580WAT    EPW15028   7.112   3.906   3.857  0.6108  0.7760 -0.8853
 3581WAT      O15029   6.279   5.097   6.218  0.5161  0.5544 -0.0101
 3581WAT     H115030   6.248   5.020   6.189 -1.6674  1.8994 -1.4967
 3581WAT     H215031   6.266   5.092   6.304  0.6836 -0.8410 -0.0350
 3581WAT    EPW15032   6.272   5.085   6.226 -0.1911 -0.0988 -0.0212
 3582WAT      O15033   6.357   5.647   6.758  0.1489  0.0589 -0.1585
 3582WAT     H115034   6.334   5.728   6.736 -0.1152  0.5147  1.6625
 3582WAT     H215035   6.281   5.610   6.782  0.6981  0.4147  2.3540
 3582WAT    EPW15036   6.342   5.654   6.759  0.5148 -0.4813  0.0847
 3583WAT      O15037   4.917   2.455   7.261  0.2676 -0.6560  0.4034
 3583WAT     H115038   4.941   2.488   7.338 -1.4277 -1.1115  1.1769
 3583WAT     H215039   4.837   2.422   7.277 -0.0788 -0.8580 -1.5193
 3583WAT    EPW15040   4.908   2.455   7.275  0.9877 -0.1176  0.7294
 3584WAT      O15041   4.751   4.729   5.689  0.1054 -0.4538 -0.0113
 3584WAT     H115042   4.670   4.746   5.716  0.7570  0.3365  1.6314
 3584WAT     H215043   4.794   4.803   5.708  0.8168 -0.0425 -2.7706
 3584WAT    EPW15044   4.746   4.743   5.696 -0.1128 -0.6388 -0.2433
 3585WAT      O15045   5.657   4.559   4.742 -0.2750 -0.9044  0.0244
 3585WAT     H115046   5.613   4.564   4.817  0.7243 -0.1275  0.5907
 3585WAT     H215047   5.699   4.483   4.747 -0.5419 -1.0507  0.0590
 3585WAT    EPW15048   5.656   4.549   4.754  0.4056  0.4485  0.2996
 3586WAT      O15049   5.924   3.505   4.925 -0.0126 -0.2327 -0.2187
 3586WAT     H115050   5.926   3.592   4.936 -0.3622 -0.1973 -0.4146
 3586WAT     H215051   5.972   3.475   4.991 -1.2236  0.0270  0.8166
 3586WAT    EPW15052   5.932   3.513   4.937  0.1353  0.1773 -0.5020
 3587WAT      O15053   7.032   4.471   7.336  0.1570 -0.1353 -0.5208
 3587WAT     H115054   7.005   4.448   7.415 -1.2029 -1.6066 -1.3408
 3587WAT     H215055   7.116   4.448   7.335 -0.0694 -1.0415  0.1730
 3587WAT    EPW15056   7.040   4.464   7.347 -0.5254  0.0589 -0.7418
 3588WAT      O15057   5.747   4.836   8.027 -0.0995  0.7559  0.3165
 3588WAT     H115058   5.749   4.914   8.066 -2.8993 -0.0096  2.2624
 3588WAT     H215059   5.681   4.795   8.066 -0.3386 -1.7123 -2.3596
 3588WAT    EPW15060   5.738   4.842   8.038 -0.7363  0.8394  0.7058
 3589WAT      O15061   6.508   3.874   0.740  0.0445  0.3870  0.0346
 3589WAT     H115062   6.511   3.918   0.665 -1.6903 -0.2815 -0.4627
 3589WAT     H215063   6.505   3.791   0.715  0.4220  0.0980  0.8907
 3589WAT    EPW15064   6.508   3.868   0.725 -0.4967  0.2074  1.1196
 3590WAT      O15065   5.555   3.239   5.430  0.5574 -0.3852 -0.3133
 3590WAT     H115066   5.520   3.247   5.351 -0.5652  0.1859  0.2205
 3590WAT     H215067   5.536   3.157   5.453 -1.6187  0.2661  0.4679
 3590WAT    EPW15068   5.547   3.228   5.422  0.1062  0.0133 -0.0846
 3591WAT      O15069   4.426   4.658   6.267 -0.3074  0.6871 -0.1076
 3591WAT     H115070   4.352   4.665   6.312  0.4035  1.9890  0.9753
 3591WAT     H215071   4.411   4.705   6.195 -0.6475  0.6792 -0.0433
 3591WAT    EPW15072   4.413   4.666   6.263 -0.0350  0.1751 -0.3710
 3592WAT      O15073   4.276   2.782   5.787  0.6388  0.3535  0.2658
 3592WAT     H115074   4.261   2.726   5.722  0.4749  2.1280 -1.2989
 3592WAT     H215075   4.363   2.784   5.792  0.7256  1.4172 -1.0691
 3592WAT    EPW15076   4.287   2.774   5.778 -0.4897  0.0116 -0.2259
 3593WAT      O15077   5.646   4.384   6.034 -0.4342  0.1294  0.2914
 3593WAT     H115078   5.610   4.327   6.090 -0.6969  0.5260  0.5278
 3593WAT     H215079   5.678   4.447   6.086  1.9480 -0.9038  0.2251
 3593WAT    EPW15080   5.645   4.385   6.050  0.0911  0.4197 -0.3801
 3594WAT      O15081   5.410   6.095   5.832 -0.2987 -0.4884 -0.9266
 3594WAT     H115082   5.378   6.163   5.788 -1.2713 -1.6778 -2.1383
 3594WAT     H215083   5.468   6.060   5.777  0.5475 -0.4046 -0.1284
 3594WAT    EPW15084   5.414   6.100   5.818  0.2963  0.5933  0.6576
 3595WAT      O15085   5.907   3.357   6.357  0.2143  0.2461 -0.4472
 3595WAT     H115086   5.981   3.328   6.393 -0.1876  1.1292  1.1710
 3595WAT     H215087   5.899   3.308   6.286  0.7377 -2.0330  0.9620
 3595WAT    EPW15088   5.917   3.346   6.352 -0.1492  0.2243 -0.0947
 3596WAT      O15089   5.890   4.672   6.402 -0.1560 -0.2188  0.0778
 3596WAT     H115090   5.929   4.610   6.355  1.7654  0.9800 -0.0400
 3596WAT     H215091   5.926   4.664   6.481  0.6377  1.0945 -0.1090
 3596WAT    EPW15092   5.901   4.662   6.407  0.3526  0.2153  0.1467
 3597WAT      O15093   5.386   4.987   4.922  0.0043 -0.1894  0.1318
 3597WAT     H115094   5.410   4.943   4.993 -0.1563 -1.7920 -0.7704
 3597WAT     H215095   5.463   5.008   4.885  0.0822 -1.7012 -0.6016
 3597WAT    EPW15096   5.401   4.984   4.927 -0.0480  0.1683 -0.0782
 3598WAT      O15097   4.239   5.045   6.755 -0.1446  0.2668  0.2459
 3598WAT     H115098   4.261   5.019   6.675 -0.0698  1.2386 -0.0603
 3598WAT     H215099   4.158   5.076   6.745  0.4641  1.9435  0.1681
 3598WAT    EPW15100   4.230   5.046   6.742 -0.0478 -0.3556 -1.1166
 3599WAT      O15101   3.801   2.780   5.635 -0.3538 -0.1255 -0.5188
 3599WAT     H115102   3.850   2.825   5.693  0.3344 -1.9083  0.3704
 3599WAT     H215103   3.721   2.810   5.649  0.1175  1.0158 -0.1431
 3599WAT    EPW15104   3.797   2.791   5.646  0.2047  0.2579 -1.2146
 3600WAT      O15105   5.488   6.521   6.149  0.4373  0.0199  0.1031
 3600WAT     H115106   5.402   6.525   6.139  0.2268 -0.2125  1.6252
 3600WAT     H215107   5.512   6.459   6.092 -0.4691 -0.3182  0.0742
 3600WAT    EPW15108   5.479   6.512   6.139 -0.1313 -0.2321 -0.5941
 3601WAT      O15109   5.397   2.806   4.621 -0.0155 -0.1381 -0.1218
 3601WAT     H115110   5.341   2.836   4.561  0.6963  1.6630  0.0632
 3601WAT     H215111   5.378   2.853   4.692 -0.2261 -1.6011  0.8281
 3601WAT    EPW15112   5.386   2.818   4.622  0.3103  0.5270  0.1574
 3602WAT      O15113   5.638   5.049   5.299 -0.0705  0.3806 -0.0842
 3602WAT     H115114   5.638   5.013   5.378  0.7873  0.2046 -0.1587
 3602WAT     H215115   5.643   4.981   5.245  3.3044  0.5579 -0.2061
 3602WAT    EPW15116   5.639   5.034   5.303  0.7260  0.3274 -0.1710
 3603WAT      O15117   5.045   3.440   5.186  0.0444 -0.5608  0.4327
 3603WAT     H115118   5.025   3.371   5.237  0.6438 -0.3662  0.9506
 3603WAT     H215119   5.132   3.443   5.190  0.1228 -0.7056 -0.8463
 3603WAT    EPW15120   5.055   3.430   5.194 -0.2417 -0.3969 -0.6841
 3604WAT      O15121   6.053   5.174   6.713  0.2372  0.0960 -0.6349
 3604WAT     H115122   6.024   5.217   6.643 -0.3676  0.2084 -0.3188
 3604WAT     H215123   6.121   5.223   6.739  0.6877 -0.1371 -1.3402
 3604WAT    EPW15124   6.059   5.188   6.706 -0.5753 -0.5662 -0.4089
 3605WAT      O15125   6.312   4.065   5.939  0.1446  0.3445  0.1338
 3605WAT     H115126   6.357   4.068   6.014 -0.2507 -0.3698  0.4070
 3605WAT     H215127   6.237   4.105   5.958 -0.7485 -1.5231  0.6959
 3605WAT    EPW15128   6.308   4.072   5.953 -0.0044 -0.3776  0.0841
 3606WAT      O15129   5.326   2.642   5.524  0.1276  0.6823  0.0049
 3606WAT     H115130   5.410   2.653   5.542  0.3874  0.0340 -0.7623
 3606WAT     H215131   5.312   2.557   5.539  0.0620  0.3887 -1.5880
 3606WAT    EPW15132   5.336   2.631   5.529 -0.0669  0.0945 -0.6825
 3607WAT      O15133   5.630   3.340   7.531 -0.2496  0.1847 -0.0687
 3607WAT     H115134   5.651   3.288   7.597  0.5145  0.1963 -0.2955
 3607WAT     H215135   5.706   3.375   7.507 -0.9076  2.6594  1.0985
 3607WAT    EPW15136   5.644   3.337   7.537 -0.3759  0.5081  0.0143
 3608WAT      O15137   4.431   4.228   7.071 -0.0095  0.2293 -0.3276
 3608WAT     H115138   4.504   4.238   7.025 -0.8927  0.0001 -1.8264
 3608WAT     H215139   4.368   4.252   7.016 -1.1481 -0.4331  0.6331
 3608WAT    EPW15140   4.433   4.233   7.056  0.1453 -1.0241  0.3658
 3609WAT      O15141   6.323   5.585   7.315 -0.4693  0.0358  0.1634
 3609WAT     H115142   6.252   5.627   7.342  0.1441  0.7076  0.7502
 3609WAT     H215143   6.300   5.501   7.321 -1.1938  0.2426  0.3820
 3609WAT    EPW15144   6.309   5.579   7.320 -0.8597  0.4484 -0.7655
 3610WAT      O15145   5.213   4.747   6.637  0.1815  0.3280  0.6956
 3610WAT     H115146   5.165   4.810   6.673 -0.3944  1.1465 -1.3639
 3610WAT     H215147   5.165   4.720   6.570  0.5525 -2.1359  1.3041
 3610WAT    EPW15148   5.199   4.752   6.632  0.0404  0.2016 -0.2637
 3611WAT      O15149   5.986   4.360   7.706 -0.5328 -0.0664 -0.0993
 3611WAT     H115150   5.989   4.420   7.769  0.2503 -0.7610  0.5505
 3611WAT     H215151   5.945   4.293   7.744  1.8963 -1.3349  0.4825
 3611WAT    EPW15152   5.980   4.359   7.721  0.1142  0.4047 -0.1919
 3612WAT      O15153   5.327   3.461   5.206  0.2748  0.2701  0.3700
 3612WAT     H115154   5.414   3.468   5.202  0.2068  1.3476  0.6719
 3612WAT     H215155   5.309   3.470   5.290 -0.0420 -1.3078  0.5036
 3612WAT    EPW15156   5.337   3.463   5.218  0.3352  0.4405  0.7040
 3613WAT      O15157   4.918   3.228   5.277 -0.1390  0.1150  0.1348
 3613WAT     H115158   4.869   3.186   5.218  0.0264 -0.5686  0.4734
 3613WAT     H215159   4.950   3.164   5.326  1.3387  0.5206 -0.2552
 3613WAT    EPW15160   4.915   3.213   5.276 -0.0786  0.3806  0.6758
 3614WAT      O15161   6.257   4.359   0.314  0.2685  0.4684  0.7538
 3614WAT     H115162   6.237   4.434   0.275 -0.3609  0.9149  1.8853
 3614WAT     H215163   6.191   4.346   0.369  0.8114 -0.4649  1.2172
 3614WAT    EPW15164   6.244   4.368   0.316 -0.3501  0.1597  0.4417
 3615WAT      O15165   6.506   4.939   0.024  0.2697 -0.1233 -0.1757
 3615WAT     H115166   6.545   4.899  -0.043  0.1684  0.8021 -0.8087
 3615WAT     H215167   6.571   4.953   0.080  0.2362 -1.5102  0.2488
 3615WAT    EPW15168   6.521   4.935   0.022  0.1544 -0.0140 -0.0673
 3616WAT      O15169   6.554   5.129   5.204 -0.3286 -0.5670  0.5583
 3616WAT     H115170   6.531   5.056   5.246  1.0824 -1.2488  0.2059
 3616WAT     H215171   6.486   5.145   5.152 -1.5812 -0.3920  2.1735
 3616WAT    EPW15172   6.541   5.120   5.203  0.2601  0.2802 -0.5200
 3617WAT      O15173   6.187   4.734   6.892 -0.3006  0.3964 -0.1010
 3617WAT     H115174   6.256   4.703   6.934  0.3671  3.0661  0.9794
 3617WAT     H215175   6.137   4.663   6.879  2.6858 -1.6749 -1.2133
 3617WAT    EPW15176   6.190   4.719   6.896  0.6012 -0.2394 -1.1049
 3618WAT      O15177   4.830   4.252   7.500  0.1892 -0.7120 -0.1312
 3618WAT     H115178   4.883   4.263   7.431  1.2121  0.5692  0.8156
 3618WAT     H215179   4.788   4.177   7.482  4.5333 -3.6775  0.4458
 3618WAT    EPW15180   4.832   4.242   7.487  0.6554  0.1184 -0.8108
 3619WAT      O15181   5.450   2.334   6.971  0.5913  0.3900 -0.3138
 3619WAT     H115182   5.446   2.329   6.884  1.1452 -0.3167 -0.3085
 3619WAT     H215183   5.390   2.276   6.997  0.0719  0.9621 -0.2164
 3619WAT    EPW15184   5.440   2.325   6.962  0.5028 -1.8867 -0.0926
 3620WAT      O15185   4.596   5.087   6.692 -0.1304 -0.0348  0.1952
 3620WAT     H115186   4.597   5.030   6.758 -0.4587 -0.2652  0.0064
 3620WAT     H215187   4.522   5.068   6.650  1.0103 -1.2403 -1.4021
 3620WAT    EPW15188   4.585   5.076   6.695  0.1905 -0.3375  0.6618
 3621WAT      O15189   5.218   5.194   7.214  0.0525  0.2045  0.2740
 3621WAT     H115190   5.256   5.135   7.267  1.9851  0.5526 -0.6317
 3621WAT     H215191   5.134   5.171   7.215  0.7518 -2.8629 -0.3144
 3621WAT    EPW15192   5.211   5.182   7.222 -0.1393  0.0483 -1.2496
 3622WAT      O15193   5.629   4.760   5.903  0.5081  0.4133  0.0006
 3622WAT     H115194   5.643   4.842   5.930  0.9899  0.5321 -0.5976
 3622WAT     H215195   5.693   4.715   5.940 -1.1484 -0.1679  2.3705
 3622WAT    EPW15196   5.640   4.766   5.913  0.4782  0.4727  0.1313
 3623WAT      O15197   5.488   4.372   7.737  0.2508 -0.1839 -0.0685
 3623WAT     H115198   5.498   4.357   7.652 -2.2189 -0.7816 -0.3217
 3623WAT     H215199   5.430   4.311   7.762 -0.9917  1.5167  1.4654
 3623WAT    EPW15200   5.481   4.361   7.728 -0.3690 -0.1016 -0.1983
 3624WAT      O15201   3.981   4.084   6.803  0.3217 -0.3793  0.6703
 3624WAT     H115202   4.012   4.086   6.885  1.2102 -0.8443  0.3652
 3624WAT     H215203   3.921   4.021   6.806  1.8309 -1.9254  0.5190
 3624WAT    EPW15204   3.977   4.075   6.816  0.6547 -0.0247 -0.9595
 3625WAT      O15205   6.183   5.340   6.053 -0.3270 -0.0657  0.2361
 3625WAT     H115206   6.145   5.310   5.981  1.3911  2.4295 -1.9095
 3625WAT     H215207   6.224   5.270   6.085 -1.7960 -1.4243 -0.7196
 3625WAT    EPW15208   6.184   5.326   6.047  0.5285 -0.3969 -0.7921
 3626WAT      O15209   5.469   5.368   0.515 -0.3931 -0.0425  0.1014
 3626WAT     H115210   5.526   5.303   0.498 -0.1709 -0.5889  2.5550
 3626WAT     H215211   5.516   5.440   0.501 -0.3224 -0.3784 -1.6377
 3626WAT    EPW15212   5.485   5.369   0.510 -0.2702  0.3605 -0.7017
 3627WAT      O15213   6.469   6.631   7.575  0.2927 -0.2461  0.0401
 3627WAT     H115214   6.544   6.616   7.531  0.3022 -0.1993  0.0403
 3627WAT     H215215   6.477   6.714   7.600 -0.6065  0.3878 -1.6191
 3627WAT    EPW15216   6.482   6.641   7.572  0.2924 -0.6448 -0.3678
 3628WAT      O15217   5.600   2.623   5.555  0.4096  0.0874  0.1144
 3628WAT     H115218   5.646   2.565   5.510 -0.4162  0.2058 -0.9124
 3628WAT     H215219   5.616   2.698   5.515 -1.9388 -0.0994 -1.3725
 3628WAT    EPW15220   5.609   2.625   5.543  0.0522  0.8425  0.2403
 3629WAT      O15221   4.621   4.752   5.215  0.2965  0.5185 -0.0621
 3629WAT     H115222   4.639   4.701   5.283 -2.0030  0.0516  0.2675
 3629WAT     H215223   4.659   4.711   5.148  0.2559 -0.4898  0.5163
 3629WAT    EPW15224   4.629   4.738   5.215 -0.0607 -0.2827 -0.1195
 3630WAT      O15225   5.323   4.695   5.967  0.5526  0.0605 -0.4626
 3630WAT     H115226   5.329   4.614   5.998  0.0190 -0.7724 -2.3466
 3630WAT     H215227   5.388   4.737   6.005  2.0512 -1.7728 -0.8631
 3630WAT    EPW15228   5.333   4.689   5.977  0.6621  1.0815  0.1114
 3631WAT      O15229   6.529   3.962   6.610  0.2980  0.3458  0.3817
 3631WAT     H115230   6.572   3.963   6.686 -1.6305 -0.6293  1.5666
 3631WAT     H215231   6.484   4.037   6.610 -1.9084 -0.9047  1.6229
 3631WAT    EPW15232   6.529   3.973   6.621 -0.3454 -0.0201  0.0448
 3632WAT      O15233   4.739   3.386   5.950 -0.2426  0.2898 -0.5045
 3632WAT     H115234   4.753   3.471   5.963 -0.1237  0.6125 -2.5150
 3632WAT     H215235   4.750   3.352   6.029  1.0151  1.9623  0.1039
 3632WAT    EPW15236   4.742   3.394   5.964  0.1119  0.3318 -0.3225
 3633WAT      O15237   6.155   4.048   6.282 -0.1599 -0.5554  0.3145
 3633WAT     H115238   6.236   4.065   6.253 -0.0593 -1.3621  0.0908
 3633WAT     H215239   6.163   4.053   6.369 -0.0810  0.2465  0.2688
 3633WAT    EPW15240   6.168   4.052   6.291  0.0101  0.6783 -0.1979
 3634WAT      O15241   5.124   4.532   6.800 -0.2788 -0.1512  0.1851
 3634WAT     H115242   5.103   4.479   6.735 -0.8634 -0.3409  0.5234
 3634WAT     H215243   5.158   4.602   6.760  0.3469 -0.7056 -0.2662
 3634WAT    EPW15244   5.126   4.535   6.785  0.1931  0.1787 -1.0152
 3635WAT      O15245   5.636   4.110   5.879 -0.2128 -0.0940  0.5394
 3635WAT     H115246   5.565   4.114   5.929 -0.6633  2.6042 -0.1741
 3635WAT     H215247   5.691   4.165   5.917  1.3775 -1.8027  0.8213
 3635WAT    EPW15248   5.634   4.119   5.892  0.2081  0.0851 -0.6262
 3636WAT      O15249   5.564   2.565   7.083  0.2124 -0.2172 -0.2028
 3636WAT     H115250   5.548   2.480   7.073  0.6353 -0.2974 -0.2159
 3636WAT     H215251   5.609   2.586   7.011  0.1015  0.0218 -0.2049
 3636WAT    EPW15252   5.568   2.555   7.071  0.2984  0.1351 -0.0250
 3637WAT      O15253   5.617   4.019   5.032  0.2155 -0.3651 -0.7064
 3637WAT     H115254   5.561   4.062   4.982 -0.0767  0.3153  0.1663
 3637WAT     H215255   5.670   4.082   5.061  1.5807 -1.0227 -1.6843
 3637WAT    EPW15256   5.617   4.034   5.029 -0.1699  0.3266 -0.9939
 3638WAT      O15257   5.225   5.210   0.206 -0.3055 -0.4517 -0.0876
 3638WAT     H115258   5.196   5.271   0.261 -1.5612 -1.0556 -0.0486
 3638WAT     H215259   5.270   5.255   0.146 -0.1921  0.3650  0.6059
 3638WAT    EPW15260   5.227   5.225   0.205  0.1606  0.2317 -0.0770
 3639WAT      O15261   4.025   3.516   0.062  0.2741  0.6880  0.4122
 3639WAT     H115262   4.019   3.487  -0.020  0.0077 -1.0616  1.0236
 3639WAT     H215263   4.099   3.563   0.061  0.1004  0.9810 -0.8937
 3639WAT    EPW15264   4.035   3.519   0.049 -0.1446 -0.8332  0.1615
 3640WAT      O15265   4.374   4.496   6.534 -0.1968  0.1411 -0.4488
 3640WAT     H115266   4.415   4.515   6.609  0.1286  1.7343 -1.0001
 3640WAT     H215267   4.333   4.570   6.514 -2.2783 -0.9882 -0.6325
 3640WAT    EPW15268   4.374   4.510   6.542 -0.1862  0.8036  0.1312
 3641WAT      O15269   5.317   2.995   5.889 -0.0724 -0.4449  0.5802
 3641WAT     H115270   5.338   3.022   5.969 -0.5812 -0.7195  0.8178
 3641WAT     H215271   5.386   3.016   5.840 -0.5923  1.6452  0.6542
 3641WAT    EPW15272   5.330   3.002   5.893 -0.4051 -0.6103 -0.0557
 3642WAT      O15273   4.745   4.563   6.305  0.2587 -0.0074  0.4022
 3642WAT     H115274   4.783   4.581   6.381 -0.8453  1.4746  0.6701
 3642WAT     H215275   4.766   4.632   6.255  0.6717 -0.7828 -0.5309
 3642WAT    EPW15276   4.754   4.576   6.309 -0.3918 -0.0893 -1.1621
 3643WAT      O15277   5.354   4.744   5.407  0.2553 -0.2045  0.2045
 3643WAT     H115278   5.380   4.758   5.326 -0.8094  0.5548 -0.0371
 3643WAT     H215279   5.296   4.809   5.421 -0.6957 -1.1968  1.0228
 3643WAT    EPW15280   5.349   4.756   5.397  0.0930  0.1509 -0.6817
 3644WAT      O15281   5.746   4.356   7.006 -0.7400 -0.2922  0.0594
 3644WAT     H115282   5.785   4.425   7.042  1.1892 -0.0984 -2.1517
 3644WAT     H215283   5.676   4.390   6.966 -0.2127  0.2965 -0.3864
 3644WAT    EPW15284   5.742   4.371   7.005  0.3724  0.4403 -1.0811
 3645WAT      O15285   7.155   5.464   7.725 -0.1776 -0.0390 -0.2345
 3645WAT     H115286   7.182   5.391   7.764 -1.9986 -0.5009  0.2595
 3645WAT     H215287   7.219   5.521   7.741 -0.3934 -0.4599  2.7383
 3645WAT    EPW15288   7.168   5.462   7.733  0.8367 -0.4666 -0.4654
 3646WAT      O15289   5.545   3.547   7.209 -0.3398 -0.0740  0.5461
 3646WAT     H115290   5.557   3.467   7.241  0.3127 -0.1418  0.1498
 3646WAT     H215291   5.624   3.584   7.215 -0.4894  0.3253  0.1432
 3646WAT    EPW15292   5.559   3.541   7.214  0.0221 -0.3896  0.0546
 3647WAT      O15293   4.740   5.560   6.927 -0.1513 -0.1800  0.1794
 3647WAT     H115294   4.813   5.512   6.919 -0.0608 -0.1748  0.9601
 3647WAT     H215295   4.770   5.639   6.951 -0.2105  0.6083 -2.0632
 3647WAT    EPW15296   4.755   5.565   6.929  0.3490 -0.1207 -0.1194
 3648WAT      O15297   7.046   6.203   0.351 -0.6975  0.1534  0.2816
 3648WAT     H115298   7.123   6.237   0.374 -0.3972  1.3099 -2.0568
 3648WAT     H215299   7.014   6.170   0.425  1.5315  0.6432  1.5438
 3648WAT    EPW15300   7.052   6.203   0.365  0.0154 -0.1723  0.4173
 3649WAT      O15301   6.145   4.169   6.817 -0.4183 -0.0603  0.0177
 3649WAT     H115302   6.120   4.107   6.873 -2.4874  0.6362 -0.0410
 3649WAT     H215303   6.215   4.204   6.856  0.4406 -2.0055  0.3280
 3649WAT    EPW15304   6.151   4.165   6.831 -0.9876  0.0376  0.2800
 3650WAT      O15305   5.309   2.614   7.145  0.5559  0.7247  0.0149
 3650WAT     H115306   5.392   2.609   7.120  0.4396  2.3389 -0.8597
 3650WAT     H215307   5.271   2.545   7.107  1.2031  0.8568 -0.9073
 3650WAT    EPW15308   5.316   2.603   7.136  0.5121 -0.2632  0.3185
 3651WAT      O15309   6.329   4.490   8.017 -0.4218  1.1868 -0.3347
 3651WAT     H115310   6.350   4.559   7.968 -3.8512  1.6332 -1.4206
 3651WAT     H215311   6.269   4.520   8.072 -1.8163 -0.7655 -0.6594
 3651WAT    EPW15312   6.323   4.504   8.018 -0.0711 -0.7607 -0.4127
 3652WAT      O15313   5.040   3.592   4.941 -0.7218  0.3615 -0.3239
 3652WAT     H115314   5.041   3.678   4.958 -0.2271  0.4665 -0.8325
 3652WAT     H215315   5.025   3.555   5.018 -1.2992  0.9184 -0.1582
 3652WAT    EPW15316   5.038   3.599   4.955 -0.2586  0.3946 -0.0560
 3653WAT      O15317   6.040   4.324   0.498  0.4425 -0.6327 -0.4583
 3653WAT     H115318   5.965   4.366   0.513  0.3803 -1.2847  1.2195
 3653WAT     H215319   6.018   4.240   0.501  1.0736 -0.8208 -0.9119
 3653WAT    EPW15320   6.026   4.318   0.501 -0.7598 -0.4877 -0.0227
 3654WAT      O15321   7.340   3.948   7.162  0.1489 -0.2332  0.3970
 3654WAT     H115322   7.371   4.029   7.171  0.2931  0.0777 -2.1971
 3654WAT     H215323   7.275   3.957   7.104  0.5572 -2.0328 -0.4235
 3654WAT    EPW15324   7.335   3.961   7.155  0.5061  0.4747 -0.4638
 3655WAT      O15325   4.528   3.720   6.420 -0.3327 -0.0734  0.2655
 3655WAT     H115326   4.568   3.773   6.477 -0.6566 -0.8584  1.2539
 3655WAT     H215327   4.476   3.774   6.375 -1.1983  0.3870  1.7380
 3655WAT    EPW15328   4.526   3.736   6.422 -0.1286 -0.7191 -0.7234
 3656WAT      O15329   5.797   4.984   5.020  0.0581 -0.4878  1.0789
 3656WAT     H115330   5.804   4.911   4.973  1.0035  0.2165  0.0619
 3656WAT     H215331   5.732   5.027   4.982 -0.7358 -0.9419  1.9005
 3656WAT    EPW15332   5.789   4.980   5.007  0.2040  0.2567 -0.5704
 3657WAT      O15333   4.976   3.320   6.257 -0.2690 -0.1324  0.1644
 3657WAT     H115334   5.012   3.361   6.325 -0.2696 -1.9223  1.3248
 3657WAT     H215335   5.013   3.241   6.259 -0.2427 -0.2342 -1.9676
 3657WAT    EPW15336   4.987   3.314   6.268  0.1482 -0.4677 -0.6300
 3658WAT      O15337   3.419   3.377   0.093  0.1999 -0.1951  0.3913
 3658WAT     H115338   3.432   3.293   0.074  1.2433  0.2628 -1.1375
 3658WAT     H215339   3.377   3.407   0.022  1.4496  0.9466  0.0966
 3658WAT    EPW15340   3.414   3.369   0.080 -0.4602 -0.1503 -1.0418
 3659WAT      O15341   4.550   3.591   4.854 -0.1517  0.0237  0.2540
 3659WAT     H115342   4.469   3.602   4.885  0.1324  1.9557  0.4674
 3659WAT     H215343   4.540   3.599   4.768 -0.3164 -0.8153  0.1871
 3659WAT    EPW15344   4.537   3.594   4.846  0.0107  0.0435 -0.8181
 3660WAT      O15345   5.683   4.085   7.107 -0.0070  0.1057 -0.5397
 3660WAT     H115346   5.715   4.166   7.106  1.4774 -0.4448 -0.7638
 3660WAT     H215347   5.611   4.090   7.059  1.3165  0.8381 -2.6009
 3660WAT    EPW15348   5.677   4.097   7.100  0.4669 -0.2811 -0.1118
 3661WAT      O15349   5.375   4.090   7.044  0.5794  0.1565 -0.3960
 3661WAT     H115350   5.341   4.170   7.032 -0.5502 -0.2929 -0.2626
 3661WAT     H215351   5.386   4.060   6.963  0.3287  0.1756 -0.4390
 3661WAT    EPW15352   5.372   4.098   7.031  0.2878  0.5476  0.2091
 3662WAT      O15353   4.644   4.205   6.045 -0.6237  0.7005  0.2876
 3662WAT     H115354   4.608   4.241   5.975 -0.6209  1.2180  0.5474
 3662WAT     H215355   4.654   4.121   6.023  1.2936  1.2296 -1.1381
 3662WAT    EPW15356   4.640   4.198   6.031  0.3105 -0.4051  0.5038
 3663WAT      O15357   5.810   4.752   6.779  0.3017  0.5102  0.0874
 3663WAT     H115358   5.884   4.798   6.770  1.5226 -0.1996  4.3086
 3663WAT     H215359   5.837   4.669   6.780 -0.6782  0.1797  0.5894
 3663WAT    EPW15360   5.825   4.747   6.778  0.3803 -0.1615 -0.4238
 3664WAT      O15361   4.777   5.343   7.282  0.0369  0.1801 -0.2916
 3664WAT     H115362   4.799   5.303   7.207 -1.3845 -1.2441  0.0066
 3664WAT     H215363   4.764   5.426   7.258  1.7514  0.2417 -1.1815
 3664WAT    EPW15364   4.778   5.349   7.267 -0.1313 -0.0744 -0.2721
 3665WAT      O15365   6.002   3.795   5.026 -0.3219  0.0324 -0.2007
 3665WAT     H115366   6.034   3.810   4.946  1.1755  2.4493  0.7399
 3665WAT     H215367   6.042   3.855   5.075 -0.5317 -1.9365  2.5544
 3665WAT    EPW15368   6.013   3.806   5.021  0.2943 -0.2488 -0.3866
 3666WAT      O15369   5.936   5.700   5.848 -0.4308 -0.3093  0.1459
 3666WAT     H115370   5.991   5.700   5.915 -1.6207  2.0688  1.2655
 3666WAT     H215371   5.868   5.747   5.877 -1.7918 -0.6945 -2.1255
 3666WAT    EPW15372   5.934   5.707   5.862  0.3893  0.5207  0.0687
 3667WAT      O15373   5.139   5.029   5.804 -0.3024 -0.8252 -0.3158
 3667WAT     H115374   5.186   5.101   5.785 -2.0912  0.2100 -1.1500
 3667WAT     H215375   5.192   4.964   5.781  0.5148  0.2897 -1.8554
 3667WAT    EPW15376   5.154   5.030   5.798 -0.2121 -0.0437 -0.0409
 3668WAT      O15377   6.155   2.894   4.903 -0.4523 -0.2174  0.0990
 3668WAT     H115378   6.169   2.828   4.959 -2.3395 -1.5582 -0.8983
 3668WAT     H215379   6.194   2.867   4.830 -1.9701 -0.6968 -0.5768
 3668WAT    EPW15380   6.163   2.880   4.900  0.0431  0.3453 -0.3285
 3669WAT      O15381   4.673   3.805   5.721  0.4500 -0.3418  0.1074
 3669WAT     H115382   4.742   3.756   5.699  0.9546  0.7033 -0.7730
 3669WAT     H215383   4.619   3.795   5.653 -0.2867 -1.1936  0.8186
 3669WAT    EPW15384   4.676   3.797   5.707 -0.4326  0.2888 -0.5615
 3670WAT      O15385   5.339   4.072   5.988  0.1420  0.0824  0.1932
 3670WAT     H115386   5.304   3.996   6.012 -0.9634 -0.1359 -1.8606
 3670WAT     H215387   5.269   4.124   5.978  0.7639  0.9386  0.1609
 3670WAT    EPW15388   5.323   4.069   5.990  0.0144 -0.4250 -0.2640
 3671WAT      O15389   6.536   3.844   6.335 -0.4755  0.3243  0.5054
 3671WAT     H115390   6.454   3.814   6.331 -1.1514  2.0819 -0.0207
 3671WAT     H215391   6.539   3.882   6.414 -0.5912  1.3189  0.0456
 3671WAT    EPW15392   6.525   3.845   6.346 -0.8865  0.2750 -0.4088
 3672WAT      O15393   6.107   5.093   7.766 -0.1399 -1.0091 -0.0379
 3672WAT     H115394   6.104   5.038   7.699  1.2283  0.1384 -1.1014
 3672WAT     H215395   6.043   5.149   7.748  1.9152  0.9285 -1.9917
 3672WAT    EPW15396   6.097   5.093   7.753 -0.1562  0.2784 -0.2528
 3673WAT      O15397   6.574   6.453   0.473 -0.4104 -0.2999  0.3594
 3673WAT     H115398   6.544   6.535   0.484 -1.2268 -0.6904  1.1113
 3673WAT     H215399   6.516   6.418   0.418  1.0247  0.1894 -1.5753
 3673WAT    EPW15400   6.561   6.460   0.467 -0.0282 -0.0014  0.3213
 3674WAT      O15401   5.625   4.112   6.727  0.3409 -0.0870  0.0536
 3674WAT     H115402   5.654   4.187   6.692 -0.1816 -0.0986 -0.4189
 3674WAT     H215403   5.634   4.055   6.662  1.3377 -0.5822  0.6182
 3674WAT    EPW15404   5.631   4.115   6.712  0.0378  0.9297  0.1370
 3675WAT      O15405   4.735   3.804   4.878 -0.0076  0.5233  0.3219
 3675WAT     H115406   4.694   3.859   4.825  2.0902  0.6518 -1.2969
 3675WAT     H215407   4.677   3.741   4.892 -0.2034 -0.3778 -3.5337
 3675WAT    EPW15408   4.721   3.803   4.872 -0.5414 -0.0320 -0.8748
 3676WAT      O15409   5.993   4.564   6.655  0.0762  0.4102  0.1501
 3676WAT     H115410   5.993   4.494   6.708  0.7043 -1.0347 -1.6611
 3676WAT     H215411   6.069   4.558   6.613  1.2214  3.5036  1.4761
 3676WAT    EPW15412   6.004   4.552   6.657  0.5054 -0.4551 -0.3437
 3677WAT      O15413   5.446   5.291   7.039  0.6520 -0.7770 -0.5346
 3677WAT     H115414   5.369   5.266   7.073  0.5105  1.8121  1.3641
 3677WAT     H215415   5.496   5.304   7.109  2.0319  0.0250 -1.6209
 3677WAT    EPW15416   5.442   5.289   7.054  0.3208 -0.2290 -0.7401
 3678WAT      O15417   7.385   2.606   7.777 -0.6054  0.5910 -0.1270
 3678WAT     H115418   7.442   2.552   7.741 -1.0863  1.0746 -1.6767
 3678WAT     H215419   7.391   2.588   7.862  0.5859 -0.5627 -0.4235
 3678WAT    EPW15420   7.394   2.596   7.784  0.1245  0.5207  0.9049
 3679WAT      O15421   5.115   1.719   6.591  0.1575 -0.4346 -0.1038
 3679WAT     H115422   5.064   1.759   6.649  0.4539 -0.4266  0.1520
 3679WAT     H215423   5.067   1.651   6.566  0.0954 -0.5370  0.2823
 3679WAT    EPW15424   5.100   1.715   6.596  0.8582 -0.4171  0.2924
 3680WAT      O15425   6.291   3.359   7.238 -0.6507 -0.1893 -0.1068
 3680WAT     H115426   6.246   3.320   7.174 -0.2757 -1.4785  0.3940
 3680WAT     H215427   6.370   3.321   7.233  0.1494  1.4348 -0.4278
 3680WAT    EPW15428   6.296   3.348   7.228  0.6856 -0.4268 -0.5613
 3681WAT      O15429   5.483   5.588   8.011 -0.4822 -0.2016  0.4993
 3681WAT     H115430   5.422   5.642   8.040 -0.4084  0.2156 -0.0914
 3681WAT     H215431   5.541   5.585   8.076  0.1625  1.4677  0.0502
 3681WAT    EPW15432   5.483   5.595   8.025  0.3754 -0.0058 -0.1300
 3682WAT      O15433   4.803   3.020   4.535  0.1368  0.0983  0.5272
 3682WAT     H115434   4.725   3.050   4.511 -0.4499 -0.4440  1.6360
 3682WAT     H215435   4.831   2.975   4.466 -0.7133 -0.0113  0.2413
 3682WAT    EPW15436   4.796   3.017   4.521  0.4507  0.0113  0.0852
 3683WAT      O15437   4.765   4.172   5.400  0.2053  0.0770  0.3298
 3683WAT     H115438   4.756   4.157   5.485 -2.6201  2.7813  0.6908
 3683WAT     H215439   4.717   4.110   5.362  1.1184 -0.8744  0.7046
 3683WAT    EPW15440   4.757   4.161   5.407 -0.1517 -0.3227 -1.0445
 3684WAT      O15441   4.577   5.658   7.802 -0.2059  0.0147  0.1830
 3684WAT     H115442   4.555   5.590   7.851  1.1027 -0.7461 -0.2571
 3684WAT     H215443   4.559   5.632   7.721 -1.1056  0.7663  0.1270
 3684WAT    EPW15444   4.571   5.644   7.797 -1.2298 -0.3305 -0.4360
 3685WAT      O15445   6.998   3.520   7.056  0.3728 -0.3346 -0.0483
 3685WAT     H115446   7.079   3.490   7.042  0.2655 -0.8087  0.3002
 3685WAT     H215447   6.995   3.533   7.142  0.8580  2.0405 -0.3309
 3685WAT    EPW15448   7.009   3.517   7.067 -0.0932 -0.1065 -0.3186
 3686WAT      O15449   4.591   4.366   5.333 -0.0011 -0.0719  0.5250
 3686WAT     H115450   4.656   4.312   5.354  1.0706 -0.1318 -2.4978
 3686WAT     H215451   4.621   4.445   5.354 -0.3711 -0.3517  2.2148
 3686WAT    EPW15452   4.605   4.370   5.339 -0.6512  0.0407  0.0120
 3687WAT      O15453   5.403   3.841   6.544 -0.9664  0.8648 -0.5019
 3687WAT     H115454   5.389   3.773   6.490 -0.9290  0.0824  0.4358
 3687WAT     H215455   5.329   3.886   6.541 -1.5005  0.0390 -0.1316
 3687WAT    EPW15456   5.390   3.837   6.536 -0.0948  0.2895 -0.7639
 3688WAT      O15457   5.352   5.572   6.346  0.2240  0.8779 -0.9255
 3688WAT     H115458   5.275   5.604   6.320 -0.5129  0.3502  0.5203
 3688WAT     H215459   5.369   5.509   6.287 -1.6396 -0.6280  0.0335
 3688WAT    EPW15460   5.343   5.567   6.333  0.0458  0.2847 -0.3896
 3689WAT      O15461   6.199   2.840   0.282  0.5638  0.2733  0.0096
 3689WAT     H115462   6.123   2.871   0.253  0.8887  1.0188 -0.0607
 3689WAT     H215463   6.177   2.764   0.319 -0.0068 -0.2760 -1.3678
 3689WAT    EPW15464   6.185   2.833   0.283  0.2548 -0.3685  0.0564
 3690WAT      O15465   4.814   3.804   5.329  0.0316 -0.1430 -0.3038
 3690WAT     H115466   4.734   3.833   5.348 -0.2840 -1.3341  0.2676
 3690WAT     H215467   4.799   3.731   5.284  0.8012  0.6425 -1.9091
 3690WAT    EPW15468   4.800   3.797   5.325  0.8356 -0.9293  0.4518
 3691WAT      O15469   5.580   3.030   6.951  0.1350 -0.1362  0.4412
 3691WAT     H115470   5.660   3.045   6.982  0.4405 -0.1533 -0.3222
 3691WAT     H215471   5.531   3.023   7.023  1.0044 -1.2200  0.9483
 3691WAT    EPW15472   5.584   3.031   6.966  0.1313 -0.2970  0.6106
 3692WAT      O15473   5.971   3.785   6.716 -0.4602  0.3551 -0.1840
 3692WAT     H115474   6.024   3.814   6.653 -0.2584 -0.3068 -0.3317
 3692WAT     H215475   5.936   3.857   6.749 -2.4493  0.7111 -2.6584
 3692WAT    EPW15476   5.973   3.800   6.711  0.0478  1.0055  0.3016
 3693WAT      O15477   4.042   3.099   6.802  0.1571 -0.3944  0.3158
 3693WAT     H115478   4.021   3.024   6.762  0.5654  0.0627 -0.7990
 3693WAT     H215479   4.120   3.082   6.837  0.3536 -0.4184 -0.1324
 3693WAT    EPW15480   4.050   3.085   6.801 -0.9555  0.0736 -1.3875
 3694WAT      O15481   5.372   4.005   6.796 -0.2514  0.0733  0.4841
 3694WAT     H115482   5.445   4.043   6.766 -1.0585  1.8747  0.6943
 3694WAT     H215483   5.309   4.041   6.748 -1.3248  1.0849  2.5284
 3694WAT    EPW15484   5.374   4.016   6.784  0.7749  0.5122  0.5839
 3695WAT      O15485   4.806   3.997   6.300 -0.7421  0.4766  0.4114
 3695WAT     H115486   4.853   3.940   6.346 -0.9850 -1.1804 -1.2676
 3695WAT     H215487   4.862   4.027   6.241 -1.3207 -0.2644 -0.5504
 3695WAT    EPW15488   4.821   3.993   6.298 -0.2673 -0.2636 -0.1132
 3696WAT      O15489   4.947   3.852   5.076  0.2561  0.1725 -0.0458
 3696WAT     H115490   4.883   3.830   5.021  0.6165 -0.5229 -0.2034
 3696WAT     H215491   4.904   3.880   5.147 -0.2158  2.3192 -1.1191
 3696WAT    EPW15492   4.931   3.853   5.078 -0.0115  0.1988  0.3827
 3697WAT      O15493   5.198   3.873   7.377  0.1827  0.2051  0.4128
 3697WAT     H115494   5.193   3.879   7.290 -1.9262 -0.7964  0.4115
 3697WAT     H215495   5.119   3.901   7.404  0.0802 -1.3573  1.8620
 3697WAT    EPW15496   5.185   3.878   7.368 -0.4053 -0.1718  0.3930
 3698WAT      O15497   7.270   3.121   3.848 -0.2757  0.2278  0.3684
 3698WAT     H115498   7.238   3.040   3.852  0.8392 -0.1906  1.5983
 3698WAT     H215499   7.331   3.122   3.911  3.1296  0.5146 -2.6334
 3698WAT    EPW15500   7.274   3.109   3.858  0.0949 -0.3075  1.2589
 3699WAT      O15501   5.100   4.258   4.100  0.3746  0.0072  0.3324
 3699WAT     H115502   5.097   4.171   4.088  0.2936 -0.1731  1.5164
 3699WAT     H215503   5.016   4.281   4.104  0.3492 -0.1875  1.9254
 3699WAT    EPW15504   5.087   4.248   4.099  0.8119 -0.4734 -0.0067
 3700WAT      O15505   6.575   5.427   4.343 -0.0647  0.1868  0.2096
 3700WAT     H115506   6.603   5.507   4.320 -1.8588  0.3907 -1.5571
 3700WAT     H215507   6.552   5.436   4.427 -1.1407  1.8464 -0.2140
 3700WAT    EPW15508   6.576   5.440   4.352 -0.2103  0.5303  0.3201
 3701WAT      O15509   4.396   3.601   2.783 -0.4273 -0.1830  0.2043
 3701WAT     H115510   4.383   3.538   2.842 -1.0735 -1.5847 -1.3500
 3701WAT     H215511   4.471   3.579   2.745 -0.1716  0.5353  0.2752
 3701WAT    EPW15512   4.405   3.588   2.786 -0.3397 -0.6962  0.7739
 3702WAT      O15513   6.668   3.645   4.365 -0.0179 -0.0909 -0.1034
 3702WAT     H115514   6.593   3.611   4.337 -1.2163  1.6592  0.8294
 3702WAT     H215515   6.643   3.706   4.422  2.0040  1.9059 -1.1983
 3702WAT    EPW15516   6.653   3.649   4.369  0.2967  0.4057 -0.7210
 3703WAT      O15517   4.951   4.313   3.444 -0.5701 -0.2266  0.5925
 3703WAT     H115518   4.933   4.393   3.474 -0.8705 -0.8448  2.1489
 3703WAT     H215519   4.884   4.295   3.392 -0.9792  0.1779  0.9624
 3703WAT    EPW15520   4.939   4.322   3.441  1.6068  0.6023  0.7579
 3704WAT      O15521   5.538   3.087   3.961  0.2498  0.1706 -0.3679
 3704WAT     H115522   5.480   3.100   3.897 -0.1169  1.5605  0.2201
 3704WAT     H215523   5.537   3.162   4.006  1.7315 -0.1644  0.2901
 3704WAT    EPW15524   5.529   3.100   3.958  0.0775  0.0920 -0.0940
 3705WAT      O15525   4.560   4.304   3.739  0.1451  0.1142 -0.1690
 3705WAT     H115526   4.497   4.354   3.705  0.1078 -0.1620 -0.5163
 3705WAT     H215527   4.631   4.354   3.733  0.3525 -0.2935 -1.6287
 3705WAT    EPW15528   4.561   4.319   3.733 -0.2672  0.5730  0.3644
 3706WAT      O15529   4.441   5.455   5.114 -0.0568  0.0928  0.0030
 3706WAT     H115530   4.408   5.525   5.073  2.4156  1.4658  0.1620
 3706WAT     H215531   4.378   5.432   5.169 -1.5905  1.1709 -1.2222
 3706WAT    EPW15532   4.427   5.462   5.116  0.0655 -0.6331  0.2679
 3707WAT      O15533   4.418   3.369   5.068 -0.0658  0.0826  0.0052
 3707WAT     H115534   4.375   3.445   5.058  1.1364  0.9186  0.8376
 3707WAT     H215535   4.356   3.313   5.092 -0.8839  0.9665  0.0086
 3707WAT    EPW15536   4.403   3.372   5.070  0.7416 -0.2140  0.3304
 3708WAT      O15537   5.300   4.810   4.676 -0.6203 -0.0623  0.3007
 3708WAT     H115538   5.223   4.848   4.692 -1.4114 -1.7340  0.7602
 3708WAT     H215539   5.347   4.828   4.747 -1.2644 -0.5785  0.8756
 3708WAT    EPW15540   5.296   4.818   4.689  0.3772 -1.1073  0.2492
 3709WAT      O15541   6.547   3.463   4.662 -0.2916 -0.2097  0.0683
 3709WAT     H115542   6.574   3.405   4.603 -0.5937 -0.8758  0.5649
 3709WAT     H215543   6.474   3.496   4.627 -0.0934 -0.0948 -0.2369
 3709WAT    EPW15544   6.540   3.459   4.648  0.3609  0.2273  0.1255
 3710WAT      O15545   4.777   4.457   3.821  0.2690 -0.1307 -0.3962
 3710WAT     H115546   4.729   4.528   3.839 -0.3435 -0.6240 -0.0447
 3710WAT     H215547   4.778   4.413   3.897  1.6931  0.0913 -0.2415
 3710WAT    EPW15548   4.770   4.461   3.835  0.2931 -0.9305  0.1815
 3711WAT      O15549   6.481   4.906   3.466 -0.1333 -0.0254 -0.5936
 3711WAT     H115550   6.503   4.824   3.447  1.1312  0.9784 -4.1615
 3711WAT     H215551   6.393   4.905   3.463 -0.5437 -1.9650  3.8661
 3711WAT    EPW15552   6.471   4.894   3.463 -0.3068 -0.3745 -0.6413
 3712WAT      O15553   5.097   4.521   4.551  0.2266  0.3948 -0.0920
 3712WAT     H115554   5.176   4.485   4.538  0.3457 -0.3832  2.3185
 3712WAT     H215555   5.100   4.593   4.502  2.8222  0.8678  0.5846
 3712WAT    EPW15556   5.109   4.527   4.542 -0.9261 -0.7120 -0.6931
 3713WAT      O15557   6.911   3.339   3.662  0.3680 -0.7388  0.2624
 3713WAT     H115558   6.987   3.367   3.695  0.4120 -2.0692  1.3643
 3713WAT     H215559   6.930   3.258   3.635  0.2504  0.1316 -2.8312
 3713WAT    EPW15560   6.925   3.331   3.663  0.9953  0.4155 -0.7097
 3714WAT      O15561   7.608   1.429   3.917  0.3182 -0.2100  0.4759
 3714WAT     H115562   7.650   1.489   3.965  1.9518 -0.1485 -0.9667
 3714WAT     H215563   7.553   1.476   3.868  1.0698  0.0648 -0.1210
 3714WAT    EPW15564   7.606   1.445   3.917  0.3062 -0.2308  0.2890
 3715WAT      O15565   4.942   3.186   3.939 -0.4980  0.2970 -0.4925
 3715WAT     H115566   5.005   3.213   3.885  0.1446 -0.4362 -0.1200
 3715WAT     H215567   4.879   3.160   3.884  0.3883 -1.0374 -0.9402
 3715WAT    EPW15568   4.942   3.186   3.923  0.7813 -0.3082 -0.9446
 3716WAT      O15569   5.397   3.836   4.264 -0.1725 -0.0572  0.0472
 3716WAT     H115570   5.314   3.830   4.238 -0.0686  0.8401 -0.5400
 3716WAT     H215571   5.441   3.845   4.189  0.5654 -1.3932  0.2854
 3716WAT    EPW15572   5.391   3.837   4.249  0.3221  0.2382 -0.6124
 3717WAT      O15573   4.723   4.215   4.929 -0.5281  0.2186  0.4545
 3717WAT     H115574   4.661   4.267   4.961 -1.6121 -0.2606 -0.7889
 3717WAT     H215575   4.679   4.159   4.878  1.0272  0.6861 -1.5410
 3717WAT    EPW15576   4.708   4.214   4.926 -0.0061 -0.0200 -0.5092
 3718WAT      O15577   4.558   4.665   3.837  0.1379  0.1231 -0.7091
 3718WAT     H115578   4.581   4.714   3.769 -0.6061 -0.8410 -1.6726
 3718WAT     H215579   4.493   4.615   3.807 -0.3904 -0.1510  0.7699
 3718WAT    EPW15580   4.552   4.665   3.823 -0.4435 -0.3130  0.5343
 3719WAT      O15581   7.888   3.629   2.943 -0.0625  0.0637  0.1758
 3719WAT     H115582   7.908   3.707   2.908  0.6950 -0.3891 -0.4285
 3719WAT     H215583   7.963   3.602   2.977 -0.4103 -0.2536  0.7130
 3719WAT    EPW15584   7.902   3.637   2.943 -0.4933 -0.2724  0.8360
 3720WAT      O15585   6.361   4.574   3.120  0.4157  0.3636  0.5099
 3720WAT     H115586   6.303   4.540   3.175  0.0625 -0.0502 -0.1084
 3720WAT     H215587   6.350   4.529   3.047  0.7651  1.0137  0.0388
 3720WAT    EPW15588   6.351   4.562   3.117  0.5794  0.3353  0.2605
 3721WAT      O15589   5.756   5.241   2.682  0.4014 -1.2287 -0.1970
 3721WAT     H115590   5.708   5.171   2.704 -0.5740 -0.0917  1.5405
 3721WAT     H215591   5.758   5.288   2.756  1.3665  0.3966 -1.2007
 3721WAT    EPW15592   5.749   5.237   2.696  0.6977 -0.2367 -0.5987
 3722WAT      O15593   5.950   2.154   3.860  0.0486  0.0107  0.4833
 3722WAT     H115594   5.980   2.169   3.779 -0.3489  0.5441  0.4216
 3722WAT     H215595   5.879   2.104   3.846  0.9029 -1.2787  0.6302
 3722WAT    EPW15596   5.944   2.149   3.846 -0.5977  0.1704  0.1850
 3723WAT      O15597   4.504   1.760   6.279 -0.5728  0.2693 -0.0465
 3723WAT     H115598   4.587   1.783   6.263 -0.4354  0.0512  0.3530
 3723WAT     H215599   4.471   1.830   6.319 -0.0482 -0.3427  1.5185
 3723WAT    EPW15600   4.512   1.774   6.282  0.9012 -0.0957  0.7041
 3724WAT      O15601   4.710   3.819   4.259 -0.0807 -0.1012  0.2730
 3724WAT     H115602   4.627   3.813   4.233 -0.2520 -0.9657  0.9880
 3724WAT     H215603   4.753   3.836   4.186 -0.8439  0.0390 -0.1588
 3724WAT    EPW15604   4.704   3.821   4.245 -0.2402  0.4323  0.1177
 3725WAT      O15605   7.454   3.415   3.756  0.2104  0.0044  0.1938
 3725WAT     H115606   7.381   3.400   3.712 -0.4513  0.0774  1.2241
 3725WAT     H215607   7.494   3.477   3.709  0.3395 -1.0702 -1.1559
 3725WAT    EPW15608   7.449   3.422   3.743 -0.4406 -0.0551  0.1622
 3726WAT      O15609   5.660   4.616   5.194  0.3300 -0.0694  0.3178
 3726WAT     H115610   5.646   4.534   5.222 -0.9870  0.3885  1.0880
 3726WAT     H215611   5.722   4.645   5.249  1.4855 -0.8088 -0.5364
 3726WAT    EPW15612   5.667   4.608   5.206  0.7313  0.3293  0.1977
 3727WAT      O15613   5.546   2.682   3.875  0.2859 -0.0846  0.3162
 3727WAT     H115614   5.508   2.618   3.918 -2.1332 -0.0631 -1.5453
 3727WAT     H215615   5.624   2.650   3.853  0.7268 -0.8240  2.7674
 3727WAT    EPW15616   5.552   2.668   3.878  0.0897 -0.0989  0.6971
 3728WAT      O15617   5.278   4.687   3.226 -0.3381  0.1238 -0.3824
 3728WAT     H115618   5.210   4.740   3.212 -0.5044  0.6718  1.9863
 3728WAT     H215619   5.241   4.610   3.244 -0.2401  0.0110 -0.6545
 3728WAT    EPW15620   5.263   4.683   3.227  0.7535 -0.2471 -1.0684
 3729WAT      O15621   6.255   6.356   3.856  0.2235 -0.0573 -0.1446
 3729WAT     H115622   6.280   6.409   3.791  0.0362 -0.0547 -0.2157
 3729WAT     H215623   6.181   6.321   3.827 -0.8128  1.2422  0.7428
 3729WAT    EPW15624   6.248   6.359   3.842 -0.8421 -0.4077 -0.6539
 3730WAT      O15625   5.064   3.877   4.464 -0.4836  0.1686  0.0461
 3730WAT     H115626   4.985   3.907   4.486 -0.1516  1.1906 -0.0931
 3730WAT     H215627   5.115   3.903   4.530 -0.1305  0.1564 -0.2184
 3730WAT    EPW15628   5.060   3.886   4.477  0.4126  0.2308 -1.3946
 3731WAT      O15629   7.422   4.505   4.294 -0.0582 -0.3718 -0.2693
 3731WAT     H115630   7.357   4.549   4.257 -0.9643 -1.7709 -0.4140
 3731WAT     H215631   7.459   4.564   4.347  0.7036  1.4078 -2.6069
 3731WAT    EPW15632   7.418   4.520   4.297 -0.1424 -0.8992  0.1984
 3732WAT      O15633   5.727   4.070   2.571 -0.1469  0.6441 -0.0510
 3732WAT     H115634   5.731   3.997   2.523  0.5152  0.9244 -0.4304
 3732WAT     H215635   5.649   4.103   2.550 -0.4041  0.1143  0.0347
 3732WAT    EPW15636   5.716   4.064   2.561  0.2079 -0.7690 -0.2056
 3733WAT      O15637   5.507   3.946   4.026 -0.2048  0.1359 -0.5659
 3733WAT     H115638   5.519   3.897   3.955 -1.6703  0.6509 -1.1997
 3733WAT     H215639   5.541   4.023   4.003  0.8700 -0.1521 -0.0526
 3733WAT    EPW15640   5.514   3.950   4.012 -0.4779 -0.9072 -0.3197
 3734WAT      O15641   4.508   5.018   3.942  0.0277 -0.3661  0.1395
 3734WAT     H115642   4.478   5.078   3.998 -1.3253  0.5774 -1.4924
 3734WAT     H215643   4.469   4.944   3.969 -0.2571 -0.0180  0.7067
 3734WAT    EPW15644   4.498   5.016   3.955 -0.0665 -0.2554 -0.0100
 3735WAT      O15645   6.902   2.168   3.904  0.0782 -0.3570  0.4250
 3735WAT     H115646   6.835   2.223   3.913 -0.0804 -0.6074  0.7570
 3735WAT     H215647   6.971   2.222   3.899 -0.0710 -0.1286  0.8024
 3735WAT    EPW15648   6.903   2.184   3.904 -0.2471 -0.1846 -0.6449
 3736WAT      O15649   4.936   2.878   4.317  0.2808  0.4774  0.0110
 3736WAT     H115650   4.871   2.849   4.267  0.9761 -1.2507  0.0614
 3736WAT     H215651   4.963   2.951   4.276 -0.8174  0.4944 -0.7056
 3736WAT    EPW15652   4.930   2.885   4.303  0.9827  0.1881 -0.6200
 3737WAT      O15653   5.445   5.658   5.013 -0.1106 -0.4621 -0.4955
 3737WAT     H115654   5.489   5.646   4.939  0.7843  2.6020 -0.5970
 3737WAT     H215655   5.493   5.718   5.055 -1.0475 -1.4604  2.2106
 3737WAT    EPW15656   5.459   5.665   5.009 -0.2897  0.1598 -0.2328
 3738WAT      O15657   4.616   4.339   1.991  0.3419  0.2016  0.0845
 3738WAT     H115658   4.662   4.403   2.029  0.5700 -1.3799  2.7547
 3738WAT     H215659   4.676   4.280   1.970  0.8645  2.3392 -6.6725
 3738WAT    EPW15660   4.631   4.339   1.994 -0.4638 -0.1282 -0.2955
 3739WAT      O15661   5.119   3.724   4.224  0.0436 -0.5147  0.6316
 3739WAT     H115662   5.160   3.663   4.270  1.9382  0.9012  0.9568
 3739WAT     H215663   5.080   3.773   4.285  0.6297  0.0285  0.5806
 3739WAT    EPW15664   5.119   3.722   4.239 -0.2953 -0.7591  0.1242
 3740WAT      O15665   5.817   4.749   5.375  0.1151  0.1610  0.1121
 3740WAT     H115666   5.783   4.773   5.452 -1.7746 -0.0671 -0.6069
 3740WAT     H215667   5.850   4.823   5.343 -0.1178  0.4931  0.6247
 3740WAT    EPW15668   5.817   4.764   5.382  0.4168 -0.3205 -0.4338
 3741WAT      O15669   5.081   3.860   3.106  0.0716 -0.1953 -0.3101
 3741WAT     H115670   5.037   3.931   3.132 -3.0928 -1.8471 -0.5878
 3741WAT     H215671   5.072   3.861   3.019  1.8870  0.1012 -0.5397
 3741WAT    EPW15672   5.073   3.871   3.097  0.2406 -0.6087 -0.4469
 3742WAT      O15673   4.942   3.259   4.433 -0.2521 -0.3384 -0.2943
 3742WAT     H115674   4.960   3.223   4.355  0.8529  0.8197 -0.6054
 3742WAT     H215675   4.864   3.227   4.452 -1.3402  0.6509 -2.6725
 3742WAT    EPW15676   4.933   3.249   4.424 -0.7377  0.8739  0.0329
 3743WAT      O15677   6.513   3.997   4.178 -0.5162  0.8014  0.2940
 3743WAT     H115678   6.540   3.919   4.151  0.1736  1.7049 -1.7746
 3743WAT     H215679   6.544   4.002   4.260  0.0440 -0.7681  0.2164
 3743WAT    EPW15680   6.521   3.986   4.186  1.4273  0.3425  0.0313
 3744WAT      O15681   5.450   5.862   4.574 -0.2756 -0.2414 -0.6861
 3744WAT     H115682   5.469   5.906   4.647 -2.4575 -0.5237  0.1200
 3744WAT     H215683   5.517   5.807   4.566  0.5203  0.4924  0.5243
 3744WAT    EPW15684   5.463   5.860   4.584  0.4178 -1.0413 -0.2344
 3745WAT      O15685   6.111   3.401   4.263  0.0920 -0.5123 -0.1473
 3745WAT     H115686   6.170   3.358   4.215  0.2078 -0.4358 -0.0753
 3745WAT     H215687   6.047   3.419   4.207 -0.2959 -1.4278 -0.0126
 3745WAT    EPW15688   6.110   3.397   4.248 -0.5649 -0.7057 -0.2241
 3746WAT      O15689   6.982   4.383   4.529 -0.0674 -0.6292 -0.2563
 3746WAT     H115690   6.984   4.425   4.453  0.9327  0.3325  0.2665
 3746WAT     H215691   7.001   4.446   4.587 -0.6284 -1.3810  0.7614
 3746WAT    EPW15692   6.985   4.399   4.526 -0.3719 -1.0098 -0.0019
 3747WAT      O15693   4.816   4.747   4.408 -0.1562 -0.1158  0.5918
 3747WAT     H115694   4.762   4.776   4.346 -0.4018 -1.4052  0.1858
 3747WAT     H215695   4.769   4.756   4.482  0.0428  1.1732  0.5791
 3747WAT    EPW15696   4.801   4.753   4.410  0.0085 -0.0130 -0.6746
 3748WAT      O15697   5.650   5.474   4.090  0.2071 -0.2385  0.0683
 3748WAT     H115698   5.620   5.404   4.132 -0.3369 -0.8748 -1.3310
 3748WAT     H215699   5.580   5.526   4.084  0.8729  1.0261  2.1594
 3748WAT    EPW15700   5.635   5.471   4.095 -0.3406 -0.0054  0.0701
 3749WAT      O15701   5.812   3.696   4.203  0.3357  0.0425  0.1678
 3749WAT     H115702   5.828   3.689   4.118 -0.1902 -0.0361  0.0727
 3749WAT     H215703   5.810   3.783   4.217 -1.3494  0.1011 -0.2548
 3749WAT    EPW15704   5.814   3.708   4.193 -0.7205 -0.1387 -0.6630
 3750WAT      O15705   4.863   5.469   4.450 -0.0889  0.0338  0.3008
 3750WAT     H115706   4.801   5.522   4.481  0.4939  0.0406  1.5090
 3750WAT     H215707   4.883   5.419   4.519  0.4431 -0.7380 -0.3950
 3750WAT    EPW15708   4.857   5.469   4.465  0.1025  0.3855  0.2885
 3751WAT      O15709   6.322   6.134   4.824  0.0526 -0.1591 -0.2147
 3751WAT     H115710   6.360   6.211   4.807 -2.3892  1.0546 -0.5788
 3751WAT     H215711   6.379   6.076   4.793  2.1197  1.4443  0.3389
 3751WAT    EPW15712   6.336   6.137   4.817 -0.3256 -0.3209 -0.0728
 3752WAT      O15713   6.487   2.472   3.654  0.7574 -0.5047  0.9038
 3752WAT     H115714   6.435   2.493   3.720 -0.4213 -0.7754  0.1017
 3752WAT     H215715   6.518   2.549   3.626 -0.7949 -0.1205  0.1565
 3752WAT    EPW15716   6.484   2.486   3.659 -0.6136 -0.0978 -0.0857
 3753WAT      O15717   5.133   3.581   4.546 -0.1565 -0.6244 -0.3906
 3753WAT     H115718   5.197   3.638   4.564  0.8069 -0.9653 -2.3826
 3753WAT     H215719   5.063   3.632   4.534 -0.2926 -0.2348  1.7594
 3753WAT    EPW15720   5.132   3.597   4.547  0.0811  0.8779 -0.0925
 3754WAT      O15721   6.806   2.612   4.645  0.3610  0.0070  0.0805
 3754WAT     H115722   6.826   2.686   4.603 -0.6466  0.0756 -0.3093
 3754WAT     H215723   6.848   2.551   4.599  0.1006  0.1978 -0.4279
 3754WAT    EPW15724   6.815   2.614   4.632 -0.5414 -0.5221 -0.1667
 3755WAT      O15725   6.009   2.616   4.117 -0.1037 -0.1087  0.1384
 3755WAT     H115726   5.957   2.658   4.173 -0.4705 -0.2220 -0.1126
 3755WAT     H215727   5.954   2.590   4.054  0.3238  0.1217 -0.3345
 3755WAT    EPW15728   5.993   2.619   4.116  0.0653 -0.3790  0.6314
 3756WAT      O15729   6.670   3.732   2.090 -0.2014  0.2754 -0.0272
 3756WAT     H115730   6.597   3.692   2.063 -0.4042  1.1434 -0.8376
 3756WAT     H215731   6.657   3.742   2.176 -0.8519  0.0276 -0.0879
 3756WAT    EPW15732   6.657   3.728   2.099 -0.5068  0.5003 -0.3095
 3757WAT      O15733   5.208   4.204   3.658 -0.3260  0.1724  0.0177
 3757WAT     H115734   5.165   4.277   3.636 -0.9376 -0.2116 -0.0726
 3757WAT     H215735   5.144   4.148   3.679  0.0751 -0.6870 -0.9815
 3757WAT    EPW15736   5.192   4.207   3.658  0.9292  0.0462  0.1941
 3758WAT      O15737   4.948   3.915   4.072  0.5722  0.4661 -0.0416
 3758WAT     H115738   5.031   3.903   4.095 -0.0096 -0.1833  1.8668
 3758WAT     H215739   4.926   3.991   4.108  0.1368  0.2885  0.0839
 3758WAT    EPW15740   4.957   3.925   4.081 -0.2281  0.3442 -0.9050
 3759WAT      O15741   5.183   3.469   4.295  0.0039 -0.1622  0.7341
 3759WAT     H115742   5.220   3.393   4.275 -1.5617 -1.1658  1.4670
 3759WAT     H215743   5.176   3.467   4.382 -0.3929  0.6607  0.7362
 3759WAT    EPW15744   5.188   3.458   4.305  0.7193  0.1292  0.5892
 3760WAT      O15745   5.377   4.809   4.191 -0.6570  0.1742  0.0443
 3760WAT     H115746   5.399   4.824   4.275 -0.0005  1.2746 -0.3082
 3760WAT     H215747   5.295   4.839   4.186 -0.3464  1.0368  0.0517
 3760WAT    EPW15748   5.368   4.815   4.203  0.3416  0.5175  0.6253
 3761WAT      O15749   5.969   3.440   4.015  0.2993  0.3315 -0.2989
 3761WAT     H115750   5.950   3.357   3.996  0.1659  0.3388 -0.1947
 3761WAT     H215751   5.892   3.480   4.012 -0.1174 -0.0923  2.5583
 3761WAT    EPW15752   5.955   3.434   4.011 -0.5835  0.3745 -0.4369
 3762WAT      O15753   6.652   3.530   3.100  0.4174  0.1626 -0.1863
 3762WAT     H115754   6.727   3.513   3.139  1.1852  0.8981 -1.2797
 3762WAT     H215755   6.663   3.611   3.067  0.2344 -0.7464 -2.7241
 3762WAT    EPW15756   6.664   3.540   3.101 -0.4544  0.9693  0.5715
 3763WAT      O15757   7.377   2.454   3.586 -0.2830  0.2554  0.2382
 3763WAT     H115758   7.321   2.520   3.578  1.8104  2.3956  1.5731
 3763WAT     H215759   7.406   2.442   3.505 -2.2860 -0.5872 -0.3844
 3763WAT    EPW15760   7.373   2.462   3.573 -0.4584 -0.1603  0.1046
 3764WAT      O15761   4.230   4.176   3.933  0.2311  0.3833  0.1810
 3764WAT     H115762   4.215   4.244   3.880 -0.7288  0.1066  0.0708
 3764WAT     H215763   4.152   4.135   3.936  0.8374 -0.8262  0.0716
 3764WAT    EPW15764   4.216   4.180   3.926  1.2568 -0.0046 -0.5650
 3765WAT      O15765   5.789   4.694   4.294  0.7372 -0.3159 -0.3137
 3765WAT     H115766   5.842   4.629   4.270 -1.8003 -1.9394 -2.0796
 3765WAT     H215767   5.762   4.727   4.217 -0.8606  0.3407  0.4847
 3765WAT    EPW15768   5.793   4.689   4.279 -0.1718 -0.2057  0.1189
 3766WAT      O15769   6.448   3.534   3.840 -0.0650  0.1905 -0.0489
 3766WAT     H115770   6.398   3.506   3.906 -0.2457 -0.8302 -0.6040
 3766WAT     H215771   6.398   3.594   3.800 -1.9446 -2.4617 -2.0412
 3766WAT    EPW15772   6.433   3.539   3.844 -0.1982  0.1651  0.3688
 3767WAT      O15773   6.291   3.033   3.137  0.0266  0.4759 -0.2345
 3767WAT     H115774   6.266   3.091   3.197  1.1698 -0.4067  1.1566
 3767WAT     H215775   6.376   3.024   3.153 -0.1228 -1.5681 -0.4094
 3767WAT    EPW15776   6.300   3.041   3.148  0.1665 -0.1655  0.3755
 3768WAT      O15777   6.407   3.954   4.961 -0.0862 -0.0456  0.3589
 3768WAT     H115778   6.444   3.877   4.976 -0.1805  0.2370  2.2922
 3768WAT     H215779   6.325   3.943   4.988 -0.1332  0.6796  0.5381
 3768WAT    EPW15780   6.401   3.941   4.967 -0.1172 -0.4235 -0.1217
 3769WAT      O15781   4.746   4.080   3.779  0.2829  0.3566  0.1850
 3769WAT     H115782   4.680   4.136   3.764  0.1856 -0.1496 -1.3830
 3769WAT     H215783   4.756   4.084   3.866 -0.6150  1.7905  0.2573
 3769WAT    EPW15784   4.737   4.089   3.790  0.3098 -0.7172  0.3537
 3770WAT      O15785   7.059   3.743   3.162 -0.5501  1.0547 -0.1641
 3770WAT     H115786   7.032   3.824   3.146 -0.0219  1.7922  2.1776
 3770WAT     H215787   7.141   3.753   3.190 -0.8944 -0.0783  1.4506
 3770WAT    EPW15788   7.067   3.756   3.164 -0.5848 -1.2630 -0.5255
 3771WAT      O15789   4.515   4.363   4.006  0.4184  0.1965 -0.3834
 3771WAT     H115790   4.562   4.312   4.060  1.7445  1.6612 -0.0932
 3771WAT     H215791   4.537   4.333   3.927  0.2470 -0.4681 -0.1891
 3771WAT    EPW15792   4.525   4.351   4.003  0.1044 -0.0497  0.5159
 3772WAT      O15793   5.692   3.280   3.202  0.5888  0.3364  0.2519
 3772WAT     H115794   5.746   3.324   3.254 -2.1161  2.6131  1.4020
 3772WAT     H215795   5.697   3.323   3.126  2.1862 -1.0612 -0.5091
 3772WAT    EPW15796   5.701   3.293   3.198  0.2085 -0.4844  0.5310
 3773WAT      O15797   5.906   4.220   4.948  0.2317  0.0244 -0.3933
 3773WAT     H115798   5.881   4.170   5.015 -0.0545 -0.9267 -1.1944
 3773WAT     H215799   5.878   4.300   4.971  1.8787  0.1089  1.5202
 3773WAT    EPW15800   5.898   4.225   4.961 -0.2111  0.3502  0.0725
 3774WAT      O15801   5.273   4.620   3.940  0.1003  0.5509 -0.2130
 3774WAT     H115802   5.268   4.538   3.910 -1.1709  0.6865 -0.4372
 3774WAT     H215803   5.338   4.617   3.998  0.2156 -0.5656 -0.3748
 3774WAT    EPW15804   5.282   4.608   3.944  0.4886 -0.1214 -0.0078
 3775WAT      O15805   5.789   3.959   4.283 -0.2282 -0.2978 -0.0479
 3775WAT     H115806   5.707   3.975   4.306 -0.5050  0.8271 -1.6608
 3775WAT     H215807   5.835   4.012   4.335 -0.7389  1.1314 -0.9875
 3775WAT    EPW15808   5.784   3.969   4.294  0.2419  0.6481 -0.4663
 3776WAT      O15809   4.581   3.745   3.983  0.0153  0.0703  0.4220
 3776WAT     H115810   4.519   3.804   3.970  0.4676  1.1247  2.5412
 3776WAT     H215811   4.633   3.753   3.914 -1.1256  0.5799 -0.3960
 3776WAT    EPW15812   4.580   3.755   3.971 -0.4300 -0.3401 -0.5270
 3777WAT      O15813   4.913   4.086   4.755 -0.0077 -0.0871 -0.3315
 3777WAT     H115814   4.842   4.039   4.736 -0.4782  1.0105 -1.4272
 3777WAT     H215815   4.885   4.140   4.818  0.8034 -1.8546  1.6737
 3777WAT    EPW15816   4.898   4.087   4.762  0.3680 -1.0147 -0.1294
 3778WAT      O15817   5.282   4.233   4.312 -0.4631  0.2422  0.0701
 3778WAT     H115818   5.241   4.228   4.236  0.4532  1.2359 -0.5217
 3778WAT     H215819   5.218   4.228   4.371 -1.1236 -1.1636 -0.7266
 3778WAT    EPW15820   5.266   4.231   4.310  0.1827 -0.6647 -0.4074
 3779WAT      O15821   4.629   5.118   3.709  0.1611  0.0807 -0.1280
 3779WAT     H115822   4.605   5.069   3.777  0.6566  2.3215  1.7762
 3779WAT     H215823   4.602   5.071   3.640 -2.9688 -1.0013  1.6290
 3779WAT    EPW15824   4.621   5.104   3.709  0.7309 -0.2535 -0.5893
 3780WAT      O15825   6.020   4.707   4.619 -0.4200 -0.2775 -0.6485
 3780WAT     H115826   6.013   4.630   4.578 -3.2804 -1.5808  1.8903
 3780WAT     H215827   6.005   4.765   4.557 -1.3637 -1.9581 -2.0973
 3780WAT    EPW15828   6.017   4.704   4.604 -0.2193 -0.0440  0.0833
 3781WAT      O15829   5.008   4.250   4.522  0.3107  0.2906 -0.0276
 3781WAT     H115830   4.995   4.336   4.515  1.2548  0.5607  1.2323
 3781WAT     H215831   4.967   4.229   4.596 -0.2987 -0.4604 -0.5516
 3781WAT    EPW15832   5.000   4.259   4.532 -0.2706  0.3533 -0.2177
 3782WAT      O15833   5.707   4.575   3.722  0.3022  0.1019  0.2536
 3782WAT     H115834   5.696   4.546   3.804  2.3417 -0.3947  0.4025
 3782WAT     H215835   5.652   4.642   3.717  0.2866  0.2937  2.1039
 3782WAT    EPW15836   5.697   4.581   3.734  0.6460 -1.8396 -0.7783
 3783WAT      O15837   5.489   3.913   5.608  0.0694 -0.0138 -0.8350
 3783WAT     H115838   5.505   3.830   5.587  3.7589  0.7601 -1.7762
 3783WAT     H215839   5.456   3.908   5.689  0.5504 -2.3531 -0.7283
 3783WAT    EPW15840   5.486   3.900   5.617  0.4482  1.8935  0.5900
 3784WAT      O15841   5.565   3.922   5.284  0.2850 -0.1806  0.4006
 3784WAT     H115842   5.574   3.923   5.197 -1.0711 -1.4646  0.1998
 3784WAT     H215843   5.514   3.991   5.299 -0.3768 -0.5753  0.0276
 3784WAT    EPW15844   5.558   3.933   5.274  0.0251  0.4204 -0.4706
 3785WAT      O15845   6.459   4.604   3.451 -0.0473  0.0371 -0.0555
 3785WAT     H115846   6.395   4.552   3.419 -1.8605  3.0773 -1.8822
 3785WAT     H215847   6.527   4.584   3.400 -1.0682  0.2699 -1.6008
 3785WAT    EPW15848   6.460   4.593   3.439  0.0027 -0.1425  0.0698
 3786WAT      O15849   5.728   5.860   3.873  0.1005  0.1076  0.0103
 3786WAT     H115850   5.809   5.848   3.842 -0.0793  0.4251 -0.5771
 3786WAT     H215851   5.686   5.899   3.808 -0.4195  0.3188  0.4672
 3786WAT    EPW15852   5.734   5.864   3.859  0.4564  0.2716  0.5099
 3787WAT      O15853   5.671   4.727   3.360 -0.2318  0.5585 -0.3355
 3787WAT     H115854   5.618   4.793   3.382 -0.4748 -0.0107  0.9022
 3787WAT     H215855   5.635   4.658   3.401  1.6654  0.2166  0.8855
 3787WAT    EPW15856   5.658   4.727   3.369 -0.0336  0.2355 -0.1072
 3788WAT      O15857   5.554   2.943   5.501  0.9391  0.6927 -0.2541
 3788WAT     H115858   5.633   2.960   5.468  1.1108  1.3924  0.4751
 3788WAT     H215859   5.555   2.984   5.578 -0.3156  1.1520 -0.4574
 3788WAT    EPW15860   5.565   2.952   5.508 -0.4387 -0.2131 -0.8257
 3789WAT      O15861   6.043   4.402   3.588 -0.3045  0.3180 -0.4927
 3789WAT     H115862   6.016   4.320   3.572 -0.0083  0.1231 -0.0147
 3789WAT     H215863   5.971   4.444   3.611 -0.0377 -0.5259  2.1349
 3789WAT    EPW15864   6.029   4.396   3.589 -0.2198 -0.2559 -0.4360
 3790WAT      O15865   6.296   3.340   3.583 -0.1568  0.2419  0.0432
 3790WAT     H115866   6.302   3.415   3.626  0.3852  1.2067 -1.6459
 3790WAT     H215867   6.357   3.346   3.521 -0.1644 -1.5497 -0.2040
 3790WAT    EPW15868   6.306   3.352   3.580  0.1368 -0.3379  0.1087
 3791WAT      O15869   7.142   4.298   3.013  0.8331 -0.1290  0.3056
 3791WAT     H115870   7.062   4.318   2.982 -0.3409 -5.1460 -0.8553
 3791WAT     H215871   7.148   4.344   3.087 -1.5953  3.0295 -1.2324
 3791WAT    EPW15872   7.131   4.308   3.019 -0.4605  0.4071 -1.3849
 3792WAT      O15873   5.102   2.811   3.941 -0.5125 -0.1560 -0.6490
 3792WAT     H115874   5.025   2.850   3.924 -0.5790 -0.7243 -1.7455
 3792WAT     H215875   5.140   2.807   3.863  0.7890  0.4029 -0.0777
 3792WAT    EPW15876   5.096   2.816   3.927  0.4123  0.5471  0.7066
 3793WAT      O15877   5.135   4.367   5.615  0.7525 -0.3779  0.4444
 3793WAT     H115878   5.129   4.453   5.630 -0.2728 -0.6737  1.8990
 3793WAT     H215879   5.212   4.359   5.573  0.9985  1.1991  0.5334
 3793WAT    EPW15880   5.146   4.378   5.611  0.4227  0.4491  0.4966
 3794WAT      O15881   5.908   4.164   3.861  0.0865  0.9587  0.3325
 3794WAT     H115882   5.995   4.160   3.874 -0.0641 -1.1193  1.1459
 3794WAT     H215883   5.876   4.175   3.942 -0.4149  2.7110 -0.0715
 3794WAT    EPW15884   5.916   4.165   3.875  0.4963  0.2989  0.6754
 3795WAT      O15885   5.304   3.860   3.464  0.1973  1.0729 -0.0168
 3795WAT     H115886   5.217   3.850   3.465  0.2981  0.0848 -0.0512
 3795WAT     H215887   5.332   3.800   3.521  0.9030  0.8808 -0.5547
 3795WAT    EPW15888   5.295   3.850   3.472  0.2361 -0.8281  1.5288
 3796WAT      O15889   5.957   4.397   5.804  0.8041 -0.2810 -0.5003
 3796WAT     H115890   5.887   4.399   5.752  0.7705 -0.7667 -0.4801
 3796WAT     H215891   6.024   4.400   5.749  0.7701 -0.9413 -0.5924
 3796WAT    EPW15892   5.957   4.398   5.788 -0.4133 -0.2512 -0.6869
 3797WAT      O15893   5.958   5.035   3.487  0.3346  0.4128 -0.6499
 3797WAT     H115894   5.922   5.028   3.407  0.3412 -1.2937 -0.5290
 3797WAT     H215895   5.892   5.016   3.540  0.9962 -1.2119 -0.3673
 3797WAT    EPW15896   5.943   5.031   3.483  0.4313  0.5954  0.6904
 3798WAT      O15897   4.765   4.787   4.096  0.1321  0.1438  0.2871
 3798WAT     H115898   4.843   4.751   4.079 -0.0672  0.8089 -2.3638
 3798WAT     H215899   4.776   4.870   4.074 -1.6523 -0.0056 -1.3790
 3798WAT    EPW15900   4.778   4.794   4.090 -0.0738 -0.4225 -0.3379
 3799WAT      O15901   5.789   2.981   3.731  0.3740 -0.2060  0.6493
 3799WAT     H115902   5.870   2.962   3.756  0.8858  0.7274 -0.2146
 3799WAT     H215903   5.759   2.906   3.699  0.3707 -0.9275  2.2608
 3799WAT    EPW15904   5.797   2.967   3.730  0.3988 -0.2065 -0.0614
 3800WAT      O15905   4.829   4.300   4.037 -0.2893  0.0697  0.2455
 3800WAT     H115906   4.809   4.365   4.092 -1.8158 -2.1384  2.5156
 3800WAT     H215907   4.795   4.230   4.075  3.1406 -2.4975 -0.8743
 3800WAT    EPW15908   4.821   4.300   4.051 -0.0948  0.1844  0.4616
 3801WAT      O15909   5.375   5.504   3.724 -0.1778 -0.1845 -0.1914
 3801WAT     H115910   5.403   5.422   3.738 -2.3662 -0.6017  3.0236
 3801WAT     H215911   5.446   5.552   3.735  0.8942 -1.5688 -0.7652
 3801WAT    EPW15912   5.389   5.499   3.728  0.4922 -0.1608 -0.1678
 3802WAT      O15913   6.466   4.665   3.726  0.1638  0.0987 -0.2248
 3802WAT     H115914   6.397   4.710   3.753  0.0892 -0.2875  0.2379
 3802WAT     H215915   6.437   4.621   3.657  0.6362  1.9277 -1.6704
 3802WAT    EPW15916   6.452   4.665   3.720 -0.0166 -0.3781 -0.7207
 3803WAT      O15917   6.444   6.502   3.146  0.4196  0.3835  0.1867
 3803WAT     H115918   6.439   6.561   3.210  0.5688  0.3518  0.2271
 3803WAT     H215919   6.360   6.488   3.125  0.4187  2.2524 -1.3337
 3803WAT    EPW15920   6.431   6.509   3.153  0.3955 -0.6474 -0.4171
 3804WAT      O15921   7.037   4.123   4.405 -0.2394  0.0945 -0.4516
 3804WAT     H115922   7.012   4.180   4.466 -0.3270  0.7621 -1.0915
 3804WAT     H215923   7.116   4.153   4.381 -0.1307 -0.2622 -0.5396
 3804WAT    EPW15924   7.045   4.136   4.410 -0.3279 -0.2395 -1.1865
 3805WAT      O15925   5.306   3.614   3.980  0.0603  0.0073  0.8213
 3805WAT     H115926   5.273   3.631   4.058  0.8777 -1.9734  1.6758
 3805WAT     H215927   5.248   3.650   3.925 -2.9852 -2.2384  2.2448
 3805WAT    EPW15928   5.292   3.622   3.983  0.6898 -1.0879  1.1994
 3806WAT      O15929   4.927   5.287   4.654  0.0869  0.2593  0.0182
 3806WAT     H115930   5.010   5.267   4.635  0.5079  0.2014  1.7526
 3806WAT     H215931   4.890   5.210   4.671 -0.1445  0.3459 -0.0756
 3806WAT    EPW15932   4.934   5.273   4.653  0.5405 -0.4816  0.9849
 3807WAT      O15933   6.895   4.165   3.528 -0.3816  0.3875 -0.2484
 3807WAT     H115934   6.917   4.216   3.595 -0.7798  0.7654 -0.4028
 3807WAT     H215935   6.847   4.217   3.477 -0.6151 -0.0784 -0.5134
 3807WAT    EPW15936   6.891   4.180   3.530 -0.6798 -0.1074  0.1078
 3808WAT      O15937   5.271   5.112   3.992  0.0259 -0.4521  0.3735
 3808WAT     H115938   5.269   5.150   4.071 -0.9000 -0.4154  0.3447
 3808WAT     H215939   5.243   5.175   3.939 -0.4724 -0.8310  0.1783
 3808WAT    EPW15940   5.267   5.127   3.996  0.2659 -0.2676 -0.1271
 3809WAT      O15941   5.666   4.751   4.532 -0.5646  0.8503  0.1770
 3809WAT     H115942   5.689   4.695   4.594 -1.5772  0.3234  0.0892
 3809WAT     H215943   5.705   4.720   4.460  0.5086  1.3942  0.5164
 3809WAT    EPW15944   5.675   4.738   4.530  0.0988  0.3202 -0.5366
 3810WAT      O15945   6.063   5.273   3.890  0.4046 -0.1538 -0.4463
 3810WAT     H115946   5.978   5.273   3.909  0.5463  0.7553  0.2393
 3810WAT     H215947   6.092   5.199   3.927  0.2131  0.3540  0.7629
 3810WAT    EPW15948   6.055   5.262   3.898 -0.1353 -0.6848 -0.0265
 3811WAT      O15949   5.793   3.684   4.592 -0.3251  0.2109 -0.1655
 3811WAT     H115950   5.725   3.679   4.537  0.3307 -1.3084 -0.9080
 3811WAT     H215951   5.844   3.618   4.567  1.2403  1.0632  0.6431
 3811WAT    EPW15952   5.791   3.673   4.580 -0.1515 -0.0957 -0.5611
 3812WAT      O15953   7.008   4.163   3.910 -0.4054  0.0471  0.0888
 3812WAT     H115954   7.047   4.085   3.903 -0.9678 -0.2608  0.4183
 3812WAT     H215955   6.938   4.148   3.959  0.1485  1.0076  1.2354
 3812WAT    EPW15956   7.004   4.149   3.916  1.2111 -0.3258  1.0073
 3813WAT      O15957   5.541   4.239   3.938 -0.0406  0.0418  0.2016
 3813WAT     H115958   5.455   4.252   3.940 -0.2569 -1.2052  0.4141
 3813WAT     H215959   5.575   4.319   3.942 -1.1721  0.4940  1.5230
 3813WAT    EPW15960   5.534   4.252   3.939 -0.3248  0.3164 -0.1830
 3814WAT      O15961   7.259   4.062   4.075 -0.2721  0.1721  0.2246
 3814WAT     H115962   7.253   4.093   4.156  1.9832 -1.5708  1.1563
 3814WAT     H215963   7.255   3.976   4.085 -0.3000 -0.0818 -1.5604
 3814WAT    EPW15964   7.258   4.054   4.088  0.1205 -0.0499 -0.7981
 3815WAT      O15965   6.034   5.226   5.854 -0.2477  0.4638 -0.4438
 3815WAT     H115966   5.960   5.191   5.886  0.0452 -0.2052 -0.4860
 3815WAT     H215967   6.006   5.270   5.784 -0.4248 -1.0487 -1.3652
 3815WAT    EPW15968   6.019   5.227   5.849 -1.1463  0.1430  0.4464
 3816WAT      O15969   6.632   2.744   5.139 -0.1795  0.8563  0.1025
 3816WAT     H115970   6.647   2.750   5.053  1.2849 -0.1353  0.2633
 3816WAT     H215971   6.711   2.733   5.174 -0.9297 -2.6350  1.1864
 3816WAT    EPW15972   6.646   2.743   5.131 -0.1560  0.5911 -0.8320
 3817WAT      O15973   5.862   3.992   3.663  0.0757 -0.0217  0.4873
 3817WAT     H115974   5.871   4.041   3.734  1.3358 -1.0048  1.0590
 3817WAT     H215975   5.938   4.004   3.620  0.1436 -0.9430  0.3201
 3817WAT    EPW15976   5.875   4.001   3.667  0.7294  0.5089 -0.1165
 3818WAT      O15977   4.803   4.784   4.831 -0.2596 -0.0267  0.6645
 3818WAT     H115978   4.871   4.737   4.805  0.5260  1.7288 -0.6147
 3818WAT     H215979   4.738   4.759   4.778  0.6047  1.4924 -1.2294
 3818WAT    EPW15980   4.803   4.773   4.820  0.6979  1.3995  0.0505
 3819WAT      O15981   4.923   5.874   4.731  0.2739 -0.2527  0.6587
 3819WAT     H115982   4.943   5.807   4.678 -0.3915  0.1854 -0.1739
 3819WAT     H215983   4.996   5.887   4.776  0.5245 -1.3213  0.5980
 3819WAT    EPW15984   4.937   5.866   4.730 -0.5161 -0.4115 -0.2417
 3820WAT      O15985   7.239   3.290   4.189  0.2788  0.7327 -0.4809
 3820WAT     H115986   7.193   3.243   4.246 -0.8343  1.2038 -0.9661
 3820WAT     H215987   7.263   3.360   4.234 -0.1836  0.8720 -0.4471
 3820WAT    EPW15988   7.236   3.293   4.204  0.3639 -0.2963 -0.5911
 3821WAT      O15989   5.544   4.520   3.497 -0.5336  0.4863  0.1513
 3821WAT     H115990   5.465   4.497   3.526  0.2272 -1.6134  0.7818
 3821WAT     H215991   5.597   4.496   3.563  0.9446 -1.4792 -1.5940
 3821WAT    EPW15992   5.540   4.513   3.511 -0.4724 -0.7837 -0.3523
 3822WAT      O15993   5.607   3.530   4.910  0.1176 -0.9247 -0.3612
 3822WAT     H115994   5.630   3.612   4.929 -0.7386 -0.4628 -1.2373
 3822WAT     H215995   5.522   3.536   4.891 -0.6025 -2.4435  1.9697
 3822WAT    EPW15996   5.598   3.543   4.910  1.0205  0.0707 -0.7543
 3823WAT      O15997   5.356   5.397   4.726  0.4354 -0.2196  0.1002
 3823WAT     H115998   5.306   5.467   4.740 -0.2978 -0.8476  0.6882
 3823WAT     H215999   5.354   5.354   4.802  1.7513 -0.3451  0.0888
 3823WAT    EPW16000   5.348   5.401   4.739  0.1768  0.3906  0.7132
 3824WAT      O16001   6.131   3.168   4.418  0.0829 -0.3344  0.6984
 3824WAT     H116002   6.106   3.239   4.373 -0.9789 -1.2853 -0.2546
 3824WAT     H216003   6.204   3.143   4.378 -0.0238 -0.3013  0.4855
 3824WAT    EPW16004   6.138   3.175   4.406  0.1534  0.3523 -0.4705
 3825WAT      O16005   4.875   3.646   5.595  0.5018 -0.2530 -0.4173
 3825WAT     H116006   4.874   3.560   5.585  1.7141 -0.1453 -1.7711
 3825WAT     H216007   4.823   3.675   5.531 -0.0766  0.0468  0.1611
 3825WAT    EPW16008   4.867   3.638   5.584 -1.3331 -0.0463 -0.4230
 3826WAT      O16009   5.198   4.624   5.041  0.1464  0.3680  0.2723
 3826WAT     H116010   5.180   4.569   5.107  0.7500  0.0165  0.1601
 3826WAT     H216011   5.144   4.599   4.978 -0.6832  0.9334  0.7375
 3826WAT    EPW16012   5.188   4.612   5.042  0.5692 -0.1030  0.3236
 3827WAT      O16013   5.171   4.127   5.389  0.2169 -0.2913  0.0777
 3827WAT     H116014   5.161   4.041   5.399 -1.7176  0.0716  2.2490
 3827WAT     H216015   5.149   4.159   5.468 -0.0354  2.2538 -0.9299
 3827WAT    EPW16016   5.167   4.119   5.402 -0.1364 -0.5547 -0.5873
 3828WAT      O16017   5.369   5.113   5.235 -0.2125  0.1029 -0.6992
 3828WAT     H116018   5.306   5.060   5.264 -0.5658  0.7090 -0.3256
 3828WAT     H216019   5.443   5.071   5.253 -0.4813 -0.1745 -0.2421
 3828WAT    EPW16020   5.370   5.099   5.242 -0.1040 -0.1247 -0.6147
 3829WAT      O16021   6.844   5.015   4.203  0.1621 -0.6790  0.2917
 3829WAT     H116022   6.780   5.008   4.143 -1.3730  1.6712  1.5050
 3829WAT     H216023   6.855   5.101   4.211  1.9040 -0.9930  1.8113
 3829WAT    EPW16024   6.836   5.027   4.195  0.5548  0.4325  0.0307
 3830WAT      O16025   5.822   3.212   3.963 -0.3293  0.6303 -0.0982
 3830WAT     H116026   5.746   3.240   3.996  0.3062  0.4039  1.6806
 3830WAT     H216027   5.798   3.163   3.895 -1.9385 -1.1127  1.5868
 3830WAT    EPW16028   5.807   3.209   3.958 -0.3967  0.0916  0.1387
 3831WAT      O16029   5.229   5.238   4.222  0.4403  0.0677 -0.1748
 3831WAT     H116030   5.179   5.180   4.264 -0.8683  0.2338 -1.4696
 3831WAT     H216031   5.177   5.306   4.208  1.1587  0.4620 -1.0990
 3831WAT    EPW16032   5.214   5.239   4.226  0.4603  0.1477 -0.4789
 3832WAT      O16033   5.698   2.960   5.195 -0.2132  0.7364  0.2515
 3832WAT     H116034   5.687   2.878   5.224 -0.3515  0.9120  0.6961
 3832WAT     H216035   5.784   2.970   5.192 -0.1845  1.0346  1.5174
 3832WAT    EPW16036   5.709   2.949   5.199  1.3831 -0.1238 -0.6412
 3833WAT      O16037   5.088   5.095   4.923 -0.0794 -0.0998 -0.4625
 3833WAT     H116038   5.101   5.076   4.839  2.7615 -0.3193 -0.0639
 3833WAT     H216039   5.168   5.094   4.958 -1.0779  0.5853  2.1475
 3833WAT    EPW16040   5.102   5.092   4.916  0.0679  1.0778 -0.0278
 3834WAT      O16041   5.202   6.510   4.577  0.0589  0.3426  0.6354
 3834WAT     H116042   5.254   6.510   4.508 -1.1298 -0.1760 -0.3001
 3834WAT     H216043   5.146   6.575   4.560  1.2137  1.8945  2.3184
 3834WAT    EPW16044   5.201   6.520   4.564  0.8956 -0.8667 -0.4008
 3835WAT      O16045   0.324   3.337   3.682 -0.3019 -0.4704 -0.3513
 3835WAT     H116046   0.320   3.259   3.643  3.7539 -0.6886 -0.7212
 3835WAT     H216047   0.304   3.393   3.619  0.4798 -1.0878 -1.1719
 3835WAT    EPW16048   0.321   3.334   3.667  0.3013 -0.6221 -0.3048
 3836WAT      O16049   6.281   3.198   3.855  0.6877  0.1488  0.5262
 3836WAT     H116050   6.335   3.235   3.798  0.3092 -0.9913 -0.6238
 3836WAT     H216051   6.317   3.120   3.871 -1.1800 -1.1798 -1.2676
 3836WAT    EPW16052   6.294   3.192   3.849 -0.2990  0.0008  0.7037
 3837WAT      O16053   6.217   3.629   3.701 -0.1973 -0.3974  0.1470
 3837WAT     H116054   6.164   3.663   3.762  2.8695 -0.4750  3.1442
 3837WAT     H216055   6.234   3.696   3.649 -0.2520  0.6398  1.4118
 3837WAT    EPW16056   6.211   3.644   3.702 -0.9039 -0.2209  0.7534
 3838WAT      O16057   6.309   4.887   4.026 -0.2169  0.2273  0.0119
 3838WAT     H116058   6.367   4.911   3.964  2.1094 -2.8222  0.7649
 3838WAT     H216059   6.336   4.931   4.096  0.5902 -0.3826  0.1010
 3838WAT    EPW16060   6.322   4.897   4.027  0.3568 -0.2600  0.0889
 3839WAT      O16061   5.835   3.934   4.683  0.5728  0.8461  0.2112
 3839WAT     H116062   5.914   3.953   4.714  1.1339 -0.9214 -0.0099
 3839WAT     H216063   5.845   3.854   4.650 -0.9794  1.1083 -1.0334
 3839WAT    EPW16064   5.848   3.925   4.682  0.9208 -0.2514  0.0615
 3840WAT      O16065   4.292   3.609   4.951 -0.1952 -0.0551  0.1667
 3840WAT     H116066   4.300   3.665   5.017 -1.2130 -0.4285  0.6261
 3840WAT     H216067   4.206   3.610   4.934 -0.2857 -1.7181  0.4187
 3840WAT    EPW16068   4.280   3.618   4.958 -0.6401  0.3854 -0.0130
 3841WAT      O16069   5.041   5.429   5.288  0.3188 -0.1474  0.2932
 3841WAT     H116070   5.047   5.415   5.202  1.1481  1.3252  0.0705
 3841WAT     H216071   5.125   5.434   5.313  0.0822  0.4697  0.9911
 3841WAT    EPW16072   5.054   5.428   5.279 -0.9105  0.4775 -0.7441
 3842WAT      O16073   6.689   4.209   3.269 -0.7652  0.0217  0.3760
 3842WAT     H116074   6.633   4.151   3.304 -2.3308 -0.6028 -2.8014
 3842WAT     H216075   6.723   4.166   3.201  1.2404  1.5045  0.3615
 3842WAT    EPW16076   6.686   4.194   3.265 -0.5153  1.2957 -0.9784
 3843WAT      O16077   4.765   3.798   3.747 -0.7685 -0.2049 -0.2250
 3843WAT     H116078   4.771   3.880   3.718 -0.4770  0.1346  0.7682
 3843WAT     H216079   4.827   3.756   3.701  1.6334  0.9009  1.7554
 3843WAT    EPW16080   4.775   3.804   3.736 -0.0143 -0.2618  0.1207
 3844WAT      O16081   5.961   5.391   5.560  0.3421  0.1614 -0.3780
 3844WAT     H116082   6.010   5.448   5.516 -2.8281  2.6979 -1.0803
 3844WAT     H216083   5.890   5.382   5.510 -1.7889  0.1907  2.3885
 3844WAT    EPW16084   5.957   5.398   5.546  0.2063 -0.5286  0.1511
 3845WAT      O16085   6.853   4.145   4.181  0.4607 -0.0598  0.1391
 3845WAT     H116086   6.780   4.128   4.226 -0.6990  2.8573 -0.3699
 3845WAT     H216087   6.916   4.137   4.241 -0.1501 -2.8417  0.5450
 3845WAT    EPW16088   6.851   4.142   4.196 -0.3177 -0.5612  0.0257
 3846WAT      O16089   5.956   4.708   3.648  0.6682 -0.0823  0.1042
 3846WAT     H116090   5.890   4.661   3.681  1.4237 -0.8971  0.4945
 3846WAT     H216091   5.934   4.790   3.666 -1.4370 -0.0979 -1.9442
 3846WAT    EPW16092   5.943   4.713   3.655 -0.3205  0.0396 -0.7537
 3847WAT      O16093   4.535   5.018   5.240 -0.0196 -0.1759 -0.0559
 3847WAT     H116094   4.609   5.065   5.244  0.5213 -0.8330 -1.5663
 3847WAT     H216095   4.563   4.936   5.230 -0.9645 -0.5962  0.6538
 3847WAT    EPW16096   4.550   5.013   5.239 -0.6221 -0.1189 -1.5243
 3848WAT      O16097   5.396   4.155   5.220  0.0963 -0.0362 -0.0973
 3848WAT     H116098   5.324   4.144   5.269 -0.4665  3.2617  0.0161
 3848WAT     H216099   5.376   4.113   5.146 -1.7140  0.2597  0.1607
 3848WAT    EPW16100   5.382   4.147   5.216 -0.4779  0.0462  0.0038
 3849WAT      O16101   4.477   6.027   5.221  0.0584 -0.1945 -0.2059
 3849WAT     H116102   4.532   6.066   5.277  1.6183 -1.3992 -0.8297
 3849WAT     H216103   4.480   5.943   5.245 -2.7994 -0.1058  0.7631
 3849WAT    EPW16104   4.486   6.020   5.233  1.2956 -0.2675  0.6994
 3850WAT      O16105   6.094   5.134   2.803  0.0969  0.2849 -0.2282
 3850WAT     H116106   6.163   5.171   2.765  0.4310  0.3426  0.4218
 3850WAT     H216107   6.034   5.133   2.740  0.5830  0.5346 -0.7024
 3850WAT    EPW16108   6.095   5.139   2.788  0.7564  0.6797 -0.0178
 3851WAT      O16109   5.929   5.572   5.101 -0.3312  0.4761  0.7135
 3851WAT     H116110   5.861   5.614   5.065 -0.4478 -0.3743 -0.1185
 3851WAT     H216111   5.997   5.599   5.053 -0.1182  1.0702  1.3321
 3851WAT    EPW16112   5.929   5.582   5.088  1.1002 -0.3323 -0.8508
 3852WAT      O16113   6.162   3.787   6.512  0.1791  0.3239 -0.0052
 3852WAT     H116114   6.194   3.774   6.432 -0.4481  0.7827 -0.3305
 3852WAT     H216115   6.177   3.872   6.527 -2.9627  1.1912 -1.1183
 3852WAT    EPW16116   6.169   3.797   6.503 -0.0457  0.5217 -0.3737
 3853WAT      O16117   4.646   4.099   4.091 -0.6647  0.0579 -0.0144
 3853WAT     H116118   4.571   4.070   4.058 -0.0330 -2.7193  0.7238
 3853WAT     H216119   4.631   4.100   4.177  0.2855 -1.1909  0.1961
 3853WAT    EPW16120   4.633   4.095   4.099  0.0185  0.1711  0.2821
 3854WAT      O16121   6.920   5.687   3.715  0.1773  0.4239 -0.3101
 3854WAT     H116122   6.982   5.704   3.655  0.5146  0.9078  0.1634
 3854WAT     H216123   6.846   5.694   3.670  0.4054  1.2069 -0.5871
 3854WAT    EPW16124   6.918   5.690   3.700 -0.1515  0.3101 -0.1412
 3855WAT      O16125   6.420   3.567   4.235  0.2596  0.2637  0.4577
 3855WAT     H116126   6.444   3.488   4.208 -0.5541 -0.9235  2.9102
 3855WAT     H216127   6.350   3.584   4.186 -1.1489 -1.7793  1.5822
 3855WAT    EPW16128   6.413   3.558   4.223  0.3471 -0.2790  0.0777
 3856WAT      O16129   6.068   5.011   4.745 -0.1233 -0.1354  0.1623
 3856WAT     H116130   6.129   5.031   4.685 -1.8696  0.5593 -1.4711
 3856WAT     H216131   5.993   5.023   4.703 -1.4202 -1.9090  1.7996
 3856WAT    EPW16132   6.066   5.016   4.730 -0.7081 -0.7536 -0.6136
 3857WAT      O16133   5.686   4.488   3.985  0.5562  0.6160 -0.0454
 3857WAT     H116134   5.767   4.491   4.018  0.5653  0.1528 -0.0231
 3857WAT     H216135   5.636   4.520   4.050  0.7138  0.8682 -0.0465
 3857WAT    EPW16136   5.690   4.493   4.000 -0.4338  0.5871  0.2328
 3858WAT      O16137   4.449   4.131   4.297 -0.6589 -0.1814 -0.0184
 3858WAT     H116138   4.469   4.129   4.381  0.4235 -0.1410 -0.2632
 3858WAT     H216139   4.419   4.051   4.280  0.6912 -0.7304  0.0502
 3858WAT    EPW16140   4.448   4.119   4.307  0.0168 -0.0447  0.1731
 3859WAT      O16141   4.985   2.640   4.123  0.0236  0.4901  0.4708
 3859WAT     H116142   4.898   2.651   4.125 -0.1169 -0.1190 -0.9947
 3859WAT     H216143   5.011   2.694   4.060  0.3811 -1.1085 -0.8001
 3859WAT    EPW16144   4.976   2.650   4.114  0.7902  0.0283 -1.2370
 3860WAT      O16145   5.126   3.905   4.781 -0.7126 -0.6037  0.4286
 3860WAT     H116146   5.076   3.971   4.754 -1.2406 -1.6676 -1.3356
 3860WAT     H216147   5.171   3.939   4.848 -1.1925  1.4340 -0.2325
 3860WAT    EPW16148   5.125   3.920   4.787 -0.4526 -0.2048 -0.4579
 3861WAT      O16149   5.152   4.116   3.342  0.6188  0.3502 -0.4616
 3861WAT     H116150   5.105   4.173   3.389  2.3038  0.3690  1.3014
 3861WAT     H216151   5.106   4.042   3.348 -0.0120  0.7581 -0.1591
 3861WAT    EPW16152   5.138   4.114   3.350  0.2897  0.7901 -0.5540
 3862WAT      O16153   7.389   3.583   3.971 -0.3759 -0.3901 -0.5402
 3862WAT     H116154   7.420   3.533   3.906  0.9314  0.5462 -0.6704
 3862WAT     H216155   7.452   3.641   3.984 -1.6102  0.8750  0.0145
 3862WAT    EPW16156   7.403   3.584   3.964  0.2238  0.4854 -0.3199
 3863WAT      O16157   5.745   4.283   4.703 -0.1999 -0.7793 -0.2605
 3863WAT     H116158   5.786   4.291   4.626  0.3565 -0.7583  0.0256
 3863WAT     H216159   5.801   4.234   4.750  0.2601  0.5847  0.6695
 3863WAT    EPW16160   5.760   4.277   4.698 -0.4906 -0.8088 -0.1155
 3864WAT      O16161   5.026   5.458   4.212 -0.0784 -0.3159 -0.2691
 3864WAT     H116162   4.979   5.476   4.283 -0.6051 -0.6658 -0.5255
 3864WAT     H216163   4.970   5.415   4.160  0.2461  0.0605 -0.9573
 3864WAT    EPW16164   5.011   5.454   4.215  0.3207  0.3506 -0.0653
 3865WAT      O16165   6.220   5.806   3.539 -0.3223 -0.7447 -0.0726
 3865WAT     H116166   6.243   5.770   3.615  0.9469 -0.0008 -0.0678
 3865WAT     H216167   6.267   5.880   3.537 -2.2724  0.5605 -0.3923
 3865WAT    EPW16168   6.230   5.812   3.550  0.2835  0.6332 -0.6385
 3866WAT      O16169   4.870   4.064   3.075 -0.0899 -0.1195 -0.3641
 3866WAT     H116170   4.830   4.117   3.132  1.3048  0.0565  0.4925
 3866WAT     H216171   4.852   4.101   2.998 -0.2523  0.8604  0.1152
 3866WAT    EPW16172   4.861   4.078   3.072 -0.5474  0.8003  0.3718
 3867WAT      O16173   6.039   3.453   3.572  0.2891 -0.2335 -0.2736
 3867WAT     H116174   6.079   3.529   3.587 -0.1675 -0.1405  0.5731
 3867WAT     H216175   6.104   3.396   3.564  0.6162  0.1145 -0.1151
 3867WAT    EPW16176   6.054   3.456   3.573  0.6477  0.9769 -0.0694
 3868WAT      O16177   5.580   2.607   3.452  0.3183 -0.3787 -0.1784
 3868WAT     H116178   5.516   2.597   3.394  0.3481 -0.2481 -0.2341
 3868WAT     H216179   5.556   2.677   3.498 -0.5363 -1.4319  1.0602
 3868WAT    EPW16180   5.567   2.616   3.451  0.5985  0.1333 -0.4337
 3869WAT      O16181   6.189   2.418   4.050 -0.3897 -0.1333 -0.0769
 3869WAT     H116182   6.110   2.454   4.065 -0.6820 -0.7766 -0.0437
 3869WAT     H216183   6.207   2.376   4.124 -0.0276 -0.0220 -0.1003
 3869WAT    EPW16184   6.180   2.417   4.063  0.6873 -0.2631 -0.7638
 3870WAT      O16185   5.495   4.566   4.155 -0.4616  0.2955  0.5671
 3870WAT     H116186   5.466   4.647   4.169 -0.4271  0.2931  0.6498
 3870WAT     H216187   5.485   4.526   4.232  0.2070  0.4336  0.7336
 3870WAT    EPW16188   5.489   4.572   4.168  0.6831 -0.8475  0.1291
 3871WAT      O16189   5.066   4.993   4.674  0.0079 -0.3575  0.2716
 3871WAT     H116190   5.109   5.033   4.609  0.1752 -1.9223 -0.6320
 3871WAT     H216191   4.983   4.993   4.647  0.2166 -1.9014 -0.4714
 3871WAT    EPW16192   5.060   4.999   4.660  0.1221  0.0193 -0.0702
 3872WAT      O16193   4.788   5.372   4.067 -0.4578 -0.6025  0.2086
 3872WAT     H116194   4.808   5.355   3.983 -1.1264 -1.3751  0.1984
 3872WAT     H216195   4.712   5.331   4.079  0.6106 -2.3196  1.7710
 3872WAT    EPW16196   4.780   5.363   4.056 -0.2916  0.3076  0.0502
 3873WAT      O16197   6.398   4.959   4.943 -0.0681 -0.2855 -0.3988
 3873WAT     H116198   6.429   4.953   4.862  0.0536  0.3332 -0.4035
 3873WAT     H216199   6.415   5.042   4.965  2.6340 -1.1813  1.3686
 3873WAT    EPW16200   6.405   4.970   4.934 -0.8526  0.0406 -0.2740
 3874WAT      O16201   6.802   2.693   2.694  1.1585 -0.4951 -0.1465
 3874WAT     H116202   6.771   2.632   2.748 -1.2865 -0.6334 -1.5470
 3874WAT     H216203   6.732   2.716   2.647  2.8046  0.7297 -2.1845
 3874WAT    EPW16204   6.787   2.687   2.695  0.2205  0.3695 -0.0945
 3875WAT      O16205   6.049   4.983   3.966 -0.0553  0.1454 -0.2889
 3875WAT     H116206   6.033   4.938   3.893 -1.2906 -1.0804  0.6934
 3875WAT     H216207   6.129   4.956   3.989 -1.1638 -2.5473  0.8760
 3875WAT    EPW16208   6.058   4.972   3.959 -0.5260 -0.8093 -0.2533
 3876WAT      O16209   4.798   5.026   4.661 -0.3146 -0.3425  0.5112
 3876WAT     H116210   4.744   4.993   4.601  0.9702  1.0013 -1.4944
 3876WAT     H216211   4.811   4.960   4.717  0.1635 -2.4254 -1.9199
 3876WAT    EPW16212   4.792   5.012   4.661  0.6461 -0.3454 -0.0747
 3877WAT      O16213   5.126   4.441   3.279  0.5151 -0.4518 -0.2911
 3877WAT     H116214   5.070   4.390   3.321 -1.5935  1.8256 -0.1116
 3877WAT     H216215   5.166   4.386   3.224  0.2591 -2.6982  1.5999
 3877WAT    EPW16216   5.123   4.426   3.277 -1.0082 -0.2722 -0.3550
 3878WAT      O16217   5.336   3.813   6.124  0.1677 -0.1792 -0.1753
 3878WAT     H116218   5.294   3.741   6.146 -0.7035 -0.2775 -1.9774
 3878WAT     H216219   5.419   3.795   6.144 -0.3926 -0.5266  2.0851
 3878WAT    EPW16220   5.342   3.800   6.130 -0.1521  0.1751 -0.0938
 3879WAT      O16221   6.459   4.169   2.945 -0.2496  0.1396 -0.1308
 3879WAT     H116222   6.392   4.175   3.001  0.2440  2.3428  0.3076
 3879WAT     H216223   6.433   4.107   2.889 -1.5082 -0.9076  1.4984
 3879WAT    EPW16224   6.445   4.160   2.945  0.4576  0.3583 -0.4443
 3880WAT      O16225   4.706   5.418   5.138 -0.0647  0.0449  0.1891
 3880WAT     H116226   4.741   5.412   5.058  1.3343  2.4995  0.5057
 3880WAT     H216227   4.622   5.432   5.123  0.2869  1.1475 -0.9217
 3880WAT    EPW16228   4.699   5.419   5.124  0.0870 -0.4684  0.2709
 3881WAT      O16229   4.996   2.525   5.011 -0.0760  0.4212 -0.9451
 3881WAT     H116230   4.916   2.488   5.014 -0.3974  1.1395 -0.1341
 3881WAT     H216231   5.026   2.514   5.092 -0.4138  2.4138 -0.4999
 3881WAT    EPW16232   4.988   2.518   5.024  0.1036  0.0757 -0.0626
 3882WAT      O16233   5.069   3.517   3.768  0.1685 -0.1907  0.4054
 3882WAT     H116234   5.007   3.550   3.717  1.5256 -0.0416 -1.2333
 3882WAT     H216235   5.081   3.436   3.737  1.8399  0.3033 -0.3492
 3882WAT    EPW16236   5.062   3.510   3.756  0.6543 -0.1817  0.6784
 3883WAT      O16237   5.279   4.324   3.906  0.4593 -0.4945  0.0310
 3883WAT     H116238   5.266   4.285   3.829 -0.5172  0.5709 -0.3702
 3883WAT     H216239   5.209   4.304   3.952  0.5665 -0.3029  0.2814
 3883WAT    EPW16240   5.267   4.315   3.901 -0.3538 -0.2865 -0.7226
 3884WAT      O16241   6.225   2.523   3.772 -0.1324  0.1920 -0.2809
 3884WAT     H116242   6.187   2.601   3.773  0.3946  0.4553  0.5750
 3884WAT     H216243   6.214   2.494   3.854 -0.6884 -0.8187 -0.6950
 3884WAT    EPW16244   6.218   2.530   3.784 -0.5080  0.7156  0.1033
 3885WAT      O16245   5.079   5.284   3.814  0.1210 -0.1330 -0.4911
 3885WAT     H116246   5.113   5.357   3.846  1.4327 -0.0057 -2.0014
 3885WAT     H216247   4.993   5.298   3.816  0.3014  0.9781  0.2759
 3885WAT    EPW16248   5.072   5.297   3.819  0.0010 -0.3650 -0.1380
 3886WAT      O16249   5.778   4.947   3.679 -0.0392  0.1210  0.2383
 3886WAT     H116250   5.707   4.898   3.664  0.3580 -0.2643 -0.4260
 3886WAT     H216251   5.746   5.017   3.720 -1.0473  0.6882 -1.3979
 3886WAT    EPW16252   5.763   4.950   3.683  0.3007  0.3321 -0.4098
 3887WAT      O16253   6.383   3.197   6.576  0.0237 -0.1909 -1.1303
 3887WAT     H116254   6.420   3.267   6.541 -1.3831  1.0770 -0.2054
 3887WAT     H216255   6.297   3.215   6.575 -0.2270 -0.7504  1.3747
 3887WAT    EPW16256   6.375   3.210   6.571  0.6696  0.9925  0.0033
 3888WAT      O16257   5.748   5.587   4.323  0.0185 -0.6273  0.0107
 3888WAT     H116258   5.712   5.578   4.244 -1.0933  0.1706  0.3902
 3888WAT     H216259   5.761   5.505   4.349  1.4980 -0.8941 -1.4563
 3888WAT    EPW16260   5.744   5.573   4.315 -0.6029  0.2734 -0.0055
 3889WAT      O16261   7.803   2.989   3.659 -0.2137 -0.0315  0.2405
 3889WAT     H116262   7.795   2.978   3.745 -0.8324  0.8785  0.3117
 3889WAT     H216263   7.775   3.071   3.645  0.5586  0.0911 -0.7372
 3889WAT    EPW16264   7.798   2.999   3.669 -0.1064 -0.5990 -0.5785
 3890WAT      O16265   6.696   3.119   4.142 -0.1332 -0.7538 -0.5592
 3890WAT     H116266   6.760   3.150   4.193  0.8038 -1.0432 -1.5317
 3890WAT     H216267   6.714   3.153   4.064 -1.8607  0.1362 -0.6226
 3890WAT    EPW16268   6.708   3.129   4.138  0.1190  0.5563  0.3017
 3891WAT      O16269   5.329   2.577   4.808  0.1298  0.3676  0.1124
 3891WAT     H116270   5.368   2.599   4.733  0.4835 -0.5515  0.0211
 3891WAT     H216271   5.256   2.537   4.783  0.0568  0.3996  0.2704
 3891WAT    EPW16272   5.324   2.574   4.793  1.0957  0.6339 -0.1094
 3892WAT      O16273   7.346   3.530   4.281  0.5699  0.1862  0.7516
 3892WAT     H116274   7.395   3.552   4.211  2.8190  1.1499  2.4983
 3892WAT     H216275   7.307   3.604   4.303  0.0594 -0.0565  0.6776
 3892WAT    EPW16276   7.348   3.544   4.274  0.0109  0.1204 -0.7992
 3893WAT      O16277   5.011   4.035   3.701  0.2165  0.5565 -0.0072
 3893WAT     H116278   5.015   3.996   3.623  0.0486  0.6240 -0.0494
 3893WAT     H216279   4.930   4.067   3.704 -0.3287 -0.8030  0.8466
 3893WAT    EPW16280   5.000   4.034   3.690 -0.0752 -0.1708 -0.4964
 3894WAT      O16281   6.200   4.907   3.465  0.5135  0.1885  0.3088
 3894WAT     H116282   6.122   4.945   3.459  0.4251 -0.1049 -0.5759
 3894WAT     H216283   6.208   4.866   3.388  0.6873 -1.4081  1.1519
 3894WAT    EPW16284   6.189   4.907   3.453 -0.7876 -0.4899 -0.4723
 3895WAT      O16285   3.766   6.406   3.935 -0.1863  0.6256 -0.3210
 3895WAT     H116286   3.767   6.487   3.904  0.5092  2.1441  3.2192
 3895WAT     H216287   3.837   6.369   3.900  0.4542  2.1274 -0.6537
 3895WAT    EPW16288   3.777   6.412   3.925  0.3207  0.6619  0.2047
 3896WAT      O16289   6.077   3.559   1.983  0.4853  0.1526 -0.4157
 3896WAT     H116290   6.126   3.602   2.041 -0.4851 -1.4105  1.6789
 3896WAT     H216291   6.126   3.490   1.962  0.4788  0.2688 -0.8273
 3896WAT    EPW16292   6.091   3.555   1.989  0.0950  0.4658 -0.7800
 3897WAT      O16293   7.124   3.736   1.995 -0.5250  0.2743  0.4971
 3897WAT     H116294   7.153   3.721   1.914  1.3734  1.4728  0.8866
 3897WAT     H216295   7.192   3.713   2.045 -1.2895  0.5052  1.6757
 3897WAT    EPW16296   7.138   3.730   1.991  0.2816 -0.0211  0.1034
 3898WAT      O16297   5.499   3.455   2.345  0.0145  0.0023 -0.0504
 3898WAT     H116298   5.494   3.369   2.359  0.0454 -0.6079 -3.1004
 3898WAT     H216299   5.585   3.472   2.351  0.1425 -0.4341 -0.6275
 3898WAT    EPW16300   5.511   3.445   2.348  0.4467  0.0635 -0.7798
 3899WAT      O16301   7.347   5.930   1.853  0.2880 -0.0881 -0.0115
 3899WAT     H116302   7.410   5.876   1.826  0.6356  1.1809 -1.9401
 3899WAT     H216303   7.301   5.945   1.781 -2.1592 -0.7977  1.3044
 3899WAT    EPW16304   7.350   5.924   1.838  0.0836 -0.0252  0.3672
 3900WAT      O16305   5.168   3.200   0.863 -0.1020 -0.5568 -0.4166
 3900WAT     H116306   5.204   3.198   0.942 -0.3500 -0.6828 -0.3031
 3900WAT     H216307   5.098   3.149   0.871  0.9053 -2.1412 -1.2481
 3900WAT    EPW16308   5.163   3.192   0.876  0.2722 -0.3959 -0.9462
 3901WAT      O16309   4.935   3.983   1.164  0.1679 -0.2471  0.1888
 3901WAT     H116310   4.969   3.912   1.127  0.6546 -0.9008  1.8104
 3901WAT     H216311   4.856   3.957   1.190 -0.6073  0.5184 -1.2489
 3901WAT    EPW16312   4.928   3.969   1.162 -0.6330 -0.2797 -0.1610
 3902WAT      O16313   7.094   4.013   3.411  0.2515 -0.2090 -0.3414
 3902WAT     H116314   7.041   4.076   3.440  1.2180  0.4333  0.0953
 3902WAT     H216315   7.109   4.035   3.328  0.5324  0.1067 -0.2090
 3902WAT    EPW16316   7.088   4.025   3.403 -0.1624 -0.2563  0.2423
 3903WAT      O16317   5.024   4.100   1.870 -0.1040 -0.1782 -0.5773
 3903WAT     H116318   5.079   4.153   1.912 -0.8065  0.4698 -0.4529
 3903WAT     H216319   5.045   4.021   1.900 -0.1783  0.2014  0.5469
 3903WAT    EPW16320   5.035   4.097   1.881  0.0647  0.4420 -1.0034
 3904WAT      O16321   6.328   4.603   1.159 -0.8671  1.2491  0.1291
 3904WAT     H116322   6.258   4.556   1.138 -1.0442  1.5515  0.0221
 3904WAT     H216323   6.340   4.654   1.089  0.9717 -0.4994 -0.9292
 3904WAT    EPW16324   6.319   4.604   1.145  0.0829 -0.1268  0.1841
 3905WAT      O16325   5.172   4.093   1.281 -0.2158 -0.5499  0.2049
 3905WAT     H116326   5.103   4.043   1.264 -0.4658 -0.9485  2.1883
 3905WAT     H216327   5.224   4.041   1.328  1.8254 -0.4927 -1.8148
 3905WAT    EPW16328   5.170   4.078   1.286  0.4529 -0.3866 -0.8804
 3906WAT      O16329   4.683   4.592   2.834  0.0561  0.1986 -0.1886
 3906WAT     H116330   4.668   4.657   2.891 -2.1481  0.4175 -0.9318
 3906WAT     H216331   4.643   4.524   2.870 -0.8625  0.1999 -1.1670
 3906WAT    EPW16332   4.675   4.592   2.848 -0.1627 -0.3939 -0.1347
 3907WAT      O16333   5.738   4.302   2.931  0.3174  0.3450 -0.5690
 3907WAT     H116334   5.824   4.307   2.923  0.8899 -2.5046  1.8310
 3907WAT     H216335   5.716   4.376   2.970  1.5398  1.3677 -1.7358
 3907WAT    EPW16336   5.747   4.314   2.935 -0.1892 -0.4869 -0.3061
 3908WAT      O16337   5.309   4.822   2.845 -0.6989  0.3271  0.1831
 3908WAT     H116338   5.277   4.896   2.812  0.5499  0.0126 -1.9225
 3908WAT     H216339   5.346   4.783   2.776  0.4512 -1.3107  1.6357
 3908WAT    EPW16340   5.309   4.827   2.830  1.2885  0.0856 -0.6213
 3909WAT      O16341   5.102   3.349   1.755 -0.0102 -0.1378 -0.5076
 3909WAT     H116342   5.096   3.317   1.836 -0.0246  2.2207  0.4997
 3909WAT     H216343   5.188   3.359   1.743 -0.0936  1.2473 -0.0306
 3909WAT    EPW16344   5.114   3.345   1.765  0.2633 -0.2566 -0.4337
 3910WAT      O16345   6.392   4.154   0.844 -0.3262 -0.2036 -0.1775
 3910WAT     H116346   6.413   4.073   0.821  1.9844  0.5063 -0.8166
 3910WAT     H216347   6.440   4.169   0.915 -0.6842  0.6336 -0.0948
 3910WAT    EPW16348   6.402   4.144   0.851  0.0525 -0.6526  0.1522
 3911WAT      O16349   6.302   3.327   1.691  0.6038  0.0820 -0.5998
 3911WAT     H116350   6.384   3.318   1.719  0.2111 -1.9660  0.0549
 3911WAT     H216351   6.254   3.312   1.763 -0.3694 -2.6846 -1.7048
 3911WAT    EPW16352   6.307   3.324   1.706 -0.2161  0.4892 -1.4002
 3912WAT      O16353   5.595   6.252   2.669 -0.3784  0.7250 -0.2694
 3912WAT     H116354   5.619   6.201   2.603 -1.7698 -1.6219  0.9000
 3912WAT     H216355   5.526   6.296   2.637 -0.9157 -0.2426 -0.4948
 3912WAT    EPW16356   5.588   6.251   2.655 -0.1631  0.3573 -0.4866
 3913WAT      O16357   6.340   4.497   0.774 -0.2995  0.1343 -0.2947
 3913WAT     H116358   6.422   4.473   0.756 -0.6324  0.1333 -1.8906
 3913WAT     H216359   6.303   4.506   0.696 -1.8628  0.0523  0.4009
 3913WAT    EPW16360   6.347   4.495   0.760 -0.5581 -0.9354 -0.0690
 3914WAT      O16361   5.848   4.219   3.512 -0.1264 -0.6867 -0.1181
 3914WAT     H116362   5.817   4.142   3.539  0.5255 -0.9114  0.0112
 3914WAT     H216363   5.840   4.215   3.425 -0.2540 -0.8303 -0.0991
 3914WAT    EPW16364   5.842   4.207   3.503 -0.5682  0.3560  0.2461
 3915WAT      O16365   4.234   3.026   1.594 -0.1423 -0.0134  0.2211
 3915WAT     H116366   4.183   3.096   1.594 -0.5154 -0.2829 -0.1749
 3915WAT     H216367   4.287   3.039   1.662 -2.6942 -1.1206  2.6229
 3915WAT    EPW16368   4.235   3.038   1.604 -0.1545  0.1227 -0.3311
 3916WAT      O16369   5.776   3.620   3.922  0.0522  0.0688 -0.0479
 3916WAT     H116370   5.742   3.562   3.867  0.3438  0.2662 -0.4407
 3916WAT     H216371   5.728   3.692   3.910  0.8250  0.4655 -0.8763
 3916WAT    EPW16372   5.764   3.622   3.912  0.1909 -0.1040 -0.2557
 3917WAT      O16373   5.333   2.821   3.736  0.2817  0.0017 -0.4705
 3917WAT     H116374   5.391   2.826   3.671  0.1066 -1.9547 -0.8343
 3917WAT     H216375   5.369   2.766   3.793 -0.4403  0.1512  0.1611
 3917WAT    EPW16376   5.347   2.814   3.735  0.2027  0.4691 -0.8514
 3918WAT      O16377   6.102   4.086   0.930 -0.1861  0.1574 -0.2529
 3918WAT     H116378   6.053   4.017   0.911 -0.0054 -0.0789  0.1428
 3918WAT     H216379   6.178   4.069   0.892 -0.5734  0.7861 -1.3640
 3918WAT    EPW16380   6.106   4.074   0.921  0.3462 -0.4574 -0.8588
 3919WAT      O16381   5.319   5.641   1.447  0.3228 -0.2949 -0.1098
 3919WAT     H116382   5.265   5.572   1.450  0.3833 -0.3143  0.7150
 3919WAT     H216383   5.394   5.606   1.421  0.2147 -0.4469 -0.2239
 3919WAT    EPW16384   5.322   5.625   1.444  0.2661  0.5537  0.5145
 3920WAT      O16385   5.903   4.117   2.771  0.0820  0.1187 -0.5298
 3920WAT     H116386   5.828   4.106   2.728 -0.9293  0.8188  0.9960
 3920WAT     H216387   5.887   4.083   2.850  1.1080  0.9791  0.0717
 3920WAT    EPW16388   5.890   4.110   2.776  0.7295  0.2161  1.1218
 3921WAT      O16389   7.194   6.115   2.056 -0.3159  0.1413  0.0088
 3921WAT     H116390   7.264   6.142   2.011 -1.4688  2.0219 -0.7607
 3921WAT     H216391   7.177   6.182   2.109 -0.1816 -1.2474  1.9050
 3921WAT    EPW16392   7.202   6.129   2.057  0.3514  0.0854 -0.0410
 3922WAT      O16393   6.180   4.707   1.652 -0.3112 -0.3740  0.0096
 3922WAT     H116394   6.249   4.726   1.702 -0.1130  1.0705 -0.7634
 3922WAT     H216395   6.215   4.672   1.580 -0.2728  1.2413 -0.7939
 3922WAT    EPW16396   6.195   4.704   1.649  0.6923  0.2943 -0.5253
 3923WAT      O16397   6.230   3.868   3.936  0.4464  0.0287 -0.5977
 3923WAT     H116398   6.154   3.863   3.894  0.4349  1.3658 -0.7926
 3923WAT     H216399   6.289   3.863   3.871  0.5556 -1.3072 -0.4188
 3923WAT    EPW16400   6.228   3.866   3.920 -0.3515  0.9070  0.4961
 3924WAT      O16401   5.138   5.164   2.209 -0.4250 -0.5120 -0.1576
 3924WAT     H116402   5.077   5.224   2.225  0.7730  0.8217 -0.4155
 3924WAT     H216403   5.213   5.205   2.226  0.4745 -1.7159 -1.0145
 3924WAT    EPW16404   5.140   5.179   2.214  0.6510  0.5357  0.3589
 3925WAT      O16405   6.900   2.691   3.152  0.4160 -0.0395  0.3844
 3925WAT     H116406   6.897   2.748   3.086 -1.0134  0.9665  1.2634
 3925WAT     H216407   6.973   2.647   3.137 -0.3176 -0.5465 -2.4464
 3925WAT    EPW16408   6.910   2.693   3.140 -0.1482  0.8719 -1.1547
 3926WAT      O16409   6.672   5.881   2.275  0.1562 -0.0294  0.2893
 3926WAT     H116410   6.625   5.898   2.204 -0.1334  0.3663  0.5733
 3926WAT     H216411   6.661   5.795   2.287 -0.8263  0.1328  0.5944
 3926WAT    EPW16412   6.663   5.871   2.266 -0.1848 -0.0392  0.5762
 3927WAT      O16413   4.572   3.859   1.491 -0.5452  0.3354  0.1549
 3927WAT     H116414   4.604   3.856   1.410 -0.1656  1.9208  0.1964
 3927WAT     H216415   4.597   3.784   1.527 -1.0272 -0.5497 -1.2868
 3927WAT    EPW16416   4.580   3.848   1.484 -0.2450 -0.2881 -0.0592
 3928WAT      O16417   5.440   4.553   1.786  0.0089  0.5511  0.0913
 3928WAT     H116418   5.436   4.466   1.782  0.4815  0.5587 -0.7802
 3928WAT     H216419   5.387   4.573   1.852 -3.2965 -0.1614 -2.1082
 3928WAT    EPW16420   5.431   4.543   1.795 -0.4107  0.1807 -0.1054
 3929WAT      O16421   6.383   4.148   3.777 -0.2520 -0.0246  0.3811
 3929WAT     H116422   6.322   4.204   3.749 -1.0890 -1.2428 -0.3378
 3929WAT     H216423   6.365   4.074   3.733  2.4185 -0.1420 -0.7316
 3929WAT    EPW16424   6.371   4.145   3.766  0.0159 -0.2463 -0.6052
 3930WAT      O16425   6.782   7.028   2.285  0.4777 -0.5415 -0.8606
 3930WAT     H116426   6.849   6.975   2.303  1.8922  1.5548  0.4175
 3930WAT     H216427   6.722   6.974   2.250  2.6475 -2.5580 -1.7141
 3930WAT    EPW16428   6.783   7.012   2.283  0.3703  1.1249 -0.6573
 3931WAT      O16429   7.171   5.370   0.471 -0.0594 -0.2917  0.2213
 3931WAT     H116430   7.244   5.406   0.439 -1.0320  0.6956 -1.0219
 3931WAT     H216431   7.183   5.285   0.462  0.6862 -0.1088 -0.5846
 3931WAT    EPW16432   7.183   5.363   0.465  0.3268 -0.9049 -1.1829
 3932WAT      O16433   6.215   4.197   3.088  0.0736  0.0430 -0.7039
 3932WAT     H116434   6.183   4.215   3.167  1.9548 -0.5890  0.2638
 3932WAT     H216435   6.192   4.115   3.074  0.6558 -0.1927 -0.3106
 3932WAT    EPW16436   6.207   4.188   3.097 -0.2138  0.5526 -0.2043
 3933WAT      O16437   6.559   3.772   2.359 -0.3348 -0.0674 -0.0472
 3933WAT     H116438   6.505   3.839   2.343 -1.8073 -1.0890  0.4134
 3933WAT     H216439   6.625   3.808   2.402 -1.5178  0.9630  0.9729
 3933WAT    EPW16440   6.561   3.787   2.363  1.0076 -0.0121  0.0783
 3934WAT      O16441   6.378   5.307   2.967  0.2227 -0.7362  0.0415
 3934WAT     H116442   6.396   5.242   3.022 -1.1971 -0.5298  0.7806
 3934WAT     H216443   6.354   5.265   2.894 -1.9822 -1.1281  0.9225
 3934WAT    EPW16444   6.377   5.291   2.964  0.0516 -0.0995 -0.4246
 3935WAT      O16445   6.204   3.930   3.037  0.0880 -0.0043  0.2038
 3935WAT     H116446   6.153   3.881   3.087 -0.7224 -0.7750 -1.2907
 3935WAT     H216447   6.171   3.919   2.957  2.7799 -0.8316 -0.9187
 3935WAT    EPW16448   6.192   3.921   3.032 -0.9447  0.1623 -0.0569
 3936WAT      O16449   5.660   3.199   1.197  0.1122 -0.2778  0.1807
 3936WAT     H116450   5.607   3.135   1.169  0.7935 -0.8418  0.1535
 3936WAT     H216451   5.653   3.194   1.284 -0.3976  0.0976  0.1644
 3936WAT    EPW16452   5.651   3.188   1.206  0.1300 -0.1696  0.1955
 3937WAT      O16453   4.966   2.932   2.379 -0.7501 -0.2000 -0.4827
 3937WAT     H116454   4.978   2.960   2.298 -0.0081 -0.5815 -0.5068
 3937WAT     H216455   5.042   2.948   2.418 -1.1671  0.1775  0.2038
 3937WAT    EPW16456   4.979   2.939   2.373  1.0129 -0.3950 -0.0376
 3938WAT      O16457   4.784   5.117   2.022 -0.3568  0.0624 -0.0867
 3938WAT     H116458   4.862   5.129   1.984  0.1412  0.1894  0.9297
 3938WAT     H216459   4.727   5.140   1.961  0.4166  0.1547 -0.7862
 3938WAT    EPW16460   4.787   5.122   2.008 -0.3264 -0.0615 -0.7083
 3939WAT      O16461   6.268   3.260   2.187 -0.4125 -0.1842  0.2737
 3939WAT     H116462   6.236   3.296   2.260  1.2279  0.3248  0.7773
 3939WAT     H216463   6.313   3.191   2.216  0.0244 -0.1351 -0.2730
 3939WAT    EPW16464   6.270   3.255   2.202 -0.3231  0.3537  0.8056
 3940WAT      O16465   4.898   4.051   1.632 -0.1428 -0.6004  0.3314
 3940WAT     H116466   4.918   3.969   1.611  0.0641 -0.6215  0.6064
 3940WAT     H216467   4.935   4.062   1.710 -0.5126 -0.3718  0.4734
 3940WAT    EPW16468   4.907   4.041   1.640  0.3098 -0.4889  0.2566
 3941WAT      O16469   6.350   2.663   2.319  0.6451  0.6153 -0.0623
 3941WAT     H116470   6.265   2.680   2.334  0.2963 -0.4501 -0.7437
 3941WAT     H216471   6.384   2.658   2.399  0.0221  0.8550  0.2260
 3941WAT    EPW16472   6.342   2.665   2.333  0.8822  0.1511 -0.6901
 3942WAT      O16473   6.271   6.237   1.454  0.0100  0.1095 -0.6586
 3942WAT     H116474   6.327   6.170   1.456 -0.9993 -0.7493  0.2756
 3942WAT     H216475   6.260   6.252   1.369  2.7096  1.2673 -0.9077
 3942WAT    EPW16476   6.278   6.229   1.442 -0.2770 -0.7389  0.1677
 3943WAT      O16477   5.956   5.059   2.586  0.2330  0.3116 -0.6284
 3943WAT     H116478   6.001   5.117   2.538  0.4771  0.7625  0.1156
 3943WAT     H216479   5.883   5.101   2.606  1.9481  2.0099  3.1294
 3943WAT    EPW16480   5.952   5.074   2.582 -0.0314 -0.7232  0.5688
 3944WAT      O16481   6.505   3.712   3.279 -0.1229 -0.0106 -0.8436
 3944WAT     H116482   6.582   3.688   3.247 -0.0323 -0.1136 -0.5470
 3944WAT     H216483   6.452   3.709   3.210 -0.0352 -0.7074 -0.8818
 3944WAT    EPW16484   6.508   3.708   3.264  0.1250  0.2606 -0.2427
 3945WAT      O16485   5.069   4.645   2.088  0.0135 -0.1557  0.4550
 3945WAT     H116486   5.111   4.721   2.094 -0.1025 -0.1132  0.7184
 3945WAT     H216487   5.080   4.609   2.166  0.2231 -0.4945  0.2740
 3945WAT    EPW16488   5.077   4.651   2.100  0.5351 -0.1542  1.1510
 3946WAT      O16489   7.727   2.562   2.884  0.0062 -0.2013 -0.0962
 3946WAT     H116490   7.642   2.547   2.873 -0.1369 -1.2777  1.9480
 3946WAT     H216491   7.728   2.639   2.926 -0.0804 -0.8940  1.2131
 3946WAT    EPW16492   7.714   2.571   2.889  0.2103  0.3605 -0.1973
 3947WAT      O16493   4.650   4.130   1.512  0.3150  0.1930  0.1107
 3947WAT     H116494   4.726   4.122   1.556  0.0918  0.6616  0.5952
 3947WAT     H216495   4.618   4.049   1.513  1.6132 -0.4119 -1.6194
 3947WAT    EPW16496   4.657   4.117   1.519  0.6902 -0.0018 -0.0380
 3948WAT      O16497   6.674   4.027   2.631  0.1185 -0.0976 -0.3350
 3948WAT     H116498   6.679   4.094   2.575  0.5285  1.1555  1.1282
 3948WAT     H216499   6.702   4.062   2.706 -2.3378 -1.1448  1.1697
 3948WAT    EPW16500   6.679   4.042   2.634 -0.2115 -0.1837 -0.0597
 3949WAT      O16501   5.979   5.769   1.991 -0.0999 -0.0524 -0.5015
 3949WAT     H116502   6.004   5.760   2.074 -0.4406  0.1456 -0.3761
 3949WAT     H216503   5.911   5.824   1.996 -1.7902 -1.9924 -0.6078
 3949WAT    EPW16504   5.972   5.776   2.004  0.3941  0.2238 -0.3002
 3950WAT      O16505   6.044   2.666   2.141  0.1111  0.3302  0.2323
 3950WAT     H116506   6.040   2.694   2.224  1.1054  2.0717 -0.2434
 3950WAT     H216507   6.107   2.715   2.106 -0.2208 -0.4269 -1.5459
 3950WAT    EPW16508   6.052   2.678   2.148  0.4570 -0.9707 -0.3898
 3951WAT      O16509   6.181   3.322   1.945 -0.3158  0.0902  0.0237
 3951WAT     H116510   6.222   3.302   2.020  0.5501 -0.7867 -0.6680
 3951WAT     H216511   6.105   3.279   1.952 -0.8595  1.1557  0.9988
 3951WAT    EPW16512   6.176   3.312   1.957 -0.0542  0.4810  0.1852
 3952WAT      O16513   7.144   4.008   1.962  0.5630 -0.2659  0.0712
 3952WAT     H116514   7.142   3.924   1.985 -0.3479 -0.7143 -1.4891
 3952WAT     H216515   7.225   4.033   1.982  1.0431 -1.6789 -0.0186
 3952WAT    EPW16516   7.156   3.999   1.968 -0.8926 -0.5903  0.4556
 3953WAT      O16517   6.584   3.706   3.578  0.4961  0.0485 -0.3103
 3953WAT     H116518   6.662   3.669   3.566  0.5667  0.1644 -0.2077
 3953WAT     H216519   6.542   3.688   3.503 -0.2786 -2.2112  0.5703
 3953WAT    EPW16520   6.589   3.698   3.565  0.2843  0.2534 -1.2001
 3954WAT      O16521   6.022   4.322   2.184 -0.0666 -0.1482 -0.1253
 3954WAT     H116522   5.973   4.256   2.213  1.3547 -0.4321  1.8250
 3954WAT     H216523   5.964   4.374   2.144 -2.1277 -0.2527  2.3952
 3954WAT    EPW16524   6.006   4.320   2.183  0.2398  0.5357 -0.3915
 3955WAT      O16525   4.888   5.260   1.635 -0.0302 -0.2774 -0.0644
 3955WAT     H116526   4.827   5.214   1.678 -1.4056  0.7086 -0.8766
 3955WAT     H216527   4.901   5.329   1.687 -1.0801  0.4914 -0.7700
 3955WAT    EPW16528   4.881   5.263   1.649  0.5654  1.0939 -0.1716
 3956WAT      O16529   7.818   5.340   2.322 -0.3261 -0.0425  0.0327
 3956WAT     H116530   7.825   5.278   2.261 -0.8091 -0.7532  0.6796
 3956WAT     H216531   7.776   5.404   2.281  0.5857  0.0538 -0.7822
 3956WAT    EPW16532   7.813   5.340   2.307 -0.5399 -1.1912 -0.0726
 3957WAT      O16533   5.828   3.467   1.733 -0.1971 -0.2937 -0.0879
 3957WAT     H116534   5.816   3.502   1.812  1.3732 -0.1111  0.1009
 3957WAT     H216535   5.782   3.519   1.681  0.8694  1.2029  0.3829
 3957WAT    EPW16536   5.820   3.480   1.737 -0.3061 -0.3042 -0.1603
 3958WAT      O16537   5.490   3.877   0.971  0.3585 -0.4820 -0.4422
 3958WAT     H116538   5.428   3.935   0.951  1.7546  1.3341  0.2195
 3958WAT     H216539   5.474   3.858   1.055  0.8216  0.1395 -0.2147
 3958WAT    EPW16540   5.478   3.882   0.980  0.0961 -0.2114 -0.7154
 3959WAT      O16541   6.722   4.232   1.496  0.4839 -0.2983 -0.4528
 3959WAT     H116542   6.799   4.271   1.503  0.2511 -0.0657  1.4534
 3959WAT     H216543   6.666   4.292   1.527  0.0228 -1.7499  1.7572
 3959WAT    EPW16544   6.725   4.247   1.502  0.6221 -0.4037  0.1432
 3960WAT      O16545   4.932   4.597   1.861 -0.6683  0.0410 -0.2929
 3960WAT     H116546   4.987   4.613   1.927 -0.1323  2.0725 -1.1514
 3960WAT     H216547   4.894   4.522   1.883  1.2649 -0.5891  1.1342
 3960WAT    EPW16548   4.935   4.588   1.874 -0.1460  0.2896 -0.4186
 3961WAT      O16549   5.596   4.343   3.276  0.2771  0.1126  0.6676
 3961WAT     H116550   5.529   4.327   3.222  0.5163 -0.5053  0.5470
 3961WAT     H216551   5.557   4.374   3.348 -0.4103 -2.6837  1.6169
 3961WAT    EPW16552   5.580   4.345   3.279  0.7127 -0.0073  0.4642
 3962WAT      O16553   7.182   4.476   3.222  0.1843  0.0202 -0.7834
 3962WAT     H116554   7.224   4.459   3.296 -0.5162  1.6185  0.0277
 3962WAT     H216555   7.107   4.513   3.249 -0.5002 -0.2058 -2.2592
 3962WAT    EPW16556   7.177   4.479   3.237 -0.7885 -1.0972  0.5982
 3963WAT      O16557   5.494   4.186   2.489  0.2588 -0.1544  0.2103
 3963WAT     H116558   5.447   4.182   2.416  0.0736 -0.6010  0.3537
 3963WAT     H216559   5.475   4.265   2.522  0.5052  0.1371 -0.3265
 3963WAT    EPW16560   5.484   4.197   2.483  0.1802  0.5435 -0.3173
 3964WAT      O16561   6.621   3.944   1.424 -0.0248 -0.8120 -0.6036
 3964WAT     H116562   6.570   3.921   1.491  0.5519 -1.9286 -0.5215
 3964WAT     H216563   6.642   4.026   1.442 -0.2767 -0.9383  0.3435
 3964WAT    EPW16564   6.617   3.952   1.436 -0.1316 -0.0810 -1.2357
 3965WAT      O16565   6.152   5.282   3.452  0.0742  0.1051  0.0515
 3965WAT     H116566   6.234   5.263   3.431 -0.1539  0.1760 -0.9266
 3965WAT     H216567   6.110   5.206   3.442 -0.4828  0.6363 -2.0794
 3965WAT    EPW16568   6.158   5.268   3.448  0.2314  0.2728  0.3817
 3966WAT      O16569   4.915   3.893   2.271  0.1759  0.6282  0.7510
 3966WAT     H116570   4.858   3.846   2.318  1.3394 -0.6609  0.9309
 3966WAT     H216571   4.985   3.842   2.267  1.0880  1.8926 -0.0536
 3966WAT    EPW16572   4.917   3.878   2.278 -0.9480 -0.2662  0.0242
 3967WAT      O16573   5.544   3.152   2.292 -0.4066  0.1439 -0.2361
 3967WAT     H116574   5.588   3.113   2.227 -2.1002 -0.4969 -1.0520
 3967WAT     H216575   5.584   3.124   2.364  0.1340 -0.9004 -0.9285
 3967WAT    EPW16576   5.556   3.142   2.293  0.1775 -0.5873 -0.4100
 3968WAT      O16577   6.798   2.235   1.074  0.2498  0.1522 -0.2400
 3968WAT     H116578   6.818   2.272   1.150  0.2440 -0.6264  0.1485
 3968WAT     H216579   6.849   2.277   1.017  1.2022 -0.1237  0.3738
 3968WAT    EPW16580   6.808   2.247   1.077  0.0079  0.6302 -0.0996
 3969WAT      O16581   4.769   3.702   1.324  0.5686 -0.1797 -0.6280
 3969WAT     H116582   4.748   3.622   1.352 -0.8043  0.0190 -1.0228
 3969WAT     H216583   4.832   3.727   1.378 -0.2507 -0.8082  0.6522
 3969WAT    EPW16584   4.775   3.694   1.336 -0.2665 -0.2933  0.1259
 3970WAT      O16585   4.781   3.835   2.945  0.3242  0.7310  0.0189
 3970WAT     H116586   4.852   3.785   2.941  1.2599  2.0769 -1.4080
 3970WAT     H216587   4.810   3.908   2.982 -0.6534  0.8087  0.6588
 3970WAT    EPW16588   4.796   3.838   2.950 -0.2201  0.5044  0.2338
 3971WAT      O16589   5.434   3.261   3.269  0.0803  0.4454 -0.4503
 3971WAT     H116590   5.520   3.265   3.256  0.3277  0.1137  0.9299
 3971WAT     H216591   5.423   3.184   3.308 -0.5926  1.1767  0.8937
 3971WAT    EPW16592   5.445   3.251   3.273  0.3481 -0.6522 -0.9108
 3972WAT      O16593   7.027   3.761   3.495  0.2175 -0.5228 -0.1868
 3972WAT     H116594   7.075   3.725   3.432 -0.1248 -0.4241 -0.5101
 3972WAT     H216595   7.056   3.844   3.498  0.4475 -0.6084  0.0022
 3972WAT    EPW16596   7.038   3.768   3.486 -0.4027 -0.6804 -0.7218
 3973WAT      O16597   5.062   4.340   2.064  0.9780  0.2563  0.0398
 3973WAT     H116598   5.140   4.370   2.088  0.9784  1.1105 -0.9276
 3973WAT     H216599   5.028   4.407   2.019 -0.3651 -0.0514  0.5551
 3973WAT    EPW16600   5.068   4.354   2.061  0.0884 -0.3878  0.2662
 3974WAT      O16601   4.952   4.334   2.637  0.4395  0.0320 -0.0361
 3974WAT     H116602   4.962   4.420   2.646 -1.0142  0.3700 -1.1690
 3974WAT     H216603   4.896   4.327   2.571  0.1635 -1.7809  0.3327
 3974WAT    EPW16604   4.945   4.346   2.629  0.3356  0.7409 -0.5552
 3975WAT      O16605   6.618   3.474   1.437  0.0930 -0.6690  0.0691
 3975WAT     H116606   6.546   3.509   1.472 -0.2235  0.2009 -1.3658
 3975WAT     H216607   6.657   3.543   1.399  2.0059 -0.9910  1.2912
 3975WAT    EPW16608   6.613   3.490   1.437  0.0134  0.5000 -0.4429
 3976WAT      O16609   5.952   3.289   2.284  0.3898 -0.6757 -0.4457
 3976WAT     H116610   6.024   3.337   2.298  0.4775 -0.8506 -0.2941
 3976WAT     H216611   5.889   3.349   2.278  0.6276 -0.4791 -1.1467
 3976WAT    EPW16612   5.953   3.305   2.285  0.3175 -0.3230  0.3331
 3977WAT      O16613   5.337   3.617   3.612  0.4294 -0.1609  0.4380
 3977WAT     H116614   5.376   3.600   3.536 -0.1352  0.6638 -0.0635
 3977WAT     H216615   5.311   3.539   3.640  1.1542 -0.5450  0.0752
 3977WAT    EPW16616   5.339   3.603   3.605 -0.0056 -0.1290  0.8379
 3978WAT      O16617   5.957   4.617   2.312 -0.0795  0.1676  0.0245
 3978WAT     H116618   5.904   4.549   2.325 -0.1210  0.3252  0.7304
 3978WAT     H216619   6.010   4.590   2.249  0.1198 -0.6422  0.5260
 3978WAT    EPW16620   5.957   4.603   2.305 -0.1195  0.1620  0.2866
 3979WAT      O16621   5.917   6.060   2.919  0.0000 -0.2857  0.0957
 3979WAT     H116622   5.977   6.123   2.916  2.1535 -2.0145  2.5301
 3979WAT     H216623   5.955   5.992   2.879 -0.8957 -1.0567  0.4960
 3979WAT    EPW16624   5.931   6.059   2.912  0.6351  1.2242 -0.1766
 3980WAT      O16625   5.821   2.841   1.959 -0.4946 -0.2590  0.6239
 3980WAT     H116626   5.862   2.893   2.016  2.0057 -2.4575  1.0743
 3980WAT     H216627   5.751   2.813   2.003  1.1589 -1.5723  2.5843
 3980WAT    EPW16628   5.817   2.844   1.974 -0.6593  0.9165  0.4311
 3981WAT      O16629   6.651   2.277   2.309 -0.5637  0.2845  0.3114
 3981WAT     H116630   6.683   2.197   2.319  1.0868  1.0698  2.0534
 3981WAT     H216631   6.701   2.312   2.247 -0.0950  0.4802  0.7821
 3981WAT    EPW16632   6.663   2.271   2.302  0.5310 -0.5695 -0.3660
 3982WAT      O16633   6.042   4.435   2.669 -0.1940 -0.2543  0.1384
 3982WAT     H116634   6.034   4.354   2.640 -0.8537 -0.0548 -0.2674
 3982WAT     H216635   6.042   4.426   2.756  2.1980 -0.8877  0.1288
 3982WAT    EPW16636   6.041   4.422   2.678  0.0706 -0.2492  0.2783
 3983WAT      O16637   5.107   4.085   2.673 -0.0427 -0.6045 -0.6998
 3983WAT     H116638   5.086   4.166   2.648 -1.9080 -0.8301 -0.0286
 3983WAT     H216639   5.191   4.078   2.652  0.1927  1.5427 -0.6786
 3983WAT    EPW16640   5.116   4.096   2.666 -0.0234  0.2150 -0.3128
 3984WAT      O16641   5.449   5.310   3.388  0.1693 -0.6895 -1.1325
 3984WAT     H116642   5.427   5.316   3.304  1.6072 -0.9352 -1.5558
 3984WAT     H216643   5.464   5.225   3.400  1.9182 -0.4402 -1.1958
 3984WAT    EPW16644   5.448   5.298   3.378  0.2012  0.0805 -0.3263
 3985WAT      O16645   5.317   4.183   1.962  0.8106 -0.4106 -0.4925
 3985WAT     H116646   5.385   4.129   1.963  0.8823 -0.3185  0.8200
 3985WAT     H216647   5.333   4.238   2.028 -1.0134 -1.0065  0.5073
 3985WAT    EPW16648   5.330   4.183   1.972 -0.6785  0.0665 -0.9936
 3986WAT      O16649   6.654   5.026   2.937  0.0131 -0.4756  0.3707
 3986WAT     H116650   6.572   5.047   2.958 -1.1133  0.0351 -3.6445
 3986WAT     H216651   6.646   4.951   2.894  1.1862  0.6082 -1.9799
 3986WAT    EPW16652   6.640   5.018   2.933 -0.2014  0.8728 -0.5229
 3987WAT      O16653   7.654   2.458   2.203  0.8284  0.0405 -0.6296
 3987WAT     H116654   7.684   2.442   2.123  0.2020 -1.5240 -0.5790
 3987WAT     H216655   7.567   2.458   2.193  0.6610 -2.1701  0.3553
 3987WAT    EPW16656   7.645   2.456   2.190  0.8458 -0.4118 -0.3217
 3988WAT      O16657   6.194   6.174   2.729 -0.1755 -0.0178  0.5311
 3988WAT     H116658   6.144   6.201   2.663  1.0838 -0.1116 -0.4993
 3988WAT     H216659   6.183   6.236   2.789  0.1634  1.1076 -0.5336
 3988WAT    EPW16660   6.185   6.187   2.728 -0.5645 -0.0415 -0.1655
 3989WAT      O16661   6.473   5.002   2.549  0.1618 -0.0743 -0.5677
 3989WAT     H116662   6.403   4.951   2.535 -0.9152  1.4615 -0.9505
 3989WAT     H216663   6.512   4.963   2.617 -1.6839 -0.3606  0.4159
 3989WAT    EPW16664   6.468   4.988   2.557  0.7647  0.2808  0.0023
 3990WAT      O16665   5.353   4.601   1.176  0.7211 -0.7529  0.2651
 3990WAT     H116666   5.398   4.556   1.235  1.2705 -0.6515 -0.0732
 3990WAT     H216667   5.310   4.660   1.223  1.1234 -0.7020  0.5661
 3990WAT    EPW16668   5.353   4.603   1.191  0.4896 -0.3378 -0.4522
 3991WAT      O16669   5.624   3.313   1.877 -0.0567 -0.0731  0.5449
 3991WAT     H116670   5.582   3.382   1.910  2.6835  0.5539  3.1488
 3991WAT     H216671   5.686   3.349   1.827  0.9562 -0.6367  1.3601
 3991WAT    EPW16672   5.627   3.328   1.875  0.9779  0.6210 -0.8884
 3992WAT      O16673   5.069   5.852   3.156 -0.3808 -0.9581  0.2476
 3992WAT     H116674   5.072   5.766   3.170 -1.4022 -0.9944  0.3651
 3992WAT     H216675   5.033   5.858   3.077 -0.5443 -0.6391  0.3456
 3992WAT    EPW16676   5.064   5.840   3.146  0.1121 -0.4036 -0.5031
 3993WAT      O16677   6.802   3.871   3.403 -0.1055 -0.4882  0.8165
 3993WAT     H116678   6.806   3.891   3.318 -0.9971 -1.4641  0.5199
 3993WAT     H216679   6.878   3.832   3.419 -0.4679 -1.5357  0.1049
 3993WAT    EPW16680   6.814   3.868   3.393  0.1380 -0.4248 -0.4378
 3994WAT      O16681   7.328   3.753   3.251  0.5061 -0.1037 -0.5390
 3994WAT     H116682   7.360   3.823   3.292 -0.3038 -0.4563  0.7559
 3994WAT     H216683   7.371   3.752   3.176  2.2386  0.4485  0.3941
 3994WAT    EPW16684   7.339   3.763   3.246  0.7556 -0.8258 -0.7032
 3995WAT      O16685   5.038   4.128   2.277 -0.2300 -0.0597  0.2103
 3995WAT     H116686   4.990   4.057   2.262  0.5452 -0.5263 -0.1676
 3995WAT     H216687   5.043   4.166   2.199 -1.4331  0.9370  0.6032
 3995WAT    EPW16688   5.032   4.123   2.263 -0.1586 -0.5752 -0.4272
 3996WAT      O16689   4.570   5.262   2.831 -0.3170  0.1924 -0.4403
 3996WAT     H116690   4.513   5.198   2.813  0.2869 -1.0512  1.6764
 3996WAT     H216691   4.619   5.267   2.759 -0.9387 -1.1144 -0.9897
 3996WAT    EPW16692   4.569   5.253   2.818 -0.2265 -0.8143 -0.0610
 3997WAT      O16693   5.546   3.063   2.030 -0.3227 -0.3028 -0.0937
 3997WAT     H116694   5.602   3.127   2.013  0.6920 -0.6392  1.7585
 3997WAT     H216695   5.497   3.059   1.958  2.1546 -0.1694 -1.8853
 3997WAT    EPW16696   5.547   3.072   2.017 -0.5016 -0.2101 -0.0937
 3998WAT      O16697   6.717   4.543   1.261  0.0494  0.8745 -0.0172
 3998WAT     H116698   6.803   4.551   1.248  0.3179 -1.7161 -0.2274
 3998WAT     H216699   6.682   4.575   1.188  0.8460  1.3580 -0.1952
 3998WAT    EPW16700   6.725   4.549   1.249 -0.0510  0.0528  0.1681
 3999WAT      O16701   6.405   4.429   2.861 -0.1102  0.4236  0.2770
 3999WAT     H116702   6.447   4.357   2.883  1.9905  1.1329 -1.0955
 3999WAT     H216703   6.333   4.400   2.820 -0.2072 -0.8312  1.2965
 3999WAT    EPW16704   6.401   4.414   2.858  0.2507 -0.0885  0.0768
 4000WAT      O16705   5.732   3.847   2.024  0.0061 -0.2076 -0.4013
 4000WAT     H116706   5.746   3.844   2.110 -0.2644 -2.0823 -0.3865
 4000WAT     H216707   5.804   3.885   1.992  1.5247 -2.2937  0.3955
 4000WAT    EPW16708   5.745   3.852   2.032 -0.3627 -0.5844 -0.5912
 4001WAT      O16709   5.413   3.818   2.287 -0.3202  0.0882 -0.5080
 4001WAT     H116710   5.492   3.854   2.297 -1.0336  1.4688  0.4855
 4001WAT     H216711   5.419   3.743   2.331  0.6872 -0.2304 -1.1709
 4001WAT    EPW16712   5.425   3.812   2.295  0.8752 -0.4212 -0.2420
 4002WAT      O16713   6.501   4.321   2.115 -0.4437 -0.2365 -0.3061
 4002WAT     H116714   6.488   4.275   2.042  0.6003 -1.3630  0.1747
 4002WAT     H216715   6.581   4.296   2.141 -1.0824 -0.4704  1.6255
 4002WAT    EPW16716   6.511   4.310   2.108  0.2084 -0.3092 -0.1105
 4003WAT      O16717   5.125   3.701   2.237 -0.2123 -0.3563  0.2997
 4003WAT     H116718   5.163   3.716   2.314  2.5161 -1.0406 -0.7695
 4003WAT     H216719   5.123   3.614   2.232 -1.7961 -0.3291  0.2142
 4003WAT    EPW16720   5.131   3.690   2.247  0.7054  0.0667  0.2226
 4004WAT      O16721   5.759   3.427   2.949 -0.3610  0.8175  0.2813
 4004WAT     H116722   5.679   3.437   2.916 -0.7302  1.1257  1.2192
 4004WAT     H216723   5.798   3.503   2.931  0.6060 -0.2200 -2.3960
 4004WAT    EPW16724   5.753   3.440   2.942 -0.6814  0.5470  0.4547
 4005WAT      O16725   7.635   4.237   1.533  0.0697 -0.3834 -0.2435
 4005WAT     H116726   7.632   4.322   1.551 -0.5770 -0.6235  0.8860
 4005WAT     H216727   7.644   4.234   1.446  0.1308  0.8253 -0.2879
 4005WAT    EPW16728   7.636   4.249   1.523  0.7866  0.4663 -0.6305
 4006WAT      O16729   5.310   3.622   2.458 -0.2306  0.3621 -0.0425
 4006WAT     H116730   5.373   3.567   2.434 -0.3097 -0.0417  0.6341
 4006WAT     H216731   5.246   3.569   2.484 -1.2554  0.7393 -1.6322
 4006WAT    EPW16732   5.310   3.606   2.458 -0.4742  0.3953  0.2155
 4007WAT      O16733   6.409   5.202   3.351  0.0362  0.5865  0.1938
 4007WAT     H116734   6.482   5.189   3.398  0.3745  1.7724  0.0462
 4007WAT     H216735   6.419   5.284   3.321 -1.2607  0.6862 -0.0114
 4007WAT    EPW16736   6.421   5.212   3.353 -0.2206 -0.2193  0.8773
 4008WAT      O16737   5.762   4.167   1.993 -0.1320  0.0301 -0.3447
 4008WAT     H116738   5.738   4.150   1.911  2.1126 -0.3375 -0.9805
 4008WAT     H216739   5.792   4.249   1.989  0.3080 -0.1103  0.0263
 4008WAT    EPW16740   5.763   4.177   1.980  0.0527 -0.1302 -1.0270
 4009WAT      O16741   6.005   3.097   1.825  0.3823  0.1412  0.1404
 4009WAT     H116742   5.936   3.095   1.879 -0.3074  0.9336 -0.6738
 4009WAT     H216743   5.973   3.136   1.754  1.2880 -0.8231 -0.8174
 4009WAT    EPW16744   5.990   3.103   1.823 -0.3893  0.1291 -0.4647
 4010WAT      O16745   5.181   2.975   2.537  0.2310  0.0956 -0.0503
 4010WAT     H116746   5.159   2.918   2.600  2.3664 -1.3734 -0.5066
 4010WAT     H216747   5.190   3.050   2.579 -1.8896 -0.0229  0.7257
 4010WAT    EPW16748   5.179   2.978   2.552 -0.4177  0.5180 -0.2795
 4011WAT      O16749   5.544   3.767   3.821 -0.1501 -0.2575 -0.2353
 4011WAT     H116750   5.498   3.693   3.826 -0.3744 -0.2754 -2.0018
 4011WAT     H216751   5.540   3.788   3.736 -0.3693  1.9505  0.2608
 4011WAT    EPW16752   5.536   3.759   3.809 -0.7625 -0.4659  0.3238
 4012WAT      O16753   6.592   4.463   1.667  0.1337  0.0027  0.4741
 4012WAT     H116754   6.573   4.525   1.609  0.1961 -1.2378 -0.9534
 4012WAT     H216755   6.515   4.437   1.697  0.1053  0.7011  1.0156
 4012WAT    EPW16756   6.578   4.468   1.663  1.0450  0.7089 -0.7548
 4013WAT      O16757   6.204   3.169   3.385 -0.3092 -0.0102  0.5064
 4013WAT     H116758   6.257   3.210   3.441 -2.0239  0.6066  1.7720
 4013WAT     H216759   6.162   3.111   3.436 -0.9726 -0.3707 -0.4182
 4013WAT    EPW16760   6.206   3.166   3.401 -0.0039  0.1157  0.2279
 4014WAT      O16761   7.421   3.675   2.499 -0.3364 -0.0584 -0.4673
 4014WAT     H116762   7.341   3.640   2.499 -1.3251  2.0447 -0.2543
 4014WAT     H216763   7.410   3.751   2.540  1.3984  1.1121 -2.0106
 4014WAT    EPW16764   7.407   3.681   2.505  0.1756 -0.2956  0.0483
 4015WAT      O16765   7.597   3.865   2.361  0.0376  0.4868  0.4869
 4015WAT     H116766   7.630   3.791   2.328 -0.3829  0.4331  0.1773
 4015WAT     H216767   7.548   3.838   2.428  0.3528  0.5399  0.7441
 4015WAT    EPW16768   7.595   3.850   2.366 -0.4163 -0.2733  0.2941
 4016WAT      O16769   7.233   3.835   2.300 -0.1476 -0.2915  0.1010
 4016WAT     H116770   7.225   3.762   2.348  0.9067  0.2276  1.1044
 4016WAT     H216771   7.290   3.883   2.344 -1.1215  1.3468 -0.3215
 4016WAT    EPW16772   7.240   3.831   2.313 -0.2983 -0.7733 -0.0289
 4017WAT      O16773   6.632   3.329   3.638 -0.1227  0.0503  0.0308
 4017WAT     H116774   6.717   3.338   3.655  0.2812 -0.4655 -1.4939
 4017WAT     H216775   6.593   3.377   3.699  1.1658 -1.0871  1.8472
 4017WAT    EPW16776   6.639   3.337   3.650 -0.3430 -0.3674  0.0604
 4018WAT      O16777   7.066   4.965   3.070  0.1375 -0.2043 -0.1576
 4018WAT     H116778   7.146   4.932   3.070 -0.6382 -2.2808  1.3788
 4018WAT     H216779   7.031   4.932   2.997  0.7104  0.9293 -0.9776
 4018WAT    EPW16780   7.072   4.956   3.059  0.4652 -0.4024  0.4386
 4019WAT      O16781   6.904   4.901   1.370  0.4548 -0.6387  0.2191
 4019WAT     H116782   6.876   4.885   1.451  0.0050 -1.0932 -0.0208
 4019WAT     H216783   6.986   4.871   1.371  1.4568  1.8622  1.2988
 4019WAT    EPW16784   6.912   4.894   1.382  0.3404 -0.1075 -0.3788
 4020WAT      O16785   4.899   4.691   2.682  0.2970  0.2559 -0.1545
 4020WAT     H116786   4.880   4.699   2.597  1.3653 -2.6334 -0.8033
 4020WAT     H216787   4.823   4.670   2.718 -0.0005  0.6638 -0.5348
 4020WAT    EPW16788   4.885   4.689   2.675 -0.4108  0.1067 -0.4873
 4021WAT      O16789   6.069   4.928   2.986  0.4234  0.1850 -0.1023
 4021WAT     H116790   6.085   4.983   2.920 -0.7715  0.5027 -0.1461
 4021WAT     H216791   6.004   4.878   2.956  1.0668 -0.8506  0.1784
 4021WAT    EPW16792   6.062   4.928   2.972 -0.2937 -0.2546 -0.1183
 4022WAT      O16793   6.879   2.933   2.566 -0.5043  0.8098 -0.7430
 4022WAT     H116794   6.880   3.000   2.622 -0.2845  1.3199 -1.3476
 4022WAT     H216795   6.862   2.864   2.617  0.7422  1.1047  0.1433
 4022WAT    EPW16796   6.877   2.932   2.582  0.7623 -0.4302 -0.1931
 4023WAT      O16797   6.354   4.700   1.847 -0.4444 -0.0746 -0.1920
 4023WAT     H116798   6.429   4.743   1.854 -0.4888  0.2854 -1.5562
 4023WAT     H216799   6.323   4.697   1.928 -0.0246  1.7107  0.0671
 4023WAT    EPW16800   6.361   4.706   1.860  0.6296 -0.2330 -0.3982
 4024WAT      O16801   5.440   3.525   3.374 -0.3405 -0.6589 -0.1282
 4024WAT     H116802   5.434   3.441   3.351 -1.6834 -0.4906 -0.4721
 4024WAT     H216803   5.404   3.567   3.307 -0.9087  0.0936  0.6318
 4024WAT    EPW16804   5.434   3.519   3.361 -0.5568 -0.1491 -0.4954
 4025WAT      O16805   5.650   5.012   3.213 -0.2396  0.2528 -0.3769
 4025WAT     H116806   5.729   4.976   3.211 -0.6965 -0.9071  0.7902
 4025WAT     H216807   5.608   4.971   3.148 -0.3096 -0.2415 -0.0278
 4025WAT    EPW16808   5.655   5.000   3.203 -0.0694 -0.1394 -0.6325
 4026WAT      O16809   6.598   2.873   1.635  0.7097 -0.2094  0.2320
 4026WAT     H116810   6.642   2.810   1.594 -0.6437 -1.1820  0.2237
 4026WAT     H216811   6.573   2.836   1.709 -0.2286  0.2671  0.1665
 4026WAT    EPW16812   6.601   2.858   1.640  0.0358  0.0625 -0.6572
 4027WAT      O16813   6.494   3.972   1.686 -0.1517  0.6638  0.4648
 4027WAT     H116814   6.488   4.036   1.745 -0.8218  0.5897  0.4951
 4027WAT     H216815   6.431   3.917   1.710 -0.7878  0.8768 -0.5994
 4027WAT    EPW16816   6.484   3.974   1.698 -0.0215  0.3077 -0.7626
 4028WAT      O16817   5.170   4.538   2.538 -0.0844 -0.0408 -0.4992
 4028WAT     H116818   5.178   4.623   2.522  0.6173  0.0936  0.4655
 4028WAT     H216819   5.176   4.532   2.625  3.7016 -1.3842 -0.6437
 4028WAT    EPW16820   5.172   4.549   2.548 -0.7641 -0.0389 -0.5513
 4029WAT      O16821   5.648   3.848   3.551 -0.3162 -0.1401 -0.9085
 4029WAT     H116822   5.723   3.876   3.586 -0.4542 -1.3688  0.4721
 4029WAT     H216823   5.658   3.762   3.547 -1.8618 -0.3800 -0.1680
 4029WAT    EPW16824   5.660   3.840   3.556  0.5563 -0.3646 -0.0872
 4030WAT      O16825   6.216   4.775   3.699 -0.3313 -0.3906  0.5813
 4030WAT     H116826   6.141   4.730   3.708 -1.8362  1.9974  0.7299
 4030WAT     H216827   6.205   4.818   3.624  1.6196 -1.1858 -0.2198
 4030WAT    EPW16828   6.203   4.774   3.689 -0.2123  0.0120 -0.1221
 4031WAT      O16829   6.366   5.505   1.696  0.4846  0.3412 -0.0099
 4031WAT     H116830   6.441   5.487   1.656  1.4991  0.0714  1.8580
 4031WAT     H216831   6.378   5.473   1.777 -2.8349 -2.5631 -0.4333
 4031WAT    EPW16832   6.379   5.498   1.702 -0.2889  0.0737 -0.5603
 4032WAT      O16833   6.337   3.987   2.047 -0.1355 -0.4258  0.0980
 4032WAT     H116834   6.389   3.960   2.112  1.0727  0.6747 -0.3650
 4032WAT     H216835   6.259   3.993   2.085  0.3326 -0.8539  1.1691
 4032WAT    EPW16836   6.333   3.984   2.062 -0.2069 -0.4617 -0.3761
 4033WAT      O16837   5.343   2.646   2.185 -0.0353  1.0120 -0.0650
 4033WAT     H116838   5.320   2.727   2.164 -0.3817  0.7279 -0.7888
 4033WAT     H216839   5.289   2.596   2.139 -0.0833  0.3638  0.6722
 4033WAT    EPW16840   5.332   2.651   2.175 -0.5275  0.1645  0.1966
 4034WAT      O16841   6.444   4.035   2.339 -0.1073  0.5202 -0.9167
 4034WAT     H116842   6.390   4.095   2.373 -0.7918 -1.2169  1.3299
 4034WAT     H216843   6.523   4.071   2.348 -0.6387  2.0844 -1.9977
 4034WAT    EPW16844   6.448   4.049   2.346  1.1415 -0.2243 -0.5762
 4035WAT      O16845   6.637   3.423   2.697  0.1273  0.4327 -0.6067
 4035WAT     H116846   6.647   3.509   2.700  0.6113  0.4428 -1.8699
 4035WAT     H216847   6.709   3.392   2.736 -0.7755  0.5782  1.2757
 4035WAT    EPW16848   6.649   3.431   2.703 -0.1631  0.3077  0.2102
 4036WAT      O16849   5.217   5.426   3.502 -0.4218 -0.3485  0.3102
 4036WAT     H116850   5.269   5.384   3.446 -0.0534 -0.2270  0.5608
 4036WAT     H216851   5.270   5.445   3.569 -0.6433  0.2769  0.3130
 4036WAT    EPW16852   5.233   5.423   3.504 -0.3692  0.6606 -0.0276
 4037WAT      O16853   6.958   4.375   3.727 -0.0882 -0.6235 -0.1172
 4037WAT     H116854   6.877   4.404   3.741 -0.3679 -1.8547  1.0642
 4037WAT     H216855   6.976   4.330   3.799  2.8425  2.0719  1.0248
 4037WAT    EPW16856   6.949   4.372   3.739 -0.3338 -0.0369 -0.6911
 4038WAT      O16857   6.978   3.723   1.657 -0.3387 -0.0869  0.3310
 4038WAT     H116858   6.915   3.782   1.646 -0.8581 -0.3412  1.7648
 4038WAT     H216859   6.993   3.695   1.576 -1.8982  0.1582 -0.0800
 4038WAT    EPW16860   6.971   3.728   1.644  0.9865 -0.0054  0.7099
 4039WAT      O16861   6.759   4.914   2.179  0.1160  0.3748  0.6689
 4039WAT     H116862   6.813   4.902   2.111 -0.3804 -1.0968  0.4972
 4039WAT     H216863   6.811   4.902   2.248  0.0061 -1.2904  0.5028
 4039WAT    EPW16864   6.775   4.910   2.179 -0.3908 -0.3560  0.1040
 4040WAT      O16865   5.406   4.356   2.736 -0.1230  0.0417 -0.1807
 4040WAT     H116866   5.432   4.302   2.800 -0.0326 -2.1410 -1.9578
 4040WAT     H216867   5.321   4.366   2.751 -0.2945 -1.2183 -0.2464
 4040WAT    EPW16868   5.397   4.349   2.748 -1.3556 -0.0041 -0.0142
 4041WAT      O16869   6.231   3.825   2.597 -0.0717 -0.4927  0.1351
 4041WAT     H116870   6.298   3.868   2.632 -0.5267  0.9427 -0.6804
 4041WAT     H216871   6.269   3.758   2.556  0.7723 -0.2270  0.4593
 4041WAT    EPW16872   6.246   3.821   2.596 -0.3256 -0.6027 -0.4844
 4042WAT      O16873   5.143   6.095   3.441  0.0446  0.2341  0.2905
 4042WAT     H116874   5.161   6.095   3.355 -0.5330  0.5530  0.1677
 4042WAT     H216875   5.061   6.065   3.445  0.3211 -0.4924  0.7916
 4042WAT    EPW16876   5.134   6.090   3.429 -0.3783 -0.3257 -0.7840
 4043WAT      O16877   7.504   2.108   1.636 -0.8633  0.8511 -0.0716
 4043WAT     H116878   7.546   2.133   1.708 -0.1730  2.0466 -0.8551
 4043WAT     H216879   7.553   2.044   1.603 -0.5853  1.0622 -0.0666
 4043WAT    EPW16880   7.517   2.102   1.641  0.6023  0.6077 -0.2405
 4044WAT      O16881   5.996   3.870   3.225  0.6227 -0.3228  0.8010
 4044WAT     H116882   6.051   3.884   3.292  3.3312 -0.8783 -1.1557
 4044WAT     H216883   6.008   3.786   3.206  1.7771  0.3136 -1.7784
 4044WAT    EPW16884   6.006   3.860   3.232  0.5230 -0.5414 -0.1703
 4045WAT      O16885   5.829   4.045   1.267  0.5756 -0.7314  0.1423
 4045WAT     H116886   5.908   4.068   1.236 -0.0113 -0.2819 -1.1270
 4045WAT     H216887   5.793   4.122   1.288  0.0385 -0.8173 -0.4382
 4045WAT    EPW16888   5.835   4.060   1.265  0.6548 -0.8921 -0.1742
 4046WAT      O16889   5.307   4.791   2.551  0.1146 -0.2175  0.1402
 4046WAT     H116890   5.393   4.791   2.538  0.2312 -2.5177  0.4184
 4046WAT     H216891   5.276   4.840   2.486  1.7028  2.6923  1.3893
 4046WAT    EPW16892   5.315   4.798   2.539 -0.4336 -0.0787 -0.0455
 4047WAT      O16893   6.425   3.031   2.689  0.0439 -0.6341 -0.2603
 4047WAT     H116894   6.399   3.003   2.611 -4.2874  1.8160 -0.0566
 4047WAT     H216895   6.369   2.994   2.744  0.6605  0.4767  1.1959
 4047WAT    EPW16896   6.413   3.021   2.686 -0.2282 -0.4229  0.0367
 4048WAT      O16897   5.468   3.762   2.646 -0.0047  0.1070 -0.2779
 4048WAT     H116898   5.447   3.844   2.625 -0.7133  0.2590  0.9272
 4048WAT     H216899   5.402   3.716   2.614 -1.3473  0.3915  1.9222
 4048WAT    EPW16900   5.455   3.768   2.638  0.2252 -0.5066  0.4907
 4049WAT      O16901   5.566   3.914   3.038  0.0293  0.5556  0.0994
 4049WAT     H116902   5.516   3.851   3.006  0.7584 -0.0944  0.2111
 4049WAT     H216903   5.550   3.912   3.124  0.3323  0.2504  0.1546
 4049WAT    EPW16904   5.556   3.905   3.046 -0.6035 -0.4187  0.1695
 4050WAT      O16905   6.535   6.795   1.644  0.0801 -0.5936 -0.4733
 4050WAT     H116906   6.552   6.745   1.713 -1.9867 -1.1870 -0.3265
 4050WAT     H216907   6.548   6.742   1.576 -0.4125 -0.8133 -0.3999
 4050WAT    EPW16908   6.539   6.780   1.644  0.3460  0.1324  0.0392
 4051WAT      O16909   5.679   4.529   3.081 -0.1250  0.0767 -0.3733
 4051WAT     H116910   5.666   4.496   3.161  2.8544 -0.5274 -0.0089
 4051WAT     H216911   5.599   4.551   3.055 -1.7576 -3.1540  1.2696
 4051WAT    EPW16912   5.665   4.527   3.089  0.0344 -0.7797 -0.6825
 4052WAT      O16913   6.215   4.510   3.360 -0.1530  0.1471  0.7296
 4052WAT     H116914   6.166   4.563   3.408 -2.7640 -0.9989 -0.5022
 4052WAT     H216915   6.190   4.430   3.385  2.5239 -0.5918  1.4012
 4052WAT    EPW16916   6.204   4.506   3.371  0.0006  0.1219  0.2027
 4053WAT      O16917   5.463   3.315   4.728  0.4091  0.1403  0.0383
 4053WAT     H116918   5.506   3.276   4.793  0.8177  1.2273  0.4452
 4053WAT     H216919   5.409   3.370   4.769 -0.5958 -0.4182 -0.5079
 4053WAT    EPW16920   5.462   3.317   4.744  1.2766 -0.2518  0.6333
 4054WAT      O16921   7.710   3.865   2.656 -0.0070 -0.0047 -0.2548
 4054WAT     H116922   7.749   3.851   2.579  2.2506 -0.4024  0.9055
 4054WAT     H216923   7.684   3.949   2.650 -3.5671 -1.0300 -2.9123
 4054WAT    EPW16924   7.712   3.876   2.644  0.0772  0.2164 -0.1368
 4055WAT      O16925   5.421   2.242   3.119 -0.0434 -0.0252 -0.0589
 4055WAT     H116926   5.493   2.212   3.159 -1.0014  0.7229  2.3911
 4055WAT     H216927   5.356   2.214   3.170 -1.3626  1.1291 -1.0362
 4055WAT    EPW16928   5.422   2.233   3.132 -0.1438 -0.1803  0.1981
 4056WAT      O16929   7.002   4.278   2.260  0.0318  0.1138 -0.4614
 4056WAT     H116930   6.950   4.289   2.190  2.1254 -1.0652 -2.3329
 4056WAT     H216931   7.070   4.329   2.243  0.2217  0.4721  1.2008
 4056WAT    EPW16932   7.004   4.287   2.247 -0.7545  0.4525 -1.0366
 4057WAT      O16933   7.442   3.133   4.068 -0.3415  0.0420  0.3253
 4057WAT     H116934   7.384   3.181   4.111 -2.1231  0.0784 -1.9410
 4057WAT     H216935   7.462   3.070   4.125 -1.5835  0.7963  1.6626
 4057WAT    EPW16936   7.436   3.131   4.083  0.4455  0.4575 -0.1053
 4058WAT      O16937   4.384   3.203   0.886  0.0923 -0.5642  0.7681
 4058WAT     H116938   4.353   3.192   0.805  1.3352  1.0106  0.0349
 4058WAT     H216939   4.355   3.282   0.908  1.2376 -0.2387  1.1546
 4058WAT    EPW16940   4.375   3.213   0.877  0.2899  0.4509 -0.9255
 4059WAT      O16941   7.279   2.686   2.949  0.2428  0.0426  0.2314
 4059WAT     H116942   7.313   2.766   2.948  0.5543 -0.0903  0.0446
 4059WAT     H216943   7.219   2.689   2.885  0.9011 -0.1466 -0.4091
 4059WAT    EPW16944   7.275   2.698   2.939  0.2834 -0.5842 -0.1248
 4060WAT      O16945   5.830   4.139   2.255 -0.7633 -0.5681 -0.0710
 4060WAT     H116946   5.828   4.058   2.285  0.1401 -0.8361 -0.6899
 4060WAT     H216947   5.796   4.132   2.175 -0.3110 -0.4179 -0.2808
 4060WAT    EPW16948   5.824   4.126   2.248  0.0382  0.4093 -0.5192
 4061WAT      O16949   6.793   3.563   3.882  0.0321 -0.6289 -0.0543
 4061WAT     H116950   6.725   3.603   3.920  1.3108  0.9485  0.6965
 4061WAT     H216951   6.855   3.565   3.943  1.7300  0.7994 -1.6751
 4061WAT    EPW16952   6.792   3.569   3.897 -0.1317  0.5616  0.3226
 4062WAT      O16953   5.338   4.110   2.283 -0.1315  0.1687  0.1720
 4062WAT     H116954   5.251   4.114   2.290 -0.2439 -0.6929 -0.6135
 4062WAT     H216955   5.352   4.033   2.244  0.7750  1.5887 -2.5976
 4062WAT    EPW16956   5.327   4.099   2.278  0.0684 -0.2068  0.0394
 4063WAT      O16957   5.448   4.520   2.480  0.4438  0.2338 -0.1785
 4063WAT     H116958   5.364   4.532   2.497  0.2642  0.4505 -1.1504
 4063WAT     H216959   5.488   4.547   2.552 -0.3080  0.2945  0.2228
 4063WAT    EPW16960   5.442   4.526   2.493 -0.8428 -0.3730  0.0442
 4064WAT      O16961   6.844   3.826   3.783 -0.3890  0.3491 -0.3277
 4064WAT     H116962   6.931   3.838   3.783 -0.2949  0.1657  2.3348
 4064WAT     H216963   6.835   3.742   3.804 -1.2383  0.3102 -0.7963
 4064WAT    EPW16964   6.856   3.816   3.786 -0.4967  0.1682  0.3446
 4065WAT      O16965   5.998   4.174   2.509 -0.4462  0.2483 -0.2763
 4065WAT     H116966   5.964   4.149   2.585 -0.6917 -0.8863 -0.7458
 4065WAT     H216967   5.938   4.151   2.451 -0.1492  0.8824 -0.8467
 4065WAT    EPW16968   5.984   4.167   2.512  0.2347  0.1379  0.4834
 4066WAT      O16969   5.413   5.032   0.284 -0.4609  0.0387  0.5719
 4066WAT     H116970   5.419   4.982   0.213 -0.7136 -0.2971  0.7781
 4066WAT     H216971   5.338   5.075   0.272  0.4705  1.4932 -0.2981
 4066WAT    EPW16972   5.402   5.031   0.272 -0.3342 -0.1489 -0.0624
 4067WAT      O16973   6.496   1.689   3.190 -0.3969 -0.5622  0.2752
 4067WAT     H116974   6.421   1.723   3.219  0.8889  2.5934  0.3513
 4067WAT     H216975   6.485   1.685   3.104 -0.1510  1.6549  0.0628
 4067WAT    EPW16976   6.483   1.694   3.182  0.3495  0.7275 -1.0828
 4068WAT      O16977   7.564   4.227   3.707  0.2280  0.2343  0.5220
 4068WAT     H116978   7.493   4.277   3.717 -0.1746 -0.1000 -0.4895
 4068WAT     H216979   7.541   4.152   3.745 -0.6816 -0.4820 -1.2697
 4068WAT    EPW16980   7.550   4.224   3.714  0.3768 -0.7868  0.3233
 4069WAT      O16981   6.897   3.586   2.022  0.1068  0.1766  0.1698
 4069WAT     H116982   6.963   3.643   2.025 -0.0316  0.3298  0.4037
 4069WAT     H216983   6.833   3.628   2.064  0.0124 -0.1606  0.3694
 4069WAT    EPW16984   6.898   3.601   2.029 -0.4136 -0.5226 -0.6329
 4070WAT      O16985   7.511   4.550   2.639 -0.2321  0.5393 -0.5987
 4070WAT     H116986   7.518   4.571   2.554  0.2687  0.3735 -0.6017
 4070WAT     H216987   7.514   4.627   2.679  0.5651  0.5507 -0.6719
 4070WAT    EPW16988   7.512   4.564   2.632  0.1850  0.7599  0.9434
 4071WAT      O16989   7.428   5.601   2.717 -0.5341  0.0003 -0.3531
 4071WAT     H116990   7.488   5.629   2.773  0.2764 -0.3929 -1.0021
 4071WAT     H216991   7.359   5.583   2.767 -1.5672  4.1139  0.0881
 4071WAT    EPW16992   7.427   5.602   2.733 -0.3141 -0.7740 -0.1627
 4072WAT      O16993   5.940   3.301   2.762  0.7800 -0.5449  0.1565
 4072WAT     H116994   5.991   3.266   2.823  1.0520  1.9446  1.4787
 4072WAT     H216995   5.871   3.329   2.807  0.7451  0.8773 -0.7229
 4072WAT    EPW16996   5.937   3.300   2.778  0.9036 -0.0223 -0.5863
 4073WAT      O16997   6.584   2.153   1.487  0.3408  0.2730  0.0971
 4073WAT     H116998   6.613   2.112   1.415  0.9601  1.9933 -0.6703
 4073WAT     H216999   6.655   2.192   1.519 -0.3687  1.3580  0.3908
 4073WAT    EPW17000   6.598   2.152   1.481 -0.4814 -0.0176  0.0841
 4074WAT      O17001   0.111   5.400   2.641  0.1825  0.0118 -0.3877
 4074WAT     H117002   0.045   5.357   2.602 -0.7155  1.6055 -0.6789
 4074WAT     H217003   0.123   5.355   2.715 -0.8522 -0.6464 -0.5937
 4074WAT    EPW17004   0.103   5.387   2.646 -0.5805 -0.2311  0.7600
 4075WAT      O17005   5.427   5.004   2.166 -0.4826  0.4183  0.0608
 4075WAT     H117006   5.452   5.053   2.235  0.0987  0.6456 -0.3023
 4075WAT     H217007   5.448   5.054   2.098 -0.9830  0.1553 -0.2893
 4075WAT    EPW17008   5.434   5.019   2.166  0.5767 -0.0075 -0.8402
 4076WAT      O17009   6.334   4.903   2.201  0.0631  0.3357  0.2488
 4076WAT     H117010   6.268   4.931   2.250 -0.2470  1.0187 -0.5390
 4076WAT     H217011   6.393   4.875   2.259 -1.1793 -0.9260  0.9551
 4076WAT    EPW17012   6.333   4.903   2.217 -0.4238  0.0058  0.5853
 4077WAT      O17013   6.729   3.688   2.668  0.1577 -0.3978 -0.1507
 4077WAT     H117014   6.810   3.694   2.699 -0.6474 -1.7458  2.5420
 4077WAT     H217015   6.740   3.678   2.582  2.7543  0.4687  0.0142
 4077WAT    EPW17016   6.742   3.687   2.660  0.6126 -0.0055  1.2377
 4078WAT      O17017   6.865   3.617   2.410 -0.6136 -0.1339 -0.4341
 4078WAT     H117018   6.823   3.581   2.343 -0.6133 -0.1067 -0.4489
 4078WAT     H217019   6.867   3.702   2.390  0.2553 -0.2488 -0.8798
 4078WAT    EPW17020   6.859   3.624   2.398  0.4902  0.1491 -0.1588
 4079WAT      O17021   5.100   3.850   2.827 -0.1980  0.4348  0.5850
 4079WAT     H117022   5.107   3.925   2.784  1.0903 -0.2456 -0.5047
 4079WAT     H217023   5.049   3.801   2.775  0.1934  0.0768  0.5294
 4079WAT    EPW17024   5.094   3.854   2.813  0.4907 -0.8813 -0.8246
 4080WAT      O17025   6.307   5.381   2.459  0.2659 -0.1029  0.7805
 4080WAT     H117026   6.230   5.338   2.455  1.2657 -1.9418 -0.0095
 4080WAT     H217027   6.332   5.385   2.375  0.2246  2.1214  0.8234
 4080WAT    EPW17028   6.299   5.375   2.446  0.5003  0.8246 -0.0518
 4081WAT      O17029   4.926   5.098   2.585  0.1309 -0.3999 -0.2156
 4081WAT     H117030   4.993   5.118   2.532 -0.7298  0.1444 -1.1532
 4081WAT     H217031   4.889   5.029   2.546 -0.6683  0.1683 -0.5116
 4081WAT    EPW17032   4.930   5.091   2.571  0.1530 -0.7222 -0.0363
 4082WAT      O17033   5.711   4.255   1.702 -0.3999  0.0735 -0.3836
 4082WAT     H117034   5.713   4.252   1.615 -1.4259  0.4999 -0.4250
 4082WAT     H217035   5.626   4.259   1.721 -0.1822  0.0700  0.6336
 4082WAT    EPW17036   5.699   4.255   1.692  0.2746 -0.0808 -0.4331
 4083WAT      O17037   5.422   5.535   1.135 -0.0930  0.3911 -0.4347
 4083WAT     H117038   5.348   5.581   1.125  0.6105  1.4256 -1.0299
 4083WAT     H217039   5.406   5.461   1.093 -0.7886  0.6111 -0.5696
 4083WAT    EPW17040   5.408   5.531   1.128  0.5839  0.0177  0.3577
 4084WAT      O17041   6.554   2.516   3.291 -0.0264  0.5580 -0.0467
 4084WAT     H117042   6.633   2.479   3.297  0.1007  0.9468  0.8304
 4084WAT     H217043   6.502   2.459   3.330 -0.2294  0.1654 -0.8866
 4084WAT    EPW17044   6.558   2.502   3.298  0.5394  0.7601 -0.3864
 4085WAT      O17045   5.656   3.578   3.500 -1.0179  0.1321 -0.0312
 4085WAT     H117046   5.715   3.562   3.437  0.3712 -2.0969  1.6719
 4085WAT     H217047   5.583   3.541   3.471 -0.1630 -1.6439 -0.0322
 4085WAT    EPW17048   5.654   3.570   3.486  0.2885  0.3795  0.2629
 4086WAT      O17049   5.844   4.185   3.246 -0.1898 -0.1486  0.3042
 4086WAT     H117050   5.861   4.119   3.192 -0.2041 -0.3768  0.5782
 4086WAT     H217051   5.786   4.233   3.202 -0.2207 -0.3473  0.1263
 4086WAT    EPW17052   5.838   4.183   3.232 -0.4746 -0.3663  0.8427
 4087WAT      O17053   7.070   2.766   4.205  0.1541  0.4368  0.1666
 4087WAT     H117054   7.134   2.822   4.186  1.4110 -1.0133 -0.0992
 4087WAT     H217055   7.011   2.779   4.142  1.2435  0.2493 -0.9181
 4087WAT    EPW17056   7.071   2.776   4.193  0.2155  0.1850 -0.1641
 4088WAT      O17057   5.521   3.922   3.330  0.4221 -0.2819  0.8235
 4088WAT     H117058   5.448   3.875   3.340 -0.5778  0.7756 -0.9672
 4088WAT     H217059   5.568   3.902   3.401 -1.3868 -1.3679  1.8003
 4088WAT    EPW17060   5.517   3.912   3.342  0.5637  0.1937  0.0449
 4089WAT      O17061   6.695   3.775   2.952  0.0527  0.2692 -0.0909
 4089WAT     H117062   6.609   3.785   2.962  0.0594  0.5010 -0.2460
 4089WAT     H217063   6.702   3.726   2.880  0.0416 -0.1270  0.1730
 4089WAT    EPW17064   6.684   3.769   2.943 -0.0486  0.2583 -0.0577
 4090WAT      O17065   5.904   5.132   0.557 -0.2742  0.1924 -0.8393
 4090WAT     H117066   5.913   5.155   0.640 -0.1383  0.0116 -0.8043
 4090WAT     H217067   5.862   5.056   0.560  0.8445 -0.4506 -0.8751
 4090WAT    EPW17068   5.899   5.124   0.570  0.1259  0.0829  0.1687
 4091WAT      O17069   6.209   4.895   2.523 -0.2984  0.3960  0.6918
 4091WAT     H117070   6.130   4.906   2.559 -0.8629 -1.5409  0.1607
 4091WAT     H217071   6.216   4.808   2.514  1.5134  0.5746 -0.1371
 4091WAT    EPW17072   6.198   4.884   2.527  0.0104  0.6968 -0.0924
 4092WAT      O17073   4.747   4.753   1.716  0.0017 -1.1587  0.2223
 4092WAT     H117074   4.807   4.719   1.769  1.3681 -0.0102 -0.4918
 4092WAT     H217075   4.693   4.795   1.769  0.5402 -1.1931  0.8070
 4092WAT    EPW17076   4.748   4.754   1.731  0.4481 -0.7036  0.0923
 4093WAT      O17077   6.344   3.284   0.226  0.2041  0.1685  0.1568
 4093WAT     H117078   6.331   3.208   0.267  0.3332 -0.7451 -1.4293
 4093WAT     H217079   6.265   3.306   0.197  0.3589  0.0596 -0.3558
 4093WAT    EPW17080   6.331   3.276   0.228 -0.2895 -0.0745  0.3352
 4094WAT      O17081   5.313   5.798   0.906 -0.1399  0.7943 -0.4505
 4094WAT     H117082   5.349   5.874   0.929 -1.6483  1.2341  0.6332
 4094WAT     H217083   5.277   5.770   0.981 -1.5404  0.1230 -1.3430
 4094WAT    EPW17084   5.313   5.805   0.921  0.3852 -0.8770 -0.3495
 4095WAT      O17085   6.293   4.232   0.600  0.4597  0.2326 -0.0661
 4095WAT     H117086   6.211   4.263   0.596  0.4924  0.7422  1.9731
 4095WAT     H217087   6.312   4.235   0.685  1.7803 -2.1126 -0.1935
 4095WAT    EPW17088   6.284   4.237   0.612 -0.2157  0.4615  0.2010
 4096WAT      O17089   6.526   3.103   2.277 -0.0176 -0.1628 -0.2676
 4096WAT     H117090   6.597   3.121   2.229 -0.1048 -0.5190 -0.5278
 4096WAT     H217091   6.553   3.039   2.330  0.0931  0.2617  0.1991
 4096WAT    EPW17092   6.541   3.097   2.278 -0.1282 -0.0217  0.1183
 4097WAT      O17093   5.836   5.174   1.073 -0.2423  0.7672  0.4880
 4097WAT     H117094   5.771   5.174   1.131  0.5070  1.0704  1.3598
 4097WAT     H217095   5.874   5.253   1.085  1.0570  0.1136  0.9174
 4097WAT    EPW17096   5.832   5.186   1.083 -0.2517 -0.5794  0.6570
 4098WAT      O17097   6.326   3.557   1.533  0.2453 -0.3461 -0.0569
 4098WAT     H117098   6.342   3.624   1.586 -1.6261  0.8359 -0.8718
 4098WAT     H217099   6.290   3.498   1.586  1.8584 -0.7417  0.6579
 4098WAT    EPW17100   6.323   3.558   1.549 -0.1705 -0.3225 -0.2309
 4099WAT      O17101   6.068   2.906   0.724 -0.1120  0.6272 -0.1272
 4099WAT     H117102   6.130   2.903   0.785 -1.9406  1.9334  1.9503
 4099WAT     H217103   5.993   2.898   0.770 -1.5465 -1.6329 -2.5578
 4099WAT    EPW17104   6.066   2.904   0.740 -0.0623  0.8582 -0.7403
 4100WAT      O17105   4.917   3.249   1.138 -0.5612 -0.2479 -0.2022
 4100WAT     H117106   4.960   3.323   1.120 -0.0363 -0.4699  0.0998
 4100WAT     H217107   4.859   3.243   1.074  0.1689 -0.1764 -0.8829
 4100WAT    EPW17108   4.915   3.259   1.126 -0.1858 -0.7377 -0.7672
 4101WAT      O17109   5.008   5.285   7.475  0.3630  0.1844  0.1550
 4101WAT     H117110   4.939   5.288   7.421 -0.7378 -0.0163  1.5040
 4101WAT     H217111   5.071   5.326   7.430 -0.2726 -0.6243 -1.5942
 4101WAT    EPW17112   5.007   5.291   7.460  0.2028 -0.1543  1.1585
 4102WAT      O17113   6.140   3.931   2.271  0.3367 -0.2584 -0.4496
 4102WAT     H117114   6.060   3.904   2.291  0.0413  1.3280  0.6931
 4102WAT     H217115   6.166   3.975   2.342  0.8691  2.1220 -1.9858
 4102WAT    EPW17116   6.132   3.934   2.284 -0.3343  1.0461 -0.7084
 4103WAT      O17117   5.989   4.773   7.912 -0.2523  0.3697 -0.5590
 4103WAT     H117118   6.055   4.829   7.924 -0.7039  0.6218  1.0313
 4103WAT     H217119   5.922   4.811   7.953 -1.5475  0.3303 -2.4875
 4103WAT    EPW17120   5.989   4.787   7.920  0.6107 -1.1439 -0.0669
 4104WAT      O17121   6.720   3.719   1.321 -0.3025  0.8809 -0.1685
 4104WAT     H117122   6.803   3.737   1.340 -0.5966  0.4830  1.6359
 4104WAT     H217123   6.679   3.795   1.333 -0.3112  0.9183 -0.4226
 4104WAT    EPW17124   6.726   3.733   1.325 -0.1383  0.5540  0.2225
 4105WAT      O17125   7.022   4.417   1.225  0.3484  0.1198  0.2304
 4105WAT     H117126   7.106   4.421   1.201  0.5232 -0.5557  0.6721
 4105WAT     H217127   7.027   4.391   1.308 -0.2851  0.6306  0.4273
 4105WAT    EPW17128   7.035   4.413   1.234 -0.1317 -0.3818 -0.1307
 4106WAT      O17129   5.388   3.218   1.438 -0.7005  0.1606 -0.2100
 4106WAT     H117130   5.475   3.214   1.449 -0.7738  0.6637  0.6585
 4106WAT     H217131   5.361   3.139   1.461 -0.5405  0.2459  0.2841
 4106WAT    EPW17132   5.397   3.206   1.443 -0.4694  0.0463  0.8196
 4107WAT      O17133   6.874   3.149   0.481 -0.5914  0.6239  0.7062
 4107WAT     H117134   6.911   3.226   0.466 -0.9555  0.6389 -0.2088
 4107WAT     H217135   6.932   3.092   0.450  0.0216  0.4662  2.0711
 4107WAT    EPW17136   6.888   3.152   0.474 -0.2348 -0.1099  0.2228
 4108WAT      O17137   4.578   2.532   1.342  0.0313 -0.1265  0.2227
 4108WAT     H117138   4.549   2.453   1.319  1.5400 -1.5730  2.8341
 4108WAT     H217139   4.652   2.541   1.299  1.2815 -1.4704  1.9404
 4108WAT    EPW17140   4.584   2.522   1.333  0.3296  0.2411 -0.4088
 4109WAT      O17141   5.976   4.032   1.520 -0.0414  0.1530 -0.5341
 4109WAT     H117142   5.962   4.116   1.538 -1.7613 -0.5909  2.1871
 4109WAT     H217143   5.911   4.012   1.465  0.3022  0.5662 -1.0945
 4109WAT    EPW17144   5.964   4.041   1.514  0.7641 -0.9140 -0.6815
 4110WAT      O17145   6.457   4.019   0.523 -0.1708 -0.3348  0.1189
 4110WAT     H117146   6.518   4.060   0.477 -0.1275 -0.8837 -0.3212
 4110WAT     H217147   6.399   4.082   0.542 -1.3164 -0.4641 -2.5045
 4110WAT    EPW17148   6.457   4.034   0.519  0.4303 -0.1167 -0.3313
 4111WAT      O17149   6.276   4.368   2.289  0.1724 -0.2294 -0.6040
 4111WAT     H117150   6.336   4.345   2.231  1.3140  0.9539  0.0784
 4111WAT     H217151   6.201   4.353   2.247  0.8982 -1.7287 -1.4699
 4111WAT    EPW17152   6.274   4.362   2.274 -0.1188 -1.2307  0.3842
 4112WAT      O17153   6.301   4.564   1.441 -0.0212  1.0832  0.0392
 4112WAT     H117154   6.387   4.578   1.450 -0.1727  2.1349  0.0146
 4112WAT     H217155   6.288   4.577   1.355 -0.6044  3.5852  0.4235
 4112WAT    EPW17156   6.312   4.568   1.430  0.3117 -0.2567 -0.2381
 4113WAT      O17157   5.540   2.831   0.833 -0.0829 -0.1901 -0.5930
 4113WAT     H117158   5.458   2.857   0.839 -0.4776 -0.8928 -2.2230
 4113WAT     H217159   5.577   2.891   0.782 -0.3988 -1.4308 -2.3843
 4113WAT    EPW17160   5.534   2.844   0.826 -0.0812 -0.6573 -0.2512
 4114WAT      O17161   5.389   5.528   0.753  0.4748 -0.2371 -0.2394
 4114WAT     H117162   5.305   5.547   0.740  0.2729 -1.5313 -0.9065
 4114WAT     H217163   5.412   5.483   0.682  1.7625  0.1539 -0.0990
 4114WAT    EPW17164   5.380   5.524   0.741 -0.3607  0.1320  0.2240
 4115WAT      O17165   5.300   3.685   0.034  0.5010 -0.8605 -0.0818
 4115WAT     H117166   5.298   3.600   0.049  1.2109 -0.7237  0.8845
 4115WAT     H217167   5.381   3.700   0.007  0.4714 -0.4385  0.0468
 4115WAT    EPW17168   5.311   3.675   0.032 -0.6056  0.7293  0.1655
 4116WAT      O17169   6.068   3.574   2.373  0.2063  0.5432  0.3530
 4116WAT     H117170   6.006   3.633   2.356 -1.1888 -0.3335  2.1166
 4116WAT     H217171   6.077   3.577   2.459 -0.4727 -2.2908  0.6214
 4116WAT    EPW17172   6.060   3.583   2.383  0.3134 -1.3168 -0.0193
 4117WAT      O17173   5.619   4.309   0.515 -0.0280  0.1462  0.0600
 4117WAT     H117174   5.676   4.367   0.547  1.3588 -0.1296 -1.7816
 4117WAT     H217175   5.587   4.348   0.444 -1.8879  0.1215  0.8288
 4117WAT    EPW17176   5.623   4.323   0.510 -0.5281 -0.1943  0.0140
 4118WAT      O17177   5.828   2.770   0.873  0.2783  0.4282 -0.2898
 4118WAT     H117178   5.751   2.733   0.892  0.1284  1.4423  1.3381
 4118WAT     H217179   5.886   2.708   0.891 -0.0349  0.5014  1.1034
 4118WAT    EPW17180   5.825   2.756   0.879  0.7589 -0.6919 -0.4048
 4119WAT      O17181   4.687   4.437   1.127 -0.2208 -0.3070 -0.3232
 4119WAT     H117182   4.728   4.398   1.194 -0.8682  0.7296  0.7060
 4119WAT     H217183   4.616   4.471   1.164  0.2062  1.6624 -1.2294
 4119WAT    EPW17184   4.683   4.436   1.143  0.9655 -0.4786  0.3779
 4120WAT      O17185   6.406   5.294   2.194  0.2045 -0.0260 -0.3344
 4120WAT     H117186   6.478   5.252   2.222  0.7380  0.9143 -0.2506
 4120WAT     H217187   6.357   5.230   2.161  0.0528 -1.0119  1.6704
 4120WAT    EPW17188   6.410   5.278   2.193 -0.3411  0.6436  0.2615
 4121WAT      O17189   5.100   4.539   1.621  1.0532  0.1028 -0.1776
 4121WAT     H117190   5.126   4.600   1.678  2.4892 -0.1169 -0.5755
 4121WAT     H217191   5.024   4.511   1.655  1.7494  0.1271  1.5031
 4121WAT    EPW17192   5.093   4.544   1.634 -0.3780  0.0308 -0.0376
 4122WAT      O17193   7.149   3.217   0.676  0.4290 -0.2773 -0.2136
 4122WAT     H117194   7.158   3.292   0.632  0.6218 -0.7805 -1.0688
 4122WAT     H217195   7.216   3.218   0.732 -0.2822  0.7481  0.6514
 4122WAT    EPW17196   7.160   3.228   0.678  0.7979  0.8561  0.6436
 4123WAT      O17197   4.176   2.804   1.246  0.2099 -0.4102  0.0040
 4123WAT     H117198   4.211   2.866   1.196 -1.1678  0.0531 -0.4615
 4123WAT     H217199   4.235   2.790   1.308  1.5424 -0.2906 -1.2027
 4123WAT    EPW17200   4.190   2.811   1.248  0.3052  0.5133  0.2079
 4124WAT      O17201   5.812   6.407   2.726 -0.6985 -0.0090  0.5379
 4124WAT     H117202   5.759   6.341   2.704  0.1171 -0.2716 -0.7415
 4124WAT     H217203   5.760   6.461   2.771 -1.7701 -0.7653  0.2394
 4124WAT    EPW17204   5.797   6.405   2.730 -0.4946 -0.2620 -0.4984
 4125WAT      O17205   5.601   4.756   2.116  0.4406 -0.0827  0.5254
 4125WAT     H117206   5.520   4.790   2.113  0.2895 -0.4871 -1.6954
 4125WAT     H217207   5.637   4.784   2.042  1.6385 -1.5974  0.5001
 4125WAT    EPW17208   5.594   4.765   2.104  0.2953 -0.4265 -0.2452
 4126WAT      O17209   4.786   5.694   1.028  0.5994 -0.3843 -0.0558
 4126WAT     H117210   4.725   5.648   1.071  1.3852  0.6113  2.2672
 4126WAT     H217211   4.834   5.729   1.092  1.9988  1.0187 -1.7845
 4126WAT    EPW17212   4.784   5.692   1.044  0.7615 -1.0178  0.3067
 4127WAT      O17213   7.429   3.860   8.053  0.3258  0.2836  0.5359
 4127WAT     H117214   7.405   3.907   7.983 -0.2499 -0.8244 -0.0355
 4127WAT     H217215   7.436   3.920   8.116  2.4204  1.5780 -0.7973
 4127WAT    EPW17216   7.426   3.876   8.052 -0.6491 -0.1231  0.2309
 4128WAT      O17217   6.656   4.202   2.402 -0.6611  0.8641  0.2230
 4128WAT     H117218   6.651   4.278   2.443 -2.5548  1.4871 -1.0580
 4128WAT     H217219   6.689   4.223   2.323  0.1777  0.1259  0.3606
 4128WAT    EPW17220   6.660   4.216   2.396 -0.1077 -0.1376 -0.7778
 4129WAT      O17221   6.733   3.004   1.276  0.0854  0.5313 -0.9834
 4129WAT     H117222   6.725   2.937   1.330 -0.3051  2.0133  0.9092
 4129WAT     H217223   6.659   3.003   1.230 -0.4835  0.4133 -0.0758
 4129WAT    EPW17224   6.721   2.994   1.277  0.1460  0.7075 -0.4100
 4130WAT      O17225   5.054   3.101   0.406 -0.2077  0.1404  0.1506
 4130WAT     H117226   4.996   3.148   0.361 -0.0652 -0.0155 -0.2024
 4130WAT     H217227   5.095   3.160   0.455  0.6119  0.5356 -0.9722
 4130WAT    EPW17228   5.052   3.116   0.407  0.2980  0.1022 -0.2005
 4131WAT      O17229   5.945   3.496   0.424 -0.1982  0.8177  0.6852
 4131WAT     H117230   5.870   3.522   0.460  0.5415  1.9715  1.4997
 4131WAT     H217231   5.952   3.546   0.353 -0.7152 -0.0643  0.0058
 4131WAT    EPW17232   5.935   3.508   0.419 -0.2820  0.3173  0.9547
 4132WAT      O17233   5.676   3.660   1.559 -0.6091 -0.5763  0.0702
 4132WAT     H117234   5.666   3.673   1.473  0.7166  1.2364  0.1251
 4132WAT     H217235   5.690   3.740   1.590 -1.1690 -1.1911  2.0102
 4132WAT    EPW17236   5.677   3.674   1.551  0.2636  0.3953 -0.5177
 4133WAT      O17237   5.268   4.061   0.870  0.5840 -0.2241  0.3298
 4133WAT     H117238   5.237   4.117   0.929  3.5818  2.0308  0.0265
 4133WAT     H217239   5.255   4.103   0.794 -0.7667 -1.8584 -0.3971
 4133WAT    EPW17240   5.261   4.076   0.867 -0.7488  0.0167 -0.6321
 4134WAT      O17241   6.315   5.608   0.594 -0.1051  0.2635  0.6234
 4134WAT     H117242   6.307   5.522   0.590 -1.4576  0.3797  0.0302
 4134WAT     H217243   6.233   5.636   0.581  0.4280  1.6425  0.0364
 4134WAT    EPW17244   6.301   5.600   0.591  0.4379  0.1827  0.3441
 4135WAT      O17245   6.700   3.372   1.038  0.2694  0.7268  0.2860
 4135WAT     H117246   6.617   3.381   1.062 -0.2171  0.9427 -1.3504
 4135WAT     H217247   6.726   3.453   1.021  1.5103  0.9437  2.7307
 4135WAT    EPW17248   6.692   3.385   1.039  0.3214 -0.9419 -0.9045
 4136WAT      O17249   7.058   3.181   1.045 -0.1796 -0.1071 -0.0859
 4136WAT     H117250   7.079   3.258   1.009 -1.4709 -0.1144 -0.8859
 4136WAT     H217251   7.001   3.202   1.107  0.1775 -0.3444  0.3335
 4136WAT    EPW17252   7.053   3.195   1.049  0.1636  0.4538 -0.8242
 4137WAT      O17253   4.879   5.689   1.567 -0.2554 -0.3649  0.1553
 4137WAT     H117254   4.861   5.763   1.610  1.6579 -0.6756  1.6727
 4137WAT     H217255   4.957   5.705   1.531  0.4964 -1.8181  1.0394
 4137WAT    EPW17256   4.888   5.702   1.568 -0.6245  0.3206 -0.0919
 4138WAT      O17257   6.986   2.205   1.763  0.1034 -0.4310 -0.2988
 4138WAT     H117258   6.964   2.138   1.814 -1.0033 -1.3638 -1.9067
 4138WAT     H217259   7.066   2.183   1.735  1.1544  0.5720  1.7165
 4138WAT    EPW17260   6.995   2.191   1.767 -0.6288  0.0330 -0.0962
 4139WAT      O17261   6.218   3.601   0.832 -0.4534  0.0276  0.4697
 4139WAT     H117262   6.269   3.616   0.763 -1.4016  1.4117  0.0152
 4139WAT     H217263   6.202   3.681   0.864  0.5731 -0.6071  2.8043
 4139WAT    EPW17264   6.223   3.615   0.827 -0.9100 -0.1970 -1.0112
 4140WAT      O17265   5.421   4.374   0.878  0.2586 -0.4339  0.0483
 4140WAT     H117266   5.375   4.336   0.942  0.2701 -0.3433  0.1102
 4140WAT     H217267   5.402   4.326   0.808  2.0058 -1.9352  0.5356
 4140WAT    EPW17268   5.411   4.361   0.877 -0.1518  0.2263 -0.5107
 4141WAT      O17269   5.917   3.635   1.166 -0.4407  0.0514  0.4367
 4141WAT     H117270   6.000   3.657   1.181 -0.3558 -0.8410  1.3746
 4141WAT     H217271   5.918   3.548   1.169 -0.9049 -0.1318 -2.4227
 4141WAT    EPW17272   5.929   3.626   1.169  0.5734 -0.1799  0.2681
 4142WAT      O17273   4.019   2.239   0.278  0.1672  0.6336  0.2558
 4142WAT     H117274   3.951   2.251   0.224  0.2168  1.1234  0.3020
 4142WAT     H217275   3.983   2.202   0.348 -0.2177  1.7730  0.6781
 4142WAT    EPW17276   4.004   2.235   0.280 -0.3802 -0.3889 -0.3474
 4143WAT      O17277   6.218   3.439   1.056 -0.1103  0.0131 -0.3251
 4143WAT     H117278   6.229   3.480   0.980 -1.1823 -0.2222 -0.6285
 4143WAT     H217279   6.191   3.502   1.110 -1.3314 -0.1839 -0.6792
 4143WAT    EPW17280   6.216   3.454   1.053 -0.2580  0.6688  0.1931
 4144WAT      O17281   5.432   4.288   1.728 -1.0710 -0.1265  0.0110
 4144WAT     H117282   5.379   4.277   1.660 -1.0994 -0.8151  0.1355
 4144WAT     H217283   5.391   4.246   1.793 -0.7587  0.0167  0.3042
 4144WAT    EPW17284   5.418   4.280   1.728  0.5286  0.0637  0.6391
 4145WAT      O17285   7.401   3.141   0.351 -0.3001 -0.0492  0.2156
 4145WAT     H117286   7.421   3.134   0.436 -0.2089 -0.4725  0.1605
 4145WAT     H217287   7.460   3.090   0.312  0.2469  0.8934 -0.1897
 4145WAT    EPW17288   7.412   3.132   0.358  0.6415 -0.5293 -0.4643
 4146WAT      O17289   6.710   1.743   0.842 -0.1222  0.2842 -0.4533
 4146WAT     H117290   6.762   1.788   0.895  0.2489 -0.7026  0.0321
 4146WAT     H217291   6.738   1.765   0.762  1.6867 -0.9363 -0.2028
 4146WAT    EPW17292   6.722   1.753   0.838 -0.5677  0.4093  0.4562
 4147WAT      O17293   5.165   3.500   0.405 -0.0414 -0.4144  0.1673
 4147WAT     H117294   5.164   3.585   0.385 -0.6382 -0.2721  0.7518
 4147WAT     H217295   5.130   3.462   0.336  0.5066 -0.2213 -0.2254
 4147WAT    EPW17296   5.160   3.507   0.392  0.2043 -0.0271 -0.0555
 4148WAT      O17297   6.003   3.707   1.762 -0.1871 -0.1186  0.1299
 4148WAT     H117298   5.991   3.630   1.723  1.2915 -0.5158  0.3866
 4148WAT     H217299   6.053   3.687   1.831 -0.0756  1.0179  0.3982
 4148WAT    EPW17300   6.009   3.693   1.767  0.2500 -0.2421 -0.5089
 4149WAT      O17301   7.517   3.560   0.326 -0.9665 -0.4919  0.5895
 4149WAT     H117302   7.558   3.534   0.398  0.7279  0.3085 -0.0323
 4149WAT     H217303   7.476   3.633   0.349 -0.4579 -0.2577  0.7542
 4149WAT    EPW17304   7.517   3.567   0.340 -0.5207  0.3404  0.0043
 4150WAT      O17305   6.047   5.026   1.683 -0.1251 -0.0818 -0.0090
 4150WAT     H117306   6.015   4.946   1.674  1.5950 -0.6488 -1.8003
 4150WAT     H217307   6.070   5.049   1.602  2.2749  0.9353  0.8608
 4150WAT    EPW17308   6.046   5.018   1.670  0.2537  0.3666 -0.1707
 4151WAT      O17309   5.993   5.195   0.818 -0.2970 -0.2725 -0.0524
 4151WAT     H117310   6.072   5.233   0.823 -0.3318  0.2950 -2.4647
 4151WAT     H217311   5.979   5.166   0.899  1.6270  1.1233  0.8657
 4151WAT    EPW17312   6.003   5.196   0.831 -0.3856  0.2513 -0.2345
 4152WAT      O17313   6.786   4.834   1.637 -0.6066  0.1041  0.5878
 4152WAT     H117314   6.760   4.878   1.708 -1.6033  1.3951 -0.5118
 4152WAT     H217315   6.714   4.792   1.611 -0.5058  0.3401 -0.1201
 4152WAT    EPW17316   6.772   4.835   1.643  0.3754 -0.7150  0.2316
 4153WAT      O17317   5.488   3.502   2.053  0.2936 -0.0548  0.2313
 4153WAT     H117318   5.503   3.512   2.138 -0.8268 -1.6182  0.6600
 4153WAT     H217319   5.438   3.571   2.034 -0.2027 -0.1544  1.0801
 4153WAT    EPW17320   5.483   3.514   2.063  0.2538 -0.0240  0.4408
 4154WAT      O17321   6.650   2.791   0.508  0.1214 -0.3259 -0.5075
 4154WAT     H117322   6.730   2.798   0.541 -0.9162  0.3667  2.1720
 4154WAT     H217323   6.623   2.873   0.502 -0.2639 -0.5319 -1.7733
 4154WAT    EPW17324   6.658   2.804   0.512  0.6920  0.0043  0.9387
 4155WAT      O17325   5.015   3.001   1.322 -0.8390  0.0305  0.3789
 4155WAT     H117326   4.967   2.934   1.350 -1.6981  0.1142 -0.8505
 4155WAT     H217327   5.096   2.967   1.317 -1.1745 -0.7705  0.2320
 4155WAT    EPW17328   5.020   2.986   1.326 -0.4545  1.1121 -0.4158
 4156WAT      O17329   5.806   3.597   0.663 -0.2270  0.1968 -0.0239
 4156WAT     H117330   5.849   3.623   0.734  1.6806 -0.2898 -0.9453
 4156WAT     H217331   5.799   3.511   0.674 -0.7958  0.2423  0.0092
 4156WAT    EPW17332   5.811   3.588   0.675 -0.4772  0.6412 -0.1408
 4157WAT      O17333   6.949   3.290   0.073  0.7440 -0.5195 -0.1918
 4157WAT     H117334   6.908   3.226   0.115  0.8032  0.0438  0.7521
 4157WAT     H217335   7.023   3.252   0.046  0.1267 -1.2391 -0.9554
 4157WAT    EPW17336   6.954   3.275   0.075  0.2829 -0.1305  0.2426
 4158WAT      O17337   5.256   2.731   1.806  0.0391  0.2799 -0.0045
 4158WAT     H117338   5.266   2.783   1.877  2.3818 -0.7581  0.5221
 4158WAT     H217339   5.257   2.788   1.740 -2.9010  1.3592  0.6920
 4158WAT    EPW17340   5.258   2.747   1.807  0.2255 -0.0687 -0.6367
 4159WAT      O17341   5.979   2.552   0.966 -0.1211 -0.4353  0.1304
 4159WAT     H117342   6.035   2.503   1.012 -0.6227 -1.0379  0.1147
 4159WAT     H217343   5.985   2.520   0.885 -0.8526 -0.8444  0.2281
 4159WAT    EPW17344   5.988   2.540   0.961  0.3097 -0.2006 -0.1721
 4160WAT      O17345   6.852   5.576   2.206 -0.3815  0.4480  0.9163
 4160WAT     H117346   6.768   5.598   2.194 -0.5122 -0.3244  0.4110
 4160WAT     H217347   6.881   5.560   2.125 -0.1973 -0.9011  1.2323
 4160WAT    EPW17348   6.844   5.577   2.192 -0.8001 -0.4115 -0.2265
 4161WAT      O17349   6.173   5.656   1.433 -0.0501  0.1179  0.0711
 4161WAT     H117350   6.255   5.626   1.426  1.0013  2.9392 -1.5167
 4161WAT     H217351   6.166   5.677   1.517  0.4740 -1.1062  0.4353
 4161WAT    EPW17352   6.184   5.655   1.444 -0.4695  0.0190 -0.8005
 4162WAT      O17353   5.749   3.888   0.369 -0.2371  0.2347  0.4551
 4162WAT     H117354   5.765   3.894   0.454 -0.6767 -0.9555  0.6374
 4162WAT     H217355   5.730   3.804   0.357 -2.0561  0.7327 -0.4810
 4162WAT    EPW17356   5.749   3.877   0.380  0.0381 -0.0652 -0.1244
 4163WAT      O17357   7.290   2.233   0.609  0.7785 -0.3058 -0.9231
 4163WAT     H117358   7.371   2.253   0.635  0.5067 -0.4107  0.0782
 4163WAT     H217359   7.295   2.230   0.522  1.8170 -0.1900 -0.8715
 4163WAT    EPW17360   7.303   2.236   0.600 -0.2927 -0.8949 -0.1655
 4164WAT      O17361   7.198   2.941   0.574  0.0625  0.4940 -0.1352
 4164WAT     H117362   7.247   2.938   0.502  0.4722 -0.8530  0.1769
 4164WAT     H217363   7.194   3.026   0.593  2.9370  0.6131  0.2668
 4164WAT    EPW17364   7.204   2.953   0.566 -0.5193 -0.5694  0.6680
 4165WAT      O17365   6.706   5.019   1.831  0.3403 -0.1252  0.0793
 4165WAT     H117366   6.657   4.993   1.898 -0.0029  0.4827  0.0683
 4165WAT     H217367   6.654   5.074   1.787  1.9765  3.0650  1.7890
 4165WAT    EPW17368   6.691   5.023   1.834 -0.4382 -0.5881  0.3400
 4166WAT      O17369   5.723   3.209   0.916  0.5552 -0.4630  0.4554
 4166WAT     H117370   5.638   3.198   0.898  0.4792 -0.2128  0.6521
 4166WAT     H217371   5.723   3.241   0.998  0.6698  2.2629 -0.4843
 4166WAT    EPW17372   5.711   3.212   0.926  0.3022  0.2235 -0.7442
 4167WAT      O17373   5.644   5.320   1.687 -0.1713 -0.0650 -0.3442
 4167WAT     H117374   5.593   5.272   1.636  0.3839  1.4819 -2.4786
 4167WAT     H217375   5.589   5.372   1.729 -0.4944  1.5859 -2.6161
 4167WAT    EPW17376   5.629   5.320   1.686  1.1079 -1.1183  0.6902
 4168WAT      O17377   5.716   4.262   1.388 -0.4193  0.1834  0.1440
 4168WAT     H117378   5.633   4.285   1.377  0.1208  1.9859 -0.5456
 4168WAT     H217379   5.759   4.338   1.390  1.2045 -0.6879  0.6154
 4168WAT    EPW17380   5.710   4.276   1.387 -0.6175 -0.8665 -0.1030
 4169WAT      O17381   6.235   5.957   0.839  0.4343  0.0463  0.0954
 4169WAT     H117382   6.189   6.031   0.840 -1.8787 -1.1172  4.3896
 4169WAT     H217383   6.176   5.897   0.818  0.9886 -1.0216  1.4391
 4169WAT    EPW17384   6.219   5.959   0.836 -0.2244  0.7333  0.9302
 4170WAT      O17385   4.306   3.693   0.712  0.6248 -0.0457  0.3212
 4170WAT     H117386   4.384   3.656   0.726  1.1552  0.4743 -1.1253
 4170WAT     H217387   4.251   3.625   0.708  1.1551 -0.4774  0.3687
 4170WAT    EPW17388   4.309   3.677   0.714  0.2427  0.8990 -0.2417
 4171WAT      O17389   0.152   4.544   0.825 -0.2113  0.1646 -0.3673
 4171WAT     H117390   0.135   4.461   0.845 -2.5399  0.6542 -0.0522
 4171WAT     H217391   0.228   4.559   0.865  0.1324 -1.7272 -0.2149
 4171WAT    EPW17392   0.161   4.534   0.834 -0.2071 -0.2357 -0.5472
 4172WAT      O17393   6.224   2.369   1.575  0.6910 -0.1041  0.2378
 4172WAT     H117394   6.295   2.358   1.525 -0.4710  0.3829 -1.6412
 4172WAT     H217395   6.162   2.325   1.532 -0.6865  1.5480  0.4131
 4172WAT    EPW17396   6.225   2.361   1.561 -0.1557  0.0064 -1.4272
 4173WAT      O17397   5.482   4.848   1.452  0.5057  0.1598  0.0202
 4173WAT     H117398   5.439   4.777   1.479  0.2187  0.4646  0.3545
 4173WAT     H217399   5.557   4.815   1.422 -0.2569 -0.4730 -1.3070
 4173WAT    EPW17400   5.487   4.833   1.451  0.1316 -0.1718  0.3344
 4174WAT      O17401   5.227   4.236   7.495 -0.6007 -0.2169  0.0155
 4174WAT     H117402   5.235   4.226   7.581 -0.1205  0.9831  0.1244
 4174WAT     H217403   5.292   4.189   7.462 -1.3791 -1.5034  0.2336
 4174WAT    EPW17404   5.238   4.228   7.502 -0.0512  0.1247 -0.4937
 4175WAT      O17405   6.561   3.227   1.807 -0.2037  0.5184  0.0115
 4175WAT     H117406   6.647   3.233   1.821 -0.0786  1.4570 -1.0083
 4175WAT     H217407   6.543   3.144   1.828  1.4777 -0.5903 -2.3284
 4175WAT    EPW17408   6.571   3.215   1.812  0.1513 -0.3183 -0.5762
 4176WAT      O17409   6.296   3.068   0.380 -0.1891  0.4809 -0.7578
 4176WAT     H117410   6.263   2.993   0.350 -0.0989  0.8349 -1.7879
 4176WAT     H217411   6.236   3.096   0.437  0.2359 -0.8438  0.3653
 4176WAT    EPW17412   6.282   3.061   0.384 -0.5605  0.8036  0.1244
 4177WAT      O17413   5.564   5.918   2.143 -0.3812  0.0041  0.2198
 4177WAT     H117414   5.487   5.894   2.109 -1.1649  0.6347  1.4811
 4177WAT     H217415   5.558   5.893   2.226  1.1060 -0.6314  0.1701
 4177WAT    EPW17416   5.552   5.911   2.150 -0.2723 -0.0289  0.0485
 4178WAT      O17417   5.491   3.974   1.965  0.4467  0.1186 -0.0642
 4178WAT     H117418   5.436   3.914   1.997  0.7449  0.4962  1.2139
 4178WAT     H217419   5.569   3.938   1.978  0.5646 -0.6017 -2.2524
 4178WAT    EPW17420   5.494   3.960   1.971  0.2076 -0.6762 -0.5046
 4179WAT      O17421   6.251   4.299   1.532  0.1004 -0.5065 -0.0549
 4179WAT     H117422   6.173   4.298   1.570  0.5436  0.0235  0.8929
 4179WAT     H217423   6.248   4.371   1.482  0.0942 -0.3242  0.2089
 4179WAT    EPW17424   6.239   4.309   1.530 -0.2056  0.3315  0.5391
 4180WAT      O17425   5.181   2.317   0.160 -0.1168  0.1703 -0.2140
 4180WAT     H117426   5.125   2.380   0.180 -0.8317  0.1712 -1.9877
 4180WAT     H217427   5.259   2.357   0.163 -0.5142  1.0318 -0.8163
 4180WAT    EPW17428   5.184   2.332   0.163 -0.7415 -0.5996 -0.2131
 4181WAT      O17429   6.507   3.280   0.543 -0.3376 -0.3707 -0.4346
 4181WAT     H117430   6.515   3.253   0.626  0.3227  1.5837  0.1959
 4181WAT     H217431   6.430   3.321   0.543  1.2155  2.9451  0.3503
 4181WAT    EPW17432   6.497   3.282   0.555  0.5485 -0.4857 -0.5656
 4182WAT      O17433   5.145   3.487   1.302 -0.0695  0.0208  0.0915
 4182WAT     H117434   5.226   3.494   1.332 -0.0680  0.7426 -0.0669
 4182WAT     H217435   5.141   3.546   1.238 -0.8692  0.3402  0.4185
 4182WAT    EPW17436   5.156   3.497   1.297  0.7250  0.1376  0.1975
 4183WAT      O17437   5.805   3.574   1.983  0.6979  0.6644  0.1475
 4183WAT     H117438   5.892   3.580   1.990  0.8174 -0.9121  0.4227
 4183WAT     H217439   5.777   3.654   2.002  1.9827  0.6759  2.3140
 4183WAT    EPW17440   5.813   3.586   1.987  0.2685  0.1441  0.2867
 4184WAT      O17441   7.144   5.113   1.194 -0.2842  0.1107  0.3702
 4184WAT     H117442   7.129   5.144   1.273  0.6067  0.4654  0.4173
 4184WAT     H217443   7.186   5.178   1.154 -1.7759  0.4101 -0.8056
 4184WAT    EPW17444   7.148   5.127   1.199 -0.5206  0.3965 -0.1908
 4185WAT      O17445   6.458   4.592   2.642  0.0953 -0.1489 -0.2692
 4185WAT     H117446   6.374   4.590   2.619 -0.0038 -2.0897  0.1422
 4185WAT     H217447   6.463   4.537   2.709  1.4923  0.8682  0.5224
 4185WAT    EPW17448   6.447   4.584   2.649  0.8103  0.2283 -0.1199
 4186WAT      O17449   4.501   2.893   1.171 -0.0088  0.5699 -0.4296
 4186WAT     H117450   4.430   2.937   1.146 -0.5902 -0.3946 -0.5384
 4186WAT     H217451   4.482   2.866   1.252 -0.0713 -0.2634 -0.7067
 4186WAT    EPW17452   4.488   2.895   1.179  0.1218  0.0219 -0.0741
 4187WAT      O17453   7.790   2.926   0.421 -0.1915 -0.4888  0.0758
 4187WAT     H117454   7.812   3.007   0.400 -1.3862 -0.4113 -0.9865
 4187WAT     H217455   7.845   2.877   0.373 -0.5365 -0.3062 -0.5100
 4187WAT    EPW17456   7.802   2.930   0.410  0.1114  0.4176  0.1899
 4188WAT      O17457   4.248   2.331   8.049 -0.1087  0.7140 -0.4272
 4188WAT     H117458   4.229   2.262   8.098 -3.1049  1.1568 -0.7248
 4188WAT     H217459   4.242   2.300   7.967  0.7111  0.8838 -0.5620
 4188WAT    EPW17460   4.244   2.316   8.044 -0.0300  0.1353 -0.2785
 4189WAT      O17461   6.071   6.177   7.500 -0.2653  0.1419 -0.1943
 4189WAT     H117462   6.035   6.221   7.434 -0.2511 -0.3187 -0.5131
 4189WAT     H217463   6.019   6.108   7.509  0.2281 -0.2468 -0.2965
 4189WAT    EPW17464   6.058   6.173   7.491 -0.4281  0.1382  0.6442
 4190WAT      O17465   4.975   5.636   2.130 -0.7930 -0.0316 -0.0454
 4190WAT     H117466   4.966   5.647   2.216  0.6919 -2.5733  0.5312
 4190WAT     H217467   4.962   5.716   2.098 -0.7162  1.1455  2.5792
 4190WAT    EPW17468   4.972   5.649   2.138  0.2393 -0.2638  0.6245
 4191WAT      O17469   5.850   4.821   2.494  0.3446  0.3449  0.3021
 4191WAT     H117470   5.893   4.892   2.523 -0.1200  1.0333 -0.6766
 4191WAT     H217471   5.911   4.779   2.448  0.7823 -0.2004  1.3510
 4191WAT    EPW17472   5.866   4.826   2.492  0.3702  0.1068  0.0046
 4192WAT      O17473   6.099   4.388   0.869 -0.0476  0.0533 -0.2423
 4192WAT     H117474   6.096   4.305   0.843 -1.4030  0.7383 -2.5205
 4192WAT     H217475   6.178   4.415   0.842 -0.5016  0.0861 -1.6336
 4192WAT    EPW17476   6.110   4.380   0.861  0.0069 -0.6073  1.5241
 4193WAT      O17477   6.085   5.360   1.433 -0.3128 -0.1584  0.0072
 4193WAT     H117478   6.137   5.426   1.456 -0.1995 -0.0387 -0.5919
 4193WAT     H217479   6.010   5.378   1.474 -1.4000  2.1045 -2.6476
 4193WAT    EPW17480   6.081   5.372   1.443  0.5478 -0.2245  0.1402
 4194WAT      O17481   6.089   3.216   1.388 -0.0429 -0.2757  0.0676
 4194WAT     H117482   6.173   3.239   1.390  0.5749 -2.2469  2.5364
 4194WAT     H217483   6.089   3.141   1.344 -0.4993 -0.3204  0.1409
 4194WAT    EPW17484   6.102   3.208   1.382  0.4001  0.1540  0.0273
 4195WAT      O17485   5.657   2.265   0.426  0.0922  0.3780  1.1019
 4195WAT     H117486   5.570   2.264   0.425  0.0498  1.2866 -0.7376
 4195WAT     H217487   5.678   2.309   0.354  2.1223 -3.0934 -0.7111
 4195WAT    EPW17488   5.647   2.271   0.415 -0.0983  0.3366 -0.9492
 4196WAT      O17489   4.956   2.446   0.653  0.6031  0.0577 -0.0125
 4196WAT     H117490   4.982   2.467   0.733  2.0281  0.5866 -0.5648
 4196WAT     H217491   4.878   2.484   0.645  1.2522  1.5662  0.5041
 4196WAT    EPW17492   4.949   2.455   0.663  0.0780 -0.3841 -0.2145
 4197WAT      O17493   4.628   3.018   1.511 -0.1319 -0.0122 -0.2524
 4197WAT     H117494   4.611   2.960   1.573 -0.8483 -0.4073 -0.8035
 4197WAT     H217495   4.660   3.086   1.555 -0.3634 -0.3887  0.5172
 4197WAT    EPW17496   4.630   3.020   1.526 -0.0889  0.5665  0.4293
 4198WAT      O17497   5.052   3.341   7.772 -0.0402  0.0597  0.5516
 4198WAT     H117498   5.039   3.419   7.735  1.7377  0.3757  0.5080
 4198WAT     H217499   5.008   3.346   7.847  0.1937  1.1710  0.6263
 4198WAT    EPW17500   5.044   3.353   7.778  0.2089 -0.3881 -0.7638
 4199WAT      O17501   6.440   5.578   1.398  0.2302 -0.2669 -0.0624
 4199WAT     H117502   6.493   5.559   1.464  1.6422 -0.4822 -1.2149
 4199WAT     H217503   6.465   5.659   1.374  0.2225 -0.4638 -0.7645
 4199WAT    EPW17504   6.451   5.587   1.404 -0.1941  0.3444  0.7183
 4200WAT      O17505   6.434   2.355   1.356  0.2263  0.2771  0.4632
 4200WAT     H117506   6.381   2.319   1.297  0.7279  0.4640 -0.1221
 4200WAT     H217507   6.474   2.287   1.393  2.2339  0.1832 -1.6292
 4200WAT    EPW17508   6.432   2.340   1.352 -0.1136 -0.7009  0.2100
 4201WAT      O17509   6.016   4.428   7.250 -0.2968  0.5452  0.8763
 4201WAT     H117510   6.065   4.475   7.305  1.1443 -2.0394  1.9917
 4201WAT     H217511   5.992   4.486   7.189  0.4900  2.8835  2.6477
 4201WAT    EPW17512   6.020   4.444   7.249 -0.1958 -0.6577 -0.2930
 4202WAT      O17513   5.340   4.381   2.154  0.3500  0.1736 -0.1055
 4202WAT     H117514   5.402   4.438   2.176 -0.1495  0.9997 -0.7698
 4202WAT     H217515   5.346   4.319   2.215 -1.2237  2.4880  2.6517
 4202WAT    EPW17516   5.350   4.380   2.166  0.4986  0.4033  0.2372
 4203WAT      O17517   6.476   4.164   1.878  0.0984  0.0718  0.1476
 4203WAT     H117518   6.426   4.232   1.860 -0.4703 -0.6130 -0.9518
 4203WAT     H217519   6.423   4.111   1.923  0.3205  0.0360  0.3726
 4203WAT    EPW17520   6.461   4.166   1.882 -0.5760  0.2689 -0.6271
 4204WAT      O17521   5.673   4.474   0.958 -0.2166  0.0005 -0.4848
 4204WAT     H117522   5.674   4.550   1.002  0.1682 -1.8334  3.0744
 4204WAT     H217523   5.588   4.453   0.955 -0.1783 -0.2638  0.1891
 4204WAT    EPW17524   5.660   4.482   0.964 -0.6937 -0.2345 -0.3133
 4205WAT      O17525   5.290   7.178   0.957 -0.3344  0.2034 -0.2890
 4205WAT     H117526   5.211   7.176   0.994  0.3215  3.2979  1.6775
 4205WAT     H217527   5.335   7.117   1.001 -1.5838 -1.7619 -1.6003
 4205WAT    EPW17528   5.285   7.169   0.969  0.2772 -0.8426 -0.6506
 4206WAT      O17529   6.062   1.715   6.379 -0.0115  0.3913  0.5914
 4206WAT     H117530   6.090   1.797   6.367 -0.8728  0.4374 -1.8311
 4206WAT     H217531   6.016   1.719   6.453 -1.2785  2.4987 -0.2261
 4206WAT    EPW17532   6.059   1.728   6.388  0.3275  0.4278 -0.4670
 4207WAT      O17533   5.406   1.490   0.286 -0.2903  0.1907  0.4878
 4207WAT     H117534   5.480   1.445   0.289  1.5627  3.0479  1.1713
 4207WAT     H217535   5.407   1.528   0.208 -0.7163  0.6973  0.7146
 4207WAT    EPW17536   5.417   1.489   0.275  0.2155 -0.4929  0.9534
 4208WAT      O17537   7.640   3.146   7.738 -0.1097  0.0760  0.8338
 4208WAT     H117538   7.661   3.062   7.743  2.2182  0.5405 -0.0416
 4208WAT     H217539   7.579   3.155   7.800 -0.4512 -2.2166  0.9378
 4208WAT    EPW17540   7.634   3.135   7.748  0.1506  0.9676 -0.1491
 4209WAT      O17541   4.148   1.671   0.014 -0.1223 -0.6723 -0.1639
 4209WAT     H117542   4.204   1.650   0.077  0.0610  0.8031  0.1963
 4209WAT     H217543   4.195   1.663  -0.059 -0.6074 -3.3527 -0.2788
 4209WAT    EPW17544   4.163   1.667   0.012 -0.0452 -0.4159 -0.5500
 4210WAT      O17545   6.600   2.571   1.317 -0.0183 -0.2817  0.2008
 4210WAT     H117546   6.583   2.605   1.238  3.5710  0.9358 -0.2334
 4210WAT     H217547   6.569   2.490   1.311 -1.2311  0.2564 -1.8711
 4210WAT    EPW17548   6.593   2.564   1.304  0.2159  0.2897  0.1626
 4211WAT      O17549   5.785   1.803   1.340  0.6283 -0.4088 -0.3774
 4211WAT     H117550   5.698   1.799   1.339  0.6606 -1.2867 -0.4094
 4211WAT     H217551   5.804   1.828   1.422  0.3093  1.5618 -0.8550
 4211WAT    EPW17552   5.775   1.806   1.352  0.0612 -0.1384 -0.3233
 4212WAT      O17553   5.687   2.434   0.200  0.3280  0.4219  0.4258
 4212WAT     H117554   5.704   2.513   0.233  0.0184  1.0939 -0.9390
 4212WAT     H217555   5.728   2.435   0.123  0.1755 -0.6864  0.3176
 4212WAT    EPW17556   5.695   2.446   0.193  0.1162  0.5503 -0.7445
 4213WAT      O17557   5.272   0.830   7.604  0.5707  0.2695 -1.0381
 4213WAT     H117558   5.353   0.807   7.627  0.6495  0.7269 -0.8565
 4213WAT     H217559   5.228   0.826   7.679  0.8780  1.9836 -0.7410
 4213WAT    EPW17560   5.278   0.826   7.618  0.4858 -0.0879  0.2046
 4214WAT      O17561   4.424   3.378   5.611  0.3792  0.4487  0.4082
 4214WAT     H117562   4.342   3.368   5.585  0.3274 -0.2861  0.8264
 4214WAT     H217563   4.433   3.465   5.619  0.1056  0.6243 -1.0467
 4214WAT    EPW17564   4.414   3.390   5.609  0.4662 -0.4355 -0.3181
 4215WAT      O17565   5.408   1.774   2.021  0.0782 -0.6486 -0.4793
 4215WAT     H117566   5.341   1.795   1.969 -0.4232  0.9839  0.7563
 4215WAT     H217567   5.439   1.701   1.985 -1.4312 -0.6302 -1.9491
 4215WAT    EPW17568   5.402   1.766   2.008  1.1658  0.2971 -0.5982
 4216WAT      O17569   5.695   1.124   0.733 -0.1931  0.2745 -0.6154
 4216WAT     H117570   5.706   1.038   0.720 -1.0256  0.2862 -1.5154
 4216WAT     H217571   5.770   1.158   0.704 -0.0551 -0.1129 -0.7219
 4216WAT    EPW17572   5.708   1.116   0.726  0.4280 -0.0954 -0.4351
 4217WAT      O17573   5.269   3.663   1.102  0.4715  0.0435 -0.0036
 4217WAT     H117574   5.325   3.694   1.161 -1.0602 -1.7749  2.6209
 4217WAT     H217575   5.239   3.735   1.063  0.2524  1.5912  2.7507
 4217WAT    EPW17576   5.273   3.679   1.105  0.0329  0.5148  1.1422
 4218WAT      O17577   5.726   2.069   7.830 -0.3384 -0.0752  0.3315
 4218WAT     H117578   5.718   2.094   7.747  0.7329 -0.2779  0.1571
 4218WAT     H217579   5.682   2.130   7.874 -1.0640 -0.0600 -0.3822
 4218WAT    EPW17580   5.718   2.082   7.824 -0.1565 -0.5916 -0.1396
 4219WAT      O17581   6.053   0.815   0.840  0.1632 -0.6949 -0.2379
 4219WAT     H117582   6.046   0.859   0.766  1.1519  0.2562  0.1936
 4219WAT     H217583   5.976   0.826   0.879 -0.0126 -0.3641 -0.6791
 4219WAT    EPW17584   6.041   0.823   0.835 -0.0582 -1.1194  0.3604
 4220WAT      O17585   5.165   2.658   1.016 -0.2384 -0.1649 -0.5231
 4220WAT     H117586   5.118   2.590   0.988  0.6343 -0.3352 -1.6705
 4220WAT     H217587   5.169   2.647   1.102 -1.3339 -0.7598 -0.5437
 4220WAT    EPW17588   5.159   2.646   1.025 -0.3462  0.0393  0.2027
 4221WAT      O17589   5.158   0.498   0.120  0.4399 -0.0999 -0.1936
 4221WAT     H117590   5.080   0.521   0.151 -0.7514 -0.6906 -2.4891
 4221WAT     H217591   5.205   0.571   0.128 -0.7126  0.6388  0.1555
 4221WAT    EPW17592   5.153   0.512   0.126 -0.3619  0.5947  0.4357
 4222WAT      O17593   4.644   0.450   0.157 -0.4695  0.5141 -0.1975
 4222WAT     H117594   4.662   0.417   0.078  1.0953 -0.5921  0.5785
 4222WAT     H217595   4.601   0.523   0.139  0.8486  0.8884 -2.1166
 4222WAT    EPW17596   4.640   0.456   0.143  0.4380 -0.9203  0.3040
 4223WAT      O17597   6.197   3.641   1.259 -0.0313  0.2410 -0.6991
 4223WAT     H117598   6.201   3.607   1.339 -2.7020 -0.0924 -0.6273
 4223WAT     H217599   6.197   3.727   1.274  1.2477  0.2369 -0.5191
 4223WAT    EPW17600   6.198   3.649   1.273  0.0465 -0.5604 -0.4624
 4224WAT      O17601   3.487   2.871   0.601  0.3925 -0.0685  0.3417
 4224WAT     H117602   3.482   2.821   0.530 -1.5790 -1.9276  1.6825
 4224WAT     H217603   3.459   2.949   0.574 -0.2643 -0.7245 -0.9290
 4224WAT    EPW17604   3.482   2.875   0.587  0.0462 -0.2071  0.3623
 4225WAT      O17605   7.242   2.370   0.859  0.6317  0.4462 -0.2324
 4225WAT     H117606   7.213   2.432   0.806 -0.8665 -0.1961 -0.2120
 4225WAT     H217607   7.294   2.322   0.809 -0.0103  0.4079 -0.8751
 4225WAT    EPW17608   7.245   2.372   0.844 -0.3663 -0.4856 -0.1327
 4226WAT      O17609   4.548   3.157   8.055  0.5860 -0.2183 -0.2159
 4226WAT     H117610   4.606   3.098   8.026 -1.9312 -1.8746 -2.3427
 4226WAT     H217611   4.475   3.111   8.065 -1.3930  2.3894 -1.4489
 4226WAT    EPW17612   4.546   3.142   8.052 -0.1205 -0.5497 -0.0483
 4227WAT      O17613   5.571   1.741   1.053 -0.0899 -0.1083 -0.4464
 4227WAT     H117614   5.549   1.753   1.136 -0.3321 -0.5934 -0.4359
 4227WAT     H217615   5.591   1.656   1.049  1.0417  0.1438 -0.6232
 4227WAT    EPW17616   5.571   1.730   1.065  0.7034 -0.8566 -0.8619
 4228WAT      O17617   6.567   1.059   1.333  0.1340  0.5705  0.4383
 4228WAT     H117618   6.574   0.974   1.350  0.4618  0.3963 -0.5205
 4228WAT     H217619   6.499   1.084   1.381 -0.4794 -0.3961  0.0965
 4228WAT    EPW17620   6.558   1.050   1.343 -0.1440  0.3785 -0.2191
 4229WAT      O17621   4.390   2.402   0.564 -0.1342  0.1027 -0.8537
 4229WAT     H117622   4.341   2.329   0.562  0.7280 -0.5088 -0.2287
 4229WAT     H217623   4.411   2.415   0.481  0.3033 -0.7919 -0.8984
 4229WAT    EPW17624   4.386   2.393   0.551  0.2582 -0.3568  0.3408
 4230WAT      O17625   5.318   2.372   0.896 -0.3835  0.1322  0.2346
 4230WAT     H117626   5.280   2.380   0.817  0.3495 -0.4669 -0.1823
 4230WAT     H217627   5.386   2.426   0.892 -1.2054  1.2990  1.0303
 4230WAT    EPW17628   5.322   2.381   0.884  1.1401  0.1233 -0.8761
 4231WAT      O17629   6.093   2.927   1.543  0.1056 -0.2204  0.4731
 4231WAT     H117630   6.167   2.968   1.566 -0.8050  1.2317  0.9179
 4231WAT     H217631   6.086   2.946   1.458 -0.5473  0.9686  0.7769
 4231WAT    EPW17632   6.103   2.936   1.534  0.3340 -0.9349 -0.1541
 4232WAT      O17633   4.588   1.258   7.411 -0.4139  0.4664  0.0760
 4232WAT     H117634   4.562   1.340   7.399  1.8581  1.0414 -1.6729
 4232WAT     H217635   4.661   1.252   7.363  0.9967 -1.8142  2.2419
 4232WAT    EPW17636   4.595   1.269   7.402 -0.2339 -0.4014  0.1843
 4233WAT      O17637   6.363   2.635   1.490 -0.3968 -0.0025  0.5241
 4233WAT     H117638   6.388   2.714   1.463 -1.2404  0.5575  1.3182
 4233WAT     H217639   6.417   2.581   1.448 -0.4442  0.9300 -0.7988
 4233WAT    EPW17640   6.375   2.639   1.480 -0.5982 -0.8257 -0.0578
 4234WAT      O17641   5.057   2.494   0.365 -0.1266 -0.2643  0.4435
 4234WAT     H117642   5.143   2.508   0.368  0.0164 -1.1641  1.6104
 4234WAT     H217643   5.041   2.452   0.440 -1.4198 -0.9866 -0.1978
 4234WAT    EPW17644   5.067   2.490   0.377  0.9135  0.2950 -0.0615
 4235WAT      O17645   6.778   3.349   7.725 -0.5028 -0.3534  0.7368
 4235WAT     H117646   6.793   3.318   7.645 -1.2663  0.0589  0.4261
 4235WAT     H217647   6.807   3.285   7.777 -0.7140 -0.9632  0.1262
 4235WAT    EPW17648   6.785   3.335   7.721 -0.2345  1.1995 -0.1066
 4236WAT      O17649   5.429   1.827   7.713  0.7635  0.0307 -0.1963
 4236WAT     H117650   5.419   1.842   7.628  1.9925  0.8325 -0.2224
 4236WAT     H217651   5.509   1.794   7.719  0.9846  0.7036  0.7334
 4236WAT    EPW17652   5.439   1.824   7.701  0.1986  0.5794 -0.1516
 4237WAT      O17653   5.511   0.268   1.293  0.9775 -0.0789 -0.0863
 4237WAT     H117654   5.574   0.262   1.354  0.3474 -1.2736  0.4994
 4237WAT     H217655   5.536   0.210   1.233  1.7936  1.3696 -1.2065
 4237WAT    EPW17656   5.524   0.258   1.293  0.3548  0.1075 -0.3492
 4238WAT      O17657   7.202   2.846   7.842 -0.1914 -0.4746  0.3129
 4238WAT     H117658   7.245   2.771   7.828  3.6376  1.0711  2.3892
 4238WAT     H217659   7.207   2.857   7.928 -1.9179  1.5284  0.2361
 4238WAT    EPW17660   7.209   2.836   7.853 -0.1619  0.3209 -0.8764
 4239WAT      O17661   6.316   5.300   7.255  0.0363 -0.3247 -0.8214
 4239WAT     H117662   6.390   5.274   7.217  1.1489 -1.2767  1.7661
 4239WAT     H217663   6.319   5.264   7.334 -1.4095  2.5924  0.7606
 4239WAT    EPW17664   6.327   5.291   7.261  0.8936 -0.2083  1.3740
 4240WAT      O17665   5.842   1.900   1.582  0.0889 -0.1807  0.0635
 4240WAT     H117666   5.776   1.938   1.624  0.0042 -0.5508  0.2685
 4240WAT     H217667   5.913   1.933   1.622  0.0049 -2.1014  1.9562
 4240WAT    EPW17668   5.843   1.911   1.594  1.1095  0.6639  0.5466
 4241WAT      O17669   6.178   1.821   0.511  0.2623  0.4083  0.3059
 4241WAT     H117670   6.239   1.820   0.449 -1.2772 -1.8783 -1.3337
 4241WAT     H217671   6.103   1.825   0.466 -0.8916 -0.6476  1.9989
 4241WAT    EPW17672   6.176   1.821   0.495  0.2893  0.3155  0.4189
 4242WAT      O17673   6.133   0.669   1.231 -0.0169 -0.0449  0.5853
 4242WAT     H117674   6.137   0.727   1.296  0.9529  1.2990 -0.6076
 4242WAT     H217675   6.055   0.686   1.195  1.4405  2.8446 -1.6702
 4242WAT    EPW17676   6.122   0.680   1.235 -0.3491  0.4809  0.0348
 4243WAT      O17677   6.714   0.396   1.149  0.3011 -0.3892 -0.7769
 4243WAT     H117678   6.634   0.375   1.179  0.0573  0.7113 -0.6141
 4243WAT     H217679   6.733   0.330   1.096 -1.1208 -0.2485 -1.5293
 4243WAT    EPW17680   6.705   0.383   1.146 -0.1394 -0.3449  0.2339
 4244WAT      O17681   6.022   2.268   0.876 -0.4637 -0.2128 -0.5155
 4244WAT     H117682   6.102   2.237   0.859  0.3393  0.4390  1.6485
 4244WAT     H217683   6.008   2.324   0.811  0.8752 -0.3317 -0.9463
 4244WAT    EPW17684   6.032   2.272   0.864  0.4945 -0.6286 -0.2529
 4245WAT      O17685   5.062   1.881   6.808  0.3676 -0.8710  0.1682
 4245WAT     H117686   5.134   1.910   6.768 -0.8562  1.0150 -0.8344
 4245WAT     H217687   5.092   1.853   6.885  2.1046  0.6483  0.1279
 4245WAT    EPW17688   5.077   1.881   6.814  0.4959 -0.2865 -0.0119
 4246WAT      O17689   5.575   3.111   0.333 -0.9539 -0.1972  0.0042
 4246WAT     H117690   5.624   3.073   0.394  0.3590  0.1611 -0.8025
 4246WAT     H217691   5.577   3.196   0.355 -1.0155 -0.1513 -0.1684
 4246WAT    EPW17692   5.582   3.118   0.345 -0.1671  1.0980 -0.0035
 4247WAT      O17693   6.194   1.227   0.221 -0.3083 -0.1639 -0.2426
 4247WAT     H117694   6.251   1.292   0.205  0.3631 -0.4509  0.8495
 4247WAT     H217695   6.183   1.230   0.307 -1.1387 -0.8046 -0.3126
 4247WAT    EPW17696   6.201   1.237   0.231  0.0101  0.4949 -0.5647
 4248WAT      O17697   5.514   2.742   7.462 -0.0439  0.2881  0.0979
 4248WAT     H117698   5.510   2.828   7.478  0.3753  0.5583 -1.0960
 4248WAT     H217699   5.539   2.739   7.378  1.2962 -1.0035  0.5143
 4248WAT    EPW17700   5.517   2.755   7.452  0.5502  0.3984 -0.1711
 4249WAT      O17701   5.804   1.094   0.397  0.5185  0.0507 -0.5589
 4249WAT     H117702   5.724   1.061   0.408 -0.2724  1.6531 -1.2283
 4249WAT     H217703   5.839   1.044   0.334 -0.7430  0.6338 -1.7475
 4249WAT    EPW17704   5.798   1.081   0.389  0.4774 -0.0608 -1.0058
 4250WAT      O17705   5.057   0.949   6.616 -0.0722 -0.0563 -0.3676
 4250WAT     H117706   5.035   0.960   6.700  1.1433 -2.1198  0.2808
 4250WAT     H217707   4.980   0.936   6.577 -0.6216  0.5128  0.4856
 4250WAT    EPW17708   5.042   0.949   6.623  0.7267  0.0612  0.3125
 4251WAT      O17709   4.377   2.390   7.754 -0.8042  0.4570 -0.3620
 4251WAT     H117710   4.349   2.308   7.761  0.5024  0.0836  1.3342
 4251WAT     H217711   4.464   2.382   7.758 -0.6478  2.0368  2.8440
 4251WAT    EPW17712   4.386   2.377   7.756  0.2889  0.3427  0.7229
 4252WAT      O17713   4.372   2.926   0.007  0.3401 -0.7936  0.5599
 4252WAT     H117714   4.298   2.949   0.047 -0.3098  0.4008 -1.1837
 4252WAT     H217715   4.345   2.899  -0.072  1.6701 -1.6186  0.3582
 4252WAT    EPW17716   4.357   2.926   0.001  0.3133  0.3078 -0.4018
 4253WAT      O17717   5.589   0.919   5.554  0.7939 -0.2336 -0.1593
 4253WAT     H117718   5.521   0.955   5.511 -1.3549 -1.5508  1.9326
 4253WAT     H217719   5.642   0.987   5.568 -1.1294  1.3306  0.0031
 4253WAT    EPW17720   5.587   0.934   5.549  0.1806 -0.6971  0.0294
 4254WAT      O17721   6.987   3.553   0.723 -0.3462 -0.0036 -0.0602
 4254WAT     H117722   6.997   3.505   0.650 -0.1630  0.9272 -0.6668
 4254WAT     H217723   7.026   3.629   0.703  1.1708 -0.2792  1.6025
 4254WAT    EPW17724   6.994   3.557   0.709 -0.9394  0.8790 -0.5321
 4255WAT      O17725   3.162   2.137   0.258  0.7442 -0.0032 -0.5431
 4255WAT     H117726   3.107   2.092   0.309  0.1118  0.6530 -0.6427
 4255WAT     H217727   3.226   2.160   0.314  1.6689 -1.9143 -0.6975
 4255WAT    EPW17728   3.164   2.134   0.274  0.0599 -1.2985 -0.0996
 4256WAT      O17729   6.924   1.291   0.223  0.0299  0.5639  0.1782
 4256WAT     H117730   6.949   1.343   0.289 -0.5117  0.5982  0.3617
 4256WAT     H217731   6.888   1.223   0.263 -0.4994  0.6865 -0.0783
 4256WAT    EPW17732   6.922   1.289   0.239 -0.6379 -0.1585 -0.2964
 4257WAT      O17733   5.530   1.648   0.516 -0.0864  0.1876 -0.1868
 4257WAT     H117734   5.527   1.665   0.430 -2.0744 -0.9502 -0.4188
 4257WAT     H217735   5.605   1.605   0.527 -0.2895 -0.5701 -1.5651
 4257WAT    EPW17736   5.540   1.644   0.505  0.6660  0.0871  0.2263
 4258WAT      O17737   5.790   0.845   7.614  0.3365 -0.2133 -0.0982
 4258WAT     H117738   5.851   0.798   7.655 -0.1795 -1.2779 -0.5014
 4258WAT     H217739   5.775   0.799   7.541 -0.0214  0.7093 -0.6202
 4258WAT    EPW17740   5.797   0.831   7.609  0.1238 -0.4377 -0.7005
 4259WAT      O17741   6.372   1.187   1.472  0.2721  0.3163 -0.3560
 4259WAT     H117742   6.386   1.269   1.446 -0.8498  0.4628 -0.5787
 4259WAT     H217743   6.304   1.162   1.423  1.3138 -1.1527 -1.0930
 4259WAT    EPW17744   6.364   1.196   1.461 -0.2972  0.6730 -0.9540
 4260WAT      O17745   5.281   3.206   7.807  0.1917 -0.1882 -0.0638
 4260WAT     H117746   5.215   3.261   7.818  2.1161  2.0392  1.2516
 4260WAT     H217747   5.340   3.253   7.762  0.9932 -2.0141 -1.0404
 4260WAT    EPW17748   5.280   3.221   7.802 -0.4219 -0.1117 -1.4965
 4261WAT      O17749   4.489   0.869   6.819 -0.5481  0.4065 -0.7136
 4261WAT     H117750   4.493   0.841   6.736 -0.2430  2.6499 -1.5205
 4261WAT     H217751   4.572   0.862   6.846 -0.2170  1.6172 -1.3336
 4261WAT    EPW17752   4.502   0.864   6.811 -0.1305  0.1157  0.1532
 4262WAT      O17753   5.145   1.958   7.500 -0.5807  0.0246  0.3191
 4262WAT     H117754   5.217   1.910   7.490 -0.2620  1.0225 -4.0490
 4262WAT     H217755   5.171   2.024   7.551  2.2135  1.2069 -2.3652
 4262WAT    EPW17756   5.159   1.961   7.506 -0.2375 -0.3085 -0.0009
 4263WAT      O17757   5.815   2.078   0.561 -0.1622  0.3333  0.4145
 4263WAT     H117758   5.802   2.104   0.643 -1.0412 -0.2855  0.4760
 4263WAT     H217759   5.762   2.129   0.514  1.9094  2.2276 -0.0597
 4263WAT    EPW17760   5.805   2.090   0.566 -0.1167 -0.5744  0.7682
 4264WAT      O17761   5.953   3.425   7.915  0.0418 -0.0933  0.4504
 4264WAT     H117762   5.904   3.497   7.916 -0.3146 -0.2266 -1.8640
 4264WAT     H217763   6.004   3.436   7.845  1.0282 -1.4188  0.9311
 4264WAT    EPW17764   5.953   3.437   7.905 -0.5415 -0.3460  0.4557
 4265WAT      O17765   6.284   2.234   0.801 -0.1567  0.0305 -0.0535
 4265WAT     H117766   6.355   2.186   0.818 -0.7070 -1.4235 -1.5821
 4265WAT     H217767   6.246   2.192   0.735 -2.9516  0.2176  1.2759
 4265WAT    EPW17768   6.289   2.220   0.794  0.4443  0.3039 -0.4436
 4266WAT      O17769   5.845   1.933   1.906 -0.0746  0.2985  0.2531
 4266WAT     H117770   5.769   1.928   1.862  0.1571  3.2843 -0.6670
 4266WAT     H217771   5.899   1.971   1.850  1.2417  1.0181  1.9250
 4266WAT    EPW17772   5.841   1.938   1.891 -0.5499  0.9252  0.3103
 4267WAT      O17773   4.640   3.224   1.027  0.1038  0.9149 -0.4087
 4267WAT     H117774   4.621   3.241   1.111  0.8893  1.3366 -0.3113
 4267WAT     H217775   4.562   3.206   0.992 -0.0561 -0.9793  0.7897
 4267WAT    EPW17776   4.626   3.224   1.034 -0.3381 -0.6689  0.1672
 4268WAT      O17777   5.589   0.060   1.138  0.3728 -0.1454 -0.6144
 4268WAT     H117778   5.651   0.013   1.098  0.0846  0.9127 -2.3851
 4268WAT     H217779   5.515   0.024   1.109  0.1450 -0.3216  0.1654
 4268WAT    EPW17780   5.587   0.047   1.128 -0.6474 -0.6147 -0.5289
 4269WAT      O17781   5.934   2.929   0.220 -0.9603 -0.5790  0.3001
 4269WAT     H117782   5.904   2.961   0.295 -2.2883 -0.5715 -0.2158
 4269WAT     H217783   5.966   2.999   0.179  0.6417 -0.7181  1.2088
 4269WAT    EPW17784   5.934   2.944   0.225  0.2102 -0.3455 -0.2090
 4270WAT      O17785   4.053   3.515   7.793  0.5886  0.4556 -0.5132
 4270WAT     H117786   4.097   3.440   7.790  1.1833  0.7966 -0.4951
 4270WAT     H217787   3.977   3.497   7.753  1.3995  0.3081 -2.0324
 4270WAT    EPW17788   4.048   3.501   7.787  0.6616  0.3758 -0.8242
 4271WAT      O17789   5.612   1.812   8.043  0.0124 -0.3923  0.5813
 4271WAT     H117790   5.564   1.881   8.068 -1.2912 -1.9802  2.7584
 4271WAT     H217791   5.623   1.825   7.957 -2.1276  1.3479  0.4782
 4271WAT    EPW17792   5.607   1.824   8.034  0.2954 -0.0608 -0.2910
 4272WAT      O17793   5.543   2.804   0.450 -0.1290 -0.1691  0.0419
 4272WAT     H117794   5.526   2.788   0.366 -1.1910  3.6135 -0.6364
 4272WAT     H217795   5.464   2.804   0.487 -0.2456  2.6431 -0.0007
 4272WAT    EPW17796   5.529   2.801   0.443  0.1525 -0.2426 -0.6768
 4273WAT      O17797   5.445   0.269   0.350 -0.2352  0.4985  0.2564
 4273WAT     H117798   5.377   0.263   0.295  0.8522 -1.1106 -1.0475
 4273WAT     H217799   5.410   0.255   0.428 -1.5250  0.4921 -0.2986
 4273WAT    EPW17800   5.430   0.266   0.353 -0.1466 -0.2549  0.3672
 4274WAT      O17801   7.046   2.897   0.970 -0.7900  0.0945 -0.0029
 4274WAT     H117802   7.048   2.981   0.994  1.9014  0.3141 -0.6961
 4274WAT     H217803   6.984   2.863   1.022 -1.5233  2.3319  0.7396
 4274WAT    EPW17804   7.037   2.905   0.981 -0.7365  0.5064 -0.7402
 4275WAT      O17805   6.106   3.348   0.087  0.0919 -0.4706  0.7461
 4275WAT     H117806   6.055   3.344   0.016  1.8331 -1.0229 -0.5804
 4275WAT     H217807   6.053   3.327   0.153 -1.9071  1.2791 -0.1911
 4275WAT    EPW17808   6.091   3.344   0.086  0.3174 -0.2854  0.6766
 4276WAT      O17809   4.794   2.719   0.989  0.3032 -0.0414  0.1280
 4276WAT     H117810   4.713   2.694   1.008  0.2200  0.1074 -0.0258
 4276WAT     H217811   4.800   2.799   1.025  0.9354 -0.7125  1.5884
 4276WAT    EPW17812   4.783   2.727   0.997 -0.5454  0.4963 -0.0891
 4277WAT      O17813   5.616   2.369   6.727  0.0857  0.1153 -0.2946
 4277WAT     H117814   5.635   2.359   6.642 -0.8402  0.3747 -0.5399
 4277WAT     H217815   5.636   2.452   6.743 -2.9300  1.1528 -1.1693
 4277WAT    EPW17816   5.622   2.380   6.717  0.4372 -0.2746  0.0238
 4278WAT      O17817   4.861   7.542   0.662 -0.6027 -0.2777  0.3553
 4278WAT     H117818   4.928   7.486   0.660  1.4106  1.9478 -1.3223
 4278WAT     H217819   4.813   7.518   0.593 -0.4519 -0.7157  0.4007
 4278WAT    EPW17820   4.864   7.530   0.651 -0.2548  0.3504 -0.5212
 4279WAT      O17821   5.487   1.293   7.595  0.2235 -0.1945  0.3396
 4279WAT     H117822   5.563   1.269   7.630  0.6410  0.6457  0.0485
 4279WAT     H217823   5.511   1.340   7.525 -0.5576  0.3639  0.4386
 4279WAT    EPW17824   5.502   1.296   7.590  0.6099 -0.1899 -0.3243
 4280WAT      O17825   7.132   1.842   0.512  0.0603  0.0788  0.2209
 4280WAT     H117826   7.178   1.784   0.558 -3.0484 -1.3620  1.8419
 4280WAT     H217827   7.149   1.820   0.429  0.1852 -2.2445  0.7840
 4280WAT    EPW17828   7.141   1.830   0.506 -0.6503 -0.3659 -0.2244
 4281WAT      O17829   5.761   0.468   1.121  0.2223  0.1635  0.2097
 4281WAT     H117830   5.788   0.399   1.168 -0.4018 -0.3620 -0.1749
 4281WAT     H217831   5.783   0.447   1.039 -1.7800 -0.5640 -0.2054
 4281WAT    EPW17832   5.768   0.454   1.116  0.3473  0.4623 -0.4369
 4282WAT      O17833   6.196   2.657   1.875 -0.1266  0.0682 -0.5769
 4282WAT     H117834   6.176   2.739   1.897  0.5617  0.4307 -1.2645
 4282WAT     H217835   6.122   2.613   1.891 -0.7622  0.9673 -0.9669
 4282WAT    EPW17836   6.182   2.662   1.881 -0.3347 -0.3268 -0.2167
 4283WAT      O17837   5.916   3.345   1.209  0.3371 -0.1414  0.3004
 4283WAT     H117838   5.839   3.304   1.209 -0.6362  1.5636 -0.4115
 4283WAT     H217839   5.963   3.302   1.268 -1.2408 -1.0995  0.9133
 4283WAT    EPW17840   5.911   3.333   1.217 -0.2808 -0.3922 -0.1226
 4284WAT      O17841   5.233   2.967   0.175  0.1208 -0.0771  0.9252
 4284WAT     H117842   5.177   3.005   0.230 -1.1686  0.0494 -0.4011
 4284WAT     H217843   5.270   3.035   0.135 -0.9272 -0.1473 -0.2287
 4284WAT    EPW17844   5.230   2.983   0.177  0.8772 -0.6861  0.0399
 4285WAT      O17845   5.620   2.781   0.051  0.1306  0.1439 -0.1344
 4285WAT     H117846   5.687   2.726   0.046 -0.8052 -1.0245 -0.4004
 4285WAT     H217847   5.595   2.792  -0.032 -0.2696  0.2198 -0.0088
 4285WAT    EPW17848   5.626   2.775   0.038  0.1784  0.1333 -0.1192
 4286WAT      O17849   5.539   2.057   6.435 -0.1214 -0.5124 -0.3138
 4286WAT     H117850   5.521   2.024   6.514 -0.0601 -2.4872 -1.0511
 4286WAT     H217851   5.605   2.007   6.406 -0.1213  0.1735 -1.5969
 4286WAT    EPW17852   5.546   2.045   6.442  0.1431 -0.2395 -0.1144
 4287WAT      O17853   3.969   2.045   1.771  0.4307 -0.1586 -0.4887
 4287WAT     H117854   3.914   2.035   1.704 -1.5480  0.7187  0.8869
 4287WAT     H217855   4.009   1.968   1.777 -1.5003 -1.2568 -0.8929
 4287WAT    EPW17856   3.967   2.032   1.762 -0.2407  0.2887 -0.3315
 4288WAT      O17857   6.122   1.149   1.007  0.1364 -0.5723 -0.0666
 4288WAT     H117858   6.134   1.154   1.093 -0.8259 -0.8066  0.1002
 4288WAT     H217859   6.038   1.126   1.000  0.0191  0.0969 -1.0711
 4288WAT    EPW17860   6.111   1.147   1.018  0.5464  0.7353 -0.2080
 4289WAT      O17861   5.748   1.950   7.338  0.1008  0.2071  0.2907
 4289WAT     H117862   5.821   1.957   7.291  1.0007  0.8536  1.6865
 4289WAT     H217863   5.690   1.999   7.295  0.4542 -0.3961 -0.8959
 4289WAT    EPW17864   5.750   1.958   7.325  0.7356 -0.2400 -0.0636
 4290WAT      O17865   5.938   2.224   1.148 -0.3557  0.7912  0.2495
 4290WAT     H117866   5.909   2.144   1.131 -0.2481  0.7763  0.1387
 4290WAT     H217867   5.971   2.251   1.072  1.4779  0.1773  0.8006
 4290WAT    EPW17868   5.938   2.216   1.134  0.0688  0.3235  0.3152
 4291WAT      O17869   6.616   3.018   7.760  0.4309  0.2164 -0.3050
 4291WAT     H117870   6.585   2.944   7.793 -0.1706  0.4793 -0.2663
 4291WAT     H217871   6.665   3.050   7.824 -0.5944  0.6406  0.2996
 4291WAT    EPW17872   6.618   3.012   7.774 -0.0752  0.0419 -0.5634
 4292WAT      O17873   6.266   2.546   7.215 -0.3603  0.8702 -0.0217
 4292WAT     H117874   6.342   2.561   7.255 -0.0333  2.0332 -1.0038
 4292WAT     H217875   6.271   2.595   7.143 -1.4290 -0.1885 -0.8598
 4292WAT    EPW17876   6.278   2.556   7.210  0.3114 -0.5839  0.3982
 4293WAT      O17877   5.303   1.681   0.987  0.2113  0.2287 -0.1195
 4293WAT     H117878   5.388   1.689   1.005  0.5239 -0.4194 -1.1803
 4293WAT     H217879   5.285   1.753   0.941  0.4283 -0.0820 -0.6997
 4293WAT    EPW17880   5.313   1.693   0.983 -1.9701 -0.9613  0.3113
 4294WAT      O17881   4.600   2.182   7.790 -0.3427 -0.6016 -0.3675
 4294WAT     H117882   4.584   2.143   7.867 -2.1071  1.1133  0.1870
 4294WAT     H217883   4.573   2.123   7.731 -2.1622 -0.6303  0.4322
 4294WAT    EPW17884   4.594   2.167   7.793 -0.6903 -0.1026 -0.7594
 4295WAT      O17885   5.111   0.886   0.367 -0.1347  0.5721  0.1384
 4295WAT     H117886   5.177   0.848   0.325 -0.5548  1.3538 -1.2800
 4295WAT     H217887   5.051   0.899   0.305 -2.7779 -2.4208  1.7119
 4295WAT    EPW17888   5.112   0.882   0.352 -0.5885  0.0197 -0.1828
 4296WAT      O17889   5.774   3.966   0.658  0.1228  0.3032 -0.1870
 4296WAT     H117890   5.712   3.907   0.677  0.3839  0.1503  0.2182
 4296WAT     H217891   5.743   4.040   0.693  0.1563  0.2330 -0.0077
 4296WAT    EPW17892   5.760   3.968   0.666 -0.9343  0.1549 -0.5570
 4297WAT      O17893   6.441   2.510   0.456  0.1191 -0.1467 -0.1866
 4297WAT     H117894   6.477   2.532   0.379 -0.0481 -0.6556 -0.4106
 4297WAT     H217895   6.409   2.430   0.442 -0.7467  0.1350  0.1332
 4297WAT    EPW17896   6.441   2.501   0.443 -0.6540 -0.3458  0.5746
 4298WAT      O17897   4.442   4.074   6.467 -0.1207  0.5956 -0.2764
 4298WAT     H117898   4.386   4.093   6.532 -0.4347 -0.4988 -0.2164
 4298WAT     H217899   4.394   4.029   6.411  0.8232 -0.8356  0.0323
 4298WAT    EPW17900   4.427   4.070   6.468  0.2853 -1.0950  0.3078
 4299WAT      O17901   6.097   2.432   0.295 -0.5104 -0.0051 -0.0514
 4299WAT     H117902   6.172   2.408   0.258 -0.8921  1.2055 -1.7602
 4299WAT     H217903   6.110   2.516   0.315 -1.2234  0.0752  0.1197
 4299WAT    EPW17904   6.110   2.441   0.292  0.0790 -0.2651 -0.2896
 4300WAT      O17905   7.272   1.499   1.450  0.5667  0.3381  0.4948
 4300WAT     H117906   7.340   1.552   1.459 -0.2287  1.0912  3.1684
 4300WAT     H217907   7.227   1.512   1.524 -1.8239 -1.0358 -0.6105
 4300WAT    EPW17908   7.275   1.509   1.462  0.1375  0.2516  0.2790
 4301WAT      O17909   4.330   3.320   7.432 -0.0020 -0.4986  0.3399
 4301WAT     H117910   4.244   3.335   7.428 -0.1765 -1.0419  1.6754
 4301WAT     H217911   4.342   3.290   7.513  1.7176  1.2509  0.8204
 4301WAT    EPW17912   4.319   3.318   7.444  0.5519 -0.0553 -0.1404
 4302WAT      O17913   5.919   3.928   7.991  0.1444  0.2281 -0.2148
 4302WAT     H117914   5.897   3.846   7.972  1.9861 -0.3397 -0.1005
 4302WAT     H217915   5.914   3.930   8.078 -5.2101  1.9236 -0.1985
 4302WAT    EPW17916   5.915   3.916   8.001 -0.6979 -0.4524 -0.8105
 4303WAT      O17917   5.292   2.451   1.178 -0.0359 -0.1900  0.0647
 4303WAT     H117918   5.376   2.474   1.181 -0.0083 -0.1928 -0.6121
 4303WAT     H217919   5.274   2.449   1.093 -1.2179  1.6612  0.2028
 4303WAT    EPW17920   5.302   2.454   1.166  0.0207 -0.0400 -0.0002
 4304WAT      O17921   5.378   1.691   6.796  0.0184 -0.5902 -0.2143
 4304WAT     H117922   5.370   1.777   6.785 -1.2694 -0.6854 -0.2418
 4304WAT     H217923   5.366   1.659   6.716  0.5937 -0.7919 -0.2208
 4304WAT    EPW17924   5.375   1.699   6.782  0.4974 -0.4997  1.0957
 4305WAT      O17925   5.376   1.508   0.727  0.9644  0.1307  0.0534
 4305WAT     H117926   5.404   1.531   0.806 -0.0128  0.9035  0.1996
 4305WAT     H217927   5.410   1.568   0.674  0.9195  0.1176  0.0088
 4305WAT    EPW17928   5.385   1.520   0.731 -0.1872  0.5730 -0.0966
 4306WAT      O17929   6.191   1.393   1.232 -0.2219  0.4515  0.2235
 4306WAT     H117930   6.269   1.431   1.235  0.2242 -0.4589  0.8834
 4306WAT     H217931   6.136   1.455   1.261  0.5267  0.5006  1.6375
 4306WAT    EPW17932   6.194   1.408   1.237  0.2924 -0.0911  0.9640
 4307WAT      O17933   6.165   1.835   1.208 -0.2495 -0.8019  0.8186
 4307WAT     H117934   6.207   1.861   1.136  0.5240  1.2652  1.9409
 4307WAT     H217935   6.133   1.757   1.186  0.8863 -0.7156 -1.3857
 4307WAT    EPW17936   6.166   1.827   1.194  0.6277 -0.1473 -0.0215
 4308WAT      O17937   4.874   0.610   0.653 -0.3592  0.3878 -0.0821
 4308WAT     H117938   4.861   0.554   0.588 -0.9553  1.0496 -0.5399
 4308WAT     H217939   4.810   0.668   0.644 -0.7403  0.2360  1.3784
 4308WAT    EPW17940   4.863   0.610   0.642  0.7630 -0.2011 -0.4997
 4309WAT      O17941   5.079   1.564   7.318 -0.1448  0.3241  0.0314
 4309WAT     H117942   5.048   1.641   7.346  0.1159  0.7644 -0.8782
 4309WAT     H217943   5.164   1.569   7.336 -0.4257 -0.5893  1.8471
 4309WAT    EPW17944   5.087   1.576   7.325 -0.0486  0.4061 -0.8595
 4310WAT      O17945   4.469   3.948   0.045 -0.1075  0.0207 -0.2723
 4310WAT     H117946   4.472   3.864   0.019 -1.3981  0.2043 -1.0867
 4310WAT     H217947   4.457   3.992  -0.029  1.8480  1.0863 -0.0408
 4310WAT    EPW17948   4.468   3.942   0.030  0.4755 -0.2690  0.2020
 4311WAT      O17949   6.261   2.098   7.537 -0.2138  0.3278  0.4475
 4311WAT     H117950   6.337   2.094   7.580  0.1483 -1.4392 -0.2732
 4311WAT     H217951   6.230   2.017   7.543 -1.7372  0.8559  0.1425
 4311WAT    EPW17952   6.268   2.086   7.544  0.0027  0.0551 -0.3004
 4312WAT      O17953   5.575   3.747   0.004  0.8146 -0.2581 -0.0144
 4312WAT     H117954   5.588   3.685   0.064  1.0719  0.8724  1.1422
 4312WAT     H217955   5.566   3.820   0.051 -0.3100  0.4805 -1.2777
 4312WAT    EPW17956   5.575   3.749   0.020  0.6516  0.2667 -0.0303
 4313WAT      O17957   5.518   3.390   7.986  0.3489  0.0107 -0.0596
 4313WAT     H117958   5.521   3.384   7.899  1.3691 -1.7832  0.0633
 4313WAT     H217959   5.440   3.359   8.006  0.5730 -0.7000 -0.2721
 4313WAT    EPW17960   5.507   3.385   7.976 -0.1506 -0.3142 -0.0957
 4314WAT      O17961   5.368   3.628   1.597  0.0508 -0.4072 -0.8362
 4314WAT     H117962   5.436   3.680   1.612 -0.7182  0.4802 -0.3475
 4314WAT     H217963   5.394   3.550   1.628  0.7546 -0.0257 -0.4604
 4314WAT    EPW17964   5.382   3.624   1.604  0.1720 -0.1481  0.9081
 4315WAT      O17965   5.716   3.448   0.126 -0.3852 -0.3613 -0.2674
 4315WAT     H117966   5.674   3.430   0.052 -0.0222 -0.2914 -0.4889
 4315WAT     H217967   5.768   3.379   0.138  1.9168  1.0028 -1.7511
 4315WAT    EPW17968   5.717   3.435   0.117  0.5298  0.0373  0.4610
 4316WAT      O17969   4.342   1.363   6.019  0.1176 -0.0252  0.1266
 4316WAT     H117970   4.386   1.310   5.966 -1.0519 -1.9682  0.9873
 4316WAT     H217971   4.387   1.437   6.016  2.9371 -1.5931  0.2901
 4316WAT    EPW17972   4.355   1.366   6.011  0.2220 -0.3613 -0.0540
 4317WAT      O17973   6.208   1.968   5.144 -0.0146 -0.1409  0.5723
 4317WAT     H117974   6.286   1.993   5.174  1.4853 -1.8005 -1.6179
 4317WAT     H217975   6.182   2.037   5.097  0.0309  0.4730  1.4176
 4317WAT    EPW17976   6.215   1.982   5.141  0.6141 -0.4904 -0.4521
 4318WAT      O17977   5.095   3.750   5.715  0.1036 -0.0412 -0.4803
 4318WAT     H117978   5.131   3.810   5.663  0.2551 -1.4925 -2.1318
 4318WAT     H217979   5.017   3.735   5.679 -0.7832  0.5310  1.0631
 4318WAT    EPW17980   5.089   3.757   5.702  0.6837  0.9072 -0.4767
 4319WAT      O17981   6.949   2.175   4.538 -0.2956  0.3802 -0.1392
 4319WAT     H117982   6.919   2.204   4.615  0.1777 -0.8765  0.5486
 4319WAT     H217983   6.951   2.088   4.548  3.7229  0.3020  0.0351
 4319WAT    EPW17984   6.945   2.167   4.551 -0.3061 -1.6814 -0.2224
 4320WAT      O17985   4.714   2.074   5.109  0.0107  0.2488 -0.1388
 4320WAT     H117986   4.786   2.044   5.070 -1.0644 -1.2696 -1.0545
 4320WAT     H217987   4.723   2.161   5.105  2.3013  0.1194  0.7976
 4320WAT    EPW17988   4.726   2.083   5.103  0.5962 -0.4132 -0.3025
 4321WAT      O17989   4.934   2.167   3.632 -0.5799  0.0546 -0.0690
 4321WAT     H117990   4.992   2.222   3.597 -0.8019  0.6730  0.5211
 4321WAT     H217991   4.857   2.204   3.615 -0.8632 -1.0591 -1.3588
 4321WAT    EPW17992   4.931   2.180   3.625 -0.0231 -0.0121  0.6587
 4322WAT      O17993   5.851   2.459   8.035 -0.7059 -0.1086 -0.0683
 4322WAT     H117994   5.880   2.463   7.953  0.9992  0.4012  0.5163
 4322WAT     H217995   5.880   2.533   8.071 -1.3348 -0.3658  1.0231
 4322WAT    EPW17996   5.860   2.471   8.028  0.3025 -1.8171 -0.6513
 4323WAT      O17997   4.281   2.168   5.431  0.0829 -0.0380 -0.4552
 4323WAT     H117998   4.249   2.110   5.373  0.8400 -0.9340 -0.0080
 4323WAT     H217999   4.330   2.119   5.483  0.1261  0.9079  0.4138
 4323WAT    EPW18000   4.283   2.152   5.430  0.0696 -0.4114 -0.4770
 4324WAT      O18001   5.111   2.923   4.972 -0.4381 -0.5456 -0.2509
 4324WAT     H118002   5.035   2.945   4.936 -1.0503 -0.9306  0.7612
 4324WAT     H218003   5.122   2.983   5.035  0.0217 -0.5765 -0.2973
 4324WAT    EPW18004   5.102   2.935   4.976 -0.2411  0.0183  0.1234
 4325WAT      O18005   4.848   2.275   4.282 -0.4548 -0.2094 -0.3435
 4325WAT     H118006   4.866   2.340   4.338 -0.4378 -0.0111 -0.5739
 4325WAT     H218007   4.769   2.248   4.305 -0.4835 -0.0689 -0.2786
 4325WAT    EPW18008   4.839   2.281   4.293  0.0259  0.8837  0.0159
 4326WAT      O18009   5.382   1.532   7.036 -0.1140  0.1802  0.1257
 4326WAT     H118010   5.469   1.526   7.023 -0.0222  1.2574  0.1690
 4326WAT     H218011   5.358   1.596   6.981 -1.1662 -1.1914 -1.0795
 4326WAT    EPW18012   5.392   1.541   7.026 -0.2776  0.1152  0.4152
 4327WAT      O18013   4.747   2.942   7.632 -0.0760 -0.4144 -0.1688
 4327WAT     H118014   4.772   3.013   7.675 -1.9019  1.1925 -1.5497
 4327WAT     H218015   4.661   2.953   7.622 -0.1905 -2.0930 -1.7157
 4327WAT    EPW18016   4.738   2.954   7.637 -0.4446  0.0137 -0.3061
 4328WAT      O18017   5.907   3.178   6.167  1.0077  0.0652 -0.2366
 4328WAT     H118018   5.832   3.133   6.165  0.1563  1.4111  0.3443
 4328WAT     H218019   5.926   3.189   6.083 -0.0223  0.5990 -0.4248
 4328WAT    EPW18020   5.898   3.173   6.154  0.7239  0.1836 -0.4170
 4329WAT      O18021   3.969   0.209   0.038 -0.4665 -0.2112 -0.3556
 4329WAT     H118022   3.961   0.128   0.071 -0.1474  1.2654  4.0378
 4329WAT     H218023   4.052   0.213   0.013  0.4270 -0.4921  2.2668
 4329WAT    EPW18024   3.980   0.198   0.039 -0.0857 -0.3719  0.0785
 4330WAT      O18025   4.978   3.544   6.079  0.4915  0.3255  0.2247
 4330WAT     H118026   4.910   3.596   6.094  0.4696  0.1063  0.9425
 4330WAT     H218027   4.954   3.468   6.113 -0.3072 -0.8145 -2.5984
 4330WAT    EPW18028   4.964   3.540   6.086 -0.6085  0.3803 -0.6783
 4331WAT      O18029   4.071   2.772   5.993 -0.0278 -0.5959  0.2395
 4331WAT     H118030   4.143   2.783   5.945 -0.1050 -0.1657  0.2193
 4331WAT     H218031   4.071   2.686   6.011 -0.4989 -0.9448 -1.2965
 4331WAT    EPW18032   4.082   2.761   5.988  0.0030  0.1577 -0.5885
 4332WAT      O18033   4.594   2.334   0.186 -0.1369 -0.2363  0.2237
 4332WAT     H118034   4.529   2.390   0.206 -0.4631 -0.1288 -1.0942
 4332WAT     H218035   4.566   2.258   0.219 -2.4463 -0.9345 -2.8578
 4332WAT    EPW18036   4.580   2.331   0.194 -0.3279 -0.0673 -0.4914
 4333WAT      O18037   5.166   2.517   5.883  0.1491  0.0400  0.3450
 4333WAT     H118038   5.085   2.493   5.864  0.5193 -0.9480 -0.0214
 4333WAT     H218039   5.163   2.604   5.874 -0.9333  0.0484  0.6284
 4333WAT    EPW18040   5.154   2.527   5.879  0.5163  0.1411 -0.2335
 4334WAT      O18041   4.675   2.361   7.355  0.7522  0.0620  0.3517
 4334WAT     H118042   4.650   2.394   7.431 -1.3371  3.4766 -1.5514
 4334WAT     H218043   4.643   2.280   7.357  2.5967 -0.7869  3.7439
 4334WAT    EPW18044   4.666   2.354   7.366  0.1692 -0.3676  0.3620
 4335WAT      O18045   4.133   1.299   5.071  0.7157 -0.1962 -0.3396
 4335WAT     H118046   4.083   1.338   5.132 -2.1974 -3.6242 -0.2134
 4335WAT     H218047   4.110   1.339   4.997  1.2340  1.2900  0.2684
 4335WAT    EPW18048   4.122   1.311   5.069 -0.3152  0.0447  0.6403
 4336WAT      O18049   5.035   0.686   5.624  0.3103  0.0765 -0.1751
 4336WAT     H118050   5.053   0.661   5.706  0.3611 -0.0687 -0.2306
 4336WAT     H218051   5.054   0.771   5.625  0.2237  0.0954 -0.0107
 4336WAT    EPW18052   5.041   0.695   5.636  0.5056  0.2973 -0.0008
 4337WAT      O18053   5.420   2.027   4.418 -0.0300  0.1745 -0.4832
 4337WAT     H118054   5.377   2.100   4.441  0.8345  0.4301  0.3437
 4337WAT     H218055   5.503   2.052   4.413  0.0972 -0.3942 -1.7833
 4337WAT    EPW18056   5.426   2.041   4.420  0.2833  0.2059 -0.3223
 4338WAT      O18057   5.317   2.249   4.546 -0.4870  0.0468 -0.7961
 4338WAT     H118058   5.256   2.284   4.598  0.2127  0.4436 -0.2456
 4338WAT     H218059   5.381   2.307   4.545  0.0091 -0.4871 -1.1731
 4338WAT    EPW18060   5.317   2.262   4.553 -0.7981 -0.2206 -0.5748
 4339WAT      O18061   5.076   2.599   6.794 -0.3211  0.8116  0.9324
 4339WAT     H118062   5.081   2.533   6.851 -0.1400  0.1053  0.1224
 4339WAT     H218063   5.144   2.649   6.815  1.1355 -0.6241 -0.0490
 4339WAT    EPW18064   5.087   2.596   6.805  0.2027  0.3040 -0.1664
 4340WAT      O18065   4.876   4.288   5.977 -0.3538  0.2184 -0.0485
 4340WAT     H118066   4.860   4.371   5.955  0.4396  0.6319  0.8723
 4340WAT     H218067   4.797   4.257   5.999 -0.3669  1.3753  1.6960
 4340WAT    EPW18068   4.862   4.296   5.977  0.6016  0.5959  0.2526
 4341WAT      O18069   5.156   2.360   6.172  0.4117  0.5841 -0.1530
 4341WAT     H118070   5.234   2.326   6.191 -0.6805 -0.5895  2.8205
 4341WAT     H218071   5.130   2.313   6.103  2.4778  1.4215 -1.6266
 4341WAT    EPW18072   5.164   2.348   6.165 -0.0719  0.2605  0.2850
 4342WAT      O18073   6.580   2.191   4.896 -0.1275  0.4582  0.7664
 4342WAT     H118074   6.520   2.185   4.832  0.3771  0.1575  0.3170
 4342WAT     H218075   6.542   2.245   4.953 -2.1907 -2.1025  2.0056
 4342WAT    EPW18076   6.565   2.198   4.895 -0.1121  0.4635 -0.3428
 4343WAT      O18077   5.190   3.110   5.167 -0.3613 -0.1496  0.3624
 4343WAT     H118078   5.144   3.115   5.241  0.0948 -3.0390  0.9612
 4343WAT     H218079   5.270   3.087   5.194 -0.3994 -2.1112 -1.0097
 4343WAT    EPW18080   5.195   3.107   5.182 -0.7020 -0.2588  0.9043
 4344WAT      O18081   4.592   2.170   6.350 -0.0975 -0.1911 -0.0655
 4344WAT     H118082   4.587   2.250   6.314  0.5842  0.0095  0.2704
 4344WAT     H218083   4.668   2.139   6.320 -0.3433 -0.7087 -0.1674
 4344WAT    EPW18084   4.603   2.177   6.340 -0.9823  0.3608  0.2996
 4345WAT      O18085   5.263   2.914   1.600 -0.5281 -0.0001 -0.2471
 4345WAT     H118086   5.189   2.958   1.614 -0.7695  0.0933 -1.7293
 4345WAT     H218087   5.268   2.908   1.513  1.2266  0.0123 -0.1827
 4345WAT    EPW18088   5.253   2.919   1.589  0.3466  0.0672 -0.3049
 4346WAT      O18089   4.432   2.604   6.033 -0.0391  0.8026  0.8582
 4346WAT     H118090   4.479   2.673   6.006 -0.3252  0.7037  0.1006
 4346WAT     H218091   4.490   2.555   6.075  0.6828  0.3980 -0.5730
 4346WAT    EPW18092   4.447   2.607   6.035  0.8331 -0.7216 -0.6580
 4347WAT      O18093   5.816   3.305   5.441 -0.2924 -0.1659  0.6025
 4347WAT     H118094   5.851   3.330   5.365  0.8006  0.9970  1.4344
 4347WAT     H218095   5.732   3.293   5.423 -0.2964  1.3680 -0.5160
 4347WAT    EPW18096   5.809   3.307   5.427 -0.0595 -0.4425 -0.2647
 4348WAT      O18097   5.787   2.664   0.300 -0.1333 -0.3553  0.0438
 4348WAT     H118098   5.790   2.690   0.383 -0.0790  0.8547 -0.3091
 4348WAT     H218099   5.825   2.730   0.257  2.0054 -1.9606 -0.7254
 4348WAT    EPW18100   5.793   2.678   0.306  1.2566  0.2985 -0.3700
 4349WAT      O18101   5.052   1.878   6.375 -0.0325 -0.3023  0.3595
 4349WAT     H118102   5.100   1.844   6.440  0.8444  0.3686  0.0734
 4349WAT     H218103   4.970   1.854   6.396  0.5014 -2.3017  0.3286
 4349WAT    EPW18104   5.047   1.869   6.388 -0.0209  0.7294  0.2010
 4350WAT      O18105   6.834   3.002   3.361 -0.4044 -0.0779 -0.1009
 4350WAT     H118106   6.843   3.081   3.326  2.1126 -0.5951 -0.8299
 4350WAT     H218107   6.771   3.012   3.420  1.6725  3.2039  1.8379
 4350WAT    EPW18108   6.826   3.015   3.364  0.2668 -0.2802 -0.3852
 4351WAT      O18109   4.604   2.769   5.861 -0.2845  0.3439 -0.4943
 4351WAT     H118110   4.599   2.856   5.864 -1.2022  0.4690 -2.9989
 4351WAT     H218111   4.689   2.753   5.869 -0.3036  1.2158  2.6134
 4351WAT    EPW18112   4.616   2.780   5.862 -0.3503  0.2284 -0.6139
 4352WAT      O18113   5.360   1.577   7.314 -0.3748  1.0192 -0.1437
 4352WAT     H118114   5.371   1.594   7.229 -0.5626 -2.0455 -0.9047
 4352WAT     H218115   5.432   1.532   7.335 -1.3609 -0.2589  0.6577
 4352WAT    EPW18116   5.372   1.573   7.305  0.1439 -0.1063 -1.0514
 4353WAT      O18117   5.146   0.478   4.963  0.2456  0.0973 -0.5741
 4353WAT     H118118   5.140   0.402   4.921  1.7567  0.6849 -1.9814
 4353WAT     H218119   5.208   0.520   4.919 -1.3814  2.6497 -0.6117
 4353WAT    EPW18120   5.154   0.473   4.951  1.3258  1.2118  0.5847
 4354WAT      O18121   5.807   0.406   4.366  0.0456  0.5853  0.4209
 4354WAT     H118122   5.779   0.464   4.425  1.4925  1.6284  0.1262
 4354WAT     H218123   5.893   0.419   4.363  0.1471 -0.1997 -1.1172
 4354WAT    EPW18124   5.816   0.417   4.374  0.0215  0.2481  0.8565
 4355WAT      O18125   4.947   3.218   4.943  0.0430  0.5904 -0.0369
 4355WAT     H118126   4.872   3.260   4.960 -0.2694  0.1664 -0.3328
 4355WAT     H218127   4.920   3.142   4.909  0.5919  0.1113  0.5732
 4355WAT    EPW18128   4.932   3.213   4.940  0.2215 -0.6952  0.1270
 4356WAT      O18129   5.301   3.216   6.526 -0.0876 -0.7771  0.3090
 4356WAT     H118130   5.300   3.227   6.612  0.5803  0.4638  0.1809
 4356WAT     H218131   5.359   3.275   6.498 -1.9486  0.4517 -1.1981
 4356WAT    EPW18132   5.309   3.226   6.535  0.3455 -0.0674 -0.1804
 4357WAT      O18133   5.796   1.397   5.045 -0.0025  0.2070  0.3481
 4357WAT     H118134   5.830   1.385   5.124  0.3471 -1.2934  0.0111
 4357WAT     H218135   5.738   1.333   5.037  1.4129 -0.9979 -1.3229
 4357WAT    EPW18136   5.793   1.386   5.055 -0.0144  0.7446 -0.1149
 4358WAT      O18137   5.835   2.066   6.168 -0.1092 -0.6532 -0.1751
 4358WAT     H118138   5.830   2.068   6.081  3.3265 -0.1687 -0.5005
 4358WAT     H218139   5.792   1.993   6.189  0.0392 -1.4682 -2.4217
 4358WAT    EPW18140   5.828   2.055   6.158 -0.7153 -0.4276 -0.6721
 4359WAT      O18141   4.659   2.905   6.509 -0.2117  0.4822  0.4625
 4359WAT     H118142   4.662   2.898   6.422 -1.9539 -0.1156  0.4001
 4359WAT     H218143   4.711   2.972   6.527 -0.0911  0.8317 -1.0858
 4359WAT    EPW18144   4.667   2.914   6.499 -0.0640 -1.4667 -0.2691
 4360WAT      O18145   5.157   2.586   4.322 -0.2607  0.4730  0.4895
 4360WAT     H118146   5.107   2.627   4.264  0.5353 -0.4943 -0.9420
 4360WAT     H218147   5.100   2.539   4.369 -0.8126  0.2186 -0.4109
 4360WAT    EPW18148   5.141   2.585   4.320  0.0841 -0.3474  0.5591
 4361WAT      O18149   4.698   7.835   5.114 -0.2408  0.2782 -0.2513
 4361WAT     H118150   4.762   7.783   5.084 -0.5024 -0.5468  0.5696
 4361WAT     H218151   4.737   7.878   5.179 -0.9714 -1.6568  1.5797
 4361WAT    EPW18152   4.714   7.834   5.119  0.3342  0.2891  0.2852
 4362WAT      O18153   3.667   2.062   5.055 -0.4653 -0.0189  0.8558
 4362WAT     H118154   3.749   2.042   5.077 -0.7365  0.3717  2.3788
 4362WAT     H218155   3.649   2.009   4.989  1.8163  1.5152 -1.1529
 4362WAT    EPW18156   3.676   2.052   5.049 -0.7241 -0.7192 -0.3208
 4363WAT      O18157   3.638   4.054   7.415 -0.4251 -0.7504 -0.0366
 4363WAT     H118158   3.639   4.057   7.328  1.4264  1.7029 -0.0118
 4363WAT     H218159   3.571   4.106   7.437 -0.6732 -1.0958  0.0513
 4363WAT    EPW18160   3.628   4.062   7.406 -0.5384  0.4660  0.1947
 4364WAT      O18161   6.570   2.615   4.455 -0.5588  0.2574  0.5569
 4364WAT     H118162   6.618   2.612   4.528  0.5831  0.0858 -0.1783
 4364WAT     H218163   6.515   2.547   4.462  0.7631 -0.8571  0.4454
 4364WAT    EPW18164   6.569   2.605   4.467  0.4023 -0.3828  1.1962
 4365WAT      O18165   5.454   3.030   7.200  0.0484 -0.5317 -0.8899
 4365WAT     H118166   5.518   2.983   7.236 -0.2179  0.0526  0.4312
 4365WAT     H218167   5.482   3.112   7.210 -1.4296 -0.1649  0.9436
 4365WAT    EPW18168   5.468   3.035   7.207  0.9571 -0.1219 -0.1518
 4366WAT      O18169   5.000   1.681   4.910 -0.2173 -0.0182 -0.5697
 4366WAT     H118170   4.967   1.651   4.835 -1.1864 -0.4696  0.0244
 4366WAT     H218171   5.073   1.722   4.885 -0.7550  0.2170 -1.8073
 4366WAT    EPW18172   5.006   1.682   4.895  0.0273  0.4712  0.9026
 4367WAT      O18173   4.712   4.100   7.040  0.0837 -0.5233  0.3370
 4367WAT     H118174   4.681   4.131   6.964 -0.7802 -1.5500  0.2463
 4367WAT     H218175   4.712   4.014   7.028 -1.4912 -0.8135  1.9871
 4367WAT    EPW18176   4.707   4.092   7.027 -0.3727 -0.6078  0.6054
 4368WAT      O18177   3.985   1.545   6.500  0.1855  0.0075  0.8830
 4368WAT     H118178   3.912   1.593   6.499  0.2104  0.0447  0.5038
 4368WAT     H218179   3.967   1.479   6.445  0.4031 -0.0292  0.8548
 4368WAT    EPW18180   3.971   1.543   6.492 -0.8903 -0.7382 -0.7145
 4369WAT      O18181   6.192   3.234   7.007  0.2988  0.0341 -0.0476
 4369WAT     H118182   6.133   3.277   6.959  0.8063 -0.8429 -1.5389
 4369WAT     H218183   6.257   3.219   6.950  1.2715 -0.3834  1.1341
 4369WAT    EPW18184   6.193   3.238   6.991  0.7037  0.1701 -0.6005
 4370WAT      O18185   4.874   3.313   0.649 -0.0505  0.2591 -0.4603
 4370WAT     H118186   4.846   3.232   0.631 -1.6036  0.7589 -0.4251
 4370WAT     H218187   4.839   3.330   0.728  1.9459  0.2379  0.5042
 4370WAT    EPW18188   4.865   3.304   0.658  0.6302 -0.9053 -0.0497
 4371WAT      O18189   5.236   1.636   6.251 -0.2486 -0.5622 -0.2728
 4371WAT     H118190   5.294   1.665   6.309 -0.6468  0.9663 -0.5910
 4371WAT     H218191   5.184   1.584   6.299 -0.4039  0.4452  0.6970
 4371WAT    EPW18192   5.237   1.632   6.267  0.0310  0.2148 -0.9192
 4372WAT      O18193   6.202   2.551   7.804  0.3924 -0.0693  0.2958
 4372WAT     H118194   6.251   2.481   7.825 -1.1682 -0.6783  2.2474
 4372WAT     H218195   6.255   2.598   7.753  2.8197 -0.9378  1.7989
 4372WAT    EPW18196   6.217   2.547   7.800  0.4608 -0.5223 -0.5050
 4373WAT      O18197   5.782   1.181   6.432  0.0474  0.1256  0.3138
 4373WAT     H118198   5.737   1.112   6.401 -0.2769  0.0259  0.9934
 4373WAT     H218199   5.760   1.184   6.516  0.0445  1.0763  0.2912
 4373WAT    EPW18200   5.772   1.171   6.440  0.0840  0.2184  0.4492
 4374WAT      O18201   5.680   1.693   6.880  0.0612  0.0823  0.1348
 4374WAT     H118202   5.611   1.739   6.852  1.0673  1.2148 -0.5846
 4374WAT     H218203   5.667   1.614   6.845 -0.6780  0.3856 -0.3080
 4374WAT    EPW18204   5.668   1.688   6.870  0.2367  0.6212  0.7301
 4375WAT      O18205   5.433   2.759   6.462  0.6613  0.2601 -0.4969
 4375WAT     H118206   5.388   2.811   6.409  1.7973  0.1251 -1.6532
 4375WAT     H218207   5.437   2.683   6.418  0.4254 -0.3035  0.4234
 4375WAT    EPW18208   5.427   2.755   6.448 -0.3284  0.6671 -0.1348
 4376WAT      O18209   4.770   1.476   5.268 -0.3637  0.0018 -0.5248
 4376WAT     H118210   4.769   1.470   5.355  1.0573 -0.9444 -0.5438
 4376WAT     H218211   4.829   1.539   5.253  2.1023 -2.2163 -0.8159
 4376WAT    EPW18212   4.778   1.484   5.279 -0.0014  0.4000  0.0673
 4377WAT      O18213   4.847   3.082   8.055  0.5126  0.0160 -0.0408
 4377WAT     H118214   4.855   3.012   8.107  1.6573  0.4402  0.3686
 4377WAT     H218215   4.831   3.047   7.976  0.9320 -0.7017  0.1885
 4377WAT    EPW18216   4.846   3.066   8.051 -0.6915  0.5015  0.3547
 4378WAT      O18217   5.795   1.622   0.104 -0.5054 -0.5574 -0.2104
 4378WAT     H118218   5.742   1.686   0.080  0.1875 -0.2983 -1.1157
 4378WAT     H218219   5.839   1.655   0.171  0.0600  0.0345 -0.8642
 4378WAT    EPW18220   5.794   1.636   0.111  0.3145  0.1014 -0.2955
 4379WAT      O18221   5.691   2.410   5.428 -0.2857  0.2999 -0.3361
 4379WAT     H118222   5.623   2.355   5.425  1.2397 -1.7338  0.4547
 4379WAT     H218223   5.727   2.394   5.506  0.8731  1.6304 -0.5623
 4379WAT    EPW18224   5.686   2.400   5.439  0.5180  0.0929  0.1652
 4380WAT      O18225   6.136   3.301   4.673  0.1128  0.5988  0.4778
 4380WAT     H118226   6.060   3.269   4.700 -0.2040  0.1257 -0.8850
 4380WAT     H218227   6.142   3.273   4.591  2.2825 -0.3314  0.8871
 4380WAT    EPW18228   6.126   3.292   4.665 -0.6243  0.0800 -0.5463
 4381WAT      O18229   4.195   2.445   4.836  1.0224 -0.3667 -0.1547
 4381WAT     H118230   4.234   2.443   4.914  2.5361 -0.6435 -0.8827
 4381WAT     H218231   4.123   2.493   4.850  1.4816 -0.0606  1.3008
 4381WAT    EPW18232   4.190   2.452   4.850  0.0627 -0.9150  0.3592
 4382WAT      O18233   3.853   2.802   7.849  0.4305 -0.1032  0.0473
 4382WAT     H118234   3.771   2.818   7.825  0.5622 -0.7563 -0.8973
 4382WAT     H218235   3.859   2.839   7.928 -0.2984  1.2963 -0.5169
 4382WAT    EPW18236   3.842   2.810   7.857  0.2699 -0.2494 -0.7583
 4383WAT      O18237   4.421   1.993   5.604  0.0761 -0.2231 -0.3146
 4383WAT     H118238   4.408   1.938   5.538 -1.2562  0.6351 -0.8180
 4383WAT     H218239   4.367   1.965   5.666  0.5130 -0.3702  0.0058
 4383WAT    EPW18240   4.411   1.981   5.603  0.1247  0.1723  0.4908
 4384WAT      O18241   6.683   2.572   7.460 -0.1944 -0.1996 -0.1094
 4384WAT     H118242   6.598   2.566   7.481 -0.5597  2.5958 -0.4292
 4384WAT     H218243   6.708   2.647   7.497  1.6809 -0.1015 -1.4465
 4384WAT    EPW18244   6.674   2.582   7.469 -0.5651 -0.4839 -0.5618
 4385WAT      O18245   6.304   1.994   4.636 -0.4351  0.3135 -0.2514
 4385WAT     H118246   6.377   1.952   4.611 -0.5857 -1.8594  2.4881
 4385WAT     H218247   6.327   2.078   4.633  1.8208 -0.2439 -0.5524
 4385WAT    EPW18248   6.318   2.000   4.632  1.0144  0.9387  0.6376
 4386WAT      O18249   4.697   2.605   5.151 -0.1880 -0.0148  0.7036
 4386WAT     H118250   4.671   2.597   5.234 -0.9861  0.7693  0.5472
 4386WAT     H218251   4.757   2.668   5.154  0.7414 -0.8821  0.8616
 4386WAT    EPW18252   4.702   2.613   5.163 -0.3407 -0.5551 -0.8702
 4387WAT      O18253   5.889   2.084   5.334 -0.1196  0.0399  0.4948
 4387WAT     H118254   5.938   2.142   5.377  0.9769 -1.1182  0.8582
 4387WAT     H218255   5.892   2.013   5.384  0.2286 -0.9699 -0.8980
 4387WAT    EPW18256   5.897   2.082   5.348  0.5315 -0.8437 -0.4612
 4388WAT      O18257   4.173   1.746   6.477 -0.0585 -0.3567 -0.5919
 4388WAT     H118258   4.118   1.684   6.504 -0.7083  0.9969  1.4826
 4388WAT     H218259   4.119   1.814   6.461  0.9015  1.3687  2.5374
 4388WAT    EPW18260   4.157   1.747   6.479  0.3887  0.0944 -0.7005
 4389WAT      O18261   6.023   1.792   7.801  0.2949  0.5187 -1.2087
 4389WAT     H118262   5.951   1.823   7.840  1.6776  2.2865  0.1326
 4389WAT     H218263   6.029   1.839   7.728  1.0267  1.7193 -0.4125
 4389WAT    EPW18264   6.013   1.804   7.796  0.1185  0.0210  0.4366
 4390WAT      O18265   5.969   2.667   6.867  0.3829  0.0056 -0.3903
 4390WAT     H118266   5.946   2.645   6.949  1.3384 -0.2360 -0.1811
 4390WAT     H218267   5.980   2.590   6.828 -2.8289 -0.0006 -1.6193
 4390WAT    EPW18268   5.967   2.653   6.874  0.2992 -0.5545 -0.4731
 4391WAT      O18269   4.276   1.910   6.025  0.1645 -0.0135 -0.8144
 4391WAT     H118270   4.328   1.863   6.077 -0.2103  0.1114 -0.3257
 4391WAT     H218271   4.200   1.868   6.028  0.2381 -0.2245 -1.5738
 4391WAT    EPW18272   4.273   1.897   6.033 -0.3266 -0.7324 -0.6730
 4392WAT      O18273   5.121   1.388   4.944  0.6551  0.6207 -0.2318
 4392WAT     H118274   5.131   1.424   5.023 -0.3925 -0.0146  0.2143
 4392WAT     H218275   5.051   1.430   4.912  0.5565  0.2752 -0.4704
 4392WAT    EPW18276   5.112   1.400   4.951 -0.4945  0.4808 -0.7552
 4393WAT      O18277   5.409   2.602   5.247  0.1166 -0.1306  0.3127
 4393WAT     H118278   5.372   2.650   5.185 -0.3752  1.2071  1.5786
 4393WAT     H218279   5.394   2.648   5.320  2.5459 -0.5243  1.1486
 4393WAT    EPW18280   5.402   2.616   5.249 -1.2550  0.2432  0.1342
 4394WAT      O18281   5.195   3.586   6.257  0.1449  0.1057  0.0052
 4394WAT     H118282   5.136   3.559   6.198  0.1672  1.1020 -0.4975
 4394WAT     H218283   5.146   3.627   6.317  0.1962 -0.2271  0.2712
 4394WAT    EPW18284   5.179   3.588   6.257  0.4316  0.3317  0.0245
 4395WAT      O18285   4.815   2.371   6.122 -0.0553 -0.4894  0.2276
 4395WAT     H118286   4.794   2.360   6.038  1.6444 -2.8176 -0.0083
 4395WAT     H218287   4.791   2.295   6.159  2.1313 -0.8336  1.1136
 4395WAT    EPW18288   4.808   2.358   6.115  0.2747 -0.7883 -0.6931
 4396WAT      O18289   4.962   2.643   5.372 -0.2379  0.1666 -0.1034
 4396WAT     H118290   4.957   2.688   5.298 -2.0198 -1.6973 -1.2419
 4396WAT     H218291   5.031   2.591   5.360 -0.5536 -0.1675 -0.5067
 4396WAT    EPW18292   4.971   2.642   5.359  0.3460 -0.0239  0.2789
 4397WAT      O18293   3.782   2.268   4.724 -0.5621  0.2681 -0.5572
 4397WAT     H118294   3.851   2.215   4.727 -1.0533 -0.4854 -1.9538
 4397WAT     H218295   3.816   2.347   4.740  0.6737 -0.0381 -1.5520
 4397WAT    EPW18296   3.797   2.272   4.727  0.1700  0.2405 -0.9329
 4398WAT      O18297   4.823   2.668   6.655  0.2692  0.0102  0.4836
 4398WAT     H118298   4.785   2.729   6.705  2.2265 -0.3418  2.5269
 4398WAT     H218299   4.895   2.646   6.699  2.0326 -0.5487 -2.3649
 4398WAT    EPW18300   4.828   2.674   6.669 -0.0788  0.2877 -0.4253
 4399WAT      O18301   5.205   7.642   3.888 -0.0087  0.2809  0.6071
 4399WAT     H118302   5.256   7.663   3.955 -0.2863 -0.4916  1.0751
 4399WAT     H218303   5.255   7.591   3.839 -0.3877 -0.6574  1.1795
 4399WAT    EPW18304   5.220   7.638   3.891 -0.0885 -0.6912 -0.7591
 4400WAT      O18305   5.255   3.229   6.838 -0.4246 -0.0840 -0.3725
 4400WAT     H118306   5.338   3.247   6.816 -0.2021 -1.1158 -0.3956
 4400WAT     H218307   5.262   3.189   6.915 -0.9936  0.7938  0.1593
 4400WAT    EPW18308   5.269   3.226   6.846  0.4724  0.0776  0.0179
 4401WAT      O18309   5.507   1.299   5.729  0.1291 -0.9309  0.3789
 4401WAT     H118310   5.516   1.333   5.810 -2.4145 -0.0786  0.3694
 4401WAT     H218311   5.535   1.364   5.678  0.4818 -0.9687  0.5158
 4401WAT    EPW18312   5.513   1.314   5.734  1.3471 -1.3774  0.2700
 4402WAT      O18313   6.061   1.623   8.042 -0.0990  0.4208 -0.0732
 4402WAT     H118314   6.031   1.688   7.994 -0.8735 -0.4226 -0.7650
 4402WAT     H218315   5.992   1.596   8.088 -0.1652 -0.8070 -0.8397
 4402WAT    EPW18316   6.047   1.628   8.042 -0.3419 -0.0468  0.2620
 4403WAT      O18317   6.529   2.184   3.614 -0.0431  0.2079 -0.4313
 4403WAT     H118318   6.595   2.141   3.652 -1.3123 -1.9785 -0.5164
 4403WAT     H218319   6.547   2.268   3.629  2.5532 -0.3246 -0.1728
 4403WAT    EPW18320   6.541   2.190   3.622 -0.3292  0.0550  0.2512
 4404WAT      O18321   4.933   3.214   7.163 -0.4577  0.2316  0.1792
 4404WAT     H118322   4.933   3.207   7.250  0.3949 -2.4079  0.0580
 4404WAT     H218323   5.010   3.182   7.140 -1.1594 -0.2937 -1.6052
 4404WAT    EPW18324   4.944   3.208   7.172 -0.4193  0.0594  0.3566
 4405WAT      O18325   4.929   2.891   7.015  0.4360 -0.1908  0.5348
 4405WAT     H118326   5.011   2.920   7.010 -0.2745  2.0916  1.0076
 4405WAT     H218327   4.887   2.935   6.952 -1.3968  2.6473  3.4361
 4405WAT    EPW18328   4.935   2.902   7.005 -0.6558 -0.4909 -0.0895
 4406WAT      O18329   5.868   2.521   6.497  0.1360 -0.1344  0.4123
 4406WAT     H118330   5.804   2.480   6.455  0.2682 -0.1720  0.2413
 4406WAT     H218331   5.869   2.601   6.461  1.3659 -0.6898 -0.9030
 4406WAT    EPW18332   5.859   2.527   6.486 -0.0724  0.0300 -0.0849
 4407WAT      O18333   5.959   3.922   6.171  0.7606  0.0770 -0.2401
 4407WAT     H118334   5.991   3.894   6.094  0.7716 -1.9321  0.4221
 4407WAT     H218335   6.031   3.937   6.218  0.7793  2.1621 -0.8297
 4407WAT    EPW18336   5.974   3.920   6.166  1.1096 -0.2838  0.0597
 4408WAT      O18337   5.228   0.762   6.740  0.4799 -0.2817  0.2654
 4408WAT     H118338   5.170   0.722   6.792  1.0777 -1.2146  0.2339
 4408WAT     H218339   5.180   0.822   6.700 -0.9580 -2.2523 -1.1718
 4408WAT    EPW18340   5.212   0.765   6.742 -0.5020  0.2745  0.5501
 4409WAT      O18341   5.350   1.850   5.949  0.3068  0.1304  0.1666
 4409WAT     H118342   5.322   1.768   5.958  1.9506 -0.5453 -0.3488
 4409WAT     H218343   5.323   1.890   6.022 -1.4882 -0.5358 -0.0800
 4409WAT    EPW18344   5.342   1.844   5.961 -0.8320  0.4375 -0.2190
 4410WAT      O18345   5.294   2.343   0.609  0.6125  0.1020 -0.2130
 4410WAT     H118346   5.283   2.418   0.565  0.1617 -0.4190 -1.0123
 4410WAT     H218347   5.334   2.292   0.552  0.0767 -0.5708  0.0046
 4410WAT    EPW18348   5.298   2.347   0.594 -0.5113 -0.0932 -0.1894
 4411WAT      O18349   4.436   1.193   7.149  0.0492  0.1797  0.0889
 4411WAT     H118350   4.434   1.278   7.134  1.6330  0.3839  0.7642
 4411WAT     H218351   4.453   1.187   7.234 -0.6210 -0.8283  0.1779
 4411WAT    EPW18352   4.438   1.205   7.159 -0.1734 -0.0132 -0.7051
 4412WAT      O18353   5.163   2.289   6.604  0.3118  0.4851  0.2493
 4412WAT     H118354   5.130   2.245   6.536 -0.9737  1.3573  0.2539
 4412WAT     H218355   5.208   2.229   6.648  0.9424 -0.1608 -1.2160
 4412WAT    EPW18356   5.164   2.274   6.600 -0.3371  0.3413  0.2053
 4413WAT      O18357   5.106   1.083   7.901  0.1463 -0.2309 -0.0286
 4413WAT     H118358   5.159   1.113   7.838  1.0777  0.4732  1.0734
 4413WAT     H218359   5.028   1.115   7.878  0.5097  0.2033 -0.7052
 4413WAT    EPW18360   5.102   1.092   7.888 -0.5930 -0.2558  1.0705
 4414WAT      O18361   5.416   1.653   5.165 -0.0065  0.4144  0.8430
 4414WAT     H118362   5.500   1.657   5.143 -0.3013 -2.0223 -1.1780
 4414WAT     H218363   5.379   1.718   5.122  0.5448  0.1569 -0.0342
 4414WAT    EPW18364   5.423   1.663   5.156 -0.0195  0.6570  0.1309
 4415WAT      O18365   5.818   0.633   6.092  0.2589 -0.3430 -0.2737
 4415WAT     H118366   5.901   0.608   6.088 -0.1817 -1.6115 -2.5970
 4415WAT     H218367   5.814   0.703   6.040 -0.3594 -1.0142 -1.1442
 4415WAT    EPW18368   5.829   0.640   6.084 -0.5519 -0.1829 -0.0283
 4416WAT      O18369   5.203   1.976   6.142 -0.4933  0.2653  0.0777
 4416WAT     H118370   5.179   1.926   6.209 -0.4353 -0.9448 -0.7711
 4416WAT     H218371   5.260   2.032   6.177 -0.1565 -0.6036  0.9623
 4416WAT    EPW18372   5.208   1.977   6.157  0.7630 -0.2620 -0.5350
 4417WAT      O18373   5.050   2.201   5.982 -0.0248  0.6104  0.1664
 4417WAT     H118374   4.965   2.183   5.993  0.4699 -1.9326  0.5469
 4417WAT     H218375   5.090   2.128   6.009  2.2820  1.5528 -0.4361
 4417WAT    EPW18376   5.044   2.188   5.988 -0.3830  0.0797  0.2817
 4418WAT      O18377   5.090   3.128   4.626  0.0188 -0.0650 -0.0133
 4418WAT     H118378   5.022   3.134   4.571 -0.4019  2.6004  0.6357
 4418WAT     H218379   5.089   3.045   4.651 -1.0311 -0.8830 -2.4423
 4418WAT    EPW18380   5.080   3.117   4.621 -0.5579  0.2141  0.1350
 4419WAT      O18381   5.571   2.143   3.730 -0.1634 -0.3133 -0.1038
 4419WAT     H118382   5.511   2.207   3.738  1.4688  1.1505  1.1638
 4419WAT     H218383   5.563   2.098   3.804  0.1358 -0.2583 -0.0381
 4419WAT    EPW18384   5.561   2.146   3.742 -0.3203  0.7548 -0.3803
 4420WAT      O18385   5.095   3.300   5.671 -0.5767 -0.1002 -0.3124
 4420WAT     H118386   5.096   3.371   5.722  0.3125  1.9615 -2.9926
 4420WAT     H218387   5.027   3.314   5.618 -0.6011 -1.4574 -0.6776
 4420WAT    EPW18388   5.085   3.312   5.671  0.8474 -0.0982 -0.9198
 4421WAT      O18389   6.257   2.773   7.499 -0.3337  0.2968  0.1158
 4421WAT     H118390   6.320   2.800   7.445  0.7125 -0.5172  0.8803
 4421WAT     H218391   6.188   2.760   7.447 -0.3986  2.7353 -0.5342
 4421WAT    EPW18392   6.256   2.775   7.484  0.3515  0.3544 -1.0219
 4422WAT      O18393   5.371   3.169   0.047  0.2300  0.3857  0.1885
 4422WAT     H118394   5.361   3.111  -0.017  0.2969 -0.4718  0.9418
 4422WAT     H218395   5.454   3.157   0.072  0.3866  1.1284  0.0569
 4422WAT    EPW18396   5.382   3.159   0.041  1.0423 -0.2330  0.9457
 4423WAT      O18397   5.729   1.156   5.673 -0.1507 -0.0179  0.3067
 4423WAT     H118398   5.653   1.190   5.697  0.3858 -0.1011  2.2240
 4423WAT     H218399   5.750   1.202   5.601 -1.1297  1.2616  0.8002
 4423WAT    EPW18400   5.721   1.168   5.666  0.9129 -0.3903  0.0934
 4424WAT      O18401   5.033   1.120   4.173 -0.2952 -0.3777  0.4053
 4424WAT     H118402   5.053   1.204   4.183 -0.3056 -0.3175 -0.0469
 4424WAT     H218403   5.111   1.082   4.160 -0.2083 -0.5613  1.3866
 4424WAT    EPW18404   5.048   1.126   4.172 -0.2368 -0.0208 -0.4472
 4425WAT      O18405   5.219   1.740   0.229 -0.2965 -0.0930 -0.4572
 4425WAT     H118406   5.192   1.818   0.258 -1.7191 -0.1322 -1.5559
 4425WAT     H218407   5.241   1.698   0.302 -0.2545  1.0632  0.2259
 4425WAT    EPW18408   5.218   1.745   0.244 -0.8795 -0.4447 -0.0110
 4426WAT      O18409   5.640   0.188   6.589 -0.2058  0.3821  0.6151
 4426WAT     H118410   5.633   0.244   6.656  1.1481 -0.3150  1.4125
 4426WAT     H218411   5.719   0.206   6.556 -1.0689  1.0725 -1.1930
 4426WAT    EPW18412   5.651   0.199   6.594  0.3358 -0.3285  0.0271
 4427WAT      O18413   4.783   2.656   7.106  0.0333  0.1701  0.7396
 4427WAT     H118414   4.834   2.597   7.145 -0.7872 -1.8509 -1.0466
 4427WAT     H218415   4.838   2.718   7.081  1.3481 -1.0462  0.4932
 4427WAT    EPW18416   4.798   2.656   7.108 -0.6724  0.0852  1.0840
 4428WAT      O18417   4.494   2.931   6.951  0.4012  0.2088  0.0548
 4428WAT     H118418   4.556   2.992   6.945 -0.2229  0.8544  0.0388
 4428WAT     H218419   4.491   2.896   6.871  1.1234 -0.2243  0.2033
 4428WAT    EPW18420   4.502   2.935   6.938  0.4391  0.6062 -1.1308
 4429WAT      O18421   5.814   1.899   4.121 -0.5123 -0.1714 -0.2953
 4429WAT     H118422   5.762   1.864   4.181 -1.9276  1.7929 -0.2712
 4429WAT     H218423   5.847   1.969   4.161  1.0025 -0.5291 -0.8355
 4429WAT    EPW18424   5.811   1.904   4.136 -0.9630 -0.4910  0.1629
 4430WAT      O18425   5.493   2.803   6.737 -0.2169  0.9477  0.2754
 4430WAT     H118426   5.460   2.787   6.658  0.2319 -0.1450  0.2957
 4430WAT     H218427   5.524   2.884   6.730  1.5196  0.2131 -1.2688
 4430WAT    EPW18428   5.493   2.812   6.724  0.0953 -0.0511  0.3585
 4431WAT      O18429   5.824   4.762   4.824 -0.5395  0.0309  0.5953
 4431WAT     H118430   5.891   4.781   4.771  1.0531 -0.6464  2.2657
 4431WAT     H218431   5.788   4.692   4.786 -0.0608  0.1619 -0.1285
 4431WAT    EPW18432   5.829   4.755   4.810 -0.1375  0.4794  0.1208
 4432WAT      O18433   5.694   3.893   6.513  0.4624 -0.4880  0.6455
 4432WAT     H118434   5.722   3.819   6.551 -0.7054 -0.1795  2.1780
 4432WAT     H218435   5.610   3.877   6.496  0.9144 -0.6070 -1.9085
 4432WAT    EPW18436   5.686   3.880   6.516 -0.8550 -0.0054 -0.6037
 4433WAT      O18437   5.930   2.125   4.266 -0.3172 -0.5784 -0.4740
 4433WAT     H118438   6.002   2.170   4.244 -1.5821  1.5893 -0.5386
 4433WAT     H218439   5.951   2.090   4.343  0.8146 -0.0092 -0.4976
 4433WAT    EPW18440   5.944   2.127   4.274 -0.0885 -0.5645  0.4215
 4434WAT      O18441   6.213   3.808   5.975 -0.8446  0.2845  0.6734
 4434WAT     H118442   6.138   3.817   5.932 -0.0346 -0.4858 -1.0112
 4434WAT     H218443   6.250   3.887   5.968 -0.5656  0.0726 -0.4082
 4434WAT    EPW18444   6.207   3.821   5.967  0.1974 -0.4733 -0.1907
 4435WAT      O18445   4.772   1.791   6.714  0.2009  0.0277  0.1068
 4435WAT     H118446   4.805   1.711   6.724 -0.6015 -0.3573 -0.2192
 4435WAT     H218447   4.825   1.841   6.762  1.9149 -0.3826 -1.2491
 4435WAT    EPW18448   4.784   1.786   6.723 -0.3943 -0.1004  0.1235
 4436WAT      O18449   5.991   1.941   7.198 -0.0514 -0.3575  0.5939
 4436WAT     H118450   6.068   1.982   7.208 -0.2000  0.9189 -2.4219
 4436WAT     H218451   6.012   1.867   7.156 -0.4561  0.0169 -0.2843
 4436WAT    EPW18452   6.006   1.936   7.193 -0.7361  0.5136  0.5458
 4437WAT      O18453   5.375   1.774   4.435 -0.3270 -0.8639 -0.0110
 4437WAT     H118454   5.400   1.756   4.516 -0.9115 -0.7548  0.1954
 4437WAT     H218455   5.385   1.860   4.429 -0.8368 -0.7916  0.1384
 4437WAT    EPW18456   5.380   1.784   4.446  0.9573  0.4365  0.5230
 4438WAT      O18457   3.877   3.042   6.311 -0.0804 -0.1702  0.5574
 4438WAT     H118458   3.917   2.965   6.321  0.5983  0.2611  1.2131
 4438WAT     H218459   3.922   3.081   6.248  0.6872  0.3915  1.4234
 4438WAT    EPW18460   3.889   3.036   6.303 -0.5275  0.0626 -0.8019
 4439WAT      O18461   5.158   1.821   5.718  0.1057  0.0941  0.0606
 4439WAT     H118462   5.218   1.831   5.780  1.0662  0.6790 -0.9160
 4439WAT     H218463   5.204   1.831   5.644 -1.1039  0.0181 -0.7274
 4439WAT    EPW18464   5.174   1.824   5.716  0.1881 -0.8402 -0.0743
 4440WAT      O18465   5.334   2.157   3.968 -0.2054  0.2147 -0.8369
 4440WAT     H118466   5.411   2.116   3.975 -0.7279 -0.9887 -1.7336
 4440WAT     H218467   5.317   2.184   4.049  1.0796  0.3724 -0.5932
 4440WAT    EPW18468   5.343   2.155   3.981  0.3603  0.4646  0.3008
 4441WAT      O18469   5.270   1.593   5.977 -0.6473  0.3707 -0.2232
 4441WAT     H118470   5.259   1.593   6.063  1.4405 -1.4960  0.1327
 4441WAT     H218471   5.204   1.544   5.948  0.1041 -1.1882  0.6153
 4441WAT    EPW18472   5.259   1.586   5.985 -1.1726  0.2250 -0.7615
 4442WAT      O18473   3.873   2.274   5.228  0.2344 -0.1161 -0.4064
 4442WAT     H118474   3.904   2.283   5.148  0.0317  0.3453 -0.4364
 4442WAT     H218475   3.889   2.190   5.248 -0.5586 -0.4875 -1.2781
 4442WAT    EPW18476   3.880   2.263   5.219  0.4910 -0.1665  0.3219
 4443WAT      O18477   5.393   2.205   5.810 -0.3128  0.2720 -0.5121
 4443WAT     H118478   5.448   2.140   5.791 -0.9428  0.2741 -2.6028
 4443WAT     H218479   5.316   2.165   5.821 -0.5263  0.5675 -0.8952
 4443WAT    EPW18480   5.390   2.190   5.809  0.0742 -0.0869 -0.7989
 4444WAT      O18481   5.158   1.213   6.905 -0.0759  0.2771  0.1097
 4444WAT     H118482   5.144   1.129   6.923  3.1367 -0.9330 -2.1422
 4444WAT     H218483   5.099   1.231   6.844 -0.8114 -0.3370  0.6240
 4444WAT    EPW18484   5.147   1.203   6.899  0.1707 -0.8366  0.2891
 4445WAT      O18485   4.780   2.734   6.158  0.2183  0.3022 -0.1342
 4445WAT     H118486   4.798   2.746   6.074  2.3732  0.2749  0.2672
 4445WAT     H218487   4.736   2.805   6.181 -0.4407  0.2825 -1.2786
 4445WAT    EPW18488   4.776   2.746   6.149  0.4429  0.8459  0.2402
 4446WAT      O18489   5.115   2.346   3.530 -0.3463  0.2697 -0.5320
 4446WAT     H118490   5.095   2.382   3.608 -0.1622 -0.9022  0.0797
 4446WAT     H218491   5.202   2.337   3.534 -0.2495  0.8363 -1.1748
 4446WAT    EPW18492   5.125   2.350   3.542 -0.0682 -0.1468  0.5026
 4447WAT      O18493   5.831   1.437   5.946  0.0629 -0.0291  0.4188
 4447WAT     H118494   5.748   1.464   5.950  0.0646 -0.1450  1.3970
 4447WAT     H218495   5.871   1.485   6.007  1.3591  2.1567 -1.9868
 4447WAT    EPW18496   5.824   1.448   5.956 -0.5171  0.4986  0.4811
 4448WAT      O18497   5.632   3.111   7.733 -0.1344  0.0944  0.4138
 4448WAT     H118498   5.634   3.141   7.815 -1.3335 -0.6715  0.7650
 4448WAT     H218499   5.686   3.043   7.735  0.0884  0.2747  0.4891
 4448WAT    EPW18500   5.640   3.105   7.745 -0.5520  0.7078 -0.3840
 4449WAT      O18501   5.772   4.301   6.569  0.3693  0.3661  0.3876
 4449WAT     H118502   5.724   4.363   6.532  0.9335  0.9535  0.6241
 4449WAT     H218503   5.828   4.345   6.619  0.3732 -0.3642  1.0416
 4449WAT    EPW18504   5.773   4.317   6.571  0.5801 -0.6295 -0.7121
 4450WAT      O18505   4.615   2.065   4.218  0.5361 -0.4725  0.5354
 4450WAT     H118506   4.568   2.138   4.207  2.3181  0.6169 -0.4158
 4450WAT     H218507   4.568   2.004   4.177 -0.1130  0.5366 -0.2775
 4450WAT    EPW18508   4.601   2.067   4.210 -0.4344  0.8148 -0.7866
 4451WAT      O18509   5.300   2.609   6.105  0.5488  0.4640 -0.5291
 4451WAT     H118510   5.251   2.544   6.075 -0.5737  1.1373 -0.2109
 4451WAT     H218511   5.246   2.678   6.105  1.1333  0.9784  0.9374
 4451WAT    EPW18512   5.285   2.610   6.101  0.0063 -1.1104  0.7995
 4452WAT      O18513   5.100   0.812   7.819 -0.0670 -0.0168 -0.5800
 4452WAT     H118514   5.157   0.779   7.876 -0.7448  0.3501  0.3376
 4452WAT     H218515   5.091   0.895   7.844 -4.0927 -0.9377  2.0854
 4452WAT    EPW18516   5.107   0.819   7.831  0.1472 -0.5695 -0.7210
 4453WAT      O18517   5.925   1.379   6.654  0.0440 -0.5781  0.2220
 4453WAT     H118518   5.921   1.465   6.667 -0.5610 -0.3374 -1.3192
 4453WAT     H218519   5.982   1.371   6.589  0.5919 -1.4162  0.7869
 4453WAT    EPW18520   5.933   1.391   6.646 -0.0690  0.3516  0.1587
 4454WAT      O18521   4.785   2.986   6.781  0.4242  0.3738 -0.5468
 4454WAT     H118522   4.842   3.052   6.777  1.4149 -0.5161 -3.2907
 4454WAT     H218523   4.719   3.011   6.731  0.0292 -0.0538 -0.2549
 4454WAT    EPW18524   4.784   2.999   6.773  0.4370 -0.6523  0.1981
 4455WAT      O18525   5.659   2.334   6.371 -0.2927 -0.4046  0.0475
 4455WAT     H118526   5.619   2.261   6.397 -0.0906 -0.6671 -0.3624
 4455WAT     H218527   5.593   2.390   6.359 -0.3933 -0.2779  1.0828
 4455WAT    EPW18528   5.643   2.332   6.373  0.3744  0.3639  0.4027
 4456WAT      O18529   3.885   3.366   6.181 -0.0162  0.1112 -0.1399
 4456WAT     H118530   3.853   3.410   6.113  1.0058  0.3946 -0.4430
 4456WAT     H218531   3.816   3.319   6.208 -0.9074  1.2535 -0.3116
 4456WAT    EPW18532   3.870   3.365   6.175  0.5667 -0.2721  0.4947
 4457WAT      O18533   3.507   0.814   6.105 -0.3222  0.2698  0.2935
 4457WAT     H118534   3.428   0.784   6.086  0.3138 -1.9720  0.8508
 4457WAT     H218535   3.544   0.749   6.149  0.4984  2.7100  3.6261
 4457WAT    EPW18536   3.501   0.800   6.109 -0.1149 -0.5774  0.2326
 4458WAT      O18537   3.707   2.269   5.518 -0.3402 -0.5344  0.9350
 4458WAT     H118538   3.635   2.224   5.497  0.8416 -2.2511  0.3285
 4458WAT     H218539   3.696   2.287   5.602 -1.4828 -0.7400  0.8498
 4458WAT    EPW18540   3.695   2.265   5.527  0.8231 -0.1109 -1.0207
 4459WAT      O18541   5.891   2.428   7.490 -0.2858  0.1253  0.1238
 4459WAT     H118542   5.969   2.394   7.473 -0.0435  0.5556  0.3371
 4459WAT     H218543   5.857   2.442   7.412 -0.0299  0.1918  0.0217
 4459WAT    EPW18544   5.898   2.425   7.476  0.1600  0.1098 -0.0048
 4460WAT      O18545   4.432   3.245   7.699  0.2259 -0.0376 -0.1653
 4460WAT     H118546   4.369   3.240   7.759 -0.3445 -0.1292 -0.7587
 4460WAT     H218547   4.495   3.290   7.739 -0.5784  0.8487  0.1373
 4460WAT    EPW18548   4.432   3.251   7.714  0.1630 -0.3975 -0.0522
 4461WAT      O18549   6.239   4.277   7.623  0.0438 -0.3141 -0.2371
 4461WAT     H118550   6.224   4.286   7.538  0.3154  1.4529 -0.1312
 4461WAT     H218551   6.163   4.296   7.660  0.4528  0.9765 -0.0200
 4461WAT    EPW18552   6.226   4.281   7.616  0.1318 -1.2217 -0.1067
 4462WAT      O18553   5.677   2.702   5.261 -0.5510 -0.4139 -0.1519
 4462WAT     H118554   5.742   2.643   5.255 -0.8327 -1.3029  3.2137
 4462WAT     H218555   5.607   2.652   5.274 -0.6070  0.4198  4.1779
 4462WAT    EPW18556   5.676   2.686   5.262 -0.6425 -0.5870  0.0856
 4463WAT      O18557   6.230   2.409   3.510  0.2452  0.5542 -0.2799
 4463WAT     H118558   6.311   2.382   3.493  0.8320  0.8832  1.6668
 4463WAT     H218559   6.235   2.435   3.594 -1.2894  2.8242 -0.8098
 4463WAT    EPW18560   6.243   2.408   3.520  0.6905  0.5089 -0.6341
 4464WAT      O18561   4.576   2.570   5.671 -0.1720 -0.3375 -0.1316
 4464WAT     H118562   4.598   2.636   5.724  1.8765  0.0592 -1.3583
 4464WAT     H218563   4.501   2.597   5.635 -1.3379 -0.3921  2.0789
 4464WAT    EPW18564   4.568   2.584   5.674 -0.4854 -0.2829  0.2839
 4465WAT      O18565   5.572   1.986   2.893 -0.1825 -0.1786  0.1967
 4465WAT     H118566   5.633   2.049   2.889  1.0990 -1.3949 -0.0444
 4465WAT     H218567   5.498   2.030   2.884  0.7414  1.1544 -1.5597
 4465WAT    EPW18568   5.570   2.002   2.891 -0.0944 -0.4364 -0.3748
 4466WAT      O18569   6.832   2.334   0.024  0.0212  0.4770 -0.0121
 4466WAT     H118570   6.897   2.371  -0.022 -2.2705 -0.0898 -4.1943
 4466WAT     H218571   6.852   2.249   0.024 -0.2034  0.4184 -0.4770
 4466WAT    EPW18572   6.845   2.327   0.017  0.4943  0.9277 -0.4518
 4467WAT      O18573   5.402   2.514   7.894 -0.1524  0.0258 -0.2621
 4467WAT     H118574   5.325   2.549   7.874 -0.9745 -1.6233 -0.1673
 4467WAT     H218575   5.443   2.507   7.818 -0.8241 -0.6932 -0.5679
 4467WAT    EPW18576   5.396   2.518   7.880  0.1459 -0.0313 -0.3490
 4468WAT      O18577   4.429   2.129   5.929  0.0532 -0.1220 -0.2097
 4468WAT     H118578   4.397   2.048   5.930  2.5613 -1.2254  1.4587
 4468WAT     H218579   4.509   2.119   5.895  0.5353  1.6075  0.3174
 4468WAT    EPW18580   4.436   2.116   5.924 -0.1135  0.1681  0.3341
 4469WAT      O18581   4.066   1.289   6.026 -0.9172  0.1027 -0.1240
 4469WAT     H118582   4.091   1.206   6.026 -1.8312 -0.2106  1.6831
 4469WAT     H218583   4.136   1.331   6.058 -1.4479 -0.3656  1.7608
 4469WAT    EPW18584   4.080   1.283   6.031 -0.5061  0.6983  0.1609
 4470WAT      O18585   4.496   2.098   4.601  0.3178  0.6671  0.0182
 4470WAT     H118586   4.412   2.121   4.608 -0.6116 -1.4940 -2.4009
 4470WAT     H218587   4.530   2.160   4.550 -0.1061  0.9279  0.0458
 4470WAT    EPW18588   4.489   2.111   4.595 -0.4118 -0.1117  0.2022
 4471WAT      O18589   5.505   3.256   6.749 -0.6106 -0.3051 -0.2256
 4471WAT     H118590   5.543   3.180   6.768 -0.6076  0.2088  2.2464
 4471WAT     H218591   5.549   3.284   6.679  3.2953 -0.0553  2.0246
 4471WAT    EPW18592   5.517   3.249   6.742 -0.0712  0.6725  0.5390
 4472WAT      O18593   4.710   3.627   6.143 -0.4220  0.2193  0.0254
 4472WAT     H118594   4.623   3.620   6.139 -0.3333 -3.2937  0.9700
 4472WAT     H218595   4.728   3.610   6.227  1.2161 -1.7588 -0.6240
 4472WAT    EPW18596   4.700   3.623   6.155  0.7348  0.1591  0.4583
 4473WAT      O18597   4.378   1.044   0.445  0.1660 -0.3812  0.2109
 4473WAT     H118598   4.356   0.980   0.500 -0.7412  0.8515  1.3224
 4473WAT     H218599   4.302   1.083   0.426  0.7847  0.8750  0.2084
 4473WAT    EPW18600   4.364   1.040   0.451  1.3926 -0.3242  0.2220
 4474WAT      O18601   5.895   3.323   7.209 -0.2753 -0.2171 -0.2935
 4474WAT     H118602   5.934   3.280   7.274 -1.3295  1.2880  1.4320
 4474WAT     H218603   5.956   3.381   7.184  0.1897 -0.9061 -0.8201
 4474WAT    EPW18604   5.910   3.326   7.215 -0.2608  0.5141 -0.2295
 4475WAT      O18605   4.618   1.606   4.748 -0.4063 -0.1983 -0.3217
 4475WAT     H118606   4.634   1.676   4.698  1.4086  0.6698  1.3356
 4475WAT     H218607   4.621   1.638   4.829  0.2861 -2.1711  0.4778
 4475WAT    EPW18608   4.621   1.621   4.752 -0.0821 -0.7351  0.1207
 4476WAT      O18609   6.698   2.553   4.154 -0.3447 -0.3062  0.5269
 4476WAT     H118610   6.664   2.585   4.228  0.3104  2.4631 -0.2535
 4476WAT     H218611   6.782   2.542   4.173 -0.0750  0.8954  0.0774
 4476WAT    EPW18612   6.705   2.556   4.168 -0.4280  0.1693 -0.9783
 4477WAT      O18613   5.504   3.168   5.165 -0.3526  0.2498 -0.3874
 4477WAT     H118614   5.532   3.224   5.103  0.2400  0.1869 -0.1859
 4477WAT     H218615   5.568   3.108   5.168 -1.3812 -0.9244 -1.2123
 4477WAT    EPW18616   5.518   3.167   5.156  0.2982 -0.3440  0.1080
 4478WAT      O18617   5.296   3.467   5.486  0.2914 -0.1033 -0.1527
 4478WAT     H118618   5.353   3.528   5.511 -1.1382  1.5384 -0.6818
 4478WAT     H218619   5.235   3.468   5.549  0.0289 -0.6922 -0.3819
 4478WAT    EPW18620   5.295   3.476   5.499  0.0370  0.0237  0.0682
 4479WAT      O18621   5.535   3.089   5.760  0.0051  0.3307  0.8198
 4479WAT     H118622   5.531   3.170   5.729 -1.5943 -0.3003 -0.7834
 4479WAT     H218623   5.614   3.085   5.797  0.0159  2.6711  1.1615
 4479WAT    EPW18624   5.546   3.100   5.761 -0.0589  1.3199 -0.8745
 4480WAT      O18625   6.608   3.261   0.104  0.4151 -0.2670 -0.1702
 4480WAT     H118626   6.599   3.271   0.018 -0.9501  0.4518  0.0303
 4480WAT     H218627   6.525   3.253   0.133  0.8050  0.1742  1.1432
 4480WAT    EPW18628   6.594   3.261   0.096 -0.1171 -0.1314 -0.0413
 4481WAT      O18629   4.163   2.117   6.475 -0.2785 -0.2796  0.2508
 4481WAT     H118630   4.232   2.086   6.432 -0.1891 -2.1996  1.6465
 4481WAT     H218631   4.164   2.071   6.549 -2.6688  0.1262  0.5851
 4481WAT    EPW18632   4.174   2.106   6.479  0.1435  0.7920 -1.1050
 4482WAT      O18633   4.854   2.968   1.069 -0.0796 -0.4891 -0.1818
 4482WAT     H118634   4.788   3.024   1.055 -0.1192 -0.4536  0.1389
 4482WAT     H218635   4.890   2.998   1.143  0.7918 -0.0261 -0.7657
 4482WAT    EPW18636   4.850   2.981   1.077 -0.3865  0.2764 -0.3948
 4483WAT      O18637   4.799   3.204   7.411  0.0628 -0.9216  0.4007
 4483WAT     H118638   4.878   3.181   7.438 -0.0370 -1.3505  0.3380
 4483WAT     H218639   4.769   3.132   7.370 -0.0648 -0.5253 -0.2263
 4483WAT    EPW18640   4.806   3.190   7.409 -0.2028 -0.9106 -0.5716
 4484WAT      O18641   5.850   4.527   4.984 -0.1904  0.2489  0.7777
 4484WAT     H118642   5.866   4.593   4.930  0.9074  0.0344  0.8279
 4484WAT     H218643   5.795   4.561   5.042  0.2274  1.0629  0.7026
 4484WAT    EPW18644   5.844   4.541   4.984 -0.8934  0.0963  0.2232
 4485WAT      O18645   7.133   4.201   7.614  0.3105 -0.0526  0.3063
 4485WAT     H118646   7.169   4.146   7.671 -0.1736 -0.3418  0.3435
 4485WAT     H218647   7.147   4.162   7.537  2.1116  0.9574  0.0542
 4485WAT    EPW18648   7.140   4.187   7.611  0.0393 -0.3759 -0.1051
 4486WAT      O18649   6.169   2.113   7.999  1.1715 -0.3798  0.2283
 4486WAT     H118650   6.093   2.138   8.034  1.8422  1.3974  0.5184
 4486WAT     H218651   6.160   2.027   7.988 -0.9626 -0.1679  0.0245
 4486WAT    EPW18652   6.157   2.104   8.003  0.7569  0.1061  0.2036
 4487WAT      O18653   4.018   2.608   0.051  0.4720 -0.4788  0.1164
 4487WAT     H118654   4.057   2.679   0.082  2.3737 -0.3371 -2.2998
 4487WAT     H218655   4.050   2.600  -0.029 -2.0035 -2.3570 -0.8274
 4487WAT    EPW18656   4.029   2.617   0.044 -0.1222  0.4461 -0.5241
 4488WAT      O18657   6.125   1.796   4.173 -0.1827 -0.1979 -0.4575
 4488WAT     H118658   6.193   1.799   4.119 -1.4055 -1.2226 -2.1525
 4488WAT     H218659   6.061   1.837   4.129 -1.0349 -0.4676  0.4907
 4488WAT    EPW18660   6.125   1.802   4.159  0.4269  0.3822 -0.4238
 4489WAT      O18661   4.212   0.585   6.263 -0.1569  0.4569 -0.3743
 4489WAT     H118662   4.250   0.508   6.252 -1.7642 -0.6291  1.1474
 4489WAT     H218663   4.237   0.631   6.193  1.3881 -1.1896 -0.9700
 4489WAT    EPW18664   4.222   0.581   6.251 -0.1166 -0.4886 -0.2268
 4490WAT      O18665   5.198   3.526   6.887 -0.7640 -0.0746  0.0877
 4490WAT     H118666   5.258   3.584   6.913 -0.1761  0.4774 -2.2325
 4490WAT     H218667   5.242   3.451   6.882 -0.0153  0.4328 -2.1243
 4490WAT    EPW18668   5.213   3.524   6.890 -0.1107 -1.0170 -0.3646
 4491WAT      O18669   6.333   2.224   0.446  0.3432  0.0310  0.2800
 4491WAT     H118670   6.359   2.201   0.366  1.3888 -0.4343  0.7311
 4491WAT     H218671   6.246   2.211   0.444  0.3670 -0.0694 -0.7389
 4491WAT    EPW18672   6.324   2.219   0.434 -1.1867 -0.6735 -0.1187
 4492WAT      O18673   4.837   0.749   7.536 -0.2993 -0.0225 -0.4488
 4492WAT     H118674   4.874   0.686   7.583 -0.2301  0.2426 -0.1508
 4492WAT     H218675   4.903   0.800   7.513 -0.5569  0.9528  0.8327
 4492WAT    EPW18676   4.852   0.747   7.539 -0.5529  0.4930 -0.4925
 4493WAT      O18677   6.583   0.372   4.706 -0.5417  0.1339 -0.3750
 4493WAT     H118678   6.525   0.416   4.754  1.3791  1.4332  0.8634
 4493WAT     H218679   6.592   0.297   4.749 -1.1164 -0.0007 -0.4722
 4493WAT    EPW18680   6.576   0.367   4.719 -0.5780  0.2655  0.0300
 4494WAT      O18681   5.106   1.008   5.947 -0.3448  0.3740 -0.3547
 4494WAT     H118682   5.067   0.950   5.999  0.4259 -2.0512 -2.2628
 4494WAT     H218683   5.164   1.047   5.998 -0.2050 -1.2862  0.8243
 4494WAT    EPW18684   5.109   1.005   5.962  0.2229  0.0405 -0.7557
 4495WAT      O18685   6.009   1.310   4.341 -0.3003 -0.2328 -0.1422
 4495WAT     H118686   5.923   1.318   4.352 -0.4110 -0.8108 -0.5138
 4495WAT     H218687   6.020   1.314   4.255  0.0671  0.0381 -0.0843
 4495WAT    EPW18688   5.998   1.312   4.330  1.4950  0.0366 -0.7227
 4496WAT      O18689   5.400   2.439   3.973  0.6934  0.9852 -0.3920
 4496WAT     H118690   5.323   2.469   4.003  1.8415  2.3169  1.3659
 4496WAT     H218691   5.382   2.355   3.953 -1.0192  1.0212  0.7465
 4496WAT    EPW18692   5.386   2.431   3.974  0.4545  0.0552  0.1440
 4497WAT      O18693   5.374   1.921   7.189  0.1777  0.4076 -0.0902
 4497WAT     H118694   5.446   1.892   7.150  1.3388  1.1473  1.3769
 4497WAT     H218695   5.310   1.873   7.154  1.8488 -3.8002  1.8992
 4497WAT    EPW18696   5.375   1.909   7.178  0.3367 -0.4050 -0.0206
 4498WAT      O18697   5.035   0.902   7.459 -1.0119  0.0379 -0.1869
 4498WAT     H118698   5.101   0.878   7.511 -1.3934 -0.5071  0.0457
 4498WAT     H218699   5.052   0.987   7.444 -1.4580  0.5053  1.6788
 4498WAT    EPW18700   5.047   0.911   7.465 -0.6113  0.1215  0.2666
 4499WAT      O18701   5.450   3.095   6.128 -0.1174 -0.4894 -0.3978
 4499WAT     H118702   5.526   3.059   6.105 -0.4984 -1.4256 -0.2384
 4499WAT     H218703   5.465   3.181   6.121  1.7298 -0.5177  2.0816
 4499WAT    EPW18704   5.463   3.103   6.123 -0.4819  1.0208  0.3732
 4500WAT      O18705   6.261   2.998   6.145 -0.2427 -0.4265  0.1404
 4500WAT     H118706   6.211   3.026   6.211  2.1973  1.6171  1.2531
 4500WAT     H218707   6.282   2.916   6.169 -2.7457 -1.2778 -0.2751
 4500WAT    EPW18708   6.257   2.990   6.158  0.2007 -0.8284 -0.4052
 4501WAT      O18709   5.564   2.365   4.808  0.1201  0.0746 -0.0180
 4501WAT     H118710   5.602   2.410   4.743  0.2496 -0.6464 -0.4565
 4501WAT     H218711   5.512   2.424   4.845  1.7743  1.1530  0.7301
 4501WAT    EPW18712   5.562   2.380   4.804 -0.2651 -0.6937  0.0097
 4502WAT      O18713   5.480   2.349   5.115  0.1329  0.0719  0.1672
 4502WAT     H118714   5.480   2.429   5.150 -0.6236  0.2314 -0.1893
 4502WAT     H218715   5.495   2.297   5.183  2.4684  0.6132  0.1476
 4502WAT    EPW18716   5.482   2.353   5.130  0.2956 -0.0341 -1.0495
 4503WAT      O18717   5.435   2.575   4.422 -0.2124 -0.2534  0.0580
 4503WAT     H118718   5.429   2.643   4.476 -0.3301 -1.1229  1.1728
 4503WAT     H218719   5.358   2.575   4.381 -0.2965  0.1567  0.2089
 4503WAT    EPW18720   5.422   2.585   4.424 -0.1279 -0.1475  0.6576
 4504WAT      O18721   4.359   1.232   6.859  0.1769 -0.2591 -0.2468
 4504WAT     H118722   4.325   1.187   6.793 -1.8363  1.4523 -0.4905
 4504WAT     H218723   4.344   1.181   6.929  2.1025 -1.9675 -0.9885
 4504WAT    EPW18724   4.352   1.218   6.860  0.0579 -0.0210 -0.8787
 4505WAT      O18725   5.816   3.081   7.107  0.0255 -0.4417 -0.1521
 4505WAT     H118726   5.865   3.053   7.041 -1.5670 -1.2926 -1.0401
 4505WAT     H218727   5.847   3.161   7.123  1.0290 -0.5603 -1.3222
 4505WAT    EPW18728   5.828   3.089   7.100 -0.1906 -0.0132 -0.4819
 4506WAT      O18729   6.204   3.876   0.733 -0.0998  0.3907  0.5323
 4506WAT     H118730   6.286   3.866   0.705 -0.4967 -0.6951 -0.3688
 4506WAT     H218731   6.163   3.807   0.698 -1.0746  0.0700  2.2248
 4506WAT    EPW18732   6.210   3.864   0.723  0.1501 -0.8400 -0.0741
 4507WAT      O18733   4.650   3.265   0.238  0.1372  0.3414 -0.3591
 4507WAT     H118734   4.633   3.350   0.248 -0.3707  0.0895  1.2133
 4507WAT     H218735   4.615   3.246   0.160 -2.1200  1.0321  0.4009
 4507WAT    EPW18736   4.642   3.274   0.228  0.6347 -0.0168 -0.7652
 4508WAT      O18737   5.798   1.491   3.910  0.4744  0.3194  0.2286
 4508WAT     H118738   5.775   1.497   3.994 -0.4638  2.0371 -0.1095
 4508WAT     H218739   5.884   1.475   3.913  0.7823  2.0398  1.5249
 4508WAT    EPW18740   5.807   1.489   3.923 -0.4726 -0.7276 -0.3254
 4509WAT      O18741   4.666   1.382   5.536 -0.5732 -0.2463  0.8822
 4509WAT     H118742   4.714   1.318   5.571  0.4561  0.0783  0.1400
 4509WAT     H218743   4.607   1.340   5.487 -1.5127 -0.6761  2.3361
 4509WAT    EPW18744   4.665   1.366   5.534 -0.4192  0.2225 -0.0131
 4510WAT      O18745   5.454   3.425   7.724 -0.4962  0.5521  0.8121
 4510WAT     H118746   5.498   3.419   7.649 -1.7492 -2.3642  0.1765
 4510WAT     H218747   5.416   3.503   7.720 -0.1165  0.6656 -1.3522
 4510WAT    EPW18748   5.455   3.436   7.713 -0.4274 -0.3325 -0.3374
 4511WAT      O18749   4.117   3.214   6.528 -0.0129 -0.3316  0.3557
 4511WAT     H118750   4.192   3.173   6.546  0.4145  0.3510  0.1727
 4511WAT     H218751   4.066   3.194   6.596  0.9856  0.7945  1.4839
 4511WAT    EPW18752   4.121   3.205   6.541 -0.1909  0.5197 -0.4266
 4512WAT      O18753   5.205   1.225   5.399  0.4713 -0.1451 -0.1773
 4512WAT     H118754   5.185   1.290   5.345  1.3463  1.3398  1.1783
 4512WAT     H218755   5.173   1.251   5.476  0.7674 -1.3603  0.3944
 4512WAT    EPW18756   5.197   1.238   5.403  0.8073  0.5404 -0.2236
 4513WAT      O18757   6.368   1.766   4.417  0.0091 -0.1992  0.1119
 4513WAT     H118758   6.401   1.691   4.389  1.4835  0.2027  0.7096
 4513WAT     H218759   6.285   1.746   4.436  0.3715 -1.6628  0.2550
 4513WAT    EPW18760   6.360   1.752   4.415  0.2084 -0.0859  0.0683
 4514WAT      O18761   5.114   3.515   5.825  0.3809  0.4062  0.5533
 4514WAT     H118762   5.111   3.590   5.780 -1.1339  1.0794  1.6965
 4514WAT     H218763   5.064   3.531   5.895  0.3483 -1.5462  1.0308
 4514WAT    EPW18764   5.106   3.529   5.828 -0.0245  0.0461  0.2561
 4515WAT      O18765   5.113   2.429   7.038 -0.4925 -0.3258  0.0190
 4515WAT     H118766   5.058   2.419   7.104 -1.6084  0.2543 -0.7897
 4515WAT     H218767   5.151   2.351   7.030 -0.3732 -0.4127  1.2963
 4515WAT    EPW18768   5.111   2.416   7.047  0.0378 -0.3111 -0.3525
 4516WAT      O18769   4.936   1.676   5.737 -0.3658  0.6858  0.6720
 4516WAT     H118770   4.891   1.660   5.664  0.0904  0.8244  0.3587
 4516WAT     H218771   5.009   1.714   5.709 -0.0737  0.5138  1.1801
 4516WAT    EPW18772   4.940   1.679   5.722  0.2298  0.4897  0.0529
 4517WAT      O18773   4.419   3.462   6.486 -0.1169  0.1502  0.1881
 4517WAT     H118774   4.445   3.543   6.466 -1.3273  1.0823  2.1660
 4517WAT     H218775   4.450   3.449   6.566  2.0356 -2.3170 -0.8830
 4517WAT    EPW18776   4.428   3.472   6.495 -0.5520  0.4139  0.3362
 4518WAT      O18777   5.131   2.108   5.110 -0.6325  0.3996 -0.5208
 4518WAT     H118778   5.070   2.073   5.059 -0.0212 -1.1614 -0.2348
 4518WAT     H218779   5.147   2.186   5.072 -2.4781  0.6708 -0.8096
 4518WAT    EPW18780   5.124   2.114   5.097  0.4759 -0.3566 -0.7434
 4519WAT      O18781   5.093   3.402   6.507  0.3819 -0.2264  0.0674
 4519WAT     H118782   5.166   3.355   6.516  1.8122  1.5248 -1.6041
 4519WAT     H218783   5.120   3.484   6.518 -0.9737  0.6075 -2.1197
 4519WAT    EPW18784   5.108   3.407   6.510  0.7917  0.3792 -0.1468
 4520WAT      O18785   3.941   1.979   5.077 -0.6389 -0.1557 -0.3271
 4520WAT     H118786   3.953   2.052   5.030  0.3593  0.4458  0.8254
 4520WAT     H218787   3.963   1.916   5.021  0.9390  0.5724 -0.5816
 4520WAT    EPW18788   3.946   1.981   5.062  0.1562 -0.1286 -0.8054
 4521WAT      O18789   6.004   3.781   3.824  0.7585 -0.3457  0.1321
 4521WAT     H118790   5.969   3.836   3.767 -0.4685  0.5546  1.6824
 4521WAT     H218791   5.944   3.718   3.831  2.2644 -2.1304 -1.8306
 4521WAT    EPW18792   5.990   3.780   3.817  0.3573 -0.9466  0.4360
 4522WAT      O18793   5.231   2.703   7.404 -0.2582 -0.1817 -0.6206
 4522WAT     H118794   5.306   2.710   7.449  0.2713 -0.1257 -1.4766
 4522WAT     H218795   5.252   2.647   7.340 -0.5247  0.8916 -1.6901
 4522WAT    EPW18796   5.245   2.696   7.401 -0.6847 -0.0281 -0.8737
 4523WAT      O18797   5.918   2.016   4.735  0.3135 -0.3759  0.5635
 4523WAT     H118798   5.844   2.037   4.693  0.9828 -1.5195 -1.3107
 4523WAT     H218799   5.892   1.955   4.791 -0.3216 -0.0833  0.5992
 4523WAT    EPW18800   5.903   2.010   4.737 -0.7915 -1.2675 -0.2050
 4524WAT      O18801   5.914   2.761   6.127  0.1824  0.4215 -0.0812
 4524WAT     H118802   5.861   2.694   6.142 -1.3776  1.9501  1.7352
 4524WAT     H218803   5.987   2.740   6.171  0.4077 -0.8646 -1.0436
 4524WAT    EPW18804   5.917   2.748   6.136  0.1795 -0.0470  0.1929
 4525WAT      O18805   4.896   2.285   6.712  0.1182  0.3329 -0.1595
 4525WAT     H118806   4.891   2.325   6.789 -0.4046 -1.1856  0.6357
 4525WAT     H218807   4.981   2.285   6.694  0.3902 -0.4736  1.0697
 4525WAT    EPW18808   4.908   2.291   6.721  0.2020  0.6985 -0.0702
 4526WAT      O18809   4.419   1.521   6.427 -0.3982  0.1699 -0.0080
 4526WAT     H118810   4.371   1.522   6.499 -0.6299 -1.3189 -0.1083
 4526WAT     H218811   4.426   1.605   6.405  2.3233  1.0620  3.4417
 4526WAT    EPW18812   4.413   1.533   6.434 -1.0619  0.1602  0.7163
 4527WAT      O18813   5.788   2.792   0.575  0.2146  0.3442 -0.3307
 4527WAT     H118814   5.706   2.768   0.559  0.4290 -1.0764  0.5236
 4527WAT     H218815   5.796   2.783   0.662  1.4790 -0.2555 -0.4853
 4527WAT    EPW18816   5.777   2.787   0.586  0.1362 -0.7507 -0.3816
 4528WAT      O18817   4.231   2.734   6.303 -0.0246  0.6267 -0.7257
 4528WAT     H118818   4.271   2.808   6.281  0.1450 -0.0639 -2.9151
 4528WAT     H218819   4.212   2.696   6.227 -1.0560 -1.1012  0.3055
 4528WAT    EPW18820   4.234   2.739   6.289 -0.0228 -0.1805 -0.3510
 4529WAT      O18821   4.750   2.976   7.246 -0.6074 -0.0280 -0.2648
 4529WAT     H118822   4.743   2.911   7.303  1.1767 -0.1630 -0.1596
 4529WAT     H218823   4.812   2.950   7.191  1.7338  2.3699  0.9895
 4529WAT    EPW18824   4.758   2.963   7.246 -0.7374 -0.8393  0.9239
 4530WAT      O18825   4.164   3.560   6.527  0.4034  0.1546  0.0842
 4530WAT     H118826   4.174   3.642   6.497  0.0060 -0.1869 -1.0050
 4530WAT     H218827   4.225   3.515   6.484 -1.6575 -0.7808 -2.0592
 4530WAT    EPW18828   4.174   3.566   6.517  0.1355 -0.2867  0.5205
 4531WAT      O18829   6.685   1.759   4.008 -0.1727 -0.2396 -0.2304
 4531WAT     H118830   6.656   1.780   3.929 -0.1441 -1.3019 -0.5431
 4531WAT     H218831   6.710   1.676   3.999  2.2770  0.3790  0.2240
 4531WAT    EPW18832   6.684   1.750   3.995 -0.8923 -0.3243  0.3892
 4532WAT      O18833   6.286   2.741   3.434  0.8637  0.5301 -0.0654
 4532WAT     H118834   6.291   2.656   3.450 -3.6050  0.2767  1.3157
 4532WAT     H218835   6.254   2.745   3.353 -0.0826  0.7725  0.3005
 4532WAT    EPW18836   6.282   2.729   3.424 -0.3330  0.1419  0.3263
 4533WAT      O18837   7.669   3.452   2.926  0.2768  0.7881 -0.4369
 4533WAT     H118838   7.727   3.516   2.939  0.4007  0.4112  0.9801
 4533WAT     H218839   7.649   3.460   2.841  1.7307  1.4705 -0.7413
 4533WAT    EPW18840   7.674   3.463   2.915  0.2597 -0.9206  0.6648
 4534WAT      O18841   6.489   1.567   3.546 -0.1771 -0.3607  0.4821
 4534WAT     H118842   6.508   1.534   3.468 -0.0267 -0.1303  0.4220
 4534WAT     H218843   6.548   1.630   3.557 -2.0284  1.6308 -0.4885
 4534WAT    EPW18844   6.500   1.571   3.536  0.1362 -1.2834 -0.4238
 4535WAT      O18845   6.084   1.569   1.942  0.2655 -0.0226 -0.1778
 4535WAT     H118846   6.164   1.602   1.931 -0.3257  2.1153  1.3405
 4535WAT     H218847   6.053   1.563   1.861  0.9784  1.8034 -0.6331
 4535WAT    EPW18848   6.091   1.573   1.928  0.2013 -0.2442  0.0193
 4536WAT      O18849   5.333   3.757   4.663  0.4821  0.5239  0.6235
 4536WAT     H118850   5.397   3.816   4.665 -0.5492  1.8015 -1.1305
 4536WAT     H218851   5.265   3.798   4.699  0.1429 -0.1289  0.7500
 4536WAT    EPW18852   5.332   3.772   4.669  0.6230 -0.0626  0.4514
 4537WAT      O18853   5.918   2.904   3.311  0.3402 -0.3184 -0.3740
 4537WAT     H118854   5.901   2.819   3.317  0.3619 -0.2546  0.8783
 4537WAT     H218855   5.971   2.920   3.379  1.0709  0.5277 -1.1029
 4537WAT    EPW18856   5.923   2.894   3.322  0.3983 -0.3930 -0.4551
 4538WAT      O18857   6.370   0.067   3.341 -0.3872  0.4117 -0.3693
 4538WAT     H118858   6.342   0.054   3.259  1.2947 -0.5119 -0.8553
 4538WAT     H218859   6.456   0.053   3.335  0.4632  4.1244  0.7608
 4538WAT    EPW18860   6.379   0.063   3.328  0.9495  0.5329 -0.3269
 4539WAT      O18861   5.228   3.296   4.954  0.4091  0.1190  0.5259
 4539WAT     H118862   5.252   3.251   5.025  1.0281 -0.6233 -0.1259
 4539WAT     H218863   5.141   3.295   4.957  0.4252 -0.3042  1.0274
 4539WAT    EPW18864   5.219   3.289   4.965  0.3298 -0.1837  0.0055
 4540WAT      O18865   6.007   2.804   2.956  0.2445 -0.6783  0.5933
 4540WAT     H118866   6.003   2.730   2.910  0.4211 -0.3500  0.0405
 4540WAT     H218867   6.049   2.859   2.903 -1.1950  0.2752  0.3771
 4540WAT    EPW18868   6.013   2.801   2.941  0.1399 -0.2213  0.2362
 4541WAT      O18869   4.886   2.247   3.210 -0.1215  0.3396 -0.6784
 4541WAT     H118870   4.895   2.328   3.242 -0.7863 -0.5068  1.7945
 4541WAT     H218871   4.966   2.213   3.218 -0.5885 -0.3688  1.7243
 4541WAT    EPW18872   4.899   2.254   3.216 -0.2082  0.3372  0.3611
 4542WAT      O18873   4.184   1.921   4.493 -0.1407  0.3997 -0.1071
 4542WAT     H118874   4.135   1.851   4.475 -0.4905 -0.0122  2.1338
 4542WAT     H218875   4.227   1.898   4.565  1.3470  1.7503 -0.5114
 4542WAT    EPW18876   4.183   1.908   4.501 -0.1356 -0.9958  0.2048
 4543WAT      O18877   6.309   3.551   4.511  0.0600 -0.0878 -0.0078
 4543WAT     H118878   6.330   3.571   4.428 -1.2983 -1.4952 -0.7336
 4543WAT     H218879   6.243   3.604   4.529  0.8623  0.7797  0.4975
 4543WAT    EPW18880   6.303   3.562   4.501  0.8697 -1.0571 -1.3029
 4544WAT      O18881   4.884   1.977   4.621 -0.0955  0.0255  0.1735
 4544WAT     H118882   4.818   1.920   4.627 -0.1069  0.1399  1.3378
 4544WAT     H218883   4.954   1.927   4.635 -0.0972  0.2605  1.0832
 4544WAT    EPW18884   4.885   1.961   4.624 -0.4955 -0.1722  0.4393
 4545WAT      O18885   6.160   2.258   3.143 -0.3099 -0.0416 -0.0472
 4545WAT     H118886   6.147   2.177   3.114 -0.2118  0.2706 -0.9912
 4545WAT     H218887   6.136   2.308   3.076 -1.0502  0.7394  0.7764
 4545WAT    EPW18888   6.155   2.253   3.129  0.2059 -0.5442 -0.4908
 4546WAT      O18889   6.419   2.308   3.910 -0.2311 -0.9793  0.2736
 4546WAT     H118890   6.345   2.345   3.935  0.3797  0.2794  0.2972
 4546WAT     H218891   6.398   2.223   3.901 -1.9023 -0.5143 -0.6863
 4546WAT    EPW18892   6.405   2.301   3.912 -0.3476 -0.4310 -0.6320
 4547WAT      O18893   6.775   1.886   4.756  0.0209  0.0125  0.2454
 4547WAT     H118894   6.719   1.893   4.823 -1.5000 -0.8316 -0.8612
 4547WAT     H218895   6.743   1.942   4.697  0.6248 -0.1348 -0.2277
 4547WAT    EPW18896   6.762   1.895   4.757  0.2189 -0.8628 -0.0241
 4548WAT      O18897   5.089   1.292   2.861  0.0479 -0.2312  0.2383
 4548WAT     H118898   5.075   1.323   2.781 -0.7595 -0.0414  0.4505
 4548WAT     H218899   5.016   1.311   2.904  0.3435 -0.6284  0.9329
 4548WAT    EPW18900   5.076   1.300   2.855  1.4978 -0.3832  0.0973
 4549WAT      O18901   6.227   0.370   4.572 -0.1985 -0.5074 -0.1241
 4549WAT     H118902   6.301   0.337   4.541 -1.0240 -1.8641 -0.7099
 4549WAT     H218903   6.183   0.393   4.501 -0.9598 -1.1074  0.1332
 4549WAT    EPW18904   6.232   0.369   4.557  0.3990  1.0777  0.1617
 4550WAT      O18905   4.950   1.759   4.040  0.0660  0.0009 -0.6256
 4550WAT     H118906   4.927   1.838   4.012 -0.0876  1.2474  2.6242
 4550WAT     H218907   5.001   1.775   4.108 -1.1149 -2.6353  1.0573
 4550WAT    EPW18908   4.954   1.773   4.046  0.1291  0.3119 -1.6361
 4551WAT      O18909   7.021   0.630   2.201 -0.1545  0.2250 -0.2949
 4551WAT     H118910   6.979   0.690   2.247  0.3924  0.1068  0.3837
 4551WAT     H218911   6.979   0.556   2.221  0.1348  0.1615  0.0882
 4551WAT    EPW18912   7.009   0.628   2.211 -0.8138 -0.3724  0.1515
 4552WAT      O18913   4.572   2.462   3.337 -0.4127 -0.0729  0.3870
 4552WAT     H118914   4.641   2.482   3.387  0.1745 -0.2083 -0.3448
 4552WAT     H218915   4.566   2.375   3.345 -0.1455 -0.1289  0.0173
 4552WAT    EPW18916   4.581   2.452   3.345  0.2967 -0.2479  0.4121
 4553WAT      O18917   5.639   1.791   3.786 -0.1732 -0.2381  0.2998
 4553WAT     H118918   5.619   1.819   3.705  0.3845 -0.4388  0.0875
 4553WAT     H218919   5.631   1.704   3.780 -0.1085 -0.2540  0.4509
 4553WAT    EPW18920   5.635   1.782   3.773  0.3200  0.6249  0.5741
 4554WAT      O18921   6.804   2.990   3.824 -0.3365 -0.5022  0.0977
 4554WAT     H118922   6.805   3.074   3.845 -1.9078 -0.5831  0.6425
 4554WAT     H218923   6.854   2.986   3.753  0.5864  0.7058  0.6524
 4554WAT    EPW18924   6.811   3.001   3.816  0.2081 -0.3251  0.3357
 4555WAT      O18925   7.703   2.681   3.642  0.2781  0.6053 -0.1309
 4555WAT     H118926   7.717   2.767   3.648  2.0331  0.2810  1.0725
 4555WAT     H218927   7.656   2.673   3.569  0.4333  2.5355 -0.4909
 4555WAT    EPW18928   7.698   2.692   3.632 -0.9583 -0.2147 -0.2152
 4556WAT      O18929   5.779   2.085   5.074 -0.3803 -0.4772 -0.4688
 4556WAT     H118930   5.816   2.090   5.153  0.5816 -0.0640 -0.9269
 4556WAT     H218931   5.822   2.018   5.036 -1.0356 -0.8647 -0.5481
 4556WAT    EPW18932   5.791   2.076   5.080 -0.1130  0.6282  0.3835
 4557WAT      O18933   5.696   1.316   4.370  0.4437  0.2494  0.3081
 4557WAT     H118934   5.681   1.367   4.439  0.2101 -0.1855  0.5767
 4557WAT     H218935   5.677   1.368   4.302 -3.2944 -0.5025  0.5794
 4557WAT    EPW18936   5.691   1.331   4.370  0.2958 -0.0018  0.2746
 4558WAT      O18937   7.140   0.402   3.520  0.0358  0.3647  0.1073
 4558WAT     H118938   7.178   0.445   3.454  1.3968 -0.4839  0.2764
 4558WAT     H218939   7.084   0.348   3.480 -0.3429  1.0051 -0.2290
 4558WAT    EPW18940   7.138   0.400   3.504 -0.1674 -0.7023 -0.9168
 4559WAT      O18941   5.840   2.693   3.627 -0.0633 -0.3369  0.4637
 4559WAT     H118942   5.927   2.696   3.615  0.0565 -1.0698  1.0723
 4559WAT     H218943   5.825   2.609   3.645 -0.6951  0.0461  1.8200
 4559WAT    EPW18944   5.851   2.681   3.627 -0.2681  0.1743  0.4153
 4560WAT      O18945   4.319   2.070   3.840 -0.0650  0.4185  0.5657
 4560WAT     H118946   4.272   2.065   3.914  2.3749  0.6397  2.2389
 4560WAT     H218947   4.401   2.078   3.869  1.1407 -0.8964 -2.1999
 4560WAT    EPW18948   4.324   2.071   3.855 -0.0797  0.4480  0.5593
 4561WAT      O18949   5.774   2.877   3.081  0.1176 -0.7175 -0.6899
 4561WAT     H118950   5.792   2.900   3.163  0.1778 -0.7986 -0.6803
 4561WAT     H218951   5.853   2.861   3.046  0.2103  0.5913 -1.1381
 4561WAT    EPW18952   5.788   2.878   3.088 -0.7752 -0.1594 -0.3217
 4562WAT      O18953   5.296   3.088   3.811 -0.9399 -0.1368  0.0290
 4562WAT     H118954   5.295   3.008   3.776 -0.0993  0.2085 -0.8200
 4562WAT     H218955   5.218   3.120   3.790 -0.2355  0.3006 -2.1596
 4562WAT    EPW18956   5.285   3.081   3.803 -1.1462  0.8552 -0.1450
 4563WAT      O18957   4.873   1.543   4.196  0.0584  0.0391 -0.0018
 4563WAT     H118958   4.889   1.613   4.148 -0.1165  0.0592 -0.0329
 4563WAT     H218959   4.946   1.496   4.190  0.2060  0.2531  0.0812
 4563WAT    EPW18960   4.886   1.546   4.188  0.8091 -0.4554  1.2601
 4564WAT      O18961   6.913   2.850   2.921 -0.1981 -0.2536 -0.0591
 4564WAT     H118962   6.927   2.798   2.853  0.0347  0.7355 -0.7917
 4564WAT     H218963   6.830   2.877   2.910 -0.8795 -1.6935  1.1983
 4564WAT    EPW18964   6.903   2.846   2.910  0.0676  0.4864 -0.1367
 4565WAT      O18965   7.937   1.160   2.541  0.6405  0.0577 -0.4232
 4565WAT     H118966   7.862   1.204   2.529 -0.6979 -2.0234 -0.1116
 4565WAT     H218967   7.918   1.103   2.603  2.4750 -0.6287 -0.4379
 4565WAT    EPW18968   7.923   1.158   2.548 -1.0996  0.4300  0.1104
 4566WAT      O18969   7.019   3.040   3.096  0.1705 -0.6425 -0.2378
 4566WAT     H118970   6.996   2.999   3.023  0.0225 -0.7393 -0.1353
 4566WAT     H218971   6.981   2.995   3.159 -0.5501  0.0401 -0.1685
 4566WAT    EPW18972   7.010   3.028   3.094  0.2111 -0.0235 -0.3541
 4567WAT      O18973   6.151   3.392   5.050 -0.2123 -0.2986 -0.6297
 4567WAT     H118974   6.201   3.401   4.980  0.1931  0.6612 -0.2372
 4567WAT     H218975   6.122   3.310   5.045 -0.6052 -0.0875 -2.1744
 4567WAT    EPW18976   6.154   3.381   5.039 -0.3360 -0.5100 -0.1846
 4568WAT      O18977   4.987   1.609   3.807  0.1530  0.3486  0.3856
 4568WAT     H118978   4.922   1.553   3.793  0.0672  0.6322 -0.3944
 4568WAT     H218979   4.963   1.651   3.879 -0.4623  0.3546  0.1815
 4568WAT    EPW18980   4.974   1.607   3.815  0.2183 -0.9088 -0.3987
 4569WAT      O18981   6.890   3.498   4.363 -0.6264  0.0643  0.6260
 4569WAT     H118982   6.922   3.519   4.442 -2.0132  1.6902  0.8189
 4569WAT     H218983   6.821   3.550   4.355 -0.0985  0.4724 -1.9956
 4569WAT    EPW18984   6.885   3.509   4.374 -0.1429 -0.7635  0.5782
 4570WAT      O18985   7.276   2.022   3.897 -0.4267 -0.1421  0.0288
 4570WAT     H118986   7.269   2.076   3.828  2.0534  0.6660  0.3165
 4570WAT     H218987   7.202   1.977   3.894 -1.5956  1.6849 -1.6060
 4570WAT    EPW18988   7.264   2.024   3.886 -0.0923  0.5244 -0.2180
 4571WAT      O18989   5.696   1.633   3.459 -0.7210  0.9492  0.1918
 4571WAT     H118990   5.635   1.695   3.465 -0.5884  1.1403 -0.3744
 4571WAT     H218991   5.771   1.678   3.459 -0.6626  0.9269 -1.7276
 4571WAT    EPW18992   5.698   1.649   3.460  0.3404  0.6392 -0.4107
 4572WAT      O18993   3.977   1.246   2.751  0.1124  0.3842  0.3213
 4572WAT     H118994   3.992   1.176   2.801  0.0671  0.5983  0.6365
 4572WAT     H218995   3.979   1.214   2.669  0.3686  0.0677  0.4504
 4572WAT    EPW18996   3.979   1.231   2.746 -0.5116  0.4423  0.2233
 4573WAT      O18997   5.351   3.553   4.859  0.4349 -0.1529 -0.6279
 4573WAT     H118998   5.271   3.535   4.889  0.2819 -0.1314 -1.0140
 4573WAT     H218999   5.337   3.619   4.804  0.9553  0.9838  0.5643
 4573WAT    EPW19000   5.337   3.560   4.855  1.2086 -0.0816  0.0108
 4574WAT      O19001   7.441   1.296   2.775 -1.0414  0.1513  0.6593
 4574WAT     H119002   7.417   1.356   2.833 -0.0560  0.2281  1.0063
 4574WAT     H219003   7.433   1.221   2.818 -0.4840  0.1940  0.8475
 4574WAT    EPW19004   7.437   1.294   2.790 -0.5993 -0.4484  0.7291
 4575WAT      O19005   5.843   4.785   2.899 -0.1163 -0.3984  0.2024
 4575WAT     H119006   5.791   4.736   2.949  1.1504 -0.5920  1.4222
 4575WAT     H219007   5.860   4.734   2.830  0.2465 -1.2508  0.8914
 4575WAT    EPW19008   5.838   4.770   2.896 -0.1783  0.0215 -0.2043
 4576WAT      O19009   6.219   1.338   3.311 -0.0333 -0.6677 -0.4448
 4576WAT     H119010   6.150   1.307   3.268 -0.0976 -1.7175  0.3948
 4576WAT     H219011   6.265   1.380   3.249 -0.2683 -1.8915 -1.4826
 4576WAT    EPW19012   6.216   1.340   3.295 -0.5373  0.0421  0.7860
 4577WAT      O19013   5.544   2.850   3.553  0.1565  0.0990  0.1964
 4577WAT     H119014   5.561   2.873   3.470 -0.9629  1.0784  0.2146
 4577WAT     H219015   5.561   2.923   3.598 -1.4979  0.3443  0.5050
 4577WAT    EPW19016   5.549   2.864   3.547 -0.3639  0.4620  0.0690
 4578WAT      O19017   5.508   7.842   2.867 -0.1796  0.3011  0.3414
 4578WAT     H119018   5.520   7.926   2.885 -0.5067  0.5744 -0.6302
 4578WAT     H219019   5.478   7.808   2.941 -0.0674  1.0455  0.7292
 4578WAT    EPW19020   5.506   7.849   2.880 -0.1715 -0.0505 -0.0179
 4579WAT      O19021   7.190   2.956   3.556 -0.4977 -0.0565 -0.4519
 4579WAT     H119022   7.214   2.932   3.475 -0.1661 -2.7486  0.3385
 4579WAT     H219023   7.212   3.040   3.560 -1.0856  0.3405 -3.3529
 4579WAT    EPW19024   7.197   2.965   3.545  0.0567 -0.6513 -0.7331
 4580WAT      O19025   4.459   2.651   5.018  0.2738  0.3021 -0.5583
 4580WAT     H119026   4.535   2.656   5.060  1.8655 -1.3991 -3.0011
 4580WAT     H219027   4.436   2.567   5.025 -0.3018  0.3491 -1.5886
 4580WAT    EPW19028   4.467   2.639   5.025  1.3104 -0.4596 -0.0215
 4581WAT      O19029   5.009   1.886   3.038 -0.0333  0.8405  0.0204
 4581WAT     H119030   4.952   1.847   3.092  0.2569  0.8838  0.3610
 4581WAT     H219031   5.027   1.825   2.979 -0.3331  0.7829 -0.0130
 4581WAT    EPW19032   5.003   1.871   3.037  0.8992 -0.3176  0.1789
 4582WAT      O19033   5.989   1.259   3.185  0.8082 -0.0737  0.1161
 4582WAT     H119034   5.921   1.205   3.176 -1.2603  1.8287  2.6224
 4582WAT     H219035   5.974   1.322   3.127  1.9955 -0.9906 -1.2354
 4582WAT    EPW19036   5.977   1.260   3.175 -0.0544  0.0379  0.6726
 4583WAT      O19037   5.770   1.746   4.636  0.5511 -0.2025 -0.0955
 4583WAT     H119038   5.842   1.738   4.683  0.6692 -0.8826 -0.3786
 4583WAT     H219039   5.741   1.825   4.656  0.2944 -0.6768  1.5298
 4583WAT    EPW19040   5.776   1.756   4.646  0.1571  0.6447 -1.3490
 4584WAT      O19041   5.983   3.104   4.160 -0.2634  0.8541  0.4449
 4584WAT     H119042   5.939   3.128   4.089 -0.5232  0.2977  0.4112
 4584WAT     H219043   5.936   3.136   4.226 -0.7589  0.2177  0.4107
 4584WAT    EPW19044   5.970   3.112   4.160  0.0460  0.1562  0.5084
 4585WAT      O19045   7.210   3.516   3.338  0.3538 -0.7552  0.4592
 4585WAT     H119046   7.253   3.585   3.306  1.9449 -2.1024 -0.4761
 4585WAT     H219047   7.244   3.449   3.294  0.6735 -2.4448  3.0974
 4585WAT    EPW19048   7.222   3.516   3.327 -0.9661  0.4990 -0.4426
 4586WAT      O19049   5.684   0.441   3.552  0.3498 -0.1637  0.1413
 4586WAT     H119050   5.660   0.360   3.574  1.0266 -0.8374 -1.4173
 4586WAT     H219051   5.685   0.439   3.465 -0.5795  1.8368  0.0229
 4586WAT    EPW19052   5.681   0.429   3.542  0.3137 -0.0076  0.4732
 4587WAT      O19053   6.112   3.924   4.769 -0.3691 -0.0710  0.3923
 4587WAT     H119054   6.133   4.005   4.793  0.2905 -0.1284  0.0151
 4587WAT     H219055   6.178   3.899   4.718 -0.8329 -0.6490  0.0607
 4587WAT    EPW19056   6.125   3.932   4.765  0.1263  0.0076  0.5267
 4588WAT      O19057   5.936   1.593   3.622  0.2351  0.6213  0.1807
 4588WAT     H119058   6.012   1.606   3.580  0.5648  0.8435  0.8317
 4588WAT     H219059   5.947   1.636   3.697 -0.5470  0.6608  0.2737
 4588WAT    EPW19060   5.949   1.601   3.627 -0.3404 -0.3106 -0.4873
 4589WAT      O19061   4.085   2.517   3.879  0.3388  0.1422  0.1581
 4589WAT     H119062   4.012   2.516   3.832  1.3153 -0.8430 -1.4187
 4589WAT     H219063   4.143   2.476   3.828  1.7639  0.0927  1.7393
 4589WAT    EPW19064   4.083   2.511   3.865 -0.2237  0.5170 -0.0135
 4590WAT      O19065   6.249   3.242   2.732 -0.2286  0.0904 -0.5929
 4590WAT     H119066   6.319   3.194   2.711  1.1130  2.2177 -1.3122
 4590WAT     H219067   6.283   3.306   2.780 -2.1676 -0.4294  1.6388
 4590WAT    EPW19068   6.265   3.244   2.736  0.2767  1.1011  0.1309
 4591WAT      O19069   5.874   1.540   3.177 -0.3920  0.3363 -0.2886
 4591WAT     H119070   5.897   1.600   3.118 -1.8541  0.9630 -0.2464
 4591WAT     H219071   5.788   1.550   3.185 -0.2271  0.4660  2.1556
 4591WAT    EPW19072   5.865   1.551   3.170 -0.1590  0.8053  0.9513
 4592WAT      O19073   5.703   2.470   3.740  0.0193  0.1482 -0.3579
 4592WAT     H119074   5.726   2.422   3.809 -1.1641 -1.5408 -1.0944
 4592WAT     H219075   5.715   2.417   3.672 -1.6764  0.7561 -1.1706
 4592WAT    EPW19076   5.708   2.455   3.740  0.1279 -0.5613  0.0008
 4593WAT      O19077   5.382   2.194   2.864  0.2555  0.2978 -0.0733
 4593WAT     H119078   5.389   2.219   2.948 -0.4634 -0.0992  0.1117
 4593WAT     H219079   5.460   2.215   2.830  1.0143 -0.6640  0.9847
 4593WAT    EPW19080   5.395   2.201   2.872  0.0188 -0.7299 -0.1293
 4594WAT      O19081   5.264   2.891   4.385 -0.2289  0.2136  0.0284
 4594WAT     H119082   5.211   2.822   4.381  0.9056 -0.6459 -1.2456
 4594WAT     H219083   5.303   2.891   4.307  2.0052  0.4838  1.0441
 4594WAT    EPW19084   5.262   2.881   4.373 -0.1430 -0.3415 -1.2122
 4595WAT      O19085   5.825   1.653   4.395  0.2022  0.2870  0.3824
 4595WAT     H119086   5.800   1.696   4.466 -0.0278  1.3345 -0.3162
 4595WAT     H219087   5.911   1.665   4.393  0.0012  1.8390 -0.4929
 4595WAT    EPW19088   5.834   1.661   4.405  0.3712 -0.0193  0.0415
 4596WAT      O19089   6.981   2.421   2.936 -0.1579 -0.5871 -0.2697
 4596WAT     H119090   6.942   2.373   2.997 -0.9665  1.0462  0.5723
 4596WAT     H219091   7.062   2.432   2.966 -0.4343 -0.1337  0.3329
 4596WAT    EPW19092   6.987   2.416   2.949  0.4576 -0.6567  0.8699
 4597WAT      O19093   6.921   2.449   2.654 -0.1491  0.6121 -0.0231
 4597WAT     H119094   6.864   2.513   2.633 -1.4640 -0.4490  0.1840
 4597WAT     H219095   6.922   2.450   2.741  1.4099  1.6593 -0.0127
 4597WAT    EPW19096   6.913   2.459   2.664  0.4846 -0.6495  0.4451
 4598WAT      O19097   4.992   2.466   3.329 -0.2610  0.2112 -0.4370
 4598WAT     H119098   4.915   2.483   3.367 -0.7728 -1.9075 -0.3828
 4598WAT     H219099   5.042   2.442   3.396  0.1796  0.7026 -0.5885
 4598WAT    EPW19100   4.988   2.465   3.344 -0.2255 -1.2611  0.2147
 4599WAT      O19101   5.423   1.337   3.798 -0.0428  0.0006 -0.0543
 4599WAT     H119102   5.356   1.380   3.833 -0.5303 -1.3071  0.7131
 4599WAT     H219103   5.466   1.398   3.753 -0.1137  1.5164  1.7787
 4599WAT    EPW19104   5.420   1.352   3.797 -0.5653 -0.2319 -0.0453
 4600WAT      O19105   6.074   2.959   3.550 -0.4432  0.2109  0.3136
 4600WAT     H119106   6.095   2.889   3.598 -0.5397 -0.5639 -0.7551
 4600WAT     H219107   6.049   3.018   3.610 -0.9014 -0.8528  1.1949
 4600WAT    EPW19108   6.073   2.958   3.566  0.1902 -0.7462  0.6124
 4601WAT      O19109   6.484   1.961   3.414 -0.0946 -0.0832  0.3232
 4601WAT     H119110   6.471   2.037   3.454  0.5526  0.2987 -0.1530
 4601WAT     H219111   6.406   1.941   3.380 -0.0099  0.9572 -0.5226
 4601WAT    EPW19112   6.471   1.969   3.415 -0.0067  0.1396  0.4441
 4602WAT      O19113   6.002   1.072   4.109  0.0995  0.2626  0.1674
 4602WAT     H119114   5.919   1.072   4.136 -0.0515 -1.3388 -0.1481
 4602WAT     H219115   6.009   0.996   4.067  1.8789  0.1163  0.6452
 4602WAT    EPW19116   5.991   1.061   4.107 -0.3579  0.3931  0.7704
 4603WAT      O19117   6.269   2.703   4.025 -0.1635  0.1205  0.0615
 4603WAT     H119118   6.310   2.628   4.045 -0.0710  0.2118  0.2202
 4603WAT     H219119   6.187   2.687   4.048  0.0262  0.3817  0.9699
 4603WAT    EPW19120   6.263   2.689   4.031 -0.2842 -0.1610  0.5451
 4604WAT      O19121   5.607   1.578   3.201 -0.1061  0.0064 -0.0354
 4604WAT     H119122   5.594   1.664   3.194 -2.9923 -0.2695  0.8465
 4604WAT     H219123   5.610   1.565   3.288 -3.7379 -1.1322  0.0825
 4604WAT    EPW19124   5.606   1.589   3.213 -0.7562 -1.0303 -0.6695
 4605WAT      O19125   5.276   2.087   5.337 -0.6828 -0.1338 -0.3712
 4605WAT     H119126   5.234   2.072   5.262 -2.8290  0.0128  0.7288
 4605WAT     H219127   5.239   2.160   5.367  1.2813  0.7271  0.0774
 4605WAT    EPW19128   5.264   2.095   5.331  0.0260 -0.3244 -0.6258
 4606WAT      O19129   5.411   2.994   2.924  0.8970 -0.0782  0.5104
 4606WAT     H119130   5.390   2.944   2.992  1.6072  0.8902  1.4795
 4606WAT     H219131   5.376   3.071   2.944 -1.4876 -0.4670 -1.6501
 4606WAT    EPW19132   5.403   2.998   2.937  0.2582  0.2258 -0.0882
 4607WAT      O19133   5.306   1.326   3.214 -0.2036 -0.5886  0.8150
 4607WAT     H119134   5.381   1.325   3.170  0.0658 -2.4321  1.2308
 4607WAT     H219135   5.277   1.408   3.204 -1.3759 -1.3365 -4.7424
 4607WAT    EPW19136   5.313   1.338   3.206 -0.0473  0.1162 -0.0807
 4608WAT      O19137   5.258   1.527   2.880  0.3422 -0.0158 -0.0701
 4608WAT     H119138   5.223   1.449   2.866 -0.2330  0.2866 -0.3423
 4608WAT     H219139   5.207   1.582   2.834 -0.1725  0.7083  1.3086
 4608WAT    EPW19140   5.245   1.524   2.871 -0.2223  0.2194 -0.8565
 4609WAT      O19141   7.505   3.270   3.402  0.8746  0.3040 -0.8288
 4609WAT     H119142   7.573   3.264   3.455 -0.1706 -2.3059  0.4073
 4609WAT     H219143   7.436   3.261   3.455 -0.2514 -1.2433 -2.4135
 4609WAT    EPW19144   7.505   3.268   3.418  1.0121 -0.6662  0.2534
 4610WAT      O19145   5.381   3.188   3.575  0.0319  0.3343 -0.0788
 4610WAT     H119146   5.357   3.162   3.655 -1.4168 -0.6071 -0.7800
 4610WAT     H219147   5.468   3.184   3.577  0.0106  0.1084  1.3784
 4610WAT    EPW19148   5.390   3.184   3.587  0.2762 -0.1453  0.1920
 4611WAT      O19149   4.898   1.565   4.690  0.4479  0.6004 -0.6818
 4611WAT     H119150   4.812   1.563   4.701  0.3631 -4.1270 -0.2896
 4611WAT     H219151   4.909   1.604   4.613 -2.0269  0.8771 -0.9576
 4611WAT    EPW19152   4.887   1.571   4.680  0.1203  0.5877  0.1937
 4612WAT      O19153   5.341   3.208   4.491  0.1287  0.3782 -0.0004
 4612WAT     H119154   5.270   3.171   4.526 -0.8503  0.9842 -1.2251
 4612WAT     H219155   5.389   3.230   4.560 -0.6197 -0.5236  0.8519
 4612WAT    EPW19156   5.337   3.206   4.506  1.0188 -1.1411 -0.0135
 4613WAT      O19157   5.269   2.270   4.219 -0.1403 -0.4886 -0.6561
 4613WAT     H119158   5.221   2.226   4.276  0.3186  1.6300  1.5133
 4613WAT     H219159   5.211   2.320   4.178 -0.0809  0.7060  0.6496
 4613WAT    EPW19160   5.253   2.271   4.221 -0.3653 -0.6786  0.1169
 4614WAT      O19161   7.409   0.895   3.935  0.1219  0.1701 -0.0445
 4614WAT     H119162   7.446   0.972   3.954  3.1719 -0.8912 -1.0193
 4614WAT     H219163   7.370   0.909   3.858  0.0012  0.9027  0.1420
 4614WAT    EPW19164   7.409   0.908   3.927 -0.2320  0.5122 -0.4448
 4615WAT      O19165   6.209   3.561   4.007  0.1817  0.0293  0.4429
 4615WAT     H119166   6.134   3.517   4.012  0.0096  0.3972  1.4452
 4615WAT     H219167   6.187   3.636   3.969  0.4541 -0.6679 -1.1607
 4615WAT    EPW19168   6.195   3.566   4.002 -0.1214 -0.2526 -0.1825
 4616WAT      O19169   5.476   0.623   3.685 -0.1495  0.4956 -0.3492
 4616WAT     H119170   5.527   0.680   3.726 -1.2927  0.7438  0.8004
 4616WAT     H219171   5.531   0.560   3.660  0.9669  1.5625 -0.6932
 4616WAT    EPW19172   5.492   0.622   3.687 -0.5284 -0.7442  0.5205
 4617WAT      O19173   5.728   1.499   4.168 -0.2426  0.4579 -0.0931
 4617WAT     H119174   5.652   1.540   4.161 -1.5059 -1.0998  2.6357
 4617WAT     H219175   5.770   1.544   4.230 -0.4137 -0.6010  0.8265
 4617WAT    EPW19176   5.723   1.512   4.176 -0.3275 -0.0319  0.2365
 4618WAT      O19177   4.249   2.202   4.703 -0.3346  0.8923  0.1756
 4618WAT     H119178   4.244   2.267   4.761  0.7312  2.3928 -1.3034
 4618WAT     H219179   4.205   2.233   4.634 -0.9314 -0.5240 -0.1107
 4618WAT    EPW19180   4.242   2.216   4.701 -0.0907  1.0035  0.3442
 4619WAT      O19181   6.202   2.243   4.313  0.0243  0.5799  1.0118
 4619WAT     H119182   6.240   2.165   4.303 -1.1551  0.1370 -0.2949
 4619WAT     H219183   6.159   2.235   4.388  0.5047  0.2411  1.2590
 4619WAT    EPW19184   6.201   2.230   4.323  0.7163 -1.2945  0.3255
 4620WAT      O19185   6.052   2.457   3.306 -0.7942 -0.2567  0.2954
 4620WAT     H119186   6.112   2.464   3.368 -0.8397 -0.7163  0.4000
 4620WAT     H219187   6.078   2.388   3.260 -0.4659  0.4025 -0.5327
 4620WAT    EPW19188   6.065   2.448   3.308  0.1475 -0.1027 -0.3998
 4621WAT      O19189   6.061   1.703   2.687  0.0559  0.4487 -0.4539
 4621WAT     H119190   6.148   1.706   2.679  0.1821  2.4654  1.0139
 4621WAT     H219191   6.035   1.683   2.606  1.8963 -2.4051 -0.4982
 4621WAT    EPW19192   6.070   1.701   2.674  0.3136  0.6861  0.1117
 4622WAT      O19193   5.155   3.460   2.650 -0.4832 -0.1532 -0.4550
 4622WAT     H119194   5.178   3.466   2.734  0.7462  0.0292 -0.7800
 4622WAT     H219195   5.075   3.425   2.653  0.1012 -1.5049  0.7382
 4622WAT    EPW19196   5.147   3.456   2.663 -0.2589 -0.2374 -0.8710
 4623WAT      O19197   7.180   2.279   4.153 -0.3166  0.1583 -0.0885
 4623WAT     H119198   7.126   2.218   4.185 -0.2156  0.6132  0.9537
 4623WAT     H219199   7.255   2.265   4.195 -0.6390  1.7640  1.0621
 4623WAT    EPW19200   7.183   2.268   4.164  0.5696  0.1349 -0.1216
 4624WAT      O19201   7.441   2.924   2.890 -0.7289 -0.5017  0.1666
 4624WAT     H119202   7.455   2.995   2.842 -1.7772 -0.6032 -0.3352
 4624WAT     H219203   7.509   2.873   2.873 -0.2573  0.1531  0.0820
 4624WAT    EPW19204   7.453   2.927   2.880 -0.3369  0.1937  0.3905
 4625WAT      O19205   6.927   2.033   3.325 -0.3545 -0.1173 -0.0782
 4625WAT     H119206   6.953   2.071   3.252  0.5341  0.3087  0.4432
 4625WAT     H219207   6.914   2.100   3.380  1.0143 -0.5310  0.7847
 4625WAT    EPW19208   6.929   2.048   3.323  0.0625  0.5572 -0.0461
 4626WAT      O19209   6.805   2.320   3.187  0.2111 -0.0831 -0.7979
 4626WAT     H119210   6.868   2.300   3.244 -0.0029 -0.7856 -0.7989
 4626WAT     H219211   6.757   2.247   3.182  0.9894 -0.5369 -2.8834
 4626WAT    EPW19212   6.807   2.306   3.195  0.0805  0.4934  0.1224
 4627WAT      O19213   6.838   0.465   2.881  0.1297  0.3990 -0.3169
 4627WAT     H119214   6.875   0.396   2.842  0.5826  0.5362 -0.1349
 4627WAT     H219215   6.852   0.531   2.826  1.3174  0.7253  0.3333
 4627WAT    EPW19216   6.845   0.464   2.867 -0.5309 -0.1102 -0.7117
 4628WAT      O19217   7.359   1.734   3.677 -0.1217  0.2158 -0.0884
 4628WAT     H119218   7.288   1.779   3.702 -0.7389 -1.1209  0.6844
 4628WAT     H219219   7.344   1.654   3.708  0.4953 -0.8004 -2.2408
 4628WAT    EPW19220   7.346   1.729   3.686  0.6543 -0.1937 -0.2242
 4629WAT      O19221   7.411   1.966   4.148  0.2431 -0.4659 -0.6604
 4629WAT     H119222   7.350   1.976   4.087  0.2973 -1.4045 -0.8805
 4629WAT     H219223   7.397   2.033   4.203  0.4128  0.5922 -1.8642
 4629WAT    EPW19224   7.400   1.977   4.147 -0.7720  0.8103 -0.3318
 4630WAT      O19225   5.716   4.023   6.286 -0.0378 -0.0066  0.3200
 4630WAT     H119226   5.701   3.974   6.356  0.3909  0.6001  0.8507
 4630WAT     H219227   5.792   3.992   6.255  0.0579  0.0903  0.4559
 4630WAT    EPW19228   5.725   4.011   6.291  0.0154  0.4047 -0.8917
 4631WAT      O19229   6.987   1.488   4.111  0.2529  0.1421  0.2601
 4631WAT     H119230   7.031   1.439   4.167 -0.7013  0.2426  1.1343
 4631WAT     H219231   7.048   1.541   4.077  1.0658 -0.7962  0.2098
 4631WAT    EPW19232   7.003   1.489   4.114 -0.2762 -0.5375  0.4858
 4632WAT      O19233   4.697   2.272   3.010 -0.5945 -0.2434 -0.4673
 4632WAT     H119234   4.757   2.267   3.073 -1.7242 -1.0855  0.5907
 4632WAT     H219235   4.731   2.223   2.946  0.3639  0.2461 -0.3443
 4632WAT    EPW19236   4.711   2.264   3.010  0.5030  0.0853  0.3244
 4633WAT      O19237   6.568   2.018   4.123 -0.5221  0.3699 -0.1544
 4633WAT     H119238   6.609   1.949   4.089 -0.3355  0.8202 -0.8654
 4633WAT     H219239   6.499   1.983   4.163 -0.6725 -0.1941 -0.8858
 4633WAT    EPW19240   6.564   2.003   4.124  0.5866  0.2809 -0.0417
 4634WAT      O19241   5.539   0.218   2.699 -0.0820  0.2931 -0.3236
 4634WAT     H119242   5.535   0.162   2.765 -1.0269 -0.0449 -0.6591
 4634WAT     H219243   5.563   0.293   2.737  0.7808 -0.2292  0.1826
 4634WAT    EPW19244   5.542   0.221   2.714  0.6708 -0.2466 -0.3687
 4635WAT      O19245   5.364   3.771   2.897  0.0218  0.1268 -0.3266
 4635WAT     H119246   5.281   3.792   2.882 -0.1564  0.4319  1.0122
 4635WAT     H219247   5.395   3.754   2.817 -1.4596 -0.5270 -0.8039
 4635WAT    EPW19248   5.356   3.771   2.883 -0.2782 -0.1205 -0.2308
 4636WAT      O19249   6.688   2.529   2.915 -0.0333  0.1091  0.2155
 4636WAT     H119250   6.741   2.503   2.980 -0.7664 -0.1941  0.7177
 4636WAT     H219251   6.659   2.607   2.942  0.3546  0.3871 -0.1753
 4636WAT    EPW19252   6.691   2.536   2.929  0.2699 -0.2242  0.0956
 4637WAT      O19253   7.148   2.317   3.876  0.3271  0.6241  0.1527
 4637WAT     H119254   7.210   2.309   3.814 -0.0395 -0.0628 -0.1345
 4637WAT     H219255   7.193   2.311   3.950  0.4294 -1.7228 -0.0341
 4637WAT    EPW19256   7.164   2.315   3.878 -0.1625  0.6372 -0.5463
 4638WAT      O19257   5.859   2.772   4.267 -0.1027  0.1163 -0.1410
 4638WAT     H119258   5.892   2.839   4.313  0.6888  0.6785 -1.4783
 4638WAT     H219259   5.780   2.801   4.242 -2.2589 -1.5488  3.7882
 4638WAT    EPW19260   5.852   2.786   4.270 -0.7958  0.7600  0.1597
 4639WAT      O19261   5.694   3.161   2.557  0.2381  0.5454  0.0173
 4639WAT     H119262   5.690   3.106   2.625 -0.3212  1.4754  0.7785
 4639WAT     H219263   5.779   3.165   2.539  0.5159  0.9446  1.2677
 4639WAT    EPW19264   5.706   3.154   2.565  0.3096 -0.7396  0.5910
 4640WAT      O19265   5.780   2.230   3.543 -0.2129 -0.0236 -0.5238
 4640WAT     H119266   5.865   2.223   3.559  0.2447  0.9844 -2.2306
 4640WAT     H219267   5.744   2.173   3.598  1.6006 -0.9162 -0.1705
 4640WAT    EPW19268   5.787   2.221   3.553  0.4823  0.4968  0.7069
 4641WAT      O19269   5.533   1.718   4.196 -0.5463 -0.7081  0.5814
 4641WAT     H119270   5.482   1.755   4.136 -0.4032 -0.3128  0.7039
 4641WAT     H219271   5.505   1.753   4.271 -0.4141 -0.8545  0.7000
 4641WAT    EPW19272   5.521   1.729   4.198  0.4425  0.0350  0.0501
 4642WAT      O19273   6.635   2.796   3.232 -0.7262  0.1038 -0.0073
 4642WAT     H119274   6.714   2.794   3.268 -0.8032 -1.0716  0.1250
 4642WAT     H219275   6.599   2.721   3.257 -0.8564 -0.7024 -2.3998
 4642WAT    EPW19276   6.641   2.785   3.241 -0.0479 -0.2391 -0.2501
 4643WAT      O19277   6.555   2.756   2.980 -0.1785 -0.7029  0.1731
 4643WAT     H119278   6.469   2.743   2.968 -0.0453 -0.4617 -1.1386
 4643WAT     H219279   6.562   2.764   3.067 -1.2190 -2.4835  0.4791
 4643WAT    EPW19280   6.543   2.755   2.991 -0.4590  0.7417  0.5095
 4644WAT      O19281   8.027   0.946   3.561  0.4889  0.0938 -0.3311
 4644WAT     H119282   8.108   0.948   3.594  0.6970 -1.9015 -0.5678
 4644WAT     H219283   8.032   0.887   3.497 -0.6068  1.7286 -2.0245
 4644WAT    EPW19284   8.039   0.938   3.556  0.6923  0.7571  0.4312
 4645WAT      O19285   6.363   0.814   2.376 -0.8230  0.1731 -0.7861
 4645WAT     H119286   6.310   0.877   2.347 -0.6839  0.3606 -0.6400
 4645WAT     H219287   6.438   0.830   2.335 -0.9776 -0.3060 -1.2656
 4645WAT    EPW19288   6.366   0.826   2.366  0.1300 -0.3971 -0.6029
 4646WAT      O19289   4.354   1.589   4.672  0.2483  0.6066 -0.2850
 4646WAT     H119290   4.375   1.602   4.588  0.4192  1.5068 -0.1062
 4646WAT     H219291   4.430   1.571   4.710  0.0706 -0.6016 -0.4517
 4646WAT    EPW19292   4.368   1.588   4.665  0.0316 -0.2665 -0.8115
 4647WAT      O19293   6.093   2.780   3.776 -0.3168 -0.4438 -0.0880
 4647WAT     H119294   6.038   2.802   3.840  0.1995 -2.1330  1.0224
 4647WAT     H219295   6.167   2.822   3.798 -0.2280 -0.7838  0.2849
 4647WAT    EPW19296   6.096   2.789   3.789  0.5811 -0.1804  0.3995
 4648WAT      O19297   5.467   2.936   2.632 -0.2075  0.6833 -0.2309
 4648WAT     H119298   5.443   2.993   2.693 -0.1470  0.0813  0.3540
 4648WAT     H219299   5.394   2.925   2.584 -0.2086  1.2713 -0.3711
 4648WAT    EPW19300   5.452   2.943   2.634  0.7369  0.7553 -0.2011
 4649WAT      O19301   6.307   1.282   4.714 -0.3290  0.6143 -0.5493
 4649WAT     H119302   6.291   1.322   4.790  0.2114  0.1391 -0.1768
 4649WAT     H219303   6.382   1.317   4.687  0.0182  0.0575 -0.3426
 4649WAT    EPW19304   6.316   1.293   4.721  0.0622 -0.6622 -0.3430
 4650WAT      O19305   5.853   1.965   3.395  0.0973 -0.2061 -0.0429
 4650WAT     H119306   5.802   2.034   3.381  0.6887 -0.0188 -1.5139
 4650WAT     H219307   5.860   1.961   3.482 -1.1725  0.6573  0.1193
 4650WAT    EPW19308   5.847   1.975   3.406  0.9732 -0.4583  0.1749
 4651WAT      O19309   0.254   3.102   3.505  0.3344  0.3866  0.2674
 4651WAT     H119310   0.245   3.177   3.462 -0.7419 -0.9688 -2.0486
 4651WAT     H219311   0.173   3.070   3.507  0.5558 -0.2152  2.2876
 4651WAT    EPW19312   0.240   3.109   3.499 -0.3858 -0.2162  0.6677
 4652WAT      O19313   6.199   2.740   4.413  0.1569  0.3288  0.3267
 4652WAT     H119314   6.128   2.780   4.383  0.3193  1.5616  1.4763
 4652WAT     H219315   6.264   2.792   4.386  0.4939  0.0508  0.5937
 4652WAT    EPW19316   6.198   2.753   4.404 -0.0677 -0.8017 -0.0108
 4653WAT      O19317   5.352   1.611   3.491  0.3656 -0.0665 -0.2029
 4653WAT     H119318   5.274   1.628   3.528  1.0267  0.1545  1.1445
 4653WAT     H219319   5.395   1.686   3.500  0.6104 -0.0695 -1.3017
 4653WAT    EPW19320   5.347   1.624   3.498 -0.4094 -0.6729 -0.3317
 4654WAT      O19321   7.324   3.297   3.204 -0.2940  0.0547  0.1611
 4654WAT     H119322   7.301   3.217   3.177  0.1524  0.0304 -0.1588
 4654WAT     H219323   7.391   3.282   3.258 -0.1575  0.2174  0.0388
 4654WAT    EPW19324   7.330   3.283   3.208 -0.1263  0.2826 -0.3082
 4655WAT      O19325   6.758   2.025   3.722 -0.3282 -0.3209 -0.0232
 4655WAT     H119326   6.814   1.983   3.671  0.2516 -1.2955  1.3360
 4655WAT     H219327   6.808   2.058   3.785 -0.7335  2.6884 -1.1342
 4655WAT    EPW19328   6.774   2.024   3.724 -0.5675 -0.0930 -0.5515
 4656WAT      O19329   6.689   2.247   4.208 -0.2202  0.3525  0.2419
 4656WAT     H119330   6.680   2.316   4.156  1.1415  0.8928  0.6883
 4656WAT     H219331   6.639   2.186   4.169  0.7456  0.7204 -1.7096
 4656WAT    EPW19332   6.680   2.248   4.194 -0.0152 -0.4577  0.3144
 4657WAT      O19333   6.053   2.211   3.616 -0.1804  0.1474  0.3579
 4657WAT     H119334   6.092   2.140   3.584 -1.2093 -0.4911  0.4724
 4657WAT     H219335   6.098   2.277   3.581  0.4235 -0.5583 -0.2155
 4657WAT    EPW19336   6.065   2.210   3.606  0.8268  0.3400 -0.3425
 4658WAT      O19337   5.602   2.707   2.493  0.6179 -0.5381 -0.1232
 4658WAT     H119338   5.570   2.773   2.540  0.2098 -0.8544  0.0429
 4658WAT     H219339   5.675   2.685   2.536  1.2641  0.4171 -0.7043
 4658WAT    EPW19340   5.608   2.714   2.506 -0.5554  0.2189 -0.7501
 4659WAT      O19341   5.097   1.129   3.177 -0.3079  0.4304 -0.5361
 4659WAT     H119342   5.120   1.065   3.122 -0.0242  0.0028  0.0577
 4659WAT     H219343   5.161   1.187   3.168  0.3682 -0.1796  0.1874
 4659WAT    EPW19344   5.110   1.128   3.168 -1.1748 -0.7401 -0.4899
 4660WAT      O19345   5.966   1.729   3.871  0.1348 -0.1570 -1.0412
 4660WAT     H119346   6.009   1.800   3.896 -0.1096  0.1328 -1.4373
 4660WAT     H219347   5.896   1.727   3.923  0.7639 -0.7854 -0.2042
 4660WAT    EPW19348   5.962   1.739   3.882 -0.0441 -0.3813 -0.5291
 4661WAT      O19349   3.567   2.238   2.978  0.1546 -0.4537 -0.4562
 4661WAT     H119350   3.520   2.190   2.922 -0.6155 -0.3954  0.1340
 4661WAT     H219351   3.515   2.306   2.994 -0.1397 -1.0403  1.2351
 4661WAT    EPW19352   3.552   2.241   2.972  0.0151 -0.3195  1.1002
 4662WAT      O19353   7.631   1.954   3.964  0.3027  0.2305  0.3567
 4662WAT     H119354   7.567   1.945   4.023  1.8504 -0.2116  2.0889
 4662WAT     H219355   7.603   2.019   3.914  0.2783  3.1186  3.7044
 4662WAT    EPW19356   7.617   1.962   3.966 -0.0814  0.4316 -0.3975
 4663WAT      O19357   6.140   1.296   4.013  0.0224  0.1000  0.0275
 4663WAT     H119358   6.088   1.226   4.023  0.2212  0.1082  1.3620
 4663WAT     H219359   6.213   1.273   4.056 -0.0770  1.2919  0.8699
 4663WAT    EPW19360   6.143   1.282   4.021 -0.1229  0.1284 -0.8653
 4664WAT      O19361   4.908   3.509   4.212  1.1012 -0.6482 -0.5619
 4664WAT     H119362   4.981   3.467   4.236  0.6867 -1.7000 -1.0788
 4664WAT     H219363   4.872   3.534   4.287  2.1657  0.1943 -0.3125
 4664WAT    EPW19364   4.914   3.506   4.226  0.2236 -0.6975 -0.4923
 4665WAT      O19365   5.292   1.335   2.544  0.1152  0.1104 -0.2480
 4665WAT     H119366   5.269   1.251   2.538  0.8684 -0.0224 -2.6290
 4665WAT     H219367   5.215   1.377   2.551 -0.6112 -0.6199 -2.7001
 4665WAT    EPW19368   5.277   1.329   2.544  0.1155 -0.7812 -0.0788
 4666WAT      O19369   5.741   0.829   3.410 -0.1060  0.0403 -0.0792
 4666WAT     H119370   5.665   0.786   3.411  0.5682 -1.2291  0.2336
 4666WAT     H219371   5.719   0.911   3.428 -1.3445 -0.4116  0.6228
 4666WAT    EPW19372   5.727   0.835   3.413 -0.0484 -0.1721  0.2564
 4667WAT      O19373   5.851   2.633   3.307 -0.0310 -0.2438  0.1251
 4667WAT     H119374   5.917   2.577   3.317 -0.9747 -1.6600 -1.1134
 4667WAT     H219375   5.790   2.605   3.363  0.1053  0.6264  0.7457
 4667WAT    EPW19376   5.852   2.621   3.317 -0.1678 -0.4139  0.8485
 4668WAT      O19377   5.373   1.912   5.524  0.0725  0.0919 -0.2748
 4668WAT     H119378   5.346   1.959   5.456  2.5036 -0.8368 -2.0301
 4668WAT     H219379   5.453   1.942   5.540  0.6597 -1.6441  0.2915
 4668WAT    EPW19380   5.381   1.923   5.517 -0.3925  0.4758 -0.0899
 4669WAT      O19381   6.026   3.599   3.162  0.0391  0.0837 -0.1308
 4669WAT     H119382   6.089   3.541   3.141  0.1399 -0.2454  1.0295
 4669WAT     H219383   5.984   3.611   3.086 -0.6033 -2.2782 -0.2286
 4669WAT    EPW19384   6.029   3.592   3.148 -0.1989  0.6472 -1.0284
 4670WAT      O19385   6.579   1.363   2.736 -0.5160  0.3194 -0.0311
 4670WAT     H119386   6.557   1.420   2.673  3.5196  0.3840 -1.7410
 4670WAT     H219387   6.664   1.381   2.750 -0.1358 -2.5792  2.3812
 4670WAT    EPW19388   6.588   1.374   2.729 -0.1793  0.1029  0.8142
 4671WAT      O19389   6.674   2.761   4.861 -0.3122  0.3041  0.1132
 4671WAT     H119390   6.626   2.812   4.809 -1.1031  0.2701  0.7944
 4671WAT     H219391   6.725   2.717   4.804 -2.9418 -1.6568 -0.9441
 4671WAT    EPW19392   6.675   2.762   4.845  0.1779  0.8978  0.2874
 4672WAT      O19393   5.180   0.928   4.360 -0.2420  0.0346 -0.5813
 4672WAT     H119394   5.238   0.983   4.396 -0.1808  0.0662 -0.7271
 4672WAT     H219395   5.112   0.932   4.414  0.0811 -0.3905 -0.1322
 4672WAT    EPW19396   5.179   0.937   4.373  0.7249 -0.3452 -0.0089
 4673WAT      O19397   5.465   1.188   4.188  0.7201  0.2270 -0.3299
 4673WAT     H119398   5.551   1.184   4.180  0.7550  0.6358 -0.2115
 4673WAT     H219399   5.451   1.271   4.211  0.7484 -0.8350  4.6826
 4673WAT    EPW19400   5.475   1.200   4.190 -0.6093 -0.0600  0.1494
 4674WAT      O19401   6.426   1.336   3.688  0.3936  0.0827 -0.7799
 4674WAT     H119402   6.491   1.278   3.694  1.4346  1.2856  0.2461
 4674WAT     H219403   6.463   1.403   3.646 -1.1204 -0.3694 -3.0137
 4674WAT    EPW19404   6.441   1.337   3.683  0.2641  0.1827  0.1060
 4675WAT      O19405   6.031   3.155   3.745 -0.3210  0.0849 -0.1808
 4675WAT     H119406   6.109   3.172   3.781 -0.1981 -0.3240 -0.2480
 4675WAT     H219407   6.007   3.231   3.711 -0.4888  0.5187  0.8513
 4675WAT    EPW19408   6.039   3.169   3.746  0.6045 -0.1872 -0.0518
 4676WAT      O19409   7.037   1.019   3.680  0.1702 -0.1765  0.1667
 4676WAT     H119410   6.994   1.049   3.610  1.1432 -0.9355 -0.7926
 4676WAT     H219411   6.973   0.990   3.732 -0.6004  0.8303 -0.1782
 4676WAT    EPW19412   7.021   1.019   3.677  0.0123  0.4178  0.0229
 4677WAT      O19413   4.809   1.416   3.669 -0.1984  0.1224  0.5017
 4677WAT     H119414   4.822   1.335   3.641  1.3351  0.6852 -0.5353
 4677WAT     H219415   4.741   1.443   3.622  0.0617 -0.1587 -0.0500
 4677WAT    EPW19416   4.801   1.408   3.658  0.6386  0.2715 -0.4454
 4678WAT      O19417   6.355   1.700   4.031 -0.6066 -0.1562  0.0176
 4678WAT     H119418   6.315   1.638   3.983 -1.0048  0.5607 -0.5877
 4678WAT     H219419   6.395   1.750   3.972 -1.2071  0.8127  0.4038
 4678WAT    EPW19420   6.355   1.698   4.015 -0.0395 -0.3443  0.6286
 4679WAT      O19421   7.289   1.660   3.183 -0.3735 -0.2662 -0.5742
 4679WAT     H119422   7.318   1.721   3.239  0.9508 -1.1830 -0.2187
 4679WAT     H219423   7.206   1.648   3.208 -0.0115 -0.1614  0.7591
 4679WAT    EPW19424   7.281   1.668   3.195 -0.1097  0.2509 -0.0370
 4680WAT      O19425   5.875   3.448   3.344  0.2378 -0.0648 -0.0273
 4680WAT     H119426   5.936   3.432   3.404  0.1571  3.6939  1.2811
 4680WAT     H219427   5.916   3.497   3.285 -1.3002  2.1740  0.6543
 4680WAT    EPW19428   5.890   3.453   3.344 -0.0366  0.1009 -0.1023
 4681WAT      O19429   5.283   0.225   3.700  0.0351  0.4105  0.0452
 4681WAT     H119430   5.244   0.250   3.774 -0.0101  1.4608 -0.3247
 4681WAT     H219431   5.218   0.188   3.654  0.4614 -2.2560  1.3481
 4681WAT    EPW19432   5.268   0.223   3.704 -0.4931 -1.0603 -0.0260
 4682WAT      O19433   6.104   1.953   3.940  0.1235  0.6256  0.4566
 4682WAT     H119434   6.183   1.982   3.916  0.8156 -1.3687  0.1998
 4682WAT     H219435   6.055   2.025   3.935  1.7142  1.7453 -0.2356
 4682WAT    EPW19436   6.109   1.968   3.936 -1.3946 -0.1080 -0.3182
 4683WAT      O19437   6.892   0.774   4.040 -0.6761  0.4265  0.5114
 4683WAT     H119438   6.953   0.812   4.090 -0.1550  0.6067 -0.2533
 4683WAT     H219439   6.933   0.706   4.005 -0.3141  1.5965 -1.4892
 4683WAT    EPW19440   6.907   0.770   4.042 -0.3892  0.0115  0.3032
 4684WAT      O19441   6.410   2.250   4.630  0.2636 -0.6282 -0.4291
 4684WAT     H119442   6.484   2.261   4.585 -0.4578  2.1491 -1.1198
 4684WAT     H219443   6.370   2.327   4.622 -2.4916 -1.8734  0.3363
 4684WAT    EPW19444   6.415   2.263   4.622  0.3714 -0.7949  0.3621
 4685WAT      O19445   7.065   1.517   2.954  0.0310 -0.1255 -0.2199
 4685WAT     H119446   7.087   1.437   2.981  0.2076  0.3342  1.0538
 4685WAT     H219447   7.019   1.549   3.022 -0.2261  0.7697 -0.8054
 4685WAT    EPW19448   7.061   1.510   2.968 -0.3167 -0.7423 -0.4461
 4686WAT      O19449   6.339   2.065   3.817  0.9342  0.0463  0.4927
 4686WAT     H119450   6.350   2.104   3.740  1.2843 -1.2129 -0.1249
 4686WAT     H219451   6.392   1.996   3.813  0.4217 -0.4358  1.5751
 4686WAT    EPW19452   6.348   2.061   3.805 -0.1101  0.4362 -0.4421
 4687WAT      O19453   7.294   1.329   4.048  0.2293 -0.6444 -0.3673
 4687WAT     H119454   7.305   1.388   3.986  0.7075 -0.0411  0.2701
 4687WAT     H219455   7.308   1.373   4.122  0.5327 -1.5300  0.1311
 4687WAT    EPW19456   7.297   1.344   4.050  0.4913 -0.0625 -0.8791
 4688WAT      O19457   5.648   2.876   4.063 -0.3714 -0.3356 -0.4858
 4688WAT     H119458   5.618   2.813   4.010  1.1515 -0.8794 -0.7766
 4688WAT     H219459   5.627   2.950   4.021 -1.2209 -0.6872 -0.6916
 4688WAT    EPW19460   5.641   2.878   4.049 -0.4769 -0.1096 -0.4862
 4689WAT      O19461   4.534   3.522   5.289  0.2326 -0.4638  0.7172
 4689WAT     H119462   4.611   3.538   5.252 -0.2508  0.3882  0.0420
 4689WAT     H219463   4.496   3.464   5.234 -0.3569  0.5622  0.0040
 4689WAT    EPW19464   4.540   3.515   5.275  0.2045 -0.3256  0.0184
 4690WAT      O19465   6.350   2.928   3.890  0.6016  0.1735 -0.0428
 4690WAT     H119466   6.326   2.853   3.926  0.5547  0.4350  0.4724
 4690WAT     H219467   6.370   2.906   3.808 -0.2922 -0.2472 -0.1618
 4690WAT    EPW19468   6.349   2.914   3.883 -0.9538  0.7597  0.0726
 4691WAT      O19469   7.393   3.602   3.530  0.1981 -0.5463  0.0649
 4691WAT     H119470   7.332   3.572   3.476  0.3902  1.2753 -1.2264
 4691WAT     H219471   7.463   3.611   3.480  0.3510  1.3084  0.5326
 4691WAT    EPW19472   7.394   3.599   3.515 -0.1331 -0.2798  0.7011
 4692WAT      O19473   5.654   2.689   4.962 -0.4239 -0.6237  0.6084
 4692WAT     H119474   5.624   2.767   4.936  1.1922  0.1837  1.0263
 4692WAT     H219475   5.668   2.699   5.047  1.5931 -0.6981  0.3464
 4692WAT    EPW19476   5.652   2.702   4.971  0.0509  0.0043 -0.8036
 4693WAT      O19477   6.580   3.095   3.477  0.0267  0.0297  0.3436
 4693WAT     H119478   6.540   3.028   3.517  1.3287 -0.3944  0.9808
 4693WAT     H219479   6.598   3.150   3.543  1.2424 -0.1844  0.2070
 4693WAT    EPW19480   6.576   3.093   3.493  0.0237  0.6566 -0.7306
 4694WAT      O19481   4.616   2.043   3.655  0.0347 -0.0852 -0.1570
 4694WAT     H119482   4.628   1.994   3.583 -0.1695  0.5982 -0.6712
 4694WAT     H219483   4.627   2.125   3.626  0.8712  0.1520  0.7968
 4694WAT    EPW19484   4.619   2.048   3.640  0.0372 -0.2829  0.3787
 4695WAT      O19485   3.883   0.502   5.061  0.6278  0.3523 -0.1391
 4695WAT     H119486   3.909   0.443   5.120 -2.0166  0.8117  1.6554
 4695WAT     H219487   3.941   0.566   5.070  0.9043 -0.0577  1.2139
 4695WAT    EPW19488   3.895   0.503   5.071 -0.5295  0.4845 -0.8831
 4696WAT      O19489   7.737   0.982   3.262 -0.2473 -0.4337  0.3604
 4696WAT     H119490   7.719   1.004   3.345 -0.9294 -1.5747  0.5317
 4696WAT     H219491   7.821   1.002   3.253 -0.2165 -0.1129  1.2637
 4696WAT    EPW19492   7.746   0.988   3.273  0.1272  0.4814 -0.1419
 4697WAT      O19493   4.771   0.354   3.375 -0.2587 -0.3107 -0.5404
 4697WAT     H119494   4.753   0.361   3.460 -0.0701  0.5884 -0.5658
 4697WAT     H219495   4.694   0.364   3.337 -0.1621  0.5693 -0.5221
 4697WAT    EPW19496   4.757   0.356   3.382 -0.1389  0.1038  0.3379
 4698WAT      O19497   5.313   3.684   3.157  0.4366 -0.0999 -0.5737
 4698WAT     H119498   5.257   3.751   3.159  0.8930  0.2867 -0.5131
 4698WAT     H219499   5.345   3.686   3.076 -0.2646 -0.8573 -0.8871
 4698WAT    EPW19500   5.310   3.694   3.146 -0.5380  0.0576  0.3600
 4699WAT      O19501   6.035   1.963   4.467  0.3435  0.2107 -0.3952
 4699WAT     H119502   5.998   1.977   4.545  0.3870 -2.2804  0.1464
 4699WAT     H219503   6.116   1.995   4.477  0.0031  0.9178  0.2005
 4699WAT    EPW19504   6.042   1.970   4.480  0.6621  0.0676  0.0697
 4700WAT      O19505   5.537   2.359   1.976  0.2752  0.0909  0.6260
 4700WAT     H119506   5.465   2.401   1.951  0.0214 -0.4016  0.5030
 4700WAT     H219507   5.509   2.277   1.990  1.1026 -0.5608 -1.1355
 4700WAT    EPW19508   5.523   2.353   1.974  1.4987  0.1680  0.5064
 4701WAT      O19509   4.253   0.566   4.001  0.3213 -0.0346 -0.3413
 4701WAT     H119510   4.248   0.550   4.086 -1.2275  2.5411  0.1550
 4701WAT     H219511   4.287   0.493   3.968  3.4620 -0.2122  2.7491
 4701WAT    EPW19512   4.258   0.553   4.008 -0.4602 -0.1263  0.6575
 4702WAT      O19513   6.332   0.372   3.515  0.1809  0.4332 -0.1756
 4702WAT     H119514   6.415   0.374   3.539 -0.1448 -0.9071  1.1836
 4702WAT     H219515   6.327   0.305   3.460 -0.4650 -1.4104  1.9589
 4702WAT    EPW19516   6.343   0.363   3.511 -0.7792  0.2193  0.8426
 4703WAT      O19517   5.589   2.786   2.124  0.1371 -1.0755 -0.3891
 4703WAT     H119518   5.547   2.862   2.117  2.0380  0.0095 -0.9150
 4703WAT     H219519   5.530   2.733   2.159 -0.6324  1.2246  2.1618
 4703WAT    EPW19520   5.574   2.790   2.128 -0.1459 -0.0187 -0.6197
 4704WAT      O19521   5.212   1.902   3.216 -0.2844 -0.2920  0.6705
 4704WAT     H119522   5.159   1.899   3.146 -1.7454 -0.1901  1.7271
 4704WAT     H219523   5.160   1.879   3.282  1.1794 -0.8426  1.6837
 4704WAT    EPW19524   5.197   1.898   3.215 -0.1527 -0.0872  0.4101
 4705WAT      O19525   5.380   3.518   5.891 -0.5094  0.2759  0.1667
 4705WAT     H119526   5.413   3.474   5.823  0.3997 -0.6790  1.1874
 4705WAT     H219527   5.294   3.505   5.884 -0.3711 -0.4135 -0.4032
 4705WAT    EPW19528   5.372   3.510   5.880  0.8051 -0.4767  0.5735
 4706WAT      O19529   7.344   3.923   3.697 -0.1531  0.5761  0.4584
 4706WAT     H119530   7.348   3.997   3.650 -1.4118  1.3210  1.4446
 4706WAT     H219531   7.421   3.885   3.681  0.2664  1.7753 -0.6030
 4706WAT    EPW19532   7.356   3.929   3.688  0.4376 -0.4227 -0.3979
 4707WAT      O19533   7.444   1.196   3.522 -0.0781 -0.4851 -0.0810
 4707WAT     H119534   7.506   1.240   3.479  1.7361 -3.2479 -0.5736
 4707WAT     H219535   7.374   1.203   3.469 -0.0530  2.0150  0.0857
 4707WAT    EPW19536   7.442   1.204   3.508  0.0287  0.0928  0.2241
 4708WAT      O19537   7.270   3.218   3.585 -0.4845 -0.1090 -0.4585
 4708WAT     H119538   7.272   3.187   3.666  0.2300 -0.3245 -0.5580
 4708WAT     H219539   7.214   3.285   3.591 -0.8303 -0.4397  0.0935
 4708WAT    EPW19540   7.262   3.224   3.598  0.3301  0.3735  0.6202
 4709WAT      O19541   6.099   0.216   2.969  0.2822  0.4408 -0.7594
 4709WAT     H119542   6.130   0.218   2.888  1.4182  0.4096 -0.3466
 4709WAT     H219543   6.151   0.159   3.010 -1.1688 -0.6433 -0.3507
 4709WAT    EPW19544   6.111   0.208   2.963  0.4137 -0.8627  0.0481
 4710WAT      O19545   6.350   0.501   4.793  0.2512  0.1409  0.2628
 4710WAT     H119546   6.360   0.574   4.746 -1.0250  1.0122  1.2609
 4710WAT     H219547   6.292   0.454   4.747  1.7841 -0.7253 -0.8650
 4710WAT    EPW19548   6.343   0.505   4.779  0.2637 -0.3407 -0.4290
 4711WAT      O19549   4.054   1.447   3.642  0.5317 -0.4228  0.2487
 4711WAT     H119550   3.969   1.449   3.661  0.5537  0.6054  0.2954
 4711WAT     H219551   4.056   1.413   3.561  0.2178 -1.9452  0.8497
 4711WAT    EPW19552   4.042   1.442   3.633  0.3169 -0.6944 -0.2346
 4712WAT      O19553   6.096   1.682   4.429  0.3100  0.5195  0.0160
 4712WAT     H119554   6.116   1.664   4.346 -1.3251 -0.4256 -0.2094
 4712WAT     H219555   6.060   1.761   4.425 -4.4643 -1.3701 -1.1204
 4712WAT    EPW19556   6.094   1.691   4.416  0.1319 -0.2855 -0.2621
 4713WAT      O19557   5.543   3.653   4.457  0.2025  0.0685 -0.0542
 4713WAT     H119558   5.496   3.710   4.411  1.1773  1.0896  0.1729
 4713WAT     H219559   5.508   3.658   4.537 -0.4120 -0.4695 -0.2818
 4713WAT    EPW19560   5.531   3.662   4.462  0.0083 -0.4349  0.1449
 4714WAT      O19561   5.539   1.859   3.163  0.0786  0.4167  0.1052
 4714WAT     H119562   5.524   1.918   3.226 -1.3671 -0.4732  0.6430
 4714WAT     H219563   5.522   1.902   3.089  2.4089  1.6741  0.1944
 4714WAT    EPW19564   5.535   1.874   3.162 -0.5443  0.0862 -0.1892
 4715WAT      O19565   7.370   0.907   2.758  0.2280  0.0249  0.2767
 4715WAT     H119566   7.291   0.880   2.732  0.8551 -0.7145 -0.9777
 4715WAT     H219567   7.402   0.838   2.799  1.2356 -0.6908 -1.5880
 4715WAT    EPW19568   7.363   0.893   2.760  0.2210 -0.5336  0.3311
 4716WAT      O19569   8.062   1.983   4.019  0.5772 -0.0895 -0.3418
 4716WAT     H119570   8.057   2.066   4.047  2.4770  0.4240 -1.3436
 4716WAT     H219571   8.054   1.991   3.932 -1.2495 -1.2280 -0.3403
 4716WAT    EPW19572   8.060   1.996   4.010 -0.0984 -0.0286 -0.2938
 4717WAT      O19573   5.700   2.544   4.363 -0.3034 -0.0795 -0.0911
 4717WAT     H119574   5.618   2.568   4.382 -0.3502 -0.3435  0.0474
 4717WAT     H219575   5.729   2.610   4.314 -0.4891  0.1723  0.1274
 4717WAT    EPW19576   5.692   2.557   4.359  0.6831  0.6432 -0.2221
 4718WAT      O19577   6.490   3.392   3.398  0.0551  0.1164  0.1640
 4718WAT     H119578   6.543   3.412   3.465 -1.8078  2.2945  1.1296
 4718WAT     H219579   6.480   3.468   3.356 -1.0164 -0.6063 -0.9502
 4718WAT    EPW19580   6.497   3.406   3.402  0.0356  0.3272  0.3668
 4719WAT      O19581   5.579   1.958   3.974  0.1465  0.2997 -0.0796
 4719WAT     H119582   5.642   1.941   4.031 -0.0147  1.1665  0.3723
 4719WAT     H219583   5.590   1.897   3.912  1.0174  0.0483  0.3119
 4719WAT    EPW19584   5.590   1.946   3.973  0.4835  0.7274 -0.5644
 4720WAT      O19585   5.392   2.533   3.244 -0.0772 -0.2400  0.2925
 4720WAT     H119586   5.425   2.456   3.218 -0.7582 -0.1151 -1.0082
 4720WAT     H219587   5.325   2.546   3.190  0.2817  1.4682  0.2065
 4720WAT    EPW19588   5.387   2.524   3.232  0.0286 -0.3090  0.1822
 4721WAT      O19589   5.263   3.182   4.207 -0.1208  0.3752 -0.7690
 4721WAT     H119590   5.300   3.175   4.286 -2.6965  0.0220  0.5167
 4721WAT     H219591   5.299   3.116   4.162  0.7291  0.0107  0.3854
 4721WAT    EPW19592   5.274   3.171   4.212  0.0270  0.1108 -0.5974
 4722WAT      O19593   6.165   1.956   3.543 -0.3630 -0.2838  0.1599
 4722WAT     H119594   6.175   1.934   3.459 -2.2859  1.1807 -0.5138
 4722WAT     H219595   6.188   1.883   3.586  1.4704 -0.7930 -1.5608
 4722WAT    EPW19596   6.170   1.942   3.537  0.3170  0.1290 -0.4538
 4723WAT      O19597   4.710   1.492   2.528  0.3073 -0.0357 -0.5592
 4723WAT     H119598   4.719   1.527   2.607 -0.3807 -1.1578  0.0363
 4723WAT     H219599   4.639   1.532   2.496 -0.0435 -0.3342 -0.1719
 4723WAT    EPW19600   4.701   1.503   2.535 -0.2079 -0.7389  0.7041
 4724WAT      O19601   5.780   4.298   4.415 -0.1823  0.2095  0.0182
 4724WAT     H119602   5.701   4.331   4.399  0.2939  0.1163 -3.1472
 4724WAT     H219603   5.810   4.276   4.336  3.4756  1.2532  0.9306
 4724WAT    EPW19604   5.773   4.299   4.401  0.6381  0.7123 -0.2657
 4725WAT      O19605   5.846   1.916   3.090 -0.7033  0.1923  0.2135
 4725WAT     H119606   5.823   1.996   3.066  1.7645  0.5757 -1.1760
 4725WAT     H219607   5.830   1.915   3.176 -2.2843  1.5764 -0.0178
 4725WAT    EPW19608   5.840   1.927   3.099  0.8353 -0.3586  0.5402
 4726WAT      O19609   6.806   2.613   3.420 -0.7580 -0.3152  0.2930
 4726WAT     H119610   6.872   2.582   3.466 -1.1877 -2.1517 -0.2237
 4726WAT     H219611   6.839   2.621   3.339 -0.6691  0.5691  0.4078
 4726WAT    EPW19612   6.820   2.609   3.415 -0.0880 -0.4396 -0.1792
 4727WAT      O19613   7.506   2.737   3.898  0.7191  0.2548 -0.3072
 4727WAT     H119614   7.505   2.655   3.928 -0.8919  0.0303 -0.8547
 4727WAT     H219615   7.558   2.732   3.828 -0.3857 -0.6431 -1.1109
 4727WAT    EPW19616   7.513   2.724   3.892 -0.2804 -0.8706 -0.2295
 4728WAT      O19617   7.651   3.283   3.882 -0.3901  0.8943 -0.1190
 4728WAT     H119618   7.628   3.222   3.940  0.2505 -1.2708 -2.0276
 4728WAT     H219619   7.575   3.321   3.862 -0.9142  0.2496  0.5810
 4728WAT    EPW19620   7.636   3.280   3.888  0.6533 -0.7292 -0.2811
 4729WAT      O19621   6.998   2.512   3.590  0.4819  0.9914 -0.3841
 4729WAT     H119622   7.079   2.543   3.597  0.5415  0.4324  2.3111
 4729WAT     H219623   6.962   2.530   3.667 -1.0301 -1.2681 -0.4636
 4729WAT    EPW19624   7.004   2.519   3.602  0.2100  0.6449 -0.6055
 4730WAT      O19625   6.335   2.472   4.472  0.0911  0.2278  0.0363
 4730WAT     H119626   6.273   2.533   4.467 -1.4430 -1.1031  1.4484
 4730WAT     H219627   6.302   2.405   4.427  1.0436 -0.1103 -0.1825
 4730WAT    EPW19628   6.321   2.471   4.465 -0.2766  1.1670 -0.6219
 4731WAT      O19629   6.842   1.234   3.109 -0.3118  0.6508  0.0417
 4731WAT     H119630   6.768   1.189   3.119  0.2775 -0.3188  0.2309
 4731WAT     H219631   6.881   1.196   3.041 -0.2964  1.6084 -0.5059
 4731WAT    EPW19632   6.837   1.222   3.101  0.0837 -0.5773  0.0291
 4732WAT      O19633   4.795   1.778   3.487 -0.2933 -0.0425 -0.2814
 4732WAT     H119634   4.723   1.736   3.512 -0.2841  0.5430  0.7711
 4732WAT     H219635   4.764   1.851   3.450 -0.2539 -0.2079 -0.6532
 4732WAT    EPW19636   4.780   1.783   3.485 -0.2067 -0.0379 -0.2211
 4733WAT      O19637   5.433   2.401   3.684 -0.1522 -0.0447  0.5674
 4733WAT     H119638   5.394   2.475   3.709 -2.5343 -0.7158 -0.8536
 4733WAT     H219639   5.515   2.425   3.671 -1.0464  2.6701 -0.8845
 4733WAT    EPW19640   5.439   2.415   3.686  0.3291 -0.3108 -0.0614
 4734WAT      O19641   5.067   1.564   3.503  0.5315 -0.1702  0.0925
 4734WAT     H119642   5.035   1.523   3.433  1.0243 -1.5957  0.6684
 4734WAT     H219643   5.002   1.561   3.561  0.3683  0.3777 -0.0618
 4734WAT    EPW19644   5.053   1.557   3.501  0.0784 -0.2988  0.2468
 4735WAT      O19645   6.596   0.926   2.253  0.2871 -0.0156  0.3631
 4735WAT     H119646   6.591   0.959   2.172  1.8058 -1.0306 -0.1879
 4735WAT     H219647   6.588   0.995   2.304  0.6486  0.8385 -0.6973
 4735WAT    EPW19648   6.594   0.941   2.248 -0.3491  0.3339  0.7716
 4736WAT      O19649   4.999   3.134   4.208 -0.0588  0.0509  0.6128
 4736WAT     H119650   4.981   3.131   4.123  1.0811 -0.0569  0.3497
 4736WAT     H219651   5.086   3.146   4.210  0.1053 -1.0257  1.7453
 4736WAT    EPW19652   5.009   3.135   4.196 -0.8104 -0.4082 -0.9628
 4737WAT      O19653   5.871   0.718   1.161 -0.3397 -0.3461  0.0502
 4737WAT     H119654   5.827   0.742   1.090  0.2487  1.9649  0.4144
 4737WAT     H219655   5.832   0.642   1.184 -2.2475  0.1792 -1.2309
 4737WAT    EPW19656   5.858   0.710   1.154  0.8896  0.4314  0.1151
 4738WAT      O19657   5.899   1.413   2.906 -0.4675 -0.0548  0.0231
 4738WAT     H119658   5.821   1.388   2.936 -0.8245  1.6153  0.6133
 4738WAT     H219659   5.899   1.499   2.920  0.8420  0.2241 -1.4688
 4738WAT    EPW19660   5.887   1.422   2.913 -0.5282  0.4655 -0.1397
 4739WAT      O19661   5.217   2.395   2.183  0.2931 -0.1201 -0.1654
 4739WAT     H119662   5.214   2.318   2.225 -2.5127 -0.7061 -1.2101
 4739WAT     H219663   5.278   2.382   2.122  0.5414 -1.1965  0.2847
 4739WAT    EPW19664   5.225   2.382   2.180  0.1217 -0.0346 -0.3643
 4740WAT      O19665   7.751   2.817   2.441  0.0390 -0.2097  0.0188
 4740WAT     H119666   7.738   2.786   2.360 -1.2776  0.6427 -0.1212
 4740WAT     H219667   7.758   2.745   2.489 -1.5102 -0.7674 -0.5254
 4740WAT    EPW19668   7.750   2.802   2.436 -0.5383 -0.0847  0.5040
 4741WAT      O19669   5.020   1.447   2.649  0.8662 -0.8509  0.3352
 4741WAT     H119670   4.968   1.391   2.608 -0.7417  0.7901  0.0527
 4741WAT     H219671   5.006   1.523   2.609  2.1635  0.0041  1.4052
 4741WAT    EPW19672   5.010   1.450   2.637 -0.0752 -0.0303  0.1594
 4742WAT      O19673   4.319   2.728   2.427 -0.2837 -0.7228 -0.2542
 4742WAT     H119674   4.373   2.786   2.462  0.6997 -0.6220 -1.8480
 4742WAT     H219675   4.312   2.667   2.489  0.4895 -0.0236  0.5513
 4742WAT    EPW19676   4.326   2.727   2.441 -0.1616  0.4102 -0.2423
 4743WAT      O19677   7.413   1.227   3.185  0.0866  0.1286  0.4832
 4743WAT     H119678   7.381   1.174   3.246 -1.2194  0.1493 -0.1585
 4743WAT     H219679   7.433   1.300   3.230  0.6936 -0.4335  1.1451
 4743WAT    EPW19680   7.411   1.230   3.200  0.3238 -0.7084 -0.0794
 4744WAT      O19681   4.199   0.992   2.383 -0.3973  0.8295  0.4331
 4744WAT     H119682   4.219   0.974   2.466 -1.2123 -0.1316  0.4468
 4744WAT     H219683   4.233   0.925   2.338 -2.3029 -0.1530  0.3258
 4744WAT    EPW19684   4.207   0.979   2.388  0.3708 -0.8281 -0.4581
 4745WAT      O19685   5.569   0.730   1.434  0.2837  0.2258 -0.1866
 4745WAT     H119686   5.613   0.716   1.508 -0.2002  2.0515  0.4801
 4745WAT     H219687   5.548   0.649   1.407 -0.0938 -0.4691  2.0047
 4745WAT    EPW19688   5.572   0.716   1.441  0.8737 -0.7471  0.6567
 4746WAT      O19689   6.183   2.204   2.521 -0.1966 -0.5110 -0.3245
 4746WAT     H119690   6.126   2.237   2.465  0.0903  0.5335 -0.0212
 4746WAT     H219691   6.190   2.265   2.583  0.0399 -1.3162  0.4777
 4746WAT    EPW19692   6.176   2.218   2.522  0.8988  0.3756  1.2045
 4747WAT      O19693   5.339   3.270   2.119  0.0836  0.2012 -0.0035
 4747WAT     H119694   5.394   3.204   2.134 -1.5886 -1.4168 -0.6064
 4747WAT     H219695   5.392   3.338   2.106  1.9601 -1.3132 -0.7981
 4747WAT    EPW19696   5.355   3.271   2.119 -0.5260  0.1323 -0.1987
 4748WAT      O19697   6.421   2.895   3.623  0.2774 -0.1887 -0.2516
 4748WAT     H119698   6.369   2.857   3.563  1.2370 -1.0145 -0.6004
 4748WAT     H219699   6.493   2.845   3.622  1.2278  1.1155 -0.0416
 4748WAT    EPW19700   6.424   2.882   3.614 -0.2946 -0.5433 -0.6331
 4749WAT      O19701   6.332   1.624   1.865 -0.3083 -0.7228 -0.0518
 4749WAT     H119702   6.335   1.553   1.815 -1.7616 -0.6018 -0.3618
 4749WAT     H219703   6.383   1.604   1.933 -1.8179 -2.6553  0.6102
 4749WAT    EPW19704   6.340   1.611   1.867  0.7451 -0.5784  0.3522
 4750WAT      O19705   4.591   0.930   3.332 -0.3147 -0.6761  0.7073
 4750WAT     H119706   4.535   0.950   3.269 -0.9308  0.2277  1.5127
 4750WAT     H219707   4.661   0.979   3.314  0.2616 -1.8042 -0.2966
 4750WAT    EPW19708   4.593   0.940   3.320 -0.2843 -0.0464 -0.1307
 4751WAT      O19709   5.634   2.221   2.726  0.0032  0.0705  0.9193
 4751WAT     H119710   5.633   2.165   2.660  0.5699  0.0231  0.9486
 4751WAT     H219711   5.718   2.239   2.737 -0.1815  1.0741  0.7894
 4751WAT    EPW19712   5.646   2.216   2.718  0.4673 -0.6582 -0.1388
 4752WAT      O19713   7.438   3.175   7.954  0.9494 -0.1491 -0.0747
 4752WAT     H119714   7.387   3.205   7.890  0.5301  0.6645  0.6257
 4752WAT     H219715   7.384   3.171   8.023  1.1195 -2.0135  0.0133
 4752WAT    EPW19716   7.422   3.179   7.954  0.7973 -0.0321  0.5683
 4753WAT      O19717   6.831   2.337   2.105  0.3620 -0.4219  0.3728
 4753WAT     H119718   6.785   2.301   2.040  0.6295  3.2863 -2.1378
 4753WAT     H219719   6.899   2.373   2.065  1.7134  0.3341  3.0612
 4753WAT    EPW19720   6.834   2.337   2.090  0.7934  0.3846  0.1344
 4754WAT      O19721   8.029   0.734   3.369  0.4493  0.1799 -0.0375
 4754WAT     H119722   8.109   0.698   3.373  0.3642 -0.2272 -1.3590
 4754WAT     H219723   7.979   0.678   3.413  1.1144  1.2548  2.2292
 4754WAT    EPW19724   8.034   0.721   3.376 -0.9640  0.1495 -0.8542
 4755WAT      O19725   4.545   2.522   2.485  0.0173 -0.1640 -0.6532
 4755WAT     H119726   4.625   2.488   2.496  0.4935  0.9604 -0.5183
 4755WAT     H219727   4.543   2.590   2.540 -1.8289 -1.4089  0.9629
 4755WAT    EPW19728   4.556   2.527   2.495 -0.6042 -0.0423 -0.2179
 4756WAT      O19729   7.155   1.377   3.521 -0.9781 -0.4063 -0.1141
 4756WAT     H119730   7.112   1.439   3.478  0.3567 -0.1778 -1.2046
 4756WAT     H219731   7.239   1.401   3.512 -0.4170 -2.3927 -0.6275
 4756WAT    EPW19732   7.161   1.390   3.513  0.1234 -0.9965  0.6772
 4757WAT      O19733   6.508   0.820   1.836 -0.1504  0.3609 -0.1748
 4757WAT     H119734   6.539   0.739   1.847 -2.1762 -0.5206 -0.4405
 4757WAT     H219735   6.440   0.823   1.891 -0.3145  1.7691 -0.4216
 4757WAT    EPW19736   6.502   0.808   1.846  0.3608 -0.1845  0.0337
 4758WAT      O19737   6.981   1.101   2.875  0.1991 -0.1712  0.3441
 4758WAT     H119738   7.031   1.159   2.833  1.2528 -0.4194  1.2144
 4758WAT     H219739   6.911   1.093   2.824  1.9589 -1.4323 -2.1011
 4758WAT    EPW19740   6.978   1.108   2.861 -0.2404 -0.3880  0.6556
 4759WAT      O19741   5.976   3.125   2.504  0.0678  0.6634  0.0021
 4759WAT     H119742   5.959   3.180   2.438  2.2303 -0.4934 -1.6531
 4759WAT     H219743   5.981   3.177   2.573 -0.2497  2.2239 -1.0949
 4759WAT    EPW19744   5.974   3.141   2.504 -0.1852  0.5620 -0.0749
 4760WAT      O19745   3.958   2.397   1.436 -0.2607  1.1598  0.3737
 4760WAT     H119746   3.964   2.387   1.350  1.2341  2.0653  0.3341
 4760WAT     H219747   4.026   2.448   1.456 -1.3405  2.0898  1.9148
 4760WAT    EPW19748   3.969   2.403   1.426 -0.8795  0.0608 -0.9700
 4761WAT      O19749   5.720   3.657   2.662  0.1820  0.0141 -0.1955
 4761WAT     H119750   5.753   3.654   2.581 -0.6014 -0.5522 -0.4978
 4761WAT     H219751   5.644   3.698   2.652 -0.0619 -0.3341  0.2021
 4761WAT    EPW19752   5.714   3.663   2.648  0.0039  0.7124 -0.0012
 4762WAT      O19753   6.334   3.076   1.574  0.2275  0.3745  0.3802
 4762WAT     H119754   6.303   3.141   1.623 -1.0446 -1.4413  2.1488
 4762WAT     H219755   6.393   3.037   1.626 -0.6750 -1.2149  0.2834
 4762WAT    EPW19756   6.338   3.080   1.589 -0.0907 -0.1849 -0.0650
 4763WAT      O19757   6.317   3.575   2.789  0.8480 -1.0185 -0.2819
 4763WAT     H119758   6.353   3.568   2.710 -0.4480  1.2961 -1.1693
 4763WAT     H219759   6.236   3.547   2.777  0.2678  0.5192 -0.1223
 4763WAT    EPW19760   6.311   3.570   2.776  0.4725 -0.1208  0.6082
 4764WAT      O19761   6.612   7.827   3.950  0.3829  0.0150 -0.3936
 4764WAT     H119762   6.630   7.878   3.881  0.1641  0.4850 -0.1107
 4764WAT     H219763   6.589   7.885   4.012  0.0269 -0.4408 -0.0992
 4764WAT    EPW19764   6.611   7.843   3.949  0.2480 -0.7265  0.1862
 4765WAT      O19765   6.076   0.438   3.579  0.0176 -0.5438  0.9416
 4765WAT     H119766   6.047   0.517   3.556 -1.7919 -1.3903  0.1090
 4765WAT     H219767   6.154   0.432   3.541 -1.1499 -0.3241 -1.6427
 4765WAT    EPW19768   6.083   0.449   3.570 -0.9449  1.1054 -0.6991
 4766WAT      O19769   5.652   2.495   1.761  0.0084  0.1942  0.8416
 4766WAT     H119770   5.736   2.510   1.781  0.2335  0.7225 -0.4080
 4766WAT     H219771   5.619   2.462   1.835  1.1900  0.4535  1.5121
 4766WAT    EPW19772   5.660   2.492   1.775 -0.1429  0.5549  0.3006
 4767WAT      O19773   6.748   1.331   2.298 -0.0767 -0.6221 -0.1617
 4767WAT     H119774   6.725   1.414   2.309 -0.5350 -0.9531  1.7326
 4767WAT     H219775   6.783   1.329   2.218 -0.6667  1.2382 -0.4929
 4767WAT    EPW19776   6.750   1.343   2.287  0.7664 -0.8267  0.2713
 4768WAT      O19777   6.338   3.332   1.376 -0.5565  0.3284 -0.2805
 4768WAT     H119778   6.341   3.410   1.415  1.0515  0.8417 -1.3331
 4768WAT     H219779   6.390   3.282   1.425 -0.8182  0.1760 -0.1553
 4768WAT    EPW19780   6.346   3.337   1.389  0.6963  0.2774 -0.1470
 4769WAT      O19781   6.059   2.360   2.307  0.0265 -0.0781 -0.1121
 4769WAT     H119782   6.063   2.447   2.305  0.1445 -0.0811 -2.3393
 4769WAT     H219783   6.026   2.339   2.229  0.9712 -2.0841 -0.0323
 4769WAT    EPW19784   6.055   2.369   2.295  0.0821  0.3625 -0.2926
 4770WAT      O19785   5.591   1.948   2.366  0.1502 -0.3258 -0.1561
 4770WAT     H119786   5.588   2.032   2.343 -2.0520 -0.1921  0.3735
 4770WAT     H219787   5.590   1.950   2.453 -1.5975 -0.8554 -0.1193
 4770WAT    EPW19788   5.590   1.960   2.375 -0.7300  0.3735 -0.2152
 4771WAT      O19789   5.639   0.956   2.712  0.9368 -0.1148 -0.6712
 4771WAT     H119790   5.685   0.999   2.773  1.6793  1.7691 -2.4358
 4771WAT     H219791   5.696   0.897   2.682  1.4015  0.5826 -1.1837
 4771WAT    EPW19792   5.654   0.954   2.717 -0.0397 -0.0836  1.3027
 4772WAT      O19793   6.665   1.179   3.693  0.6520 -0.0792  0.1083
 4772WAT     H119794   6.712   1.173   3.620  2.1002  1.4095  0.8397
 4772WAT     H219795   6.679   1.102   3.733  0.3926 -0.6364 -0.8539
 4772WAT    EPW19796   6.674   1.167   3.688  0.1332 -0.2430 -0.6052
 4773WAT      O19797   5.939   0.665   1.544 -0.7368  0.2640 -0.4129
 4773WAT     H119798   5.861   0.664   1.582 -1.4116  0.3434 -1.7253
 4773WAT     H219799   5.984   0.724   1.590 -0.7243 -1.2729  1.6687
 4773WAT    EPW19800   5.934   0.674   1.556 -0.0484  0.4520 -1.2641
 4774WAT      O19801   6.256   0.579   2.314 -0.3958  0.0296 -0.4905
 4774WAT     H119802   6.308   0.637   2.353 -0.4555  0.5610 -1.1900
 4774WAT     H219803   6.191   0.627   2.282 -1.9214 -0.7489  1.2759
 4774WAT    EPW19804   6.254   0.595   2.315 -0.2135  0.2380 -0.4139
 4775WAT      O19805   6.630   4.587   2.102  0.1687  1.0680  0.1453
 4775WAT     H119806   6.621   4.641   2.170  0.5485  0.1760  0.9224
 4775WAT     H219807   6.582   4.518   2.124  1.4253  0.1712  0.1516
 4775WAT    EPW19808   6.622   4.585   2.115  0.1611 -1.2471 -0.4713
 4776WAT      O19809   5.620   2.231   2.298  0.4639  0.1890  0.1976
 4776WAT     H119810   5.645   2.193   2.224 -0.3809 -1.0505  0.5296
 4776WAT     H219811   5.637   2.316   2.284  0.1086  0.0041 -1.4846
 4776WAT    EPW19812   5.626   2.238   2.285 -0.3731 -0.1797  0.8362
 4777WAT      O19813   0.193   0.891   3.183 -0.0617  0.2444  0.1248
 4777WAT     H119814   0.223   0.818   3.219 -0.0989  0.1019 -0.1253
 4777WAT     H219815   0.116   0.867   3.149 -0.6147  0.6818  1.0288
 4777WAT    EPW19816   0.186   0.876   3.183 -0.0061  0.7483 -0.8201
 4778WAT      O19817   4.822   0.789   0.261 -0.6581 -0.4233  0.6849
 4778WAT     H119818   4.840   0.819   0.182 -1.0972 -0.2622  0.6408
 4778WAT     H219819   4.835   0.857   0.313 -1.6214 -0.1518  0.5888
 4778WAT    EPW19820   4.826   0.803   0.257  0.5183 -0.6816 -0.8058
 4779WAT      O19821   6.438   4.468   3.980  0.0926 -0.6312 -0.0889
 4779WAT     H119822   6.414   4.408   4.038  1.7702 -1.1122  0.1598
 4779WAT     H219823   6.389   4.449   3.910 -0.1116 -1.6617  0.3117
 4779WAT    EPW19824   6.427   4.457   3.978  0.2504 -0.0470  0.2973
 4780WAT      O19825   6.314   2.326   2.195 -0.7362 -0.1279 -0.0332
 4780WAT     H119826   6.319   2.369   2.271 -0.9445 -1.5828  0.8284
 4780WAT     H219827   6.229   2.327   2.177 -0.6611  0.4230 -0.3881
 4780WAT    EPW19828   6.302   2.333   2.204 -0.1056  0.4912 -0.3474
 4781WAT      O19829   6.831   1.378   0.749  0.0379 -0.2539 -0.5654
 4781WAT     H119830   6.770   1.406   0.694  0.6886  0.5832 -0.8677
 4781WAT     H219831   6.785   1.339   0.812 -1.0536  2.7287  0.6481
 4781WAT    EPW19832   6.815   1.376   0.750  0.3907  0.3481  0.5881
 4782WAT      O19833   5.590   1.605   1.867 -0.6412 -0.0693 -0.5725
 4782WAT     H119834   5.667   1.621   1.906  0.1768 -0.6189 -1.8808
 4782WAT     H219835   5.608   1.614   1.782 -2.2687  0.7169 -0.8751
 4782WAT    EPW19836   5.604   1.609   1.860 -0.1193 -0.1399  0.8474
 4783WAT      O19837   6.422   2.057   2.413  0.1569 -0.3320  0.6513
 4783WAT     H119838   6.358   2.107   2.444  0.5140 -0.1453  1.0973
 4783WAT     H219839   6.466   2.110   2.360 -0.6400 -0.7391 -0.4468
 4783WAT    EPW19840   6.419   2.072   2.410 -0.0028 -0.0349 -0.1261
 4784WAT      O19841   6.245   0.682   2.954  0.4265 -0.1381 -0.6545
 4784WAT     H119842   6.215   0.630   3.017  1.3644  0.1256  0.0400
 4784WAT     H219843   6.256   0.627   2.886 -0.0731 -0.5327 -0.4191
 4784WAT    EPW19844   6.242   0.666   2.953 -0.2185 -0.0975  0.1970
 4785WAT      O19845   7.892   3.030   2.788  0.2148  0.4265 -0.0982
 4785WAT     H119846   7.852   3.100   2.821 -1.6785  0.0278 -1.3575
 4785WAT     H219847   7.830   2.969   2.790  0.9531 -0.4282 -1.5483
 4785WAT    EPW19848   7.877   3.031   2.793 -0.2053  0.6752  0.4460
 4786WAT      O19849   5.622   0.976   1.823 -0.1333 -0.6889  0.6036
 4786WAT     H119850   5.685   1.018   1.866  0.7444 -1.7935  0.4352
 4786WAT     H219851   5.639   0.992   1.739 -0.9492  0.1946  0.5816
 4786WAT    EPW19852   5.633   0.984   1.817 -0.1322  0.5498  0.3048
 4787WAT      O19853   0.126   3.616   2.328 -0.6343  0.3160 -0.0354
 4787WAT     H119854   0.101   3.662   2.257 -1.3634 -2.8064 -2.0059
 4787WAT     H219855   0.211   3.603   2.314 -0.9840 -1.1993 -1.0112
 4787WAT    EPW19856   0.135   3.621   2.315  0.3042  0.3404 -0.2818
 4788WAT      O19857   5.697   1.049   1.571 -0.1918 -0.3702 -0.2240
 4788WAT     H119858   5.686   1.135   1.562 -3.7365 -0.6646 -0.0561
 4788WAT     H219859   5.698   1.020   1.489  2.3218 -0.1679 -0.3453
 4788WAT    EPW19860   5.695   1.058   1.558 -0.5033 -0.5317 -0.6192
 4789WAT      O19861   6.698   3.470   2.246 -0.2005  0.5774  0.4429
 4789WAT     H119862   6.651   3.456   2.319  2.0763 -2.9572  1.4505
 4789WAT     H219863   6.651   3.432   2.184 -0.8156  1.1502  0.5407
 4789WAT    EPW19864   6.684   3.462   2.248  0.3002 -0.0741  0.1257
 4790WAT      O19865   5.410   2.529   2.427 -0.0271  0.0458  0.0002
 4790WAT     H119866   5.381   2.559   2.350 -1.1906 -0.4579  0.2147
 4790WAT     H219867   5.481   2.577   2.443  0.6955 -0.3471 -1.7470
 4790WAT    EPW19868   5.416   2.540   2.418  1.0628  0.0831  0.2014
 4791WAT      O19869   6.292   2.667   2.969 -0.3352  0.0809  1.1132
 4791WAT     H119870   6.267   2.691   3.049 -2.8930 -0.9584  0.7378
 4791WAT     H219871   6.316   2.584   2.979  0.8019  0.3892  1.0388
 4791WAT    EPW19872   6.292   2.658   2.982  0.3150 -0.5503  0.1359
 4792WAT      O19873   6.133   0.929   2.932  0.4054 -0.1807  0.4174
 4792WAT     H119874   6.173   0.852   2.938 -1.2550 -1.1186  0.2602
 4792WAT     H219875   6.125   0.956   3.014  0.8542 -0.2525  0.4833
 4792WAT    EPW19876   6.138   0.922   2.945  0.6720  0.6778 -0.6642
 4793WAT      O19877   7.905   1.855   2.267  0.0787  0.1863 -0.2094
 4793WAT     H119878   7.980   1.863   2.222 -0.2941 -0.7783 -1.0520
 4793WAT     H219879   7.846   1.835   2.206 -0.2634 -2.1992  0.7878
 4793WAT    EPW19880   7.907   1.853   2.251  0.5359  0.4361 -0.2814
 4794WAT      O19881   6.092   1.987   2.773 -0.4313 -0.5757  0.1469
 4794WAT     H119882   6.170   2.007   2.738 -0.3616 -0.5078  0.3374
 4794WAT     H219883   6.070   1.912   2.734 -0.4602 -0.3859 -0.2097
 4794WAT    EPW19884   6.100   1.979   2.762  0.2465 -0.3846 -0.9143
 4795WAT      O19885   6.847   1.970   2.914 -0.2215 -0.0249  0.6807
 4795WAT     H119886   6.903   1.939   2.855  0.8196  0.1820  1.5047
 4795WAT     H219887   6.890   2.037   2.949 -0.7268 -0.2475  1.7805
 4795WAT    EPW19888   6.862   1.975   2.911  0.1593 -0.8470  1.1861
 4796WAT      O19889   8.083   2.014   2.014  0.5485  0.5374  0.1679
 4796WAT     H119890   8.029   2.014   1.946  2.0644 -2.2745 -1.2340
 4796WAT     H219891   8.106   2.098   2.023 -2.7252  1.6121 -0.1166
 4796WAT    EPW19892   8.079   2.026   2.006  0.8634  0.9251 -0.8752
 4797WAT      O19893   6.497   1.506   2.034  0.2359 -0.2076  0.1069
 4797WAT     H119894   6.561   1.547   2.076 -0.3532  0.8753 -0.0355
 4797WAT     H219895   6.539   1.451   1.982  1.0157 -2.5607  2.9326
 4797WAT    EPW19896   6.512   1.504   2.033 -0.2834 -0.9991 -0.3999
 4798WAT      O19897   7.111   0.951   2.418  0.1314 -0.2016 -0.1092
 4798WAT     H119898   7.079   0.997   2.351 -0.8076 -0.6810 -0.0133
 4798WAT     H219899   7.178   0.999   2.446  1.5877 -0.7437 -2.3863
 4798WAT    EPW19900   7.116   0.965   2.412  0.9248  1.1225  0.2405
 4799WAT      O19901   6.839   1.993   0.958 -0.6389  0.5748 -0.1753
 4799WAT     H119902   6.842   2.074   0.992  1.8367 -0.1586  1.6191
 4799WAT     H219903   6.922   1.977   0.936 -1.2113 -1.2068 -1.2115
 4799WAT    EPW19904   6.852   2.003   0.960 -0.4501  0.4436 -0.8301
 4800WAT      O19905   3.575   1.294   1.425 -1.0829 -0.0890 -0.2261
 4800WAT     H119906   3.645   1.242   1.422 -1.0034 -0.1555  1.9050
 4800WAT     H219907   3.547   1.288   1.507 -1.5759  2.6201 -0.1009
 4800WAT    EPW19908   3.581   1.285   1.436 -0.0507  0.6562 -0.2539
 4801WAT      O19909   4.988   2.988   2.081 -0.2492  0.7272 -0.2248
 4801WAT     H119910   4.952   2.911   2.064  2.8235 -0.5613 -1.6391
 4801WAT     H219911   4.945   3.043   2.028  0.9181 -1.0491 -3.2536
 4801WAT    EPW19912   4.977   2.985   2.070 -0.0777  0.0415  0.3727
 4802WAT      O19913   7.296   3.449   2.968 -0.2667 -0.0917 -0.1473
 4802WAT     H119914   7.316   3.421   3.048 -1.1082 -0.4253 -0.0446
 4802WAT     H219915   7.331   3.529   2.965  1.3166 -0.7407 -0.0940
 4802WAT    EPW19916   7.304   3.457   2.980  0.0532 -0.0176 -0.8597
 4803WAT      O19917   7.584   2.157   2.257  0.7095  0.1692  0.2439
 4803WAT     H119918   7.621   2.234   2.241  1.3740 -0.0564  0.6988
 4803WAT     H219919   7.642   2.115   2.307  0.7373 -0.9543 -0.6820
 4803WAT    EPW19920   7.598   2.162   2.262 -0.7324  0.2773 -0.2926
 4804WAT      O19921   5.177   0.915   1.718  0.0524 -0.4719  0.5175
 4804WAT     H119922   5.145   0.996   1.727 -0.9829 -0.6239 -1.3940
 4804WAT     H219923   5.233   0.922   1.651  1.5064 -0.9494  1.6292
 4804WAT    EPW19924   5.180   0.928   1.709  0.1101  0.2034 -0.2036
 4805WAT      O19925   7.839   1.348   0.711 -0.5121 -0.4042 -0.0108
 4805WAT     H119926   7.877   1.358   0.632  1.3241  0.7200  0.9247
 4805WAT     H219927   7.791   1.421   0.719 -1.2969 -0.8733 -0.3757
 4805WAT    EPW19928   7.838   1.360   0.701  0.4259 -0.9943 -0.6776
 4806WAT      O19929   5.081   2.337   2.579 -0.2264  0.4189  0.2167
 4806WAT     H119930   5.137   2.369   2.638  0.9947  0.5146 -0.9367
 4806WAT     H219931   5.083   2.396   2.515  0.4927 -0.9212 -1.0547
 4806WAT    EPW19932   5.090   2.351   2.578 -0.2062 -0.2296  0.8376
 4807WAT      O19933   7.024   1.734   1.869 -0.5372 -0.5390 -0.2127
 4807WAT     H119934   7.089   1.751   1.924 -0.1238 -2.2820 -0.0849
 4807WAT     H219935   6.978   1.807   1.868  1.1204  0.5679  0.1138
 4807WAT    EPW19936   7.027   1.747   1.877 -0.4009  0.4286 -1.0247
 4808WAT      O19937   0.352   2.287   3.905 -0.6417  0.1010 -0.0022
 4808WAT     H119938   0.371   2.202   3.917 -1.7958 -0.6274 -2.6332
 4808WAT     H219939   0.429   2.327   3.916  0.0980 -1.3766  0.4718
 4808WAT    EPW19940   0.367   2.280   3.909 -0.3087 -0.3346 -0.8816
 4809WAT      O19941   4.380   3.357   1.608 -0.2006 -0.0110 -0.6310
 4809WAT     H119942   4.434   3.354   1.677 -0.1920  0.0997 -0.6330
 4809WAT     H219943   4.393   3.281   1.568 -1.6028 -0.9444  0.5563
 4809WAT    EPW19944   4.390   3.346   1.613  0.0110  0.8645  0.1538
 4810WAT      O19945   6.138   0.662   1.844 -0.5505  0.1633 -0.3426
 4810WAT     H119946   6.060   0.628   1.862 -0.4991 -0.2130 -0.8270
 4810WAT     H219947   6.142   0.661   1.757  0.0235  0.1195 -0.3192
 4810WAT    EPW19948   6.127   0.657   1.834 -0.2003 -0.0413  0.1247
 4811WAT      O19949   6.210   1.169   1.866 -0.5340  0.0935 -0.6573
 4811WAT     H119950   6.255   1.208   1.930 -0.2908 -0.8981 -0.2072
 4811WAT     H219951   6.211   1.085   1.888 -2.8829  0.0396 -0.4767
 4811WAT    EPW19952   6.217   1.162   1.879 -0.6983 -0.0089 -0.2580
 4812WAT      O19953   5.604   2.930   1.605 -0.1944  0.1758  0.4569
 4812WAT     H119954   5.578   2.858   1.563  0.3380 -0.3666  1.0320
 4812WAT     H219955   5.689   2.916   1.620 -0.5981 -0.1900  2.7127
 4812WAT    EPW19956   5.613   2.918   1.601  0.2736  0.9148  1.1495
 4813WAT      O19957   5.779   2.121   2.095  0.5908 -0.4932  0.7812
 4813WAT     H119958   5.806   2.182   2.039  0.2972 -1.6933 -0.7305
 4813WAT     H219959   5.832   2.054   2.079 -2.3758 -2.5112 -1.4683
 4813WAT    EPW19960   5.791   2.120   2.085  0.1583  0.3996 -0.4638
 4814WAT      O19961   7.246   1.997   0.776  0.4367  0.1057  0.3460
 4814WAT     H119962   7.223   2.020   0.858  2.4651  1.1974  0.6825
 4814WAT     H219963   7.239   2.072   0.732 -1.8879 -0.7367 -0.8702
 4814WAT    EPW19964   7.242   2.012   0.782 -0.1196 -1.1276  0.7329
 4815WAT      O19965   4.684   1.610   1.830 -0.0076  0.4677  0.1163
 4815WAT     H119966   4.618   1.647   1.873 -0.1555  0.2255  0.0994
 4815WAT     H219967   4.650   1.536   1.799  0.6713 -0.4160  1.3799
 4815WAT    EPW19968   4.669   1.604   1.832  0.8931  0.1323 -1.0252
 4816WAT      O19969   6.746   1.096   2.728  0.2977  0.0077 -0.3262
 4816WAT     H119970   6.727   1.179   2.712 -1.3517 -0.1372  0.6491
 4816WAT     H219971   6.734   1.056   2.652 -0.8707  0.3582 -0.3369
 4816WAT    EPW19972   6.742   1.102   2.714  0.3700 -0.4999 -0.8102
 4817WAT      O19973   6.373   0.469   1.929  0.3301 -0.6696  0.0126
 4817WAT     H119974   6.383   0.417   1.860 -0.9824 -1.8571  0.6653
 4817WAT     H219975   6.306   0.520   1.907 -0.3277 -1.2874  0.4871
 4817WAT    EPW19976   6.365   0.469   1.916 -0.7277 -0.7535 -0.3661
 4818WAT      O19977   6.545   3.053   3.198  0.4276  0.2524  0.3509
 4818WAT     H119978   6.558   2.967   3.207 -0.7609 -0.0217 -0.4111
 4818WAT     H219979   6.540   3.081   3.281  0.6267 -0.4365  0.6070
 4818WAT    EPW19980   6.546   3.044   3.212 -0.3220 -0.4491 -0.6995
 4819WAT      O19981   6.743   0.806   2.822 -0.4703 -0.3867  0.1929
 4819WAT     H119982   6.720   0.891   2.825  0.4891 -0.0112 -1.5925
 4819WAT     H219983   6.739   0.781   2.905 -0.4087  1.5254  0.8257
 4819WAT    EPW19984   6.739   0.815   2.834 -0.3121 -0.0876  0.4088
 4820WAT      O19985   4.654   1.608   1.339 -0.7428  0.0337  0.1899
 4820WAT     H119986   4.622   1.689   1.324  0.2011  0.2595 -0.7039
 4820WAT     H219987   4.582   1.559   1.345 -1.3627  0.3683 -2.7466
 4820WAT    EPW19988   4.638   1.613   1.338 -0.1382 -0.2210  0.7464
 4821WAT      O19989   4.948   1.212   1.378  0.1571 -0.3894 -0.4627
 4821WAT     H119990   4.908   1.220   1.455 -1.6418 -0.3376 -1.3535
 4821WAT     H219991   4.942   1.292   1.344 -1.3610 -0.9692 -1.6789
 4821WAT    EPW19992   4.941   1.225   1.385 -0.3438  0.7916 -0.3220
 4822WAT      O19993   6.641   1.003   3.102  0.1175 -0.5262  0.1854
 4822WAT     H119994   6.615   0.920   3.091 -1.8501 -0.0285  0.6164
 4822WAT     H219995   6.590   1.047   3.047  0.7060  0.4564  0.4106
 4822WAT    EPW19996   6.630   0.997   3.092 -0.3116  0.5076  0.1346
 4823WAT      O19997   6.272   1.843   2.292  0.2258 -0.4799 -0.4231
 4823WAT     H119998   6.313   1.901   2.342  1.4090  0.6836 -2.5991
 4823WAT     H219999   6.193   1.879   2.279 -0.3305 -1.1016  1.0494
 4823WAT    EPW20000   6.266   1.857   2.298  0.2802 -0.5362  0.1332
 4824WAT      O20001   6.679   1.601   2.399  0.2972 -0.2734  0.0643
 4824WAT     H120002   6.699   1.611   2.315 -1.9992  2.5413 -0.3056
 4824WAT     H220003   6.757   1.602   2.438  1.3897 -1.1587 -1.9340
 4824WAT    EPW20004   6.694   1.603   2.392 -0.0769  0.4079 -1.7639
 4825WAT      O20005   6.565   2.699   2.544 -0.2637 -0.0352  0.1744
 4825WAT     H120006   6.569   2.613   2.535  0.0273  0.0882 -1.1442
 4825WAT     H220007   6.488   2.713   2.582 -1.2983 -0.7773 -1.5428
 4825WAT    EPW20008   6.555   2.689   2.548 -0.7984 -0.1656  0.1382
 4826WAT      O20009   7.895   1.043   0.118 -0.0235  0.1841 -0.2722
 4826WAT     H120010   7.853   1.074   0.188 -0.9962 -1.3999 -0.1208
 4826WAT     H220011   7.894   1.111   0.063 -2.1478  0.4891  0.0260
 4826WAT    EPW20012   7.888   1.058   0.120  0.3574  0.3297  0.3451
 4827WAT      O20013   5.790   1.620   2.540 -0.4803 -0.2167 -0.3312
 4827WAT     H120014   5.791   1.665   2.465 -0.8945 -0.6748 -0.6233
 4827WAT     H220015   5.734   1.665   2.589  0.2056  0.3943 -0.0861
 4827WAT    EPW20016   5.782   1.634   2.536  0.4325 -0.0247 -0.7113
 4828WAT      O20017   6.223   0.956   3.598  0.0100 -0.0245  0.7434
 4828WAT     H120018   6.193   1.024   3.644 -1.0110 -0.4582  0.7580
 4828WAT     H220019   6.242   0.991   3.520  0.9489  0.5523  1.2082
 4828WAT    EPW20020   6.221   0.971   3.593  0.1300  0.1000 -0.2004
 4829WAT      O20021   6.106   3.178   0.960  0.2592 -0.0609  0.0282
 4829WAT     H120022   6.120   3.221   1.035 -0.4252 -0.1869  0.2385
 4829WAT     H220023   6.164   3.113   0.962 -0.1982 -0.4587  0.7735
 4829WAT    EPW20024   6.117   3.175   0.971  0.2323  0.0862 -0.8205
 4830WAT      O20025   5.978   3.165   3.043  0.3880 -0.0985  0.7234
 4830WAT     H120026   5.971   3.082   3.066  1.4540  0.0554  1.6310
 4830WAT     H220027   5.896   3.195   3.051  0.3158 -0.6172  2.1129
 4830WAT    EPW20028   5.965   3.157   3.047  0.0723  0.2639  0.0904
 4831WAT      O20029   3.841   1.570   1.837 -0.4949  0.2710 -0.5556
 4831WAT     H120030   3.885   1.638   1.870 -1.6142  0.8654 -0.2453
 4831WAT     H220031   3.865   1.504   1.889 -0.3772  0.6965 -0.0592
 4831WAT    EPW20032   3.851   1.570   1.850  0.3055 -1.1061  0.4987
 4832WAT      O20033   7.106   1.270   1.771 -0.4067  0.5943 -0.0475
 4832WAT     H120034   7.075   1.230   1.700 -0.1319  0.7849 -0.2799
 4832WAT     H220035   7.070   1.349   1.767 -0.6769  0.4865  0.2247
 4832WAT    EPW20036   7.096   1.276   1.760  1.0174 -0.0565 -0.0892
 4833WAT      O20037   7.078   1.861   2.317 -0.0684 -0.2875  0.0107
 4833WAT     H120038   7.022   1.858   2.250  1.8279 -0.7956 -1.6969
 4833WAT     H220039   7.034   1.901   2.380 -1.5177  1.5921 -2.0508
 4833WAT    EPW20040   7.063   1.866   2.316  0.9670  0.4166  0.0846
 4834WAT      O20041   7.621   3.486   2.662  0.8162  0.1789  0.5117
 4834WAT     H120042   7.572   3.557   2.645  2.6732  1.1025 -1.4465
 4834WAT     H220043   7.615   3.438   2.590  0.7445 -0.9924  1.2611
 4834WAT    EPW20044   7.613   3.490   2.649 -0.1191 -0.0775 -0.1089
 4835WAT      O20045   6.910   3.275   2.510  0.1398  0.0672  0.5368
 4835WAT     H120046   6.889   3.357   2.488 -0.4850 -0.1590  0.2502
 4835WAT     H220047   6.929   3.238   2.434 -3.5152 -1.1440  0.0315
 4835WAT    EPW20048   6.910   3.282   2.496 -0.2003 -0.1608  0.0741
 4836WAT      O20049   5.805   1.134   1.934 -0.0576  0.0812 -0.1963
 4836WAT     H120050   5.866   1.180   1.891  0.0543  2.7546  2.5281
 4836WAT     H220051   5.851   1.088   1.992 -0.3980 -1.4079 -1.0521
 4836WAT    EPW20052   5.821   1.134   1.936  0.5803 -0.2324  0.0491
 4837WAT      O20053   6.995   1.159   1.536 -0.2334 -0.3934 -0.1666
 4837WAT     H120054   6.936   1.195   1.483  1.5268 -0.7651 -2.5342
 4837WAT     H220055   7.032   1.098   1.487  2.0915 -0.2125  1.2095
 4837WAT    EPW20056   6.992   1.156   1.521 -0.8510  0.3817 -0.7578
 4838WAT      O20057   5.303   3.229   2.678 -0.2741 -0.1251 -0.1862
 4838WAT     H120058   5.260   3.303   2.659 -0.8817 -0.4892 -0.2765
 4838WAT     H220059   5.382   3.256   2.702 -0.4320  0.5417 -0.4028
 4838WAT    EPW20060   5.308   3.244   2.679 -0.0191 -0.1245 -0.8332
 4839WAT      O20061   0.350   0.319   2.692 -0.1168 -0.0072  0.3641
 4839WAT     H120062   0.397   0.263   2.740 -0.5408 -0.2069  0.5568
 4839WAT     H220063   0.407   0.382   2.672  0.5214 -0.7779 -0.3218
 4839WAT    EPW20064   0.365   0.320   2.696  0.3619  0.5100  0.0934
 4840WAT      O20065   5.973   2.614   2.770  0.1722  0.3630  0.4107
 4840WAT     H120066   5.891   2.583   2.768  0.7069 -1.3696  2.0753
 4840WAT     H220067   5.986   2.642   2.688 -1.9584  0.3832  0.0178
 4840WAT    EPW20068   5.962   2.613   2.758  0.4169 -0.0061  0.6776
 4841WAT      O20069   6.080   0.838   3.929  0.2047  0.0123 -0.0660
 4841WAT     H120070   6.162   0.859   3.950  0.5454 -0.2724 -1.0436
 4841WAT     H220071   6.089   0.790   3.857 -0.7687 -0.7846  0.3240
 4841WAT    EPW20072   6.093   0.834   3.922  0.1086  0.3002  0.7440
 4842WAT      O20073   4.849   0.562   1.210 -0.0484 -0.1271 -0.4290
 4842WAT     H120074   4.810   0.632   1.245 -1.2713 -1.6821  1.5030
 4842WAT     H220075   4.784   0.521   1.170  0.7068 -0.1057 -1.7331
 4842WAT    EPW20076   4.834   0.567   1.209  0.9070 -1.0428  0.5382
 4843WAT      O20077   7.702   2.173   1.850 -0.2314  0.1020  0.5920
 4843WAT     H120078   7.725   2.249   1.887 -0.4020  0.3574  0.1803
 4843WAT     H220079   7.776   2.146   1.813 -0.7588  1.4237 -1.6055
 4843WAT    EPW20080   7.716   2.180   1.850  0.5433  1.0236 -0.5172
 4844WAT      O20081   6.232   1.370   2.362 -0.2827  0.4532  0.4768
 4844WAT     H120082   6.166   1.403   2.315 -1.0185 -0.3916  0.8877
 4844WAT     H220083   6.291   1.435   2.363 -1.4954  1.5883  0.8962
 4844WAT    EPW20084   6.231   1.385   2.355 -0.5035  0.2583  0.3310
 4845WAT      O20085   6.726   1.700   2.808  0.3269  0.4398 -0.6294
 4845WAT     H120086   6.654   1.661   2.839  0.3929  0.9989  0.2781
 4845WAT     H220087   6.735   1.770   2.860  1.6842  0.2341 -0.5639
 4845WAT    EPW20088   6.717   1.705   2.820 -0.1430 -0.1969  0.8513
 4846WAT      O20089   7.042   3.569   2.943 -0.0222  0.3604 -0.1489
 4846WAT     H120090   7.120   3.529   2.944  0.2203  0.8364  0.3520
 4846WAT     H220091   7.039   3.609   3.020 -2.1088 -2.2158  1.2754
 4846WAT    EPW20092   7.053   3.569   2.954  0.4574  0.8507  0.3404
 4847WAT      O20093   4.870   1.674   2.262 -0.0348  0.0694 -0.7372
 4847WAT     H120094   4.880   1.693   2.178 -0.8889  1.1392 -0.6222
 4847WAT     H220095   4.784   1.663   2.271  0.0388  0.0014 -0.0026
 4847WAT    EPW20096   4.859   1.675   2.251  0.1220  0.2713  0.5721
 4848WAT      O20097   5.708   1.648   1.614  0.3760 -0.4206  0.3829
 4848WAT     H120098   5.636   1.633   1.566  0.6766  1.3710 -0.7001
 4848WAT     H220099   5.731   1.729   1.591  2.1255 -0.5553  1.5413
 4848WAT    EPW20100   5.701   1.658   1.603 -0.2951 -0.0032 -0.1870
 4849WAT      O20101   4.220   1.888   1.697 -0.0333 -0.4847  0.4502
 4849WAT     H120102   4.235   1.802   1.706  0.4425 -0.4144  0.3758
 4849WAT     H220103   4.288   1.915   1.649 -0.7098 -0.2418 -0.3721
 4849WAT    EPW20104   4.232   1.879   1.692 -0.2553 -0.0385  0.1384
 4850WAT      O20105   6.234   2.953   2.481  0.0089  0.2075  0.4892
 4850WAT     H120106   6.159   2.998   2.484 -0.6706 -0.7873 -0.5794
 4850WAT     H220107   6.210   2.872   2.503  0.3811 -0.5500 -1.6547
 4850WAT    EPW20108   6.219   2.948   2.485 -0.6109  0.4741 -0.5308
 4851WAT      O20109   7.488   1.530   2.175  0.1345  0.7736 -0.3892
 4851WAT     H120110   7.495   1.444   2.186 -1.9691  0.6730  0.5756
 4851WAT     H220111   7.466   1.560   2.254  1.8026  2.3502 -0.4739
 4851WAT    EPW20112   7.485   1.522   2.188 -0.3236 -0.0370 -0.2306
 4852WAT      O20113   6.757   2.291   1.643  0.0195  0.1875 -0.3377
 4852WAT     H120114   6.758   2.376   1.660  0.0380  0.1317 -0.0518
 4852WAT     H220115   6.828   2.261   1.683 -1.7883 -0.5348  2.7148
 4852WAT    EPW20116   6.767   2.299   1.651  0.0094 -0.2218 -0.1152
 4853WAT      O20117   6.066   1.505   0.726 -0.2568  0.7131 -0.1256
 4853WAT     H120118   6.111   1.494   0.800 -1.5909  1.5952  0.8566
 4853WAT     H220119   5.986   1.523   0.753 -1.1135 -0.2807 -1.8290
 4853WAT    EPW20120   6.061   1.506   0.741  0.3236  0.5675  0.6035
 4854WAT      O20121   6.953   3.073   3.591 -0.1362  0.3617 -0.0388
 4854WAT     H120122   7.030   3.032   3.588  0.1144  0.8336 -0.2217
 4854WAT     H220123   6.923   3.066   3.509  1.1505  2.8416 -0.8173
 4854WAT    EPW20124   6.960   3.066   3.578  0.5025  0.2627  0.1318
 4855WAT      O20125   5.671   3.163   1.468  0.1917  0.0215 -0.7721
 4855WAT     H120126   5.641   3.095   1.514 -0.6354  0.3782 -0.7651
 4855WAT     H220127   5.741   3.189   1.512 -1.2280  1.0781  0.9929
 4855WAT    EPW20128   5.677   3.157   1.481 -0.1448 -0.5328 -0.2469
 4856WAT      O20129   7.007   2.321   2.390 -0.1334  0.5847  0.2955
 4856WAT     H120130   6.965   2.367   2.452  1.2277  2.1033  0.1717
 4856WAT     H220131   6.950   2.320   2.323 -0.8824  0.5464  0.9197
 4856WAT    EPW20132   6.992   2.328   2.389  0.0797 -0.5438  0.2703
 4857WAT      O20133   6.756   1.601   1.859 -0.5851 -0.2519 -0.1543
 4857WAT     H120134   6.696   1.646   1.814 -0.8342 -1.4052 -1.0329
 4857WAT     H220135   6.828   1.609   1.811 -0.2534  0.3918  0.4388
 4857WAT    EPW20136   6.758   1.609   1.845 -0.5753  0.0478 -0.4397
 4858WAT      O20137   5.180   2.049   2.746 -0.0739  0.7625 -0.4671
 4858WAT     H120138   5.234   2.020   2.684  0.8451 -0.2552  0.7267
 4858WAT     H220139   5.231   2.102   2.794 -0.1254 -0.1175  0.6125
 4858WAT    EPW20140   5.196   2.052   2.744 -0.5680  0.0861 -0.1905
 4859WAT      O20141   5.830   2.178   2.970  0.0305  0.0456 -0.3937
 4859WAT     H120142   5.866   2.183   2.890 -0.6771  1.5699 -0.6468
 4859WAT     H220143   5.833   2.260   2.999 -0.2006 -0.3979  0.9561
 4859WAT    EPW20144   5.836   2.191   2.962 -0.5244 -0.5661  0.0951
 4860WAT      O20145   7.102   2.697   2.750 -0.7305  0.0028 -0.1698
 4860WAT     H120146   7.052   2.661   2.689 -0.9103  0.8004 -0.5049
 4860WAT     H220147   7.120   2.776   2.718  1.0753 -0.4092 -0.2377
 4860WAT    EPW20148   7.097   2.704   2.737 -0.1320  0.0659 -0.0711
 4861WAT      O20149   0.645   2.728   3.100  0.5028 -0.3954 -0.3518
 4861WAT     H120150   0.701   2.755   3.038  1.8758 -1.2543  0.4433
 4861WAT     H220151   0.569   2.763   3.076  1.3819  0.8557 -1.4813
 4861WAT    EPW20152   0.642   2.738   3.087 -0.2952  0.0244  0.4486
 4862WAT      O20153   6.484   1.815   3.806  0.2566 -0.3585 -0.3238
 4862WAT     H120154   6.534   1.811   3.734  0.5269 -1.9491 -0.0874
 4862WAT     H220155   6.409   1.777   3.780 -1.3724  2.9423 -1.0066
 4862WAT    EPW20156   6.480   1.809   3.791 -0.8170  0.1930 -1.0326
 4863WAT      O20157   0.053   2.446   2.574  0.4144 -0.2873  0.0479
 4863WAT     H120158   0.130   2.471   2.607 -0.1384  3.1869 -0.8322
 4863WAT     H220159  -0.003   2.463   2.639  0.1217 -0.3402 -0.1897
 4863WAT    EPW20160   0.056   2.452   2.588 -0.2963  0.4026 -0.3683
 4864WAT      O20161   6.340   2.492   0.903  0.2275  0.3443 -0.8556
 4864WAT     H120162   6.323   2.421   0.855  0.7988  0.5985 -1.4611
 4864WAT     H220163   6.398   2.463   0.962 -0.0187  0.1624 -0.7058
 4864WAT    EPW20164   6.346   2.477   0.904 -0.3169  0.1292 -0.4726
 4865WAT      O20165   7.509   2.959   3.601 -0.4984  0.3987  0.4769
 4865WAT     H120166   7.555   3.024   3.637 -0.9933  1.1654 -0.2435
 4865WAT     H220167   7.435   2.959   3.647 -0.2500 -0.0687  0.8794
 4865WAT    EPW20168   7.505   2.969   3.614 -1.3714  0.5798 -0.0611
 4866WAT      O20169   7.407   3.701   2.998 -0.1648  0.2100 -0.7841
 4866WAT     H120170   7.377   3.768   2.950  1.2101  1.2900 -0.2223
 4866WAT     H220171   7.485   3.730   3.026 -0.8940 -0.3301  2.1030
 4866WAT    EPW20172   7.414   3.715   2.995  0.4489 -0.4254  0.3461
 4867WAT      O20173   7.587   2.876   3.341 -0.2234  0.7214  0.2706
 4867WAT     H120174   7.635   2.804   3.348  1.1956  1.6441  0.5136
 4867WAT     H220175   7.577   2.902   3.424 -1.5778  0.3059  0.2692
 4867WAT    EPW20176   7.592   2.870   3.355 -0.3951  0.2657  0.4336
 4868WAT      O20177   0.427   2.856   3.013 -0.3247  0.0217  0.3463
 4868WAT     H120178   0.365   2.886   3.067 -0.0291  1.4162 -0.0536
 4868WAT     H220179   0.424   2.911   2.945  0.5974 -0.5614 -0.1921
 4868WAT    EPW20180   0.417   2.869   3.011 -0.6765 -0.4771  0.4766
 4869WAT      O20181   4.837   2.759   2.539  1.3280 -0.3886 -0.9624
 4869WAT     H120182   4.891   2.744   2.606 -1.3006  1.4410  1.8616
 4869WAT     H220183   4.870   2.829   2.501  0.5476  1.4191  1.4331
 4869WAT    EPW20184   4.850   2.767   2.544  0.1853 -0.4562 -0.6692
 4870WAT      O20185   5.558   1.760   2.702  0.4509  0.1684  0.2741
 4870WAT     H120186   5.555   1.676   2.725  1.7478 -0.2206 -0.8505
 4870WAT     H220187   5.568   1.802   2.778  1.2710 -0.8199  0.7402
 4870WAT    EPW20188   5.559   1.754   2.717  0.5074 -0.2683 -0.6122
 4871WAT      O20189   7.198   1.357   2.336  0.3977  0.0385 -0.5542
 4871WAT     H120190   7.117   1.343   2.367  0.3572  0.6982 -0.3553
 4871WAT     H220191   7.241   1.387   2.406  0.3035  1.5572 -1.1274
 4871WAT    EPW20192   7.193   1.359   2.351  0.0920  0.0824 -0.7391
 4872WAT      O20193   7.062   0.854   2.700 -0.1927 -0.3530  0.3480
 4872WAT     H120194   7.045   0.845   2.615 -0.8617 -0.1222  0.4534
 4872WAT     H220195   6.986   0.877   2.734  0.6360  2.3408  0.5981
 4872WAT    EPW20196   7.048   0.856   2.692 -0.4015 -0.4456 -1.2315
 4873WAT      O20197   6.175   1.597   1.529 -0.0204 -0.1514  0.1538
 4873WAT     H120198   6.115   1.609   1.466 -1.8447  0.6221  1.8976
 4873WAT     H220199   6.183   1.677   1.564  1.3984 -0.4380  0.5426
 4873WAT    EPW20200   6.167   1.611   1.525  0.2655 -0.3901 -0.0728
 4874WAT      O20201   7.711   0.525   3.133  0.4252  0.5217  0.6101
 4874WAT     H120202   7.643   0.579   3.131 -1.7721 -1.4446  5.6365
 4874WAT     H220203   7.686   0.458   3.083  0.1587  1.2255 -0.2120
 4874WAT    EPW20204   7.697   0.523   3.125 -0.3291 -0.4464 -0.5735
 4875WAT      O20205   5.499   0.286   2.408 -0.8377  0.6717  0.1850
 4875WAT     H120206   5.551   0.356   2.405 -0.2945  0.4040  2.0755
 4875WAT     H220207   5.515   0.252   2.487 -0.8794 -1.7474 -0.7678
 4875WAT    EPW20208   5.509   0.291   2.419 -0.3935  0.0403 -0.1987
 4876WAT      O20209   5.965   1.280   1.761 -0.2465  0.3145 -0.1958
 4876WAT     H120210   5.969   1.367   1.755 -1.8773  0.9152  3.8150
 4876WAT     H220211   6.048   1.256   1.774  0.1262  1.3628 -0.5773
 4876WAT    EPW20212   5.978   1.289   1.762  0.0926 -0.2106  0.1257
 4877WAT      O20213   6.589   2.447   2.518  0.3829 -0.1547 -0.0937
 4877WAT     H120214   6.627   2.406   2.585  1.4185  0.6584 -0.1615
 4877WAT     H220215   6.605   2.394   2.450  1.0644 -0.0161 -0.0483
 4877WAT    EPW20216   6.597   2.433   2.518 -0.3938 -0.7896 -0.2378
 4878WAT      O20217   7.823   3.215   2.980  0.5435 -0.1949  0.2101
 4878WAT     H120218   7.775   3.286   2.962  0.0436 -0.8614 -1.1895
 4878WAT     H220219   7.769   3.164   3.024  0.0417 -0.7873 -1.0446
 4878WAT    EPW20220   7.808   3.218   2.984  0.3943 -0.7780  0.3968
 4879WAT      O20221   7.479   2.821   2.126  0.8177  0.3704  0.0458
 4879WAT     H120222   7.421   2.871   2.084 -0.1035 -0.2361  0.5410
 4879WAT     H220223   7.433   2.790   2.194  1.6329 -0.3914  0.2695
 4879WAT    EPW20224   7.464   2.824   2.130  0.0714 -1.0085  0.0719
 4880WAT      O20225   7.276   2.264   1.976 -0.2129  0.0125  0.0232
 4880WAT     H120226   7.305   2.306   2.047 -0.7454 -0.8530  0.7683
 4880WAT     H220227   7.320   2.188   1.978 -0.8250 -0.3468 -0.1212
 4880WAT    EPW20228   7.287   2.259   1.987  0.1164  0.2710 -0.0489
 4881WAT      O20229   6.586   1.644   1.610  0.3743 -0.1027  0.1093
 4881WAT     H120230   6.672   1.654   1.598  0.6951  0.0174  2.1601
 4881WAT     H220231   6.555   1.726   1.606  0.6032  0.0310  0.8415
 4881WAT    EPW20232   6.594   1.658   1.607  0.1617 -0.1486  0.2639
 4882WAT      O20233   6.333   1.693   2.647  0.4095 -0.3186  0.0869
 4882WAT     H120234   6.313   1.651   2.573  1.3205  1.0100 -0.9721
 4882WAT     H220235   6.405   1.737   2.626  0.6825  0.1058  1.7870
 4882WAT    EPW20236   6.341   1.693   2.633  0.2532 -0.6796 -0.5773
 4883WAT      O20237   7.102   1.599   1.193  0.3439  0.0039 -0.2906
 4883WAT     H120238   7.030   1.571   1.233 -0.1720 -2.3995 -2.6095
 4883WAT     H220239   7.163   1.542   1.218  0.7846  0.4179 -0.4141
 4883WAT    EPW20240   7.100   1.587   1.202 -0.9200  0.2886 -0.6804
 4884WAT      O20241   6.191   2.799   3.177  0.7636  0.0833 -0.5056
 4884WAT     H120242   6.123   2.801   3.123 -0.8695  1.0573  1.4556
 4884WAT     H220243   6.230   2.877   3.166 -0.1111  0.6575  0.3182
 4884WAT    EPW20244   6.187   2.811   3.168  1.1171  0.5094  0.3151
 4885WAT      O20245   7.012   3.168   2.727  0.5648  0.7352 -0.1596
 4885WAT     H120246   7.067   3.115   2.685  2.0017  1.8591  0.2057
 4885WAT     H220247   6.976   3.215   2.663 -0.7684 -0.6764 -0.4912
 4885WAT    EPW20248   7.015   3.167   2.711 -0.6169  0.3246 -0.0973
 4886WAT      O20249   6.314   0.968   1.651  0.0709  0.0587 -0.2434
 4886WAT     H120250   6.375   0.922   1.694  0.0273 -0.2415 -0.4928
 4886WAT     H220251   6.355   1.043   1.632  0.5285 -0.3216 -0.8169
 4886WAT    EPW20252   6.329   0.972   1.654 -0.2250 -0.6065  0.2220
 4887WAT      O20253   6.233   1.817   1.682 -0.2241  1.0044  0.1430
 4887WAT     H120254   6.254   1.778   1.757  0.9361  0.0969 -0.6190
 4887WAT     H220255   6.306   1.858   1.659 -0.3005  0.5831 -0.8976
 4887WAT    EPW20256   6.247   1.817   1.689 -0.4136 -0.1353 -0.6291
 4888WAT      O20257   6.202   2.235   1.817  0.3210  0.0177  0.0177
 4888WAT     H120258   6.200   2.283   1.745 -1.7569  1.2893  0.8294
 4888WAT     H220259   6.281   2.249   1.849  0.7282  0.6582 -1.2113
 4888WAT    EPW20260   6.213   2.244   1.811  0.1971  0.5923  0.9208
 4889WAT      O20261   6.751   0.413   2.441 -0.2736 -0.1598 -0.4802
 4889WAT     H120262   6.694   0.350   2.461 -2.1009  1.6314  0.3250
 4889WAT     H220263   6.722   0.482   2.487  3.3350  0.5475  1.0595
 4889WAT    EPW20264   6.738   0.414   2.451 -0.7576 -0.0340  1.0254
 4890WAT      O20265   6.145   0.981   3.200  0.1905  0.2491 -0.0740
 4890WAT     H120266   6.212   0.982   3.256  0.9787 -0.4177 -0.9616
 4890WAT     H220267   6.109   1.060   3.209  1.3266  0.7556  0.1828
 4890WAT    EPW20268   6.150   0.993   3.209 -0.3094  0.0197  1.4185
 4891WAT      O20269   5.907   3.656   2.852  0.0533  0.0755  0.5589
 4891WAT     H120270   5.959   3.725   2.839  0.9477 -1.0246 -2.3110
 4891WAT     H220271   5.838   3.673   2.802 -0.3638 -0.4996  0.9314
 4891WAT    EPW20272   5.905   3.669   2.843  0.4084 -0.3265 -0.5648
 4892WAT      O20273   7.106   0.921   1.400 -0.4544  0.2472  0.2290
 4892WAT     H120274   7.113   0.969   1.327 -1.2200 -0.3124 -0.2353
 4892WAT     H220275   7.038   0.868   1.383  0.1278 -0.7384  0.8684
 4892WAT    EPW20276   7.097   0.920   1.387  0.4170 -0.3298 -0.5864
 4893WAT      O20277   6.865   3.273   3.174 -0.0564 -0.1086 -0.6232
 4893WAT     H120278   6.899   3.339   3.220 -1.0998 -0.5238  0.8105
 4893WAT     H220279   6.934   3.222   3.156  0.2088 -0.7116  1.8340
 4893WAT    EPW20280   6.880   3.275   3.178  0.0888  0.1738  0.4890
 4894WAT      O20281   7.685   2.097   2.819  0.5473 -0.4140  0.2580
 4894WAT     H120282   7.742   2.033   2.802  1.0663 -0.0735  0.6915
 4894WAT     H220283   7.708   2.125   2.898  1.3785  1.4036 -0.5643
 4894WAT    EPW20284   7.697   2.092   2.828  0.1710 -0.4190  1.0441
 4895WAT      O20285   6.900   2.737   2.250  0.0485 -0.1922 -0.2522
 4895WAT     H120286   6.876   2.755   2.168 -0.5724 -0.0889 -0.0500
 4895WAT     H220287   6.833   2.765   2.298  0.7323  0.4679  0.3613
 4895WAT    EPW20288   6.887   2.744   2.245  0.4826 -0.1749  0.7114
 4896WAT      O20289   6.270   1.702   3.686 -0.3699 -0.1435 -0.0128
 4896WAT     H120290   6.338   1.666   3.645 -1.6420 -2.4170 -0.2709
 4896WAT     H220291   6.247   1.642   3.744 -0.9679  1.4320  1.4600
 4896WAT    EPW20292   6.277   1.688   3.688 -0.0522 -0.0373  0.0351
 4897WAT      O20293   0.152   2.617   1.032 -0.4242 -0.1646 -0.0271
 4897WAT     H120294   0.090   2.629   0.972  1.1561 -0.8628 -1.9058
 4897WAT     H220295   0.153   2.530   1.043  2.1081 -0.5288 -2.2746
 4897WAT    EPW20296   0.143   2.606   1.025  0.3780 -0.3431 -0.0549
 4898WAT      O20297   6.152   2.930   2.200 -0.7049 -0.0775  0.0977
 4898WAT     H120298   6.067   2.948   2.213 -0.6007  1.4718 -1.0599
 4898WAT     H220299   6.186   2.933   2.280 -1.4184  1.1497  0.3789
 4898WAT    EPW20300   6.144   2.933   2.214  0.4285 -0.2319  0.8793
 4899WAT      O20301   5.234   2.877   2.038  0.6891 -0.0308 -0.0722
 4899WAT     H120302   5.245   2.936   2.101 -0.0614 -1.1078  1.1088
 4899WAT     H220303   5.150   2.889   2.014  0.7922 -0.0359 -0.4446
 4899WAT    EPW20304   5.223   2.888   2.044 -0.1144  0.1375  0.6047
 4900WAT      O20305   5.899   3.061   2.130 -0.3888  0.1839 -0.8570
 4900WAT     H120306   5.857   3.023   2.196  0.2097  1.0686  0.0745
 4900WAT     H220307   5.925   3.138   2.164  2.5960 -0.5977 -1.1092
 4900WAT    EPW20308   5.897   3.067   2.145 -0.1347  1.0147  0.5091
 4901WAT      O20309   6.389   3.609   2.526  0.3884 -0.1949  0.3458
 4901WAT     H120310   6.441   3.661   2.478 -0.0910  1.1423  1.2310
 4901WAT     H220311   6.394   3.532   2.485  2.9218 -0.0895  0.2755
 4901WAT    EPW20312   6.398   3.606   2.513 -0.2925  0.2676 -0.3920
 4902WAT      O20313   4.782   1.199   1.625 -0.3214 -0.2106 -0.0615
 4902WAT     H120314   4.818   1.208   1.704  0.2920 -1.2343 -0.1954
 4902WAT     H220315   4.785   1.113   1.611  0.9258  0.0337 -1.7786
 4902WAT    EPW20316   4.788   1.188   1.634  1.2277 -0.4577 -0.5324
 4903WAT      O20317   5.251   0.640   1.801  0.1032 -0.4463  0.4020
 4903WAT     H120318   5.258   0.594   1.727 -0.5498 -0.0199  0.0679
 4903WAT     H220319   5.227   0.719   1.774  1.4592  0.1908  0.9536
 4903WAT    EPW20320   5.249   0.645   1.786  0.9037 -0.0197 -0.1355
 4904WAT      O20321   7.120   2.586   2.138  0.5125  0.3091 -0.7718
 4904WAT     H120322   7.058   2.637   2.173 -0.3303 -1.0029 -0.2191
 4904WAT     H220323   7.074   2.527   2.093  1.4152 -0.2193 -1.0288
 4904WAT    EPW20324   7.104   2.585   2.137 -0.1918 -0.5841 -0.2818
 4905WAT      O20325   6.734   0.549   2.196  0.3579 -0.2625 -0.3205
 4905WAT     H120326   6.727   0.497   2.266 -1.9774 -0.0022 -0.2845
 4905WAT     H220327   6.752   0.627   2.231 -1.7659  0.0730  0.1446
 4905WAT    EPW20328   6.736   0.553   2.212 -0.0204  0.0945  0.6675
 4906WAT      O20329   5.497   4.142   2.899  0.2127 -0.1084  0.2130
 4906WAT     H120330   5.578   4.176   2.898 -0.3881  1.4136  0.9957
 4906WAT     H220331   5.506   4.071   2.949  1.2471 -0.5189 -0.5022
 4906WAT    EPW20332   5.511   4.136   2.906  0.0265  0.2849 -0.7299
 4907WAT      O20333   7.230   1.094   1.989  0.4706  0.4489 -0.1568
 4907WAT     H120334   7.199   1.160   1.941  2.0118  1.2022 -0.1857
 4907WAT     H220335   7.313   1.118   2.005  0.8756 -1.1844  0.3666
 4907WAT    EPW20336   7.238   1.107   1.984  0.3046 -0.1891  0.7312
 4908WAT      O20337   6.503   1.151   2.922  0.0523  0.5064  0.1507
 4908WAT     H120338   6.441   1.098   2.891  0.7180 -1.1935  1.5471
 4908WAT     H220339   6.527   1.198   2.852 -0.7709 -0.8485 -1.1054
 4908WAT    EPW20340   6.497   1.150   2.907  0.8874 -0.2694 -0.2154
 4909WAT      O20341   5.421   1.974   2.589 -0.2523 -0.2070 -0.5491
 4909WAT     H120342   5.464   1.902   2.614  0.7889  0.4317 -0.4098
 4909WAT     H220343   5.373   1.948   2.522  2.6287 -0.3776 -2.7521
 4909WAT    EPW20344   5.420   1.960   2.583 -0.2951 -0.0311  0.6522
 4910WAT      O20345   7.148   0.965   3.030 -0.4461 -0.1619  0.0176
 4910WAT     H120346   7.109   0.892   3.057 -0.9304  0.3060  0.6241
 4910WAT     H220347   7.087   1.004   2.981  0.1719 -0.6469 -1.1657
 4910WAT    EPW20348   7.133   0.960   3.027  0.3899 -0.7532 -1.1297
 4911WAT      O20349   6.116   0.711   3.702 -0.3968 -0.1217 -0.1156
 4911WAT     H120350   6.147   0.775   3.651 -0.5187  0.8175  0.9430
 4911WAT     H220351   6.034   0.700   3.673 -0.5157  0.5095 -0.0349
 4911WAT    EPW20352   6.108   0.719   3.690 -0.0513  0.4950 -0.5099
 4912WAT      O20353   6.312   2.377   2.731 -0.1120 -0.4452 -0.0730
 4912WAT     H120354   6.312   2.391   2.817 -0.0136  0.3624 -0.1959
 4912WAT     H220355   6.326   2.457   2.697 -0.5205 -0.6903 -0.8438
 4912WAT    EPW20356   6.314   2.391   2.738  1.1773 -0.6344  0.6008
 4913WAT      O20357   7.653   1.521   2.608  0.0411 -0.0612 -0.1371
 4913WAT     H120358   7.685   1.573   2.670  0.2837  0.1516 -0.4398
 4913WAT     H220359   7.677   1.441   2.633  0.2681  0.0389 -0.0340
 4913WAT    EPW20360   7.661   1.516   2.621 -0.3161  0.9899 -0.3101
 4914WAT      O20361   6.680   1.009   3.388  0.7546 -0.1294  0.1174
 4914WAT     H120362   6.663   0.980   3.307 -1.9107  0.1936  0.4755
 4914WAT     H220363   6.658   0.941   3.439 -1.9731  1.0819  0.7396
 4914WAT    EPW20364   6.674   0.995   3.383 -0.6915 -0.3674  0.7711
 4915WAT      O20365   6.309   1.095   2.495 -0.7174  0.0977  0.5369
 4915WAT     H120366   6.274   1.065   2.421 -0.5327  0.9813  0.0656
 4915WAT     H220367   6.248   1.149   2.526 -0.5015  0.2858  0.6402
 4915WAT    EPW20368   6.295   1.099   2.488  0.0158 -0.2138  0.5418
 4916WAT      O20369   5.830   3.914   1.718 -0.4651  0.3228 -0.0446
 4916WAT     H120370   5.882   3.947   1.656 -1.0069  0.6871 -0.3072
 4916WAT     H220371   5.873   3.842   1.744  0.0302  0.4654 -0.4581
 4916WAT    EPW20372   5.844   3.908   1.713  0.2558  0.5191  0.8037
 4917WAT      O20373   5.747   0.902   1.318 -0.7772  0.7326  0.6369
 4917WAT     H120374   5.809   0.859   1.275 -0.9511  0.9685  0.1381
 4917WAT     H220375   5.689   0.840   1.338 -0.4501  0.5353  0.9848
 4917WAT    EPW20376   5.748   0.887   1.315  0.4871  0.3229 -0.7461
 4918WAT      O20377   6.307   2.672   2.664  0.1399  0.4771  0.3871
 4918WAT     H120378   6.236   2.673   2.615  0.1125  1.0199  0.4351
 4918WAT     H220379   6.277   2.690   2.744  0.4156  1.4664  0.2832
 4918WAT    EPW20380   6.292   2.675   2.669 -0.3156 -0.4210 -0.0158
 4919WAT      O20381   6.028   1.414   2.186 -0.5468  0.0952 -0.1683
 4919WAT     H120382   5.941   1.415   2.194 -0.7402 -0.4692 -1.9008
 4919WAT     H220383   6.042   1.443   2.105  0.9598  1.2127  0.4479
 4919WAT    EPW20384   6.017   1.418   2.176 -0.1808  0.5228  0.8493
 4920WAT      O20385   0.408   1.824   3.525 -0.4811  0.8270 -0.4411
 4920WAT     H120386   0.482   1.869   3.537  0.2729 -0.7444  1.3329
 4920WAT     H220387   0.429   1.764   3.466 -0.6518  1.0316 -0.7114
 4920WAT    EPW20388   0.422   1.822   3.518 -0.0593 -0.3876 -0.5045
 4921WAT      O20389   6.489   0.558   1.446  0.3201  0.5182  0.2705
 4921WAT     H120390   6.538   0.495   1.482 -0.6840 -0.7024 -0.4013
 4921WAT     H220391   6.418   0.559   1.496 -1.4691 -1.7766 -1.9772
 4921WAT    EPW20392   6.486   0.549   1.459 -0.9881  0.4372 -0.5042
 4922WAT      O20393   6.415   3.766   3.002 -0.1545 -0.4424  0.1976
 4922WAT     H120394   6.378   3.712   2.944 -0.2434 -0.7045  0.4931
 4922WAT     H220395   6.359   3.833   3.005  0.2874 -0.0239 -0.6577
 4922WAT    EPW20396   6.401   3.768   2.994  0.0999 -0.1095 -0.1790
 4923WAT      O20397   6.604   2.117   3.217 -0.3554  0.3266  0.0253
 4923WAT     H120398   6.573   2.060   3.275 -1.7674  0.7950 -0.2442
 4923WAT     H220399   6.582   2.083   3.140  0.3636  0.3635 -0.2105
 4923WAT    EPW20400   6.596   2.103   3.215  0.7107  0.3013 -0.6697
 4924WAT      O20401   5.828   0.602   2.759  0.1117 -0.0339  0.5207
 4924WAT     H120402   5.841   0.606   2.672  0.3082  0.4912  0.5680
 4924WAT     H220403   5.839   0.685   2.784  3.5374 -0.6799  1.5588
 4924WAT    EPW20404   5.831   0.615   2.750 -0.3353  0.1486 -0.6742
 4925WAT      O20405   5.552   1.321   1.490  0.2188  0.0179  0.4148
 4925WAT     H120406   5.507   1.392   1.514  0.7723  0.7080 -0.5404
 4925WAT     H220407   5.493   1.273   1.448  0.1133  0.4358  0.0811
 4925WAT    EPW20408   5.536   1.325   1.487 -0.1580 -0.1926  0.5488
 4926WAT      O20409   7.273   2.979   2.017  0.2925 -0.2809  0.3930
 4926WAT     H120410   7.243   2.906   1.980 -0.9897  1.2058 -1.6452
 4926WAT     H220411   7.223   2.987   2.088 -0.8965 -0.3967 -0.3989
 4926WAT    EPW20412   7.261   2.969   2.022 -0.1601 -0.2708 -0.0957
 4927WAT      O20413   5.143   2.509   3.108 -0.4166 -0.3324  0.3197
 4927WAT     H120414   5.103   2.490   3.183 -0.7079 -1.8002 -0.1682
 4927WAT     H220415   5.108   2.453   3.051  0.5938 -0.0085 -0.6677
 4927WAT    EPW20416   5.132   2.498   3.111  0.0679  0.5746 -0.2587
 4928WAT      O20417   0.443   3.080   2.842  0.0394  0.9203 -0.4807
 4928WAT     H120418   0.408   3.065   2.763  0.7500  0.4480 -0.7224
 4928WAT     H220419   0.384   3.130   2.882 -1.1204 -0.2347 -0.6888
 4928WAT    EPW20420   0.429   3.085   2.836 -0.5236  0.2611  0.2085
 4929WAT      O20421   3.940   1.291   2.058  0.4857  0.3391  0.7334
 4929WAT     H120422   3.891   1.222   2.037 -0.6078  0.3399  3.0650
 4929WAT     H220423   3.881   1.352   2.081  1.5245  1.0408  1.5973
 4929WAT    EPW20424   3.924   1.290   2.058  1.3220 -0.6905  0.4767
 4930WAT      O20425   6.837   0.939   1.645  0.7406 -0.2144 -0.0286
 4930WAT     H120426   6.898   0.876   1.648 -0.2581 -1.2708 -0.8985
 4930WAT     H220427   6.881   1.009   1.616  1.3259 -1.2783 -1.8784
 4930WAT    EPW20428   6.852   0.940   1.641  0.2852 -0.2142 -1.2900
 4931WAT      O20429   5.383   4.020   2.654 -0.1444 -0.0470  0.0102
 4931WAT     H120430   5.407   4.057   2.729 -2.2786 -0.9051  1.2074
 4931WAT     H220431   5.426   4.066   2.593  1.8721  0.4908  1.7265
 4931WAT    EPW20432   5.393   4.032   2.656 -0.3075  1.0312  0.3490
 4932WAT      O20433   6.560   1.729   1.283 -0.2683  0.1410  0.1455
 4932WAT     H120434   6.618   1.681   1.240  0.5410  2.5293 -1.6340
 4932WAT     H220435   6.524   1.673   1.339  1.4164 -2.1927 -0.9691
 4932WAT    EPW20436   6.563   1.714   1.285 -0.0893  0.2780  0.1432
 4933WAT      O20437   6.672   2.901   2.395 -0.4459 -0.8367  0.2560
 4933WAT     H120438   6.742   2.914   2.446 -0.3215 -0.8277  0.0826
 4933WAT     H220439   6.626   2.841   2.439 -0.4629 -0.6471  0.5033
 4933WAT    EPW20440   6.675   2.894   2.409 -0.7524  0.6116  0.2797
 4934WAT      O20441   6.239   3.288   2.455  0.2256 -0.8963 -0.1300
 4934WAT     H120442   6.222   3.291   2.541 -0.7815  1.2801 -0.3239
 4934WAT     H220443   6.311   3.240   2.450  0.0975 -1.3988  1.9048
 4934WAT    EPW20444   6.247   3.282   2.467  0.7074 -0.5051 -0.7750
 4935WAT      O20445   0.413   1.695   1.927  0.4141 -0.7642  0.3786
 4935WAT     H120446   0.365   1.764   1.903 -1.4924 -2.5301 -1.3615
 4935WAT     H220447   0.459   1.676   1.855  0.5108 -1.5920  0.6489
 4935WAT    EPW20448   0.412   1.703   1.913  0.0053 -0.3406 -0.7268
 4936WAT      O20449   6.068   2.349   2.024  0.1911 -0.2774 -0.0656
 4936WAT     H120450   6.016   2.403   1.978 -0.1590  0.4598  1.1277
 4936WAT     H220451   6.114   2.307   1.963  0.4954  1.4060 -1.0576
 4936WAT    EPW20452   6.067   2.351   2.008 -0.2757 -0.5066 -0.7988
 4937WAT      O20453   4.943   1.659   1.915  0.0284 -0.8035 -0.5582
 4937WAT     H120454   4.982   1.584   1.938 -0.1922 -1.0015 -0.8156
 4937WAT     H220455   4.860   1.635   1.903 -0.1348 -0.4239 -0.1977
 4937WAT    EPW20456   4.936   1.644   1.916 -0.0541 -0.0501 -1.1574
 4938WAT      O20457   7.623   2.581   1.400  0.5789 -0.1489 -0.0533
 4938WAT     H120458   7.604   2.497   1.413  0.7893 -0.2993 -0.6657
 4938WAT     H220459   7.605   2.619   1.477 -0.9090 -0.4921 -0.2069
 4938WAT    EPW20460   7.618   2.574   1.413 -0.3597  0.4572  0.7062
 4939WAT      O20461   7.777   1.272   3.695  0.2280 -0.6246  0.0937
 4939WAT     H120462   7.763   1.299   3.614 -1.0788  0.2377  0.5750
 4939WAT     H220463   7.736   1.331   3.744  1.9258 -0.4915  1.4616
 4939WAT    EPW20464   7.769   1.285   3.690  0.1544  0.4541  0.1868
 4940WAT      O20465   6.768   2.045   2.363  0.2105 -0.3945  0.4540
 4940WAT     H120466   6.713   1.993   2.408 -0.1445  0.8838  1.5493
 4940WAT     H220467   6.834   2.058   2.418  0.3914  0.1618  0.1123
 4940WAT    EPW20468   6.769   2.039   2.378  0.5117 -0.3227 -0.6021
 4941WAT      O20469   0.244   3.203   2.994  0.4517 -0.3135 -0.0862
 4941WAT     H120470   0.236   3.282   2.959  2.0270  0.4146  1.0808
 4941WAT     H220471   0.182   3.156   2.954 -0.6808  1.5535 -0.6355
 4941WAT    EPW20472   0.234   3.208   2.983  0.6682 -0.5722 -0.4952
 4942WAT      O20473   7.496   0.537   1.567 -0.5304 -0.2553 -0.1973
 4942WAT     H120474   7.557   0.474   1.573 -1.3929 -1.4018 -2.2573
 4942WAT     H220475   7.434   0.511   1.622 -1.0108 -1.4413 -1.2434
 4942WAT    EPW20476   7.496   0.524   1.576  0.1876  0.0771  0.3074
 4943WAT      O20477   5.736   2.262   3.280 -0.1301  0.0353 -0.1196
 4943WAT     H120478   5.752   2.325   3.222  1.1437 -1.6593 -1.7553
 4943WAT     H220479   5.760   2.297   3.356 -1.8475  2.3454 -0.5479
 4943WAT    EPW20480   5.742   2.277   3.283  0.1541 -0.6281  0.9947
 4944WAT      O20481   7.776   2.094   3.096  0.3310 -0.1637  0.3336
 4944WAT     H120482   7.751   2.155   3.154  0.3044  0.3430 -0.2014
 4944WAT     H220483   7.802   2.027   3.146 -1.9672 -0.6918  0.9528
 4944WAT    EPW20484   7.776   2.093   3.112 -0.5643  0.4986 -0.1435
 4945WAT      O20485   6.751   4.140   2.887 -0.2636 -0.1545  0.3684
 4945WAT     H120486   6.793   4.213   2.865 -2.5287  1.2782  0.4839
 4945WAT     H220487   6.675   4.168   2.921 -0.9076 -2.5366  1.1696
 4945WAT    EPW20488   6.746   4.155   2.889  0.3248 -0.0919 -0.2045
 4946WAT      O20489   5.725   2.525   2.741 -0.0763  0.0965  0.2250
 4946WAT     H120490   5.682   2.575   2.798  0.5474 -0.6004  1.3494
 4946WAT     H220491   5.663   2.470   2.712 -0.2564 -0.0158  0.8014
 4946WAT    EPW20492   5.709   2.524   2.745  0.3503 -0.0494  0.1330
 4947WAT      O20493   6.577   2.710   1.076 -0.8795 -0.1639 -0.1038
 4947WAT     H120494   6.541   2.788   1.061 -0.0170  0.2108 -0.2767
 4947WAT     H220495   6.604   2.685   0.997  2.1202  1.0366  0.3969
 4947WAT    EPW20496   6.575   2.718   1.062  0.4995  0.4633 -0.5761
 4948WAT      O20497   2.941   3.761   0.661  0.8893  0.1010  0.4113
 4948WAT     H120498   2.863   3.772   0.624  0.1093 -2.1729  1.1913
 4948WAT     H220499   2.936   3.809   0.734  0.6293  0.8007 -0.0618
 4948WAT    EPW20500   2.929   3.769   0.667  0.6128 -0.2586 -0.1047
 4949WAT      O20501   6.045   2.019   1.701  0.6563 -0.4618  0.1893
 4949WAT     H120502   6.091   2.086   1.733  0.5774  0.9917 -2.4204
 4949WAT     H220503   6.104   1.955   1.693  1.7273  0.6283 -0.9848
 4949WAT    EPW20504   6.060   2.020   1.705  0.0585 -0.7233  0.0838
 4950WAT      O20505   7.549   2.512   0.210  0.0582  0.5619  0.1445
 4950WAT     H120506   7.576   2.493   0.291 -1.8939  2.7985  1.4705
 4950WAT     H220507   7.513   2.438   0.182 -0.2017  0.0250  1.8078
 4950WAT    EPW20508   7.548   2.498   0.218 -0.3424  0.0556 -0.2837
 4951WAT      O20509   7.087   3.453   7.864 -0.5815  0.3661  0.3683
 4951WAT     H120510   7.123   3.529   7.884 -0.4082  0.8165 -1.4283
 4951WAT     H220511   7.046   3.469   7.788 -0.1325 -1.4248 -0.3110
 4951WAT    EPW20512   7.086   3.467   7.856 -0.0087  0.0007  0.9354
 4952WAT      O20513   5.326   2.462   1.492  0.0983 -0.1354 -0.2179
 4952WAT     H120514   5.389   2.516   1.522 -0.3494  1.4539 -1.9621
 4952WAT     H220515   5.367   2.415   1.431  0.0697 -0.5895  0.1074
 4952WAT    EPW20516   5.341   2.463   1.488 -0.9981 -1.4381 -1.0881
 4953WAT      O20517   6.394   1.556   1.109  0.0740  0.1509  0.2645
 4953WAT     H120518   6.399   1.566   1.023  0.1964 -0.6994  0.1641
 4953WAT     H220519   6.433   1.627   1.140 -1.8968  1.5978 -0.3261
 4953WAT    EPW20520   6.400   1.568   1.101  0.0066 -0.2128  0.8037
 4954WAT      O20521   6.591   1.463   0.622  0.2631  0.7749  0.1326
 4954WAT     H120522   6.541   1.527   0.653  0.7786  1.3186 -0.1314
 4954WAT     H220523   6.554   1.390   0.653  0.6470  1.2679  1.8664
 4954WAT    EPW20524   6.578   1.461   0.631  0.3959  0.0446 -0.0148
 4955WAT      O20525   4.763   2.300   1.029 -0.0629  0.6194  0.4758
 4955WAT     H120526   4.784   2.268   1.107 -0.1935 -2.0126 -0.4774
 4955WAT     H220527   4.808   2.250   0.974 -0.3211  2.1238 -1.1872
 4955WAT    EPW20528   4.773   2.288   1.033 -0.0920 -0.2886 -0.1310
 4956WAT      O20529   5.525   0.552   1.827 -0.2008 -0.5269  0.8209
 4956WAT     H120530   5.527   0.546   1.914  0.7834  1.8415  1.0351
 4956WAT     H220531   5.451   0.597   1.812  0.2721  0.1828  0.5635
 4956WAT    EPW20532   5.514   0.558   1.838  0.6632 -0.9340  0.0590
 4957WAT      O20533   4.685   2.499   0.567  0.7967 -0.2393  0.5503
 4957WAT     H120534   4.702   2.415   0.583  0.9333 -0.2690  0.2586
 4957WAT     H220535   4.600   2.507   0.587  0.4140 -0.7795 -0.7680
 4957WAT    EPW20536   4.675   2.488   0.572 -0.0119 -0.5283 -1.1394
 4958WAT      O20537   3.481   1.554   1.450 -0.2648 -0.0887  0.0092
 4958WAT     H120538   3.504   1.470   1.449 -0.2279 -0.1607  1.9695
 4958WAT     H220539   3.539   1.590   1.504 -0.3517  1.1909 -0.7116
 4958WAT    EPW20540   3.493   1.547   1.458  0.5568  1.0985 -0.6968
 4959WAT      O20541   7.375   1.338   1.798 -0.0364  0.5075 -0.3585
 4959WAT     H120542   7.427   1.303   1.737 -0.5257 -0.7565 -0.0907
 4959WAT     H220543   7.296   1.309   1.776 -0.2272  0.0304  0.8597
 4959WAT    EPW20544   7.371   1.328   1.786 -0.5221 -0.7100 -0.5314
 4960WAT      O20545   4.997   1.872   7.956 -0.2691 -0.7786 -0.6021
 4960WAT     H120546   5.021   1.955   7.953  1.0316 -0.7620  3.5474
 4960WAT     H220547   5.072   1.828   7.950 -0.8099 -1.6189 -1.5572
 4960WAT    EPW20548   5.012   1.877   7.955  0.0583  0.7676 -0.6674
 4961WAT      O20549   6.128   1.978   0.725 -0.4967 -0.3670 -0.2546
 4961WAT     H120550   6.057   1.936   0.752  0.3036 -1.9893 -0.5655
 4961WAT     H220551   6.144   1.944   0.647 -0.1491  0.9736 -0.8008
 4961WAT    EPW20552   6.120   1.967   0.718  0.2508  0.0930  0.5401
 4962WAT      O20553   5.433   1.577   1.536 -0.2462  0.0384  0.3801
 4962WAT     H120554   5.412   1.654   1.571 -1.2903 -0.3731  0.7070
 4962WAT     H220555   5.380   1.572   1.467 -0.7179 -0.7037  0.7869
 4962WAT    EPW20556   5.422   1.588   1.531 -0.9968 -0.5419  0.4753
 4963WAT      O20557   6.967   2.114   0.469  0.3896  0.5359 -0.2839
 4963WAT     H120558   7.022   2.047   0.477  0.0370  0.0545 -1.6940
 4963WAT     H220559   6.936   2.124   0.550  0.0191 -1.3940 -0.1296
 4963WAT    EPW20560   6.971   2.105   0.482  0.1294 -0.0046  0.1732
 4964WAT      O20561   5.041   1.781   1.575  0.4641  0.1141  0.7933
 4964WAT     H120562   4.960   1.752   1.561  0.4388  0.4480  0.2298
 4964WAT     H220563   5.031   1.844   1.634  0.1564  0.9804 -0.1615
 4964WAT    EPW20564   5.028   1.786   1.582 -0.0618 -0.4362 -0.4630
 4965WAT      O20565   7.484   3.165   0.606  0.1773 -0.1181 -0.0734
 4965WAT     H120566   7.431   3.175   0.675 -3.4432 -1.2301 -2.3801
 4965WAT     H220567   7.529   3.093   0.626 -0.1084  0.0849  1.4701
 4965WAT    EPW20568   7.483   3.156   0.619  0.3666 -0.1809 -0.4861
 4966WAT      O20569   6.247   2.938   0.940  0.3629  0.2491 -0.0417
 4966WAT     H120570   6.326   2.932   0.904  1.0385 -1.5390  1.5957
 4966WAT     H220571   6.251   2.886   1.009 -0.9684  3.1581  2.5028
 4966WAT    EPW20572   6.259   2.930   0.945  0.8179 -0.3295  0.2045
 4967WAT      O20573   5.558   2.004   0.975  0.5252  0.1162 -0.3905
 4967WAT     H120574   5.633   2.043   0.951  0.4673  0.6287  0.2453
 4967WAT     H220575   5.578   1.920   0.977  0.6805  0.0953 -1.7131
 4967WAT    EPW20576   5.572   1.998   0.971 -0.0018 -1.3167  0.0469
 4968WAT      O20577   6.723   2.034   7.558  0.5128 -0.1235  0.1191
 4968WAT     H120578   6.751   1.957   7.587  1.4183  0.0876 -0.1278
 4968WAT     H220579   6.742   2.032   7.473 -2.0015 -0.6964 -0.5018
 4968WAT    EPW20580   6.730   2.022   7.550 -0.0322  0.5430  0.2891
 4969WAT      O20581   5.094   1.702   1.162  0.3168 -0.1440 -0.1687
 4969WAT     H120582   5.070   1.621   1.182  0.3416 -0.1911 -0.3249
 4969WAT     H220583   5.156   1.691   1.101  0.3224 -0.0083 -0.1889
 4969WAT    EPW20584   5.100   1.688   1.156 -0.3786 -0.2695  0.2755
 4970WAT      O20585   5.822   1.200   0.963  0.1847 -0.3182 -0.5448
 4970WAT     H120586   5.762   1.173   0.906  0.8818  0.7409 -1.8389
 4970WAT     H220587   5.789   1.276   0.993  0.0372 -0.6426  0.1463
 4970WAT    EPW20588   5.808   1.207   0.959 -0.0763  0.1122 -0.1224
 4971WAT      O20589   4.255   1.872   0.297  0.0897 -0.7049 -0.3076
 4971WAT     H120590   4.187   1.852   0.347 -0.5565  0.7088 -0.5847
 4971WAT     H220591   4.283   1.794   0.269 -0.9114 -1.3597  0.4363
 4971WAT    EPW20592   4.249   1.857   0.300  0.9102  0.4042 -0.7401
 4972WAT      O20593   7.421   1.194   0.104 -0.0076  0.0730  0.1665
 4972WAT     H120594   7.405   1.148   0.177  0.5233 -1.8191 -0.8284
 4972WAT     H220595   7.344   1.228   0.084 -0.8165 -1.6197  0.1910
 4972WAT    EPW20596   7.407   1.192   0.112 -0.3909  0.3876 -0.1317
 4973WAT      O20597   4.705   1.982   0.747  0.4525 -0.1664  0.2253
 4973WAT     H120598   4.767   2.038   0.773  0.6473 -0.6265  0.7714
 4973WAT     H220599   4.660   1.966   0.820  1.6641 -2.3265  0.5762
 4973WAT    EPW20600   4.708   1.988   0.762 -0.2702 -0.0594  0.0887
 4974WAT      O20601   5.813   3.315   0.673  0.3527  0.2202 -0.3321
 4974WAT     H120602   5.899   3.325   0.685  0.0385  1.7209  0.9523
 4974WAT     H220603   5.789   3.260   0.737  0.3306 -0.1390 -0.6445
 4974WAT    EPW20604   5.822   3.308   0.684 -0.1139  0.3120 -0.3643
 4975WAT      O20605   4.261   1.738   1.377  0.1471  0.4482  0.0431
 4975WAT     H120606   4.332   1.782   1.352 -1.4756  2.2201 -1.8332
 4975WAT     H220607   4.204   1.801   1.396 -1.5968 -0.8691 -0.5813
 4975WAT    EPW20608   4.263   1.754   1.376 -1.1609  0.3483 -0.5883
 4976WAT      O20609   7.640   7.417   0.527  0.4217  0.5776 -0.3862
 4976WAT     H120610   7.592   7.440   0.596 -0.2001 -1.6360 -0.0033
 4976WAT     H220611   7.655   7.493   0.486 -2.0233  1.5672  0.3605
 4976WAT    EPW20612   7.635   7.432   0.531 -1.6386 -0.1005  0.3984
 4977WAT      O20613   4.300   3.146   1.336 -0.1349  0.4493 -0.1399
 4977WAT     H120614   4.289   3.106   1.413 -0.7860  0.7204 -0.0807
 4977WAT     H220615   4.238   3.208   1.337  0.2520  0.8460 -0.6257
 4977WAT    EPW20616   4.289   3.149   1.348 -0.6454  0.5953 -0.1715
 4978WAT      O20617   6.477   1.951   1.624  0.3740 -0.2270  0.2859
 4978WAT     H120618   6.516   2.015   1.580 -1.0612 -0.2255 -1.0581
 4978WAT     H220619   6.518   1.952   1.701  2.1720  0.5314 -0.6267
 4978WAT    EPW20620   6.489   1.961   1.629  0.2673 -0.6507 -0.4863
 4979WAT      O20621   5.990   1.593   1.332  0.0517 -0.2121 -0.2785
 4979WAT     H120622   5.924   1.537   1.326 -0.5996  0.4880  0.1755
 4979WAT     H220623   5.952   1.671   1.323  0.4791  0.3354  1.9511
 4979WAT    EPW20624   5.975   1.596   1.330 -0.1686  0.3585 -0.0654
 4980WAT      O20625   5.223   1.781   1.377  0.0716 -0.2366 -0.0788
 4980WAT     H120626   5.152   1.802   1.425  0.6959  0.3854  0.6065
 4980WAT     H220627   5.189   1.758   1.300 -0.8546  0.5881  0.0494
 4980WAT    EPW20628   5.207   1.781   1.373 -0.3515 -0.6838 -0.3082
 4981WAT      O20629   6.955   2.327   0.870 -0.0881  0.1884  0.3338
 4981WAT     H120630   7.039   2.314   0.851 -0.1346 -2.1481  1.3841
 4981WAT     H220631   6.935   2.400   0.827  2.5609  1.0229  0.3844
 4981WAT    EPW20632   6.964   2.336   0.861  0.2341  0.0557  0.0912
 4982WAT      O20633   6.763   2.764   1.431  0.3076  0.5273  0.5751
 4982WAT     H120634   6.701   2.729   1.381 -1.1057  0.1931  2.4229
 4982WAT     H220635   6.837   2.732   1.398 -0.7341 -1.8936  0.3448
 4982WAT    EPW20636   6.765   2.754   1.419  0.5527  0.0591 -0.1995
 4983WAT      O20637   6.314   1.592   0.628 -0.2970 -0.7840 -0.4260
 4983WAT     H120638   6.276   1.664   0.596 -0.6940 -0.2632  1.1531
 4983WAT     H220639   6.247   1.545   0.658  0.1116 -0.9028  0.3230
 4983WAT    EPW20640   6.299   1.596   0.628 -0.0402 -0.7512 -0.3540
 4984WAT      O20641   5.910   1.942   1.097 -0.2874 -0.4450 -0.0532
 4984WAT     H120642   5.857   1.913   1.161  0.2567 -2.6755 -0.5199
 4984WAT     H220643   5.989   1.937   1.133 -0.2467  1.6904  0.2288
 4984WAT    EPW20644   5.914   1.937   1.112 -0.5665 -0.5390 -0.0002
 4985WAT      O20645   8.089   2.128   2.331  0.6240  0.2597  0.1539
 4985WAT     H120646   8.029   2.141   2.269 -0.2313  0.0903  0.9280
 4985WAT     H220647   8.043   2.134   2.405  1.0900 -2.1706  0.7244
 4985WAT    EPW20648   8.073   2.131   2.333  0.1109  0.6309  0.4985
 4986WAT      O20649   5.820   1.798   2.310  0.2191  0.0200  0.3445
 4986WAT     H120650   5.734   1.812   2.304 -0.0142 -1.2492  0.4612
 4986WAT     H220651   5.836   1.741   2.247  0.8586 -0.2430  0.7330
 4986WAT    EPW20652   5.810   1.792   2.300 -0.3066  0.2255  0.3109
 4987WAT      O20653   5.981   2.484   0.698 -0.1552 -0.4170 -0.6374
 4987WAT     H120654   5.896   2.473   0.682 -0.4516 -0.4053  0.7540
 4987WAT     H220655   6.012   2.519   0.625 -1.6175  0.8428 -0.6917
 4987WAT    EPW20656   5.973   2.488   0.685  0.2712  0.1829  0.1209
 4988WAT      O20657   5.406   3.070   0.564  0.8806  0.0674  0.3964
 4988WAT     H120658   5.355   3.139   0.550  1.2904  0.3449  0.2243
 4988WAT     H220659   5.458   3.068   0.493  0.4392 -0.8164  0.0852
 4988WAT    EPW20660   5.406   3.080   0.551 -1.1174 -0.1640  0.4267
 4989WAT      O20661   5.214   3.385   0.103 -0.5938 -0.5884 -0.1961
 4989WAT     H120662   5.131   3.365   0.086 -0.7649 -0.4067  0.4196
 4989WAT     H220663   5.255   3.309   0.095 -1.3423 -1.4257  2.8257
 4989WAT    EPW20664   5.208   3.371   0.099 -0.3436  0.5279 -0.6625
 4990WAT      O20665   6.397   1.362   1.770 -0.4722 -0.0995 -0.4777
 4990WAT     H120666   6.461   1.349   1.712 -2.0396 -1.0300 -2.0933
 4990WAT     H220667   6.352   1.287   1.769 -0.4685 -0.2192  2.1343
 4990WAT    EPW20668   6.400   1.349   1.761  0.3692  0.1396  0.1852
 4991WAT      O20669   0.524   2.563   1.481 -0.1578 -0.1905 -0.2038
 4991WAT     H120670   0.572   2.617   1.432 -0.0013  1.6165  1.7967
 4991WAT     H220671   0.443   2.595   1.474  0.1317  1.3100  2.0459
 4991WAT    EPW20672   0.519   2.576   1.473  0.8141  0.3840  0.1958
 4992WAT      O20673   6.588   1.057   1.057  0.2286  0.8608  0.0574
 4992WAT     H120674   6.580   1.063   1.143  1.1587  3.7759  0.0483
 4992WAT     H220675   6.673   1.042   1.044 -0.1588 -1.2928 -0.3887
 4992WAT    EPW20676   6.599   1.056   1.068 -0.6218  0.4364 -0.3458
 4993WAT      O20677   5.245   1.852   0.521 -0.2019 -0.2436  0.3027
 4993WAT     H120678   5.329   1.874   0.516 -0.2757 -0.2334 -2.1625
 4993WAT     H220679   5.205   1.928   0.539  0.3236 -0.3700  2.1439
 4993WAT    EPW20680   5.251   1.867   0.523  0.6444 -0.0326 -0.1528
 4994WAT      O20681   6.089   1.870   7.542  0.1245 -0.2928  0.1602
 4994WAT     H120682   6.129   1.794   7.558 -1.3065 -0.6390  2.3860
 4994WAT     H220683   6.075   1.867   7.456  0.4047 -2.3830  0.1363
 4994WAT    EPW20684   6.093   1.858   7.531  0.1747  0.1851 -0.3699
 4995WAT      O20685   5.610   3.345   0.459  0.3673  0.2272 -0.2195
 4995WAT     H120686   5.648   3.345   0.537 -2.8683 -0.8719  1.4893
 4995WAT     H220687   5.558   3.415   0.461  0.0240  0.0221 -1.3177
 4995WAT    EPW20688   5.608   3.355   0.471 -0.2733 -0.7037  0.4850
 4996WAT      O20689   3.315   2.502   0.782  0.2867  0.0601  0.2124
 4996WAT     H120690   3.335   2.479   0.700 -0.0322  0.5686 -0.0124
 4996WAT     H220691   3.319   2.589   0.781  1.8270  0.0412  1.1407
 4996WAT    EPW20692   3.319   2.511   0.770 -0.5449 -0.3334  0.2543
 4997WAT      O20693   7.032   0.181   0.351  0.1454 -0.7408  0.0526
 4997WAT     H120694   6.959   0.195   0.396  1.2421  0.8916  1.4366
 4997WAT     H220695   7.095   0.206   0.405  1.6017  0.5154 -2.0752
 4997WAT    EPW20696   7.030   0.186   0.365 -0.6541  0.6585 -0.3084
 4998WAT      O20697   4.009   2.906   0.903  0.2311 -0.0370 -0.4473
 4998WAT     H120698   4.005   2.915   0.816 -1.3998  1.0219 -0.2960
 4998WAT     H220699   4.095   2.902   0.918  0.7161  2.5168 -1.8829
 4998WAT    EPW20700   4.021   2.907   0.892  0.3908 -0.4582 -0.4465
 4999WAT      O20701   7.312   2.320   0.356  0.0044  1.3337 -0.4635
 4999WAT     H120702   7.317   2.406   0.346 -1.3875  1.5499  0.5482
 4999WAT     H220703   7.246   2.296   0.304 -0.0235  0.9525 -0.2589
 4999WAT    EPW20704   7.303   2.329   0.347 -0.7454 -0.1943 -0.3812
 5000WAT      O20705   6.953   1.686   2.482  0.1721  0.1490  0.1456
 5000WAT     H120706   6.999   1.663   2.553  1.3367  2.2466  0.1630
 5000WAT     H220707   7.014   1.706   2.424 -0.7813 -0.8913 -1.2734
 5000WAT    EPW20708   6.968   1.686   2.484  0.3128 -0.2154 -0.2804
 5001WAT      O20709   7.562   2.320   1.455  0.0280 -0.4376  0.6174
 5001WAT     H120710   7.532   2.292   1.378  0.4608  1.4481 -0.2954
 5001WAT     H220711   7.548   2.252   1.508  0.3889 -2.0776 -1.2686
 5001WAT    EPW20712   7.555   2.306   1.452 -0.5647 -0.0923 -0.1563
 5002WAT      O20713   6.025   2.635   1.606  0.1246  0.4496  0.0368
 5002WAT     H120714   6.045   2.719   1.619  1.1138  0.4333 -1.2163
 5002WAT     H220715   6.099   2.593   1.628 -0.2266 -0.0603  0.2567
 5002WAT    EPW20716   6.039   2.642   1.611 -0.1059 -0.0141 -0.4704
 5003WAT      O20717   6.502   2.320   1.042  1.3060 -0.5138  0.6111
 5003WAT     H120718   6.588   2.304   1.041  1.6271  0.9830 -0.8813
 5003WAT     H220719   6.468   2.248   1.077  3.0058 -2.1501 -0.8921
 5003WAT    EPW20720   6.510   2.307   1.047  0.0996 -0.2020  0.0508
 5004WAT      O20721   6.265   2.020   1.426  0.3790  0.0719  0.3686
 5004WAT     H120722   6.249   1.948   1.380  0.3318  0.5025 -0.2965
 5004WAT     H220723   6.326   1.994   1.483  0.1374 -0.5689  0.3525
 5004WAT    EPW20724   6.272   2.005   1.428  0.8640 -0.1808 -0.7803
 5005WAT      O20725   6.964   1.467   7.847 -0.4756 -0.3157  0.3951
 5005WAT     H120726   6.924   1.410   7.795  1.1369 -1.0608 -0.0709
 5005WAT     H220727   6.907   1.533   7.852 -2.4399 -1.9503  1.0127
 5005WAT    EPW20728   6.949   1.468   7.840 -0.5385  0.0709  0.0806
 5006WAT      O20729   4.410   2.862   7.409  0.4352  0.3107 -0.0831
 5006WAT     H120730   4.417   2.910   7.481 -2.2381 -0.0113  0.4803
 5006WAT     H220731   4.329   2.830   7.413 -0.5604  1.7203 -4.1199
 5006WAT    EPW20732   4.399   2.864   7.420  0.1994 -0.8033 -0.2112
 5007WAT      O20733   5.506   2.054   2.042 -0.5521 -0.8706  0.2598
 5007WAT     H120734   5.591   2.038   2.048 -0.5867 -0.9772  0.4941
 5007WAT     H220735   5.472   1.976   2.020 -0.4358 -0.4994 -1.3516
 5007WAT    EPW20736   5.513   2.040   2.039 -0.1329 -0.3357 -0.5783
 5008WAT      O20737   6.266   3.104   7.339 -0.2395  0.3066 -0.3348
 5008WAT     H120738   6.302   3.179   7.315 -0.5531  0.5065 -0.1897
 5008WAT     H220739   6.334   3.049   7.344  0.1907  0.9127  0.8507
 5008WAT    EPW20740   6.282   3.107   7.337  0.5446  0.1808  0.0487
 5009WAT      O20741   5.869   1.360   0.171 -0.3077 -0.6395 -0.1745
 5009WAT     H120742   5.908   1.353   0.248 -1.4927 -1.7392  0.3566
 5009WAT     H220743   5.837   1.441   0.171 -1.7095 -1.1530  1.2114
 5009WAT    EPW20744   5.870   1.371   0.182  0.3324 -0.1826  0.6325
 5010WAT      O20745   3.684   2.611   0.948  0.1560 -0.0971  0.4296
 5010WAT     H120746   3.732   2.669   0.993  2.2158 -1.4036  0.0894
 5010WAT     H220747   3.682   2.645   0.867  4.2687 -1.8054 -0.6881
 5010WAT    EPW20748   3.691   2.624   0.942 -0.2059 -0.0060 -0.3825
 5011WAT      O20749   0.406   1.513   0.977 -0.0683 -0.0872 -0.3091
 5011WAT     H120750   0.359   1.511   1.051 -0.0404  1.3636 -0.2227
 5011WAT     H220751   0.348   1.491   0.916 -0.4326  0.0210 -0.0076
 5011WAT    EPW20752   0.390   1.509   0.979 -1.0009 -0.4266  0.2328
 5012WAT      O20753   4.476   1.450   0.648  0.1248 -0.0975  0.0062
 5012WAT     H120754   4.425   1.511   0.683  0.0050  1.0146 -2.0167
 5012WAT     H220755   4.426   1.414   0.586  0.1388 -2.4145  1.2242
 5012WAT    EPW20756   4.461   1.454   0.644 -0.1938 -0.7452 -0.1683
 5013WAT      O20757   4.165   2.967   0.178  0.3119 -0.0624 -0.1376
 5013WAT     H120758   4.223   2.984   0.241  0.9934 -1.4812 -0.3376
 5013WAT     H220759   4.097   2.935   0.221  0.3616 -0.0315 -0.0359
 5013WAT    EPW20760   4.164   2.964   0.194  1.5422  0.8682 -0.4158
 5014WAT      O20761   5.186   1.840   1.862  0.7386 -0.8036  0.0432
 5014WAT     H120762   5.127   1.778   1.880  0.2145 -0.5897 -0.8687
 5014WAT     H220763   5.153   1.911   1.899  1.0788 -0.9445  0.6359
 5014WAT    EPW20764   5.172   1.841   1.870  0.5766  0.1489 -0.0929
 5015WAT      O20765   5.851   2.854   1.683  0.0601  0.1351  0.3069
 5015WAT     H120766   5.842   2.863   1.770  2.4644 -1.0486  0.7638
 5015WAT     H220767   5.910   2.914   1.662  0.6936 -0.6453 -0.1951
 5015WAT    EPW20768   5.858   2.864   1.693  0.3151 -0.8962  0.0100
 5016WAT      O20769   6.700   1.957   1.316  0.1599 -0.2334 -0.5532
 5016WAT     H120770   6.712   1.972   1.231  0.3463 -2.5161 -1.0073
 5016WAT     H220771   6.638   1.896   1.318 -1.9301  1.7759  1.1526
 5016WAT    EPW20772   6.693   1.950   1.304 -0.5626  0.5346  0.9560
 5017WAT      O20773   6.220   1.396   0.928 -0.0576  0.0529  0.1901
 5017WAT     H120774   6.215   1.310   0.939  0.6841 -0.0365 -0.0845
 5017WAT     H220775   6.224   1.427   1.010  1.0191 -0.2777  0.2785
 5017WAT    EPW20776   6.220   1.388   0.942  0.5042  0.2694 -0.6003
 5018WAT      O20777   5.972   1.016   1.472 -0.3612  0.6177 -0.1716
 5018WAT     H120778   5.894   0.980   1.459  0.2534 -0.6338 -0.7008
 5018WAT     H220779   5.988   1.003   1.557 -0.4402  0.2389 -0.2137
 5018WAT    EPW20780   5.963   1.009   1.482 -0.0893  0.0454  0.1486
 5019WAT      O20781   6.140   3.915   1.329 -0.1847  0.0234  0.6950
 5019WAT     H120782   6.200   3.978   1.319 -2.0039  1.6397 -1.0915
 5019WAT     H220783   6.098   3.938   1.402 -1.0158  1.1370 -0.0910
 5019WAT    EPW20784   6.143   3.928   1.338 -0.3015 -0.5004  0.1334
 5020WAT      O20785   7.077   2.283   0.206  0.0571 -0.1662  0.3207
 5020WAT     H120786   7.050   2.213   0.161 -0.5642  0.6844 -0.6721
 5020WAT     H220787   7.037   2.275   0.283 -0.3468 -0.6665  0.0616
 5020WAT    EPW20788   7.067   2.271   0.211  0.1752 -0.6007 -0.4698
 5021WAT      O20789   6.182   0.838   1.442 -0.1899 -0.0943  0.2422
 5021WAT     H120790   6.116   0.894   1.435  0.1282  0.0722 -3.3619
 5021WAT     H220791   6.238   0.878   1.494 -3.0600 -0.5837  4.1301
 5021WAT    EPW20792   6.180   0.852   1.448 -0.4874  0.4602  0.3615
 5022WAT      O20793   3.712   1.680   1.570 -0.7514 -0.1130 -0.4821
 5022WAT     H120794   3.743   1.644   1.643 -0.3071  0.6690 -0.2839
 5022WAT     H220795   3.673   1.752   1.597  0.3126  0.7334 -1.1248
 5022WAT    EPW20796   3.711   1.685   1.584 -0.4074 -0.0371  0.7365
 5023WAT      O20797   3.500   2.230   0.236 -0.3569  0.5606 -0.6304
 5023WAT     H120798   3.541   2.187   0.173  0.8714  1.3136 -0.3735
 5023WAT     H220799   3.545   2.210   0.308 -1.2416  0.3622 -0.1217
 5023WAT    EPW20800   3.513   2.221   0.238  0.7523  0.1645  0.3738
 5024WAT      O20801   6.794   2.904   0.806  0.1323  0.8917 -0.1936
 5024WAT     H120802   6.787   2.982   0.768 -0.4939  0.3240 -1.2948
 5024WAT     H220803   6.879   2.898   0.825 -0.1454  2.8339  2.1570
 5024WAT    EPW20804   6.805   2.914   0.803 -0.5311 -0.2274  0.4316
 5025WAT      O20805   0.308   1.012   1.654 -0.3984  0.4933 -0.0379
 5025WAT     H120806   0.375   1.010   1.710 -1.2437  0.0467  0.9970
 5025WAT     H220807   0.268   1.088   1.672 -0.1686  0.7811 -0.6834
 5025WAT    EPW20808   0.312   1.023   1.665 -0.4504  1.4058  0.4596
 5026WAT      O20809   0.056   1.919   0.983 -0.3278  0.6304 -0.2952
 5026WAT     H120810  -0.023   1.955   0.996 -0.9257 -0.0277 -1.8417
 5026WAT     H220811   0.107   1.988   0.967 -1.1436  0.9405 -1.7464
 5026WAT    EPW20812   0.052   1.935   0.983  0.3688 -0.9798 -1.2936
 5027WAT      O20813   4.506   2.382   1.060 -0.5375 -0.4571  0.0515
 5027WAT     H120814   4.508   2.469   1.057  0.2499 -0.4770 -0.2020
 5027WAT     H220815   4.585   2.359   1.032 -1.4753 -1.3085 -2.1006
 5027WAT    EPW20816   4.518   2.391   1.056 -0.2479 -0.4211 -0.2238
 5028WAT      O20817   6.860   3.240   1.195 -0.0070  0.4805 -0.0671
 5028WAT     H120818   6.805   3.283   1.143 -0.7132 -1.1895 -0.7968
 5028WAT     H220819   6.827   3.159   1.197  3.9294 -1.6072 -3.0773
 5028WAT    EPW20820   6.847   3.234   1.188  0.3858  0.3543 -0.2130
 5029WAT      O20821   6.690   3.894   0.948 -0.1138  0.0429 -0.2281
 5029WAT     H120822   6.674   3.971   0.987  1.3300  0.8054 -1.0521
 5029WAT     H220823   6.618   3.880   0.900 -0.5757  0.6581  0.2681
 5029WAT    EPW20824   6.677   3.904   0.946 -0.2206 -0.0556  0.0070
 5030WAT      O20825   6.807   2.173   0.700  0.5377  0.4138 -0.5550
 5030WAT     H120826   6.741   2.228   0.682 -1.3840 -1.3340  0.7050
 5030WAT     H220827   6.857   2.218   0.756 -0.4870  1.2089 -0.2454
 5030WAT    EPW20828   6.804   2.188   0.706  0.1908  0.2608  0.4056
 5031WAT      O20829   6.868   2.807   4.014 -0.4078  0.0363  0.5825
 5031WAT     H120830   6.799   2.818   4.066 -1.1835 -0.0278 -0.3967
 5031WAT     H220831   6.862   2.874   3.958  0.1439 -0.1551  0.2852
 5031WAT    EPW20832   6.857   2.819   4.013 -0.5259  0.7048 -0.2335
 5032WAT      O20833   4.837   1.951   2.334 -0.3736  0.4679 -0.2624
 5032WAT     H120834   4.851   1.917   2.255  0.7269  0.3327 -0.0349
 5032WAT     H220835   4.757   1.924   2.355 -0.5823  0.3069 -1.2240
 5032WAT    EPW20836   4.827   1.942   2.325  0.3188 -0.1662 -0.2143
 5033WAT      O20837   5.144   1.421   1.068  0.0463 -0.1415 -0.1506
 5033WAT     H120838   5.093   1.350   1.072  2.1071 -1.8258 -1.3721
 5033WAT     H220839   5.133   1.450   0.987  1.6926 -1.1832 -0.8195
 5033WAT    EPW20840   5.135   1.415   1.057 -0.3128  0.2974  0.4904
 5034WAT      O20841   5.684   2.753   1.225  0.5298 -0.4176 -0.4863
 5034WAT     H120842   5.720   2.827   1.194  1.3310 -0.5853  0.0196
 5034WAT     H220843   5.745   2.721   1.278 -0.0194 -1.1868 -0.3009
 5034WAT    EPW20844   5.698   2.759   1.228 -0.8830  0.2596 -0.5671
 5035WAT      O20845   6.762   1.221   0.467 -0.0369 -0.7408 -0.5032
 5035WAT     H120846   6.736   1.148   0.507 -0.0192 -1.0502 -1.0482
 5035WAT     H220847   6.824   1.252   0.520 -1.1446 -0.2600  0.5615
 5035WAT    EPW20848   6.767   1.215   0.481 -0.1675  0.0798  0.0886
 5036WAT      O20849   6.257   3.422   0.502  0.2443  0.3434 -0.3437
 5036WAT     H120850   6.269   3.433   0.416 -0.4933  1.6540 -0.2985
 5036WAT     H220851   6.171   3.414   0.510  0.3909 -1.0741  0.1677
 5036WAT    EPW20852   6.246   3.422   0.491 -0.7411 -0.0177  0.2729
 5037WAT      O20853   6.880   1.970   1.882 -0.4503 -0.2517  0.5712
 5037WAT     H120854   6.882   1.972   1.969  0.9451  2.2023  0.5710
 5037WAT     H220855   6.798   1.946   1.863 -0.4481 -2.0793  2.4900
 5037WAT    EPW20856   6.868   1.967   1.892 -0.5269  0.3715 -0.2360
 5038WAT      O20857   6.525   2.037   0.579  0.2030  0.4345 -0.4156
 5038WAT     H120858   6.571   2.109   0.559 -1.2931  1.6844  0.3913
 5038WAT     H220859   6.443   2.063   0.569 -0.4289 -0.6657  1.4956
 5038WAT    EPW20860   6.520   2.052   0.574  0.7918  0.2605 -0.2957
 5039WAT      O20861   6.024   2.385   2.923  0.0012 -0.1020 -0.0003
 5039WAT     H120862   5.989   2.326   2.869  1.3098 -1.8455  0.9408
 5039WAT     H220863   6.050   2.449   2.869  0.2815 -1.2806 -1.3410
 5039WAT    EPW20864   6.023   2.385   2.907  0.6314 -0.6424 -0.8844
 5040WAT      O20865   5.781   2.016   0.218  0.3066  0.1014  0.4058
 5040WAT     H120866   5.828   2.090   0.212  3.0249 -1.5185  0.1881
 5040WAT     H220867   5.820   1.973   0.283  0.1179 -2.0187 -0.8191
 5040WAT    EPW20868   5.794   2.021   0.227 -0.0783 -0.2677 -0.1524
 5041WAT      O20869   6.755   0.989   0.645  0.0078  0.4679 -0.2075
 5041WAT     H120870   6.763   0.903   0.636 -2.1728  0.1564  0.2685
 5041WAT     H220871   6.778   1.003   0.728 -0.8921  0.1325  0.1073
 5041WAT    EPW20872   6.760   0.979   0.656  0.9041  0.9234 -0.2913
 5042WAT      O20873   6.499   3.025   1.122 -0.4195 -0.3291  0.1392
 5042WAT     H120874   6.501   3.002   1.038 -1.2574 -1.6761  0.4567
 5042WAT     H220875   6.466   3.105   1.121  3.0694  1.2959 -1.0618
 5042WAT    EPW20876   6.494   3.033   1.110 -0.2114 -0.0023 -0.2764
 5043WAT      O20877   5.744   2.392   1.303  0.1933 -0.0608 -0.3237
 5043WAT     H120878   5.802   2.455   1.322 -0.1695  0.1979 -0.0576
 5043WAT     H220879   5.777   2.355   1.231 -0.2233  1.2522 -1.2295
 5043WAT    EPW20880   5.757   2.396   1.295  0.8364  0.4729 -0.5292
 5044WAT      O20881   5.502   2.659   1.606  0.1371 -0.3281  0.6970
 5044WAT     H120882   5.461   2.700   1.672  1.2245 -0.3747  1.4361
 5044WAT     H220883   5.554   2.603   1.647 -1.3574 -2.5687 -0.2907
 5044WAT    EPW20884   5.504   2.657   1.622 -0.4942  0.5207 -0.3509
 5045WAT      O20885   5.852   2.975   1.111  0.4985 -0.0412  0.0967
 5045WAT     H120886   5.839   2.945   1.030 -0.1406 -0.3494  0.3073
 5045WAT     H220887   5.791   3.036   1.120 -0.3090 -0.9417  0.8162
 5045WAT    EPW20888   5.841   2.979   1.100  0.0101  0.2204  0.8849
 5046WAT      O20889   6.079   3.966   7.653 -0.0544  0.0511  0.3797
 5046WAT     H120890   6.156   3.940   7.621  0.3316  2.0606 -0.4968
 5046WAT     H220891   6.038   3.892   7.672  1.9942 -1.0848  0.6473
 5046WAT    EPW20892   6.084   3.951   7.651  0.5342 -0.2260 -0.8150
 5047WAT      O20893   5.202   3.193   1.146  0.3074  0.4695 -0.4323
 5047WAT     H120894   5.115   3.192   1.151  0.3030  0.6740 -0.4892
 5047WAT     H220895   5.228   3.200   1.229  0.2598  1.2674 -0.4818
 5047WAT    EPW20896   5.193   3.194   1.159  0.0353  0.7210 -0.7534
 5048WAT      O20897   7.211   2.719   1.927  0.4197 -0.2243  0.8436
 5048WAT     H120898   7.193   2.668   1.996  0.4784 -0.8232  0.4196
 5048WAT     H220899   7.242   2.664   1.868  1.5874  0.4726  0.7758
 5048WAT    EPW20900   7.213   2.704   1.929 -0.3053  0.3936 -0.3515
 5049WAT      O20901   5.781   2.140   0.836 -0.4296  0.0814  0.0022
 5049WAT     H120902   5.861   2.153   0.868  0.0046  0.0341 -1.0472
 5049WAT     H220903   5.750   2.221   0.826 -1.4047  0.1089  2.5016
 5049WAT    EPW20904   5.788   2.154   0.839  0.1846  0.3623 -0.9572
 5050WAT      O20905   8.004   0.306   0.653 -0.3609  0.2266  0.0251
 5050WAT     H120906   7.984   0.269   0.577  1.5071  0.4003 -0.6187
 5050WAT     H220907   8.036   0.384   0.629 -0.4247  0.5754  1.0455
 5050WAT    EPW20908   8.006   0.312   0.638 -0.2835  0.3636 -0.2067
 5051WAT      O20909   5.423   3.062   1.776  0.0647 -0.2658  0.3610
 5051WAT     H120910   5.492   3.031   1.732 -0.8967 -1.1834 -0.5471
 5051WAT     H220911   5.355   3.024   1.737 -0.9093 -0.1703  1.8815
 5051WAT    EPW20912   5.423   3.051   1.764  0.0609 -0.1753  0.3381
 5052WAT      O20913   5.023   3.478   1.023 -0.1979 -0.5296  0.1928
 5052WAT     H120914   5.091   3.474   0.968  0.5358 -0.0308  1.0270
 5052WAT     H220915   4.955   3.457   0.973  0.6509 -1.8365 -0.5008
 5052WAT    EPW20916   5.023   3.474   1.008  0.3875 -0.2016  0.8216
 5053WAT      O20917   0.433   1.483   2.778  0.6697 -0.4639  0.2947
 5053WAT     H120918   0.418   1.473   2.693  1.4066 -0.3906  0.1498
 5053WAT     H220919   0.386   1.553   2.800 -1.2182 -1.7106  0.4143
 5053WAT    EPW20920   0.424   1.492   2.769 -0.0781  0.4745  0.3066
 5054WAT      O20921   7.422   1.504   0.749  0.1360  0.4431  0.0665
 5054WAT     H120922   7.373   1.439   0.780  1.1220 -0.0070  0.7464
 5054WAT     H220923   7.373   1.575   0.762 -0.5226 -0.0443  0.2844
 5054WAT    EPW20924   7.407   1.505   0.756  0.5958 -0.0463 -0.1206
 5055WAT      O20925   7.520   0.812   0.357 -0.3851 -0.2885 -1.0006
 5055WAT     H120926   7.576   0.791   0.294  0.3615  1.0646 -0.8236
 5055WAT     H220927   7.571   0.829   0.425 -1.1400 -0.9864 -0.2347
 5055WAT    EPW20928   7.536   0.811   0.358  0.5981  0.1753  0.0447
 5056WAT      O20929   6.262   1.958   0.970 -0.5087  0.4142  0.2550
 5056WAT     H120930   6.225   1.962   0.892  0.4303  0.3392 -0.2134
 5056WAT     H220931   6.346   1.940   0.952 -0.2044  0.7490  1.2574
 5056WAT    EPW20932   6.269   1.956   0.956  0.2872  0.2113 -0.1279
 5057WAT      O20933   5.239   2.829   0.544 -0.1277  0.2363 -0.2981
 5057WAT     H120934   5.272   2.907   0.564  1.3685 -0.1247 -1.2218
 5057WAT     H220935   5.170   2.822   0.596  0.7372  1.4169  1.0727
 5057WAT    EPW20936   5.234   2.840   0.554  0.4483 -0.2003 -0.8130
 5058WAT      O20937   5.197   2.680   1.294  0.3484 -0.1002 -0.0866
 5058WAT     H120938   5.161   2.636   1.360  1.5146  0.0680  0.6947
 5058WAT     H220939   5.254   2.624   1.259 -0.2247 -0.1704 -0.9305
 5058WAT    EPW20940   5.200   2.665   1.298 -0.5484 -0.0149 -1.0114
 5059WAT      O20941   4.395   2.725   1.386  0.1647  0.4777 -0.8258
 5059WAT     H120942   4.395   2.706   1.471 -0.5150  1.1304 -0.6689
 5059WAT     H220943   4.445   2.662   1.351  1.7617  1.0984  0.2402
 5059WAT    EPW20944   4.403   2.713   1.393 -0.2151 -0.4574  0.4293
 5060WAT      O20945   4.252   1.956   1.992  0.4513  0.6536  0.2154
 5060WAT     H120946   4.270   1.945   1.907  1.2101  1.2707  0.2860
 5060WAT     H220947   4.222   2.037   1.996 -0.0825  0.4431  0.4664
 5060WAT    EPW20948   4.250   1.966   1.980  0.4853  1.0281  0.0961
 5061WAT      O20949   6.357   2.159   0.152  0.3445 -0.4936 -0.0523
 5061WAT     H120950   6.414   2.208   0.107  0.2511 -0.0943  0.2638
 5061WAT     H220951   6.295   2.140   0.093 -0.0799  0.5212  0.0501
 5061WAT    EPW20952   6.356   2.163   0.136 -0.0541  0.3973  0.1760
 5062WAT      O20953   4.682   0.246   7.575 -0.1117  0.3842  0.3691
 5062WAT     H120954   4.744   0.185   7.570 -1.1924 -0.6967 -0.7265
 5062WAT     H220955   4.712   0.309   7.523 -0.4465 -0.6540 -1.1405
 5062WAT    EPW20956   4.696   0.246   7.566  0.4767  0.4440  0.7869
 5063WAT      O20957   7.012   0.462   0.938 -0.1240 -0.0615 -0.1957
 5063WAT     H120958   7.010   0.383   0.973  0.8471  0.3599  0.8842
 5063WAT     H220959   6.960   0.509   0.991  0.3004  0.2931 -0.0889
 5063WAT    EPW20960   7.004   0.458   0.951  0.5094  0.4348 -0.1509
 5064WAT      O20961   5.501   1.799   1.316 -0.2414 -0.1433  0.7123
 5064WAT     H120962   5.417   1.782   1.334 -1.0758 -0.4042 -2.8320
 5064WAT     H220963   5.501   1.883   1.295 -0.0655 -0.6111 -1.2843
 5064WAT    EPW20964   5.488   1.809   1.316 -0.7029 -0.1795  0.7151
 5065WAT      O20965   4.754   0.854   8.029 -0.2183 -0.1978  0.0559
 5065WAT     H120966   4.746   0.877   7.946  0.7618 -0.1568 -0.0389
 5065WAT     H220967   4.801   0.919   8.064  0.1849 -0.6718  0.4166
 5065WAT    EPW20968   4.760   0.867   8.022  0.1136  0.2667  0.0226
 5066WAT      O20969   4.595   6.674   0.971  0.4315 -0.1270  0.2507
 5066WAT     H120970   4.681   6.674   0.957  0.5912  1.9788  0.9528
 5066WAT     H220971   4.564   6.627   0.904  1.9905  0.3762 -0.8928
 5066WAT    EPW20972   4.603   6.667   0.959 -0.3325 -0.0689  0.3637
 5067WAT      O20973   5.742   0.797   0.929  0.4565 -0.7492 -0.1497
 5067WAT     H120974   5.669   0.809   0.976 -0.0487  3.6979 -1.6312
 5067WAT     H220975   5.716   0.813   0.847  2.8633 -0.3570 -0.8954
 5067WAT    EPW20976   5.727   0.801   0.924  0.5595  0.8369  0.5665
 5068WAT      O20977   7.047   7.242   7.671 -0.1834 -0.7147  0.4176
 5068WAT     H120978   7.033   7.302   7.610  1.5091 -1.0088 -0.3030
 5068WAT     H220979   6.998   7.269   7.738  1.7277  2.4091  0.7278
 5068WAT    EPW20980   7.037   7.255   7.672 -0.3462 -0.6236  0.4354
 5069WAT      O20981   5.571   2.244   1.658 -0.5518  0.0498  0.3022
 5069WAT     H120982   5.612   2.312   1.693 -2.1334  0.1376  2.1632
 5069WAT     H220983   5.547   2.274   1.579 -2.1998  2.1462  1.4896
 5069WAT    EPW20984   5.573   2.259   1.652  0.4852 -0.7676 -0.3165
 5070WAT      O20985   5.873   0.530   1.891  0.7364 -0.4588  0.0989
 5070WAT     H120986   5.873   0.456   1.844  0.6351 -0.5435  0.2286
 5070WAT     H220987   5.821   0.510   1.959  3.0785 -1.3187  1.7611
 5070WAT    EPW20988   5.865   0.516   1.894  0.0724  0.6135 -0.5631
 5071WAT      O20989   6.507   2.365   0.046  0.0814 -0.1075 -0.7227
 5071WAT     H120990   6.527   2.392  -0.034 -0.7945  0.3331 -0.8072
 5071WAT     H220991   6.577   2.386   0.093 -0.1436  1.3755 -0.9972
 5071WAT    EPW20992   6.520   2.372   0.041  0.2764  0.0218 -1.3124
 5072WAT      O20993   6.273   1.639   7.534 -0.0127 -0.2491  0.3359
 5072WAT     H120994   6.301   1.583   7.474 -2.9623 -1.4004 -0.1053
 5072WAT     H220995   6.230   1.589   7.591 -2.3589  1.4036  0.1824
 5072WAT    EPW20996   6.271   1.623   7.534 -0.5267  0.1197 -0.0347
 5073WAT      O20997   5.934   1.723   0.336 -0.3238 -0.3481  0.0738
 5073WAT     H120998   5.898   1.710   0.414 -1.9431 -2.6890 -0.9252
 5073WAT     H220999   6.004   1.671   0.337 -0.1723 -0.1439  0.0789
 5073WAT    EPW21000   5.939   1.713   0.348 -0.6627  0.3059 -0.7749
 5074WAT      O21001   5.350   1.110   0.067 -0.4391  0.1715  0.3341
 5074WAT     H121002   5.278   1.158   0.054 -0.7702 -0.4839 -0.3528
 5074WAT     H221003   5.366   1.076  -0.012  1.1238  0.9746  0.2746
 5074WAT    EPW21004   5.342   1.112   0.053 -0.1621 -0.2082 -0.1736
 5075WAT      O21005   6.915   2.070   0.092  0.2643  0.4448 -0.4132
 5075WAT     H121006   6.958   2.013   0.142  1.2955  0.2376 -1.5020
 5075WAT     H221007   6.895   2.025   0.020 -2.6224  0.2593  0.3531
 5075WAT    EPW21008   6.918   2.055   0.089  0.1044 -0.2830  0.0740
 5076WAT      O21009   5.135   0.835   7.124  0.2291  0.4217  0.3211
 5076WAT     H121010   5.116   0.785   7.192 -0.0114  1.7922  1.3002
 5076WAT     H221011   5.180   0.901   7.159 -1.1941  1.9361 -0.6006
 5076WAT    EPW21012   5.139   0.837   7.139 -0.1927 -1.1080  0.7327
 5077WAT      O21013   4.750   1.153   6.743  0.1733  0.1033  0.2435
 5077WAT     H121014   4.721   1.124   6.820  0.0573 -2.5129 -0.6816
 5077WAT     H221015   4.700   1.223   6.727 -2.0579 -1.1956  1.1004
 5077WAT    EPW21016   4.738   1.159   6.752  0.6806  0.8093 -0.7201
 5078WAT      O21017   6.287   1.474   0.054  0.4279 -0.0702 -0.7300
 5078WAT     H121018   6.365   1.513   0.047  0.5828 -0.3293 -0.4979
 5078WAT     H221019   6.231   1.534   0.026  0.6955  0.1906 -0.7124
 5078WAT    EPW21020   6.290   1.489   0.049 -0.0603  1.2949 -0.2950
 5079WAT      O21021   6.749   0.706   0.554 -0.0222 -0.0011 -0.7847
 5079WAT     H121022   6.779   0.684   0.475 -0.3585 -0.9905 -0.6464
 5079WAT     H221023   6.764   0.635   0.603 -0.8217  0.2000 -0.2274
 5079WAT    EPW21024   6.756   0.692   0.550  0.3237  0.4379 -0.4528
 5080WAT      O21025   6.399   1.492   7.343  0.2485 -0.2118  0.8904
 5080WAT     H121026   6.378   1.554   7.285 -1.2134 -0.8488  0.6879
 5080WAT     H221027   6.348   1.424   7.319 -0.3229 -0.5277  2.8601
 5080WAT    EPW21028   6.389   1.491   7.331 -0.2274  0.1804 -0.1874
 5081WAT      O21029   4.604   0.284   0.646 -0.2331 -0.4318 -0.2020
 5081WAT     H121030   4.588   0.224   0.585  0.3363  2.3751 -3.4090
 5081WAT     H221031   4.660   0.244   0.700  1.6522 -2.2617 -3.2025
 5081WAT    EPW21032   4.610   0.269   0.645 -0.3824 -0.3589 -0.1496
 5082WAT      O21033   5.363   1.859   1.641  0.2826 -0.0519  0.1640
 5082WAT     H121034   5.311   1.876   1.709  1.7888  2.0344  0.8964
 5082WAT     H221035   5.322   1.896   1.573 -0.0675 -0.0246  0.3900
 5082WAT    EPW21036   5.350   1.867   1.641 -0.0584  0.1167  0.3994
 5083WAT      O21037   6.430   1.119   7.486 -0.0112  1.0550  0.5623
 5083WAT     H121038   6.439   1.035   7.506 -1.4925  0.7497  0.0675
 5083WAT     H221039   6.504   1.138   7.443  0.1905 -0.0736  0.3857
 5083WAT    EPW21040   6.443   1.110   7.482 -0.4722  0.3244 -0.8895
 5084WAT      O21041   5.222   0.241   0.176 -0.1706  0.4820  0.1689
 5084WAT     H121042   5.179   0.233   0.252 -1.1170 -0.2388 -0.4165
 5084WAT     H221043   5.196   0.318   0.146 -1.8800 -0.3471 -0.6325
 5084WAT    EPW21044   5.211   0.251   0.183  0.2144 -0.4010 -0.0924
 5085WAT      O21045   5.986   0.339   0.104 -0.9349 -0.0030  0.3709
 5085WAT     H121046   5.935   0.269   0.115  0.1410 -0.5534  2.5549
 5085WAT     H221047   6.065   0.309   0.124 -0.3405  1.6693  0.6497
 5085WAT    EPW21048   5.990   0.324   0.109  0.3074 -0.7300 -0.0904
 5086WAT      O21049   4.505   1.243   0.976 -0.8962  0.4364  0.3060
 5086WAT     H121050   4.575   1.294   0.972 -1.6790  1.5618  0.4380
 5086WAT     H221051   4.494   1.217   0.894 -0.6297  0.6888  0.1888
 5086WAT    EPW21052   4.514   1.247   0.963  0.1437 -0.0217 -0.8089
 5087WAT      O21053   6.651   1.296   0.936 -0.0928  0.0450  0.3228
 5087WAT     H121054   6.594   1.308   0.870  0.3085  0.9519  0.1224
 5087WAT     H221055   6.624   1.222   0.973 -0.3556 -0.4709 -0.8425
 5087WAT    EPW21056   6.638   1.287   0.931  0.4840 -0.1931  0.6147
 5088WAT      O21057   4.558   8.046   0.108  0.3439  0.1293  0.2893
 5088WAT     H121058   4.566   7.960   0.120  0.0611  0.0228 -0.2480
 5088WAT     H221059   4.488   8.067   0.156 -0.5510 -0.2277 -0.8227
 5088WAT    EPW21060   4.549   8.037   0.116 -0.8424 -0.1551 -0.0278
 5089WAT      O21061   6.626   7.621   0.592  0.0126  0.1222  0.1488
 5089WAT     H121062   6.668   7.546   0.605 -1.4778 -1.0694 -1.3927
 5089WAT     H221063   6.638   7.665   0.666  1.2234 -1.4873  0.9657
 5089WAT    EPW21064   6.634   7.617   0.605  0.8978 -0.2434 -1.5726
 5090WAT      O21065   5.074   0.219   0.403 -0.4783 -0.1317 -0.5859
 5090WAT     H121066   5.004   0.260   0.436 -1.7655 -1.2074 -1.8134
 5090WAT     H221067   5.140   0.249   0.450 -2.0023 -0.5767  2.0229
 5090WAT    EPW21068   5.073   0.229   0.415  1.1403 -0.3282  0.1151
 5091WAT      O21069   6.439   0.443   7.742  0.0167 -0.1710 -0.0795
 5091WAT     H121070   6.409   0.511   7.788  0.7046  0.3396 -0.3642
 5091WAT     H221071   6.398   0.451   7.665 -0.9942 -0.9200  0.3533
 5091WAT    EPW21072   6.428   0.455   7.738 -0.1810 -0.0711 -0.6901
 5092WAT      O21073   4.501   0.145   7.943  0.9601  0.1975 -0.3694
 5092WAT     H121074   4.516   0.095   8.012 -2.5467  0.1098  0.4768
 5092WAT     H221075   4.491   0.088   7.878 -1.1908 -0.1888  0.2303
 5092WAT    EPW21076   4.502   0.129   7.943 -0.3002 -0.0108  0.0407
 5093WAT      O21077   7.049   0.669   0.718 -0.5818  0.3605  0.3202
 5093WAT     H121078   6.985   0.609   0.721 -0.1553 -0.2120 -1.4383
 5093WAT     H221079   7.058   0.686   0.633  1.2077  0.8766  0.5734
 5093WAT    EPW21080   7.041   0.663   0.706 -0.3887  0.0087  0.2943
 5094WAT      O21081   6.935   6.518   7.964 -0.4810  0.4078 -0.6700
 5094WAT     H121082   7.022   6.528   7.968 -0.6377  1.3918  0.9090
 5094WAT     H221083   6.921   6.445   8.010 -0.5571  0.7438 -0.1530
 5094WAT    EPW21084   6.946   6.509   7.971 -0.5580  0.4322 -0.1422
 5095WAT      O21085   6.748   1.212   7.892  0.2148 -0.2732 -0.9396
 5095WAT     H121086   6.749   1.232   7.807 -1.4358 -0.4981 -1.0302
 5095WAT     H221087   6.683   1.154   7.899  0.2499 -0.1723  0.4995
 5095WAT    EPW21088   6.739   1.206   7.880 -0.5643  0.3474 -0.3826
 5096WAT      O21089   6.275   0.956   0.156  0.0417  0.0832  0.0132
 5096WAT     H121090   6.252   0.928   0.236 -0.2292 -0.3495 -0.2091
 5096WAT     H221091   6.231   1.030   0.146 -1.2881 -0.7191 -0.3950
 5096WAT    EPW21092   6.265   0.963   0.166 -0.2049  0.6988  0.2157
 5097WAT      O21093   7.271   1.232   0.525  0.3539  0.2429  0.4691
 5097WAT     H121094   7.198   1.268   0.494  0.0797 -0.4168  0.3179
 5097WAT     H221095   7.285   1.165   0.470  0.3844 -0.3776  1.2197
 5097WAT    EPW21096   7.262   1.227   0.512 -1.1634  0.7746 -0.7035
 5098WAT      O21097   6.342   0.497   0.069  0.0455 -0.1812  0.0565
 5098WAT     H121098   6.320   0.499  -0.016  0.7796 -1.3880 -0.1840
 5098WAT     H221099   6.293   0.560   0.104 -0.9512 -0.2603 -1.1089
 5098WAT    EPW21100   6.332   0.507   0.062  0.0293 -0.5626 -0.0315
 5099WAT      O21101   5.562   7.895   0.458 -0.1841  0.0881 -0.9360
 5099WAT     H121102   5.638   7.921   0.424 -0.5526  0.9527 -1.1143
 5099WAT     H221103   5.578   7.813   0.484  1.1938  0.6615  0.1871
 5099WAT    EPW21104   5.576   7.887   0.457 -0.1702  0.3173 -0.0717
 5100WAT      O21105   6.133   7.956   0.294  0.1003 -0.4951  0.1362
 5100WAT     H121106   6.152   8.036   0.265 -2.4324  0.6010  1.2432
 5100WAT     H221107   6.109   7.968   0.377  0.9673 -2.6370  0.7906
 5100WAT    EPW21108   6.133   7.969   0.302 -0.1587 -0.1736  0.4708
 5101WAT      O21109   5.404   1.818   7.436 -0.3887  0.1923 -0.2652
 5101WAT     H121110   5.394   1.738   7.401 -0.1664  0.6103 -1.3291
 5101WAT     H221111   5.406   1.870   7.367  1.2990  0.9364  0.2783
 5101WAT    EPW21112   5.403   1.814   7.421  0.3521 -0.4808  0.1812
 5102WAT      O21113   5.367   0.995   5.384 -0.4874  1.1045 -0.2511
 5102WAT     H121114   5.302   0.941   5.363 -0.4846  1.7935 -2.2052
 5102WAT     H221115   5.330   1.074   5.379 -0.0923  1.3964  1.0462
 5102WAT    EPW21116   5.352   0.999   5.380  0.4420  0.4862 -0.3253
 5103WAT      O21117   5.376   0.549   7.391 -0.6820  0.0758 -0.0713
 5103WAT     H121118   5.350   0.606   7.452 -2.0333  0.1978 -0.7199
 5103WAT     H221119   5.439   0.592   7.348  0.3871 -0.0647  1.2906
 5103WAT    EPW21120   5.381   0.564   7.393  0.0625  0.6085 -0.3296
 5104WAT      O21121   7.666   7.633   0.356 -0.0355 -0.1830 -0.3982
 5104WAT     H121122   7.749   7.650   0.377 -0.1177 -0.2571  0.0104
 5104WAT     H221123   7.624   7.708   0.375  0.0739  0.1625 -1.4589
 5104WAT    EPW21124   7.672   7.646   0.362 -0.3448  0.0859  0.2691
 5105WAT      O21125   7.060   1.246   0.944  0.2126 -0.5773  0.4468
 5105WAT     H121126   7.138   1.220   0.917 -0.1467 -0.6146 -0.6011
 5105WAT     H221127   7.048   1.322   0.902  0.2313  0.0921  1.6039
 5105WAT    EPW21128   7.070   1.254   0.934 -0.4016  0.3738  0.0897
 5106WAT      O21129   6.242   1.247   7.337 -0.3230  0.0485  0.1839
 5106WAT     H121130   6.170   1.256   7.386 -0.2752 -1.8040  0.6535
 5106WAT     H221131   6.290   1.189   7.381  1.2104  0.7941 -0.4294
 5106WAT    EPW21132   6.238   1.240   7.351 -0.4503  0.0259 -0.0085
 5107WAT      O21133   5.687   0.826   0.666 -0.1855 -0.5393  0.2504
 5107WAT     H121134   5.643   0.751   0.680 -1.3679 -0.1465 -1.0947
 5107WAT     H221135   5.724   0.812   0.588  0.6749 -0.2030  0.5975
 5107WAT    EPW21136   5.686   0.813   0.657  0.0829 -0.1464 -0.1744
 5108WAT      O21137   6.077   2.219   1.387  0.2251  0.2132 -0.2321
 5108WAT     H121138   6.127   2.149   1.404 -0.1194 -0.0546 -0.3294
 5108WAT     H221139   6.050   2.207   1.306  1.4356  1.2413 -0.8340
 5108WAT    EPW21140   6.081   2.207   1.378  1.2146 -0.8451 -0.0206
 5109WAT      O21141   6.641   0.195   0.184 -0.3000 -0.0803 -0.6395
 5109WAT     H121142   6.581   0.154   0.232  0.4088 -0.3439  0.0423
 5109WAT     H221143   6.627   0.279   0.202  0.2054 -0.1907  0.3631
 5109WAT    EPW21144   6.630   0.201   0.194  0.6144 -0.3984  0.0852
 5110WAT      O21145   6.621   0.162   1.000 -0.4048  0.1969 -0.0667
 5110WAT     H121146   6.672   0.137   0.934 -0.4356 -1.5661  0.5330
 5110WAT     H221147   6.569   0.222   0.963  0.3718  0.1325 -1.3404
 5110WAT    EPW21148   6.621   0.167   0.984  0.3595  0.2766 -0.6320
 5111WAT      O21149   7.035   0.008   0.946  0.3019 -0.3422 -0.3442
 5111WAT     H121150   7.052  -0.076   0.959  1.7196 -0.1741 -0.9663
 5111WAT     H221151   7.105   0.038   0.904  1.3261  1.8418  2.5700
 5111WAT    EPW21152   7.048  -0.000   0.942 -0.3288 -0.4598  0.2621
 5112WAT      O21153   6.296   1.024   7.807 -0.2103 -0.0426 -0.0331
 5112WAT     H121154   6.328   1.084   7.752  1.5158 -0.7861  0.1194
 5112WAT     H221155   6.243   1.071   7.859  2.3169  1.7509  1.1277
 5112WAT    EPW21156   6.293   1.040   7.807 -0.1323  0.8175 -0.6643
 5113WAT      O21157   6.013   2.377   7.013 -0.0927 -0.6268  0.1274
 5113WAT     H121158   6.037   2.363   6.930  0.1619 -2.8413  0.5030
 5113WAT     H221159   5.938   2.333   7.020  0.6766 -1.8072  1.4380
 5113WAT    EPW21160   6.005   2.369   7.002 -0.3265  1.0914 -0.6923
 5114WAT      O21161   6.300   0.696   1.006  0.7515 -0.0786 -0.1127
 5114WAT     H121162   6.322   0.779   0.988  0.4074 -0.0837 -0.5992
 5114WAT     H221163   6.259   0.702   1.082  0.1413  0.3026 -0.4602
 5114WAT    EPW21164   6.297   0.709   1.014  0.6254  0.0567 -0.4763
 5115WAT      O21165   5.245   1.651   7.854  0.2538 -0.3608 -0.5743
 5115WAT     H121166   5.289   1.626   7.925  1.8412  1.0683 -0.9897
 5115WAT     H221167   5.297   1.709   7.816 -2.2524  1.9886 -0.7788
 5115WAT    EPW21168   5.259   1.656   7.859 -0.1775  0.0888  1.1980
 5116WAT      O21169   7.280   0.300   0.481  0.0219  0.1992  0.2231
 5116WAT     H121170   7.358   0.282   0.515 -1.0173 -0.8131  2.2423
 5116WAT     H221171   7.295   0.371   0.433  2.1588  0.0970  0.6379
 5116WAT    EPW21172   7.294   0.308   0.479  0.2029  0.4944  0.7809
 5117WAT      O21173   6.084   2.688   0.500  0.3247 -0.0390 -0.0104
 5117WAT     H121174   6.021   2.736   0.537  0.7787 -0.0570  0.8286
 5117WAT     H221175   6.154   2.706   0.549  0.7020 -0.8827 -0.2258
 5117WAT    EPW21176   6.085   2.698   0.513 -0.1417 -0.2473 -0.0375
 5118WAT      O21177   5.625   0.620   6.816  0.0204  0.2959  0.1263
 5118WAT     H121178   5.554   0.613   6.866 -0.1635  0.1535 -0.1469
 5118WAT     H221179   5.593   0.641   6.738 -0.0291 -2.5139 -0.7376
 5118WAT    EPW21180   5.610   0.622   6.812 -0.0564 -0.0911  0.5805
 5119WAT      O21181   6.347   1.310   7.673  0.0486 -0.5482  0.6093
 5119WAT     H121182   6.412   1.369   7.674  0.0709 -0.5721  0.5425
 5119WAT     H221183   6.374   1.250   7.616 -0.5670  0.0477 -0.3455
 5119WAT    EPW21184   6.361   1.310   7.665  0.1092  0.0050 -0.5936
 5120WAT      O21185   7.640   1.383   0.160 -0.3514  0.1959 -0.2434
 5120WAT     H121186   7.566   1.339   0.148 -0.8191  0.8087  0.3154
 5120WAT     H221187   7.632   1.452   0.107 -0.1416  0.2208 -0.2441
 5120WAT    EPW21188   7.628   1.387   0.151  0.5239  0.3316  0.8714
 5121WAT      O21189   6.726   1.138   7.461 -0.4916 -0.2376 -0.0464
 5121WAT     H121190   6.714   1.073   7.518  0.7218 -0.1475  0.3546
 5121WAT     H221191   6.760   1.099   7.391 -1.4203 -0.2658 -0.4921
 5121WAT    EPW21192   6.729   1.123   7.459 -0.8098  0.1841  0.2100
 5122WAT      O21193   6.558   1.278   0.286  0.1024  0.4478  0.2203
 5122WAT     H121194   6.622   1.287   0.345  0.7055 -1.5014 -0.0609
 5122WAT     H221195   6.594   1.307   0.212  0.2740  0.4183  0.2917
 5122WAT    EPW21196   6.573   1.283   0.283  0.2156  0.2771  0.5525
 5123WAT      O21197   5.533   0.997   6.720  0.1252 -0.2794 -0.1103
 5123WAT     H121198   5.590   1.064   6.720 -0.0417 -0.1370 -0.3155
 5123WAT     H221199   5.490   1.008   6.795 -0.5187  0.3745 -0.5646
 5123WAT    EPW21200   5.535   1.009   6.731  0.8551 -0.0551  0.2319
 5124WAT      O21201   5.982   3.145   7.400 -0.3619 -0.2295 -0.8763
 5124WAT     H121202   6.062   3.113   7.383  0.3390  0.1732  1.3124
 5124WAT     H221203   5.940   3.076   7.433  0.5657  0.4937  2.1127
 5124WAT    EPW21204   5.988   3.130   7.402  0.3725  0.4566 -0.1160
 5125WAT      O21205   6.444   1.280   0.754 -0.0729 -0.7194 -0.1995
 5125WAT     H121206   6.369   1.313   0.784  0.4179  0.3145 -0.0982
 5125WAT     H221207   6.421   1.199   0.729 -0.4409 -1.9425  3.4743
 5125WAT    EPW21208   6.430   1.273   0.755  0.7493  0.3528  0.6057
 5126WAT      O21209   5.013   0.330   7.681 -0.1148  0.2790  0.3175
 5126WAT     H121210   5.051   0.328   7.603  2.4654 -3.5607  1.3771
 5126WAT     H221211   5.070   0.372   7.731 -0.1389 -0.2000  0.7587
 5126WAT    EPW21212   5.027   0.336   7.677  0.5790  0.1722 -0.6764
 5127WAT      O21213   3.804   0.158   5.529 -0.2562  0.5055  0.0179
 5127WAT     H121214   3.829   0.075   5.516  1.4890  1.1126 -0.7603
 5127WAT     H221215   3.771   0.182   5.452  0.8010  1.0311 -0.2846
 5127WAT    EPW21216   3.803   0.149   5.516 -0.5292 -0.7740 -0.0845
 5128WAT      O21217   5.028   0.248   5.510  0.5307 -0.1727  0.7370
 5128WAT     H121218   5.060   0.327   5.492  0.2117 -0.0626  0.6452
 5128WAT     H221219   5.081   0.218   5.572 -0.0646  0.6128  1.6675
 5128WAT    EPW21220   5.040   0.255   5.516  0.9288 -0.1114  0.0433
 5129WAT      O21221   5.389   0.010   4.562 -0.3781 -0.0801 -0.9380
 5129WAT     H121222   5.374   0.096   4.573 -1.2496  0.0940 -2.9810
 5129WAT     H221223   5.437   0.007   4.490 -0.9112 -1.3444 -1.2645
 5129WAT    EPW21224   5.394   0.022   4.553 -0.1551  0.8914  0.7290
 5130WAT      O21225   5.544   0.837   4.892 -0.0569  0.0193 -0.0803
 5130WAT     H121226   5.557   0.844   4.978  1.3363  1.6761 -0.3685
 5130WAT     H221227   5.598   0.773   4.868  1.4911  1.2449 -0.0353
 5130WAT    EPW21228   5.554   0.828   4.901  1.1153  0.2188 -0.6159
 5131WAT      O21229   4.400   1.257   4.748  0.1015 -0.3608  0.2019
 5131WAT     H121230   4.314   1.245   4.745  0.1390 -0.5160 -0.7073
 5131WAT     H221231   4.429   1.190   4.795 -0.4824  1.1203  2.9011
 5131WAT    EPW21232   4.392   1.245   4.754 -0.2431 -1.1205  0.0631
 5132WAT      O21233   4.663   0.888   4.606  1.0081 -0.6687 -0.1651
 5132WAT     H121234   4.669   0.952   4.665 -0.2303 -0.4821 -0.2259
 5132WAT     H221235   4.711   0.919   4.539  1.5874 -0.4396  0.3456
 5132WAT    EPW21236   4.671   0.902   4.605 -0.4789 -0.7680  0.5126
 5133WAT      O21237   4.693   0.920   7.771 -0.2971  0.0994 -0.2348
 5133WAT     H121238   4.605   0.923   7.772 -0.4041 -1.9954  1.1705
 5133WAT     H221239   4.711   0.882   7.694 -0.3463  3.6034 -2.1981
 5133WAT    EPW21240   4.682   0.915   7.760 -0.0203 -0.0740 -0.0672
 5134WAT      O21241   5.787   1.062   7.029  0.7285  0.0164  0.0991
 5134WAT     H121242   5.826   1.071   7.106  1.4479 -0.8173 -0.1454
 5134WAT     H221243   5.742   0.988   7.038  0.6274  0.0394 -0.2056
 5134WAT    EPW21244   5.786   1.052   7.041  0.2246 -0.1589  0.6943
 5135WAT      O21245   3.199   0.446   6.195 -0.4641 -0.2103 -0.2895
 5135WAT     H121246   3.239   0.431   6.271 -1.9144 -1.5902  0.2685
 5135WAT     H221247   3.240   0.392   6.140  0.4191  0.6033 -0.4434
 5135WAT    EPW21248   3.211   0.436   6.198 -0.2165 -0.3497  0.0543
 5136WAT      O21249   4.223   0.961   6.852  0.3412 -0.4253 -0.3024
 5136WAT     H121250   4.190   0.919   6.782  0.5466 -0.6429 -0.2728
 5136WAT     H221251   4.310   0.952   6.841  0.3979  0.3744 -0.5248
 5136WAT    EPW21252   4.231   0.953   6.840  0.2590 -0.3994  0.0938
 5137WAT      O21253   4.495   1.019   4.846  0.2433 -0.5330 -0.3540
 5137WAT     H121254   4.434   0.986   4.899  0.6312 -2.5960 -1.0962
 5137WAT     H221255   4.568   1.016   4.894 -0.0379  1.1982  0.2584
 5137WAT    EPW21256   4.497   1.014   4.861  0.1095  0.0038 -0.6010
 5138WAT      O21257   4.296   1.855   4.738 -0.4213 -0.1462 -0.3162
 5138WAT     H121258   4.338   1.888   4.807 -0.5924  0.2218 -0.3859
 5138WAT     H221259   4.334   1.777   4.727  0.8126  0.5004 -0.8750
 5138WAT    EPW21260   4.308   1.848   4.747 -0.5361 -0.4256  0.3286
 5139WAT      O21261   4.745   0.413   6.978 -0.2688 -0.5655 -0.3655
 5139WAT     H121262   4.670   0.455   6.960 -0.5779 -0.6679  0.6004
 5139WAT     H221263   4.802   0.448   6.922 -0.4248  1.4633  0.6152
 5139WAT    EPW21264   4.742   0.424   6.967 -0.1504  0.2868  0.3190
 5140WAT      O21265   4.295   1.314   5.592 -0.0198 -0.3704 -0.6417
 5140WAT     H121266   4.269   1.389   5.628 -0.5303 -1.8080  2.2848
 5140WAT     H221267   4.221   1.275   5.570  0.2174 -0.3508 -1.5173
 5140WAT    EPW21268   4.280   1.319   5.594 -0.0270  0.1670 -0.0293
 5141WAT      O21269   5.607   0.798   5.213  0.1609  0.6467  0.6303
 5141WAT     H121270   5.680   0.775   5.172 -0.3923  2.1644 -1.3400
 5141WAT     H221271   5.586   0.726   5.258  1.0823 -1.0053 -1.3999
 5141WAT    EPW21272   5.614   0.784   5.213  0.3466 -0.8838  0.9813
 5142WAT      O21273   6.030   1.386   4.826 -0.3259  0.2056 -0.0247
 5142WAT     H121274   5.977   1.404   4.893 -0.6367  0.6242 -0.3825
 5142WAT     H221275   6.009   1.304   4.805  0.5809 -0.3474  1.1321
 5142WAT    EPW21276   6.019   1.376   4.833  0.3752 -0.3347  0.7531
 5143WAT      O21277   5.059   1.426   5.912  0.2273 -0.3652  0.5368
 5143WAT     H121278   5.040   1.373   5.979 -1.5766  1.2682  1.4470
 5143WAT     H221279   4.981   1.459   5.890  1.3222  3.0155  1.0602
 5143WAT    EPW21280   5.044   1.423   5.919 -0.4146 -0.2066 -0.4226
 5144WAT      O21281   6.300   0.090   7.518 -0.5188 -0.1593 -0.0434
 5144WAT     H121282   6.287   0.036   7.451  0.5762  2.0073 -2.1068
 5144WAT     H221283   6.377   0.064   7.550  0.1781  0.3627 -1.2488
 5144WAT    EPW21284   6.310   0.078   7.513 -0.2205 -0.8765 -0.2499
 5145WAT      O21285   4.797   7.517   7.101 -0.1217 -0.1142 -0.1299
 5145WAT     H121286   4.735   7.555   7.148 -1.4653 -1.4980 -0.7150
 5145WAT     H221287   4.815   7.575   7.039  1.9190  1.8964  2.1088
 5145WAT    EPW21288   4.791   7.531   7.099  0.1726  0.1734  0.0935
 5146WAT      O21289   4.216   7.939   6.725 -0.2177 -0.1268 -0.1746
 5146WAT     H121290   4.148   7.984   6.696  0.1576  0.3811 -0.2965
 5146WAT     H221291   4.285   7.987   6.698  0.1413  0.6233  1.9365
 5146WAT    EPW21292   4.216   7.953   6.716  0.5191  0.0588  0.8166
 5147WAT      O21293   5.959   2.982   5.181 -0.4224  0.3515 -0.5415
 5147WAT     H121294   5.991   2.901   5.187  1.1281  1.0221  1.6425
 5147WAT     H221295   6.000   3.014   5.111  0.1269 -0.2779 -0.5258
 5147WAT    EPW21296   5.970   2.975   5.172 -0.0451 -0.1061 -0.6464
 5148WAT      O21297   3.648   1.642   4.869 -0.2822  0.0662  0.0700
 5148WAT     H121298   3.639   1.728   4.870 -2.6365 -0.1245  0.5612
 5148WAT     H221299   3.695   1.625   4.940 -0.9385  0.8633  0.7033
 5148WAT    EPW21300   3.653   1.652   4.879  0.4472 -0.3409 -0.3638
 5149WAT      O21301   4.720   1.821   5.830 -0.3264 -0.1226  0.2442
 5149WAT     H121302   4.671   1.750   5.838 -1.3458  0.2759 -1.8154
 5149WAT     H221303   4.798   1.789   5.807 -1.3733 -0.6498 -3.2005
 5149WAT    EPW21304   4.725   1.806   5.828  0.4334  0.1483 -0.6809
 5150WAT      O21305   4.852   2.255   4.662  0.2576 -0.1525  0.2684
 5150WAT     H121306   4.847   2.173   4.631 -2.2295  0.6636 -1.8516
 5150WAT     H221307   4.827   2.304   4.595  0.1319  2.2715  1.9498
 5150WAT    EPW21308   4.847   2.250   4.648 -0.4269 -0.2812  0.8601
 5151WAT      O21309   5.433   0.620   6.585 -0.1026  0.3578 -0.3127
 5151WAT     H121310   5.366   0.646   6.635 -0.9217 -1.4994 -0.3668
 5151WAT     H221311   5.400   0.554   6.539  1.9350 -1.1424  0.1916
 5151WAT    EPW21312   5.418   0.614   6.586  0.8471 -0.3432  0.6377
 5152WAT      O21313   4.734   0.641   7.151 -0.7131 -0.0795 -0.1501
 5152WAT     H121314   4.818   0.650   7.173 -0.8350  1.2165 -0.1464
 5152WAT     H221315   4.731   0.563   7.112  1.0851  1.0345 -2.7764
 5152WAT    EPW21316   4.746   0.631   7.148  0.2205  0.2874 -0.3885
 5153WAT      O21317   5.060   2.822   4.596 -0.8093  0.5601  0.1965
 5153WAT     H121318   5.016   2.749   4.615  1.0477 -0.9297 -0.9228
 5153WAT     H221319   5.028   2.846   4.519 -1.6264  1.1093  0.7000
 5153WAT    EPW21320   5.049   2.815   4.588 -0.4416 -1.0310 -0.0461
 5154WAT      O21321   5.318   0.561   4.685 -0.3041 -0.0299 -0.0263
 5154WAT     H121322   5.344   0.643   4.697  1.7466 -0.7968  1.2341
 5154WAT     H221323   5.372   0.531   4.624  0.0593 -0.8947  0.7011
 5154WAT    EPW21324   5.330   0.569   4.678  0.0811 -0.9600 -1.1524
 5155WAT      O21325   5.250   1.856   5.025  0.1158  0.0881  0.3951
 5155WAT     H121326   5.223   1.926   5.069 -1.1756 -1.2333  1.8374
 5155WAT     H221327   5.298   1.889   4.961 -0.0007  2.2510  1.3437
 5155WAT    EPW21328   5.253   1.871   5.022  0.1576  0.3975 -0.4814
 5156WAT      O21329   3.603   0.483   6.374 -0.0411  0.3424  0.0526
 5156WAT     H121330   3.529   0.448   6.403  0.3890  0.5827  1.5210
 5156WAT     H221331   3.663   0.421   6.387  0.0213  0.0863 -1.2718
 5156WAT    EPW21332   3.601   0.469   6.380  0.1816 -0.4099 -0.5372
 5157WAT      O21333   5.033   1.271   6.136  0.3599 -0.1522 -0.3394
 5157WAT     H121334   5.116   1.243   6.134 -0.0645 -1.4506 -0.7300
 5157WAT     H221335   5.028   1.311   6.213  1.5897  0.7714 -0.7011
 5157WAT    EPW21336   5.045   1.273   6.147  0.0602  0.2295 -0.1788
 5158WAT      O21337   5.743   7.227   7.713 -0.4795 -0.2430  0.2345
 5158WAT     H121338   5.707   7.180   7.778  0.1718 -0.7288  0.2451
 5158WAT     H221339   5.703   7.197   7.642  0.5204 -1.4301  0.1397
 5158WAT    EPW21340   5.732   7.216   7.712  0.1344  0.1095  0.2976
 5159WAT      O21341   4.290   0.663   7.736  0.4661  0.6333 -0.0185
 5159WAT     H121342   4.316   0.626   7.661 -0.3823 -0.6298  0.2726
 5159WAT     H221343   4.203   0.660   7.731  0.3751 -0.7465  1.5881
 5159WAT    EPW21344   4.281   0.657   7.724  1.0226  0.3683  0.9930
 5160WAT      O21345   7.498   7.948   4.219 -0.3026 -0.5112 -0.2741
 5160WAT     H121346   7.554   7.987   4.273 -1.7402  2.2110 -0.6058
 5160WAT     H221347   7.543   7.942   4.144 -0.3461  1.6003 -0.5225
 5160WAT    EPW21348   7.513   7.953   4.216  0.0189 -0.1393  0.0587
 5161WAT      O21349   4.868   7.627   5.860  0.3019 -0.1208  0.8565
 5161WAT     H121350   4.879   7.603   5.943  1.8923  1.1069  1.0626
 5161WAT     H221351   4.915   7.701   5.854 -2.1406  1.4720 -0.3716
 5161WAT    EPW21352   4.877   7.634   5.871 -0.1641 -0.3646  0.4417
 5162WAT      O21353   3.865   0.608   6.147  0.2367  0.4594 -0.2189
 5162WAT     H121354   3.914   0.680   6.138  0.1308  0.3920 -1.5656
 5162WAT     H221355   3.870   0.590   6.232  1.9171  0.9060 -0.1917
 5162WAT    EPW21356   3.873   0.616   6.158  0.8653  0.2902  0.2982
 5163WAT      O21357   4.993   0.414   5.248  0.0957 -0.0735 -0.2473
 5163WAT     H121358   5.073   0.449   5.244 -0.0155  0.3838  1.0738
 5163WAT     H221359   4.950   0.452   5.183  1.2217 -1.0977 -1.6621
 5163WAT    EPW21360   4.999   0.425   5.238  0.7409 -0.5661 -0.1016
 5164WAT      O21361   5.712   7.952   4.802 -0.4221 -0.5571 -0.5978
 5164WAT     H121362   5.683   7.961   4.884  2.3704 -3.3123  0.9216
 5164WAT     H221363   5.648   7.908   4.763 -1.6200  0.3935  0.2206
 5164WAT    EPW21364   5.698   7.947   4.809 -0.0902 -0.3077  0.2211
 5165WAT      O21365   6.058   6.941   6.165  0.3806  1.0194 -0.0483
 5165WAT     H121366   5.990   6.984   6.130 -1.0353 -0.1229  1.1613
 5165WAT     H221367   6.026   6.913   6.241  1.7131 -0.9306 -0.1657
 5165WAT    EPW21368   6.043   6.943   6.171 -0.2918 -0.2735 -1.4476
 5166WAT      O21369   4.656   0.905   5.526  0.3206 -0.7151  0.0070
 5166WAT     H121370   4.665   0.826   5.562  0.1529 -0.7261  0.0247
 5166WAT     H221371   4.668   0.959   5.594  1.9429 -0.6725 -0.2746
 5166WAT    EPW21372   4.659   0.901   5.542 -0.5136  0.1048 -1.1146
 5167WAT      O21373   5.478   1.420   4.819  0.2517  0.2221  0.3973
 5167WAT     H121374   5.425   1.359   4.787 -0.5060  1.1847 -0.2602
 5167WAT     H221375   5.540   1.428   4.758  0.5601 -0.1465  0.6595
 5167WAT    EPW21376   5.480   1.412   4.805  0.1192  0.3057 -0.2167
 5168WAT      O21377   5.702   1.654   5.103 -0.2705  0.1023 -0.1959
 5168WAT     H121378   5.704   1.582   5.054  0.2311 -0.1844  0.2287
 5168WAT     H221379   5.758   1.636   5.167 -1.2778  0.2732  0.7587
 5168WAT    EPW21380   5.711   1.641   5.105  0.4017  0.1342 -0.8092
 5169WAT      O21381   5.127   0.111   5.279 -0.0108  0.0164 -0.1697
 5169WAT     H121382   5.073   0.151   5.335  0.2516  0.4622 -0.2303
 5169WAT     H221383   5.185   0.173   5.259  0.6067 -0.5005 -0.0070
 5169WAT    EPW21384   5.127   0.126   5.284 -0.3928  0.7840  0.1324
 5170WAT      O21385   6.336   0.675   7.900  0.5306  0.3666 -0.2107
 5170WAT     H121386   6.379   0.711   7.966 -0.9302  0.6875  0.6024
 5170WAT     H221387   6.318   0.742   7.848  1.3682  0.1648 -0.7941
 5170WAT    EPW21388   6.340   0.690   7.902  0.0145 -0.3811 -0.3378
 5171WAT      O21389   4.831   1.304   4.468  0.3147 -0.5668 -0.4481
 5171WAT     H121390   4.781   1.328   4.535  0.7075 -1.2779  0.1174
 5171WAT     H221391   4.911   1.329   4.493  0.6619 -1.9613 -0.0491
 5171WAT    EPW21392   4.836   1.311   4.482  0.0904 -0.3132  0.0423
 5172WAT      O21393   5.931   1.811   6.924 -0.1717  0.3101  0.3365
 5172WAT     H121394   5.851   1.778   6.915 -0.4835  1.3475 -0.9730
 5172WAT     H221395   5.929   1.884   6.876  1.5132  0.4197  0.3690
 5172WAT    EPW21396   5.919   1.817   6.915  0.2976  0.2983 -0.3334
 5173WAT      O21397   4.283   0.639   7.408 -0.2407  0.1758 -0.4799
 5173WAT     H121398   4.351   0.691   7.392  0.1437 -0.2680 -0.3214
 5173WAT     H221399   4.214   0.689   7.391  0.0967  1.0696  0.6788
 5173WAT    EPW21400   4.283   0.654   7.403  0.4725 -0.8834 -0.2781
 5174WAT      O21401   5.725   8.012   6.717 -0.2580 -0.5840  0.2475
 5174WAT     H121402   5.699   8.083   6.674  1.1763 -1.4718 -2.3538
 5174WAT     H221403   5.805   8.033   6.745 -0.1183 -0.9021  0.0978
 5174WAT    EPW21404   5.733   8.026   6.715 -0.3654 -0.4257  0.1240
 5175WAT      O21405   5.695   7.914   5.979 -0.3004 -0.4890 -0.4474
 5175WAT     H121406   5.747   7.983   5.972  0.6434 -1.0711  0.6496
 5175WAT     H221407   5.616   7.946   5.960  0.4864  0.2807 -2.8004
 5175WAT    EPW21408   5.691   7.929   5.975  0.1587 -0.4280 -0.3444
 5176WAT      O21409   5.973   1.505   7.266  0.0298  0.4843 -0.1670
 5176WAT     H121410   5.902   1.464   7.237 -0.3412  1.6195 -0.9355
 5176WAT     H221411   5.976   1.484   7.351 -0.1647 -1.0559 -0.5114
 5176WAT    EPW21412   5.963   1.496   7.274 -0.2882 -0.5393  0.9278
 5177WAT      O21413   5.159   7.978   1.303 -0.1282 -0.5746 -0.7568
 5177WAT     H121414   5.219   8.035   1.330  0.2197 -1.1687 -0.2264
 5177WAT     H221415   5.202   7.902   1.304 -0.4634 -0.8029 -1.8245
 5177WAT    EPW21416   5.174   7.975   1.307 -0.1463 -0.0291  0.4125
 5178WAT      O21417   5.594   2.597   7.690 -0.9345 -0.2704 -0.0010
 5178WAT     H121418   5.569   2.640   7.618 -0.7871 -2.0764 -1.1834
 5178WAT     H221419   5.676   2.623   7.702 -0.1830 -1.5916 -1.8447
 5178WAT    EPW21420   5.602   2.607   7.681 -0.1142 -0.4496 -0.4161
 5179WAT      O21421   5.901   1.571   6.183  0.2339  0.1279 -0.1641
 5179WAT     H121422   5.968   1.597   6.232 -0.5595 -1.4764  1.8807
 5179WAT     H221423   5.852   1.525   6.237 -0.3882 -2.3410 -2.5975
 5179WAT    EPW21424   5.904   1.568   6.198  0.4653 -0.1665 -0.1955
 5180WAT      O21425   5.288   0.496   5.255 -0.0871  0.0707 -0.3106
 5180WAT     H121426   5.261   0.563   5.205 -0.3824  0.4059  0.2887
 5180WAT     H221427   5.306   0.434   5.197 -0.2931  0.5001 -0.8488
 5180WAT    EPW21428   5.287   0.497   5.239  0.2264 -1.0179 -0.3998
 5181WAT      O21429   6.844   0.192   2.758 -0.4780 -0.4024 -0.1547
 5181WAT     H121430   6.763   0.216   2.735 -0.4359 -0.3022 -0.2037
 5181WAT     H221431   6.833   0.149   2.833 -0.3465  1.8285  1.2440
 5181WAT    EPW21432   6.830   0.190   2.766  0.1911  0.3017  0.2873
 5182WAT      O21433   6.046   0.031   5.362  0.4008 -0.1044  0.4402
 5182WAT     H121434   6.002  -0.022   5.416 -0.4854  0.2322  0.0596
 5182WAT     H221435   6.092  -0.024   5.312  0.2032 -0.4693  0.6583
 5182WAT    EPW21436   6.047   0.015   5.363 -0.3674 -0.0113 -0.1691
 5183WAT      O21437   4.872   1.242   5.634 -0.0960 -0.1151  0.1769
 5183WAT     H121438   4.930   1.301   5.606 -0.8226 -0.1773 -1.5832
 5183WAT     H221439   4.907   1.211   5.707  1.0345  1.3973  0.3103
 5183WAT    EPW21440   4.885   1.246   5.640 -0.2536 -0.7487  0.0267
 5184WAT      O21441   3.925   1.056   4.774  0.0369  0.1067 -0.0821
 5184WAT     H121442   3.907   1.033   4.856 -1.4135 -1.4981 -0.7842
 5184WAT     H221443   3.967   0.987   4.741  0.7806  0.8068 -0.6399
 5184WAT    EPW21444   3.929   1.043   4.781  0.0761  0.1014 -0.7031
 5185WAT      O21445   6.194   1.200   3.729  0.4536 -0.3261  0.2182
 5185WAT     H121446   6.160   1.244   3.796  0.7097  0.0096  0.1297
 5185WAT     H221447   6.264   1.247   3.707  1.4717 -1.4634  0.9333
 5185WAT    EPW21448   6.199   1.214   3.736  1.1378 -0.1899 -0.6710
 5186WAT      O21449   5.749   1.358   7.145  0.1718 -0.0397 -0.3905
 5186WAT     H121450   5.779   1.281   7.171  1.3161  0.6377  0.3611
 5186WAT     H221451   5.753   1.353   7.058  2.4152 -0.0310 -0.3298
 5186WAT    EPW21452   5.754   1.346   7.136 -0.4095  0.0373 -0.2653
 5187WAT      O21453   4.656   1.016   5.794 -0.0326 -0.0552 -0.4490
 5187WAT     H121454   4.600   1.082   5.803 -1.8060 -1.7661  2.6317
 5187WAT     H221455   4.730   1.047   5.827 -0.9432  0.3400  1.3127
 5187WAT    EPW21456   4.659   1.030   5.800 -0.6772 -0.3317  0.2797
 5188WAT      O21457   5.032   6.949   5.083  0.1162 -0.3028 -0.3113
 5188WAT     H121458   4.953   6.934   5.050  0.5045 -0.7305 -1.0724
 5188WAT     H221459   5.015   6.990   5.158 -0.8664 -1.2159  0.0062
 5188WAT    EPW21460   5.018   6.953   5.089  0.3773 -0.2249  0.0098
 5189WAT      O21461   5.341   0.076   6.172  0.5613  0.2133  0.5162
 5189WAT     H121462   5.352   0.025   6.102  0.3350 -0.2036  0.7747
 5189WAT     H221463   5.342   0.019   6.238 -2.0745  0.2103  0.6558
 5189WAT    EPW21464   5.343   0.060   6.172 -0.7225  0.0274  0.4064
 5190WAT      O21465   5.458   0.485   5.661 -0.2115  0.0091 -0.2677
 5190WAT     H121466   5.385   0.499   5.616  0.0612 -1.1252 -1.0974
 5190WAT     H221467   5.480   0.564   5.689 -1.5982  0.4136 -0.2385
 5190WAT    EPW21468   5.451   0.498   5.659  0.1708 -0.9494 -0.8304
 5191WAT      O21469   4.573   0.139   6.894  0.3043  0.5049 -0.0751
 5191WAT     H121470   4.611   0.177   6.825 -0.0804 -0.2593 -0.7236
 5191WAT     H221471   4.559   0.057   6.868 -1.6768  0.7179  0.1656
 5191WAT    EPW21472   4.576   0.133   6.880 -0.1980 -0.5247 -0.0480
 5192WAT      O21473   5.622   0.948   6.283 -0.5534 -0.0142  0.3853
 5192WAT     H121474   5.535   0.943   6.283 -0.6558  1.4023  1.1548
 5192WAT     H221475   5.645   0.900   6.353 -0.5864 -1.5334 -0.5844
 5192WAT    EPW21476   5.613   0.940   6.293 -0.3372 -0.3578 -0.4886
 5193WAT      O21477   4.647   1.334   4.668  0.4161  0.5667 -0.6810
 5193WAT     H121478   4.572   1.290   4.672  0.8395 -0.0845  0.2908
 5193WAT     H221479   4.627   1.412   4.700  0.2918  0.1834  0.1960
 5193WAT    EPW21480   4.633   1.339   4.673 -0.1626  0.2431  0.0644
 5194WAT      O21481   4.254   0.717   6.505 -0.0597  0.7961 -0.8068
 5194WAT     H121482   4.339   0.739   6.505 -0.0237  0.6596 -0.6977
 5194WAT     H221483   4.245   0.669   6.433  0.1961 -0.0910 -0.2699
 5194WAT    EPW21484   4.265   0.713   6.495 -0.3553 -0.5571  0.8903
 5195WAT      O21485   6.847   1.461   4.467 -0.0278  0.2301  0.1466
 5195WAT     H121486   6.882   1.516   4.526  2.3530  0.9640 -1.7603
 5195WAT     H221487   6.782   1.507   4.432  1.5786  1.7653 -1.0249
 5195WAT    EPW21488   6.843   1.476   4.471 -0.1626 -0.3823 -0.5006
 5196WAT      O21489   5.601   7.611   5.579  0.2026 -0.0269  0.6200
 5196WAT     H121490   5.525   7.655   5.578  1.0970  1.7448  2.8519
 5196WAT     H221491   5.642   7.643   5.648  2.1587 -2.4559  0.6967
 5196WAT    EPW21492   5.596   7.623   5.589 -0.2458 -0.5585 -0.3813
 5197WAT      O21493   5.346   0.577   4.032  0.0652 -0.4533 -0.1485
 5197WAT     H121494   5.360   0.655   4.068 -1.4831 -0.3739  0.3347
 5197WAT     H221495   5.411   0.570   3.974  0.9778  0.6243  0.6880
 5197WAT    EPW21496   5.358   0.587   4.029 -0.7855 -0.2224  0.3366
 5198WAT      O21497   4.104   1.465   7.543 -0.0846 -0.1803 -0.1473
 5198WAT     H121498   4.070   1.397   7.501 -0.5675 -1.0259  1.5228
 5198WAT     H221499   4.175   1.432   7.582 -0.6219  0.1024  1.1185
 5198WAT    EPW21500   4.110   1.450   7.542 -0.0270 -0.3438  0.4844
 5199WAT      O21501   6.561   8.039   4.129 -0.5822  0.3640 -0.1136
 5199WAT     H121502   6.485   8.039   4.086 -1.7356  1.1207  1.8148
 5199WAT     H221503   6.605   8.105   4.094 -0.0427 -1.0775 -2.3903
 5199WAT    EPW21504   6.556   8.048   4.118 -0.9327  0.4386 -0.0016
 5200WAT      O21505   6.039   2.319   5.342  1.1061  0.4069 -0.4785
 5200WAT     H121506   6.105   2.374   5.359  0.7027  1.3684 -1.9082
 5200WAT     H221507   6.058   2.289   5.263 -0.2499  0.8340 -0.9851
 5200WAT    EPW21508   6.052   2.323   5.333  0.7573  0.9587  0.7145
 5201WAT      O21509   5.090   0.814   4.974 -0.1960  0.1726  0.3798
 5201WAT     H121510   5.039   0.827   5.043 -0.9259 -0.2256 -0.0799
 5201WAT     H221511   5.034   0.801   4.908  0.4175 -2.8527  0.3274
 5201WAT    EPW21512   5.074   0.814   4.974  0.8770 -0.1210  0.3947
 5202WAT      O21513   6.063   0.454   1.396 -0.2682 -0.0880 -0.1914
 5202WAT     H121514   6.013   0.515   1.433 -1.8497 -1.7855  0.6378
 5202WAT     H221515   6.101   0.496   1.330 -2.1871  1.5146 -0.3761
 5202WAT    EPW21516   6.061   0.470   1.392 -0.2786  0.4772 -0.0861
 5203WAT      O21517   5.715   7.723   6.814 -0.1364 -0.6856 -0.2925
 5203WAT     H121518   5.781   7.714   6.869 -1.1130 -1.1228  0.8408
 5203WAT     H221519   5.717   7.807   6.792 -0.9789  0.0434  2.0967
 5203WAT    EPW21520   5.725   7.734   6.819  1.2316 -0.4898 -0.2715
 5204WAT      O21521   4.920   0.553   6.384  0.4078  0.8624 -0.4430
 5204WAT     H121522   4.887   0.584   6.309 -1.5694  0.3357  0.1688
 5204WAT     H221523   5.003   0.581   6.382  0.6999  0.1603 -3.2178
 5204WAT    EPW21524   4.928   0.561   6.373  0.6103  0.0861  0.0371
 5205WAT      O21525   5.550   0.739   7.278  0.4343  0.2049 -0.4127
 5205WAT     H121526   5.566   0.761   7.195  2.1401 -1.1474 -0.4850
 5205WAT     H221527   5.505   0.808   7.309 -2.5728 -0.3099 -3.0804
 5205WAT    EPW21528   5.545   0.753   7.271 -0.0203  0.4391 -0.2420
 5206WAT      O21529   4.875   7.668   6.714 -0.3609  0.4056 -0.3231
 5206WAT     H121530   4.894   7.736   6.663 -1.2807  0.8746 -0.0602
 5206WAT     H221531   4.797   7.689   6.747 -0.4072 -0.5358  0.1775
 5206WAT    EPW21532   4.866   7.681   6.711  0.0268 -0.3026 -0.0954
 5207WAT      O21533   4.258   0.402   7.536  0.0908 -0.2690  0.5404
 5207WAT     H121534   4.267   0.467   7.478  0.1589 -1.6745 -1.1250
 5207WAT     H221535   4.330   0.408   7.585 -0.1616  1.2021  0.7637
 5207WAT    EPW21536   4.270   0.412   7.535  0.5082 -0.2283 -0.2526
 5208WAT      O21537   5.118   1.845   4.692 -1.1798 -0.2559  0.4713
 5208WAT     H121538   5.174   1.912   4.695 -0.3356 -0.9092 -0.2556
 5208WAT     H221539   5.169   1.776   4.677 -1.7879 -1.4083  3.1024
 5208WAT    EPW21540   5.133   1.845   4.690  0.2323 -0.6211 -1.0888
 5209WAT      O21541   4.948   2.015   5.676  0.3227 -0.0735  0.1209
 5209WAT     H121542   4.902   1.981   5.610 -1.8889 -2.2313  2.5257
 5209WAT     H221543   5.014   1.959   5.686  0.1545 -0.2515  0.2553
 5209WAT    EPW21544   4.951   2.002   5.668 -0.9546  0.3579  1.2748
 5210WAT      O21545   6.692   0.312   7.827  0.2347 -0.1620 -0.7619
 5210WAT     H121546   6.684   0.233   7.863  0.8129  0.4276  0.7487
 5210WAT     H221547   6.612   0.329   7.797 -0.0434 -1.0760 -0.5807
 5210WAT    EPW21548   6.679   0.303   7.828  0.5251 -0.0004  0.2754
 5211WAT      O21549   6.126   1.493   5.175 -0.1163  0.3575 -0.2728
 5211WAT     H121550   6.197   1.496   5.225 -0.8711  0.6374  0.8092
 5211WAT     H221551   6.134   1.564   5.125  0.7927 -0.0859 -0.7978
 5211WAT    EPW21552   6.138   1.504   5.175  0.0558 -0.5962  0.1453
 5212WAT      O21553   3.886   2.229   4.326 -0.5375  0.6382  0.6107
 5212WAT     H121554   3.850   2.304   4.301 -2.6675 -0.4492  0.2267
 5212WAT     H221555   3.821   2.186   4.363 -0.1308 -2.0916 -1.5138
 5212WAT    EPW21556   3.871   2.234   4.328  0.5643 -0.2169  0.5337
 5213WAT      O21557   5.121   0.373   7.430 -0.2622 -0.2603  0.0317
 5213WAT     H121558   5.198   0.406   7.406 -0.2805 -1.0397 -1.1753
 5213WAT     H221559   5.114   0.301   7.382 -1.5791 -0.4005  0.4015
 5213WAT    EPW21560   5.131   0.367   7.420 -0.4403  0.0323 -0.8462
 5214WAT      O21561   6.476   7.962   4.621 -0.1164 -0.2326  0.6384
 5214WAT     H121562   6.449   8.013   4.556  1.9940  1.2228  0.7902
 5214WAT     H221563   6.536   7.910   4.583 -1.3032 -1.7600  0.7618
 5214WAT    EPW21564   6.481   7.962   4.606  0.2381  0.3297 -0.3043
 5215WAT      O21565   5.110   0.266   1.237  0.3959 -0.1481  0.5219
 5215WAT     H121566   5.153   0.209   1.286  0.9581  0.8893  1.2478
 5215WAT     H221567   5.053   0.302   1.292  0.4941  0.4637  0.2327
 5215WAT    EPW21568   5.108   0.263   1.252  0.3474 -0.4941  0.4369
 5216WAT      O21569   5.533   1.467   5.977  0.4673  0.1321 -0.0516
 5216WAT     H121570   5.509   1.448   6.059 -1.1509  0.1871 -0.4762
 5216WAT     H221571   5.473   1.525   5.951  1.1893  0.4289 -1.1597
 5216WAT    EPW21572   5.521   1.473   5.985  0.3584 -0.1105  0.2658
 5217WAT      O21573   5.643   7.893   6.272  0.6402 -0.1250 -0.1427
 5217WAT     H121574   5.653   7.913   6.188 -0.4911  2.2630  0.2200
 5217WAT     H221575   5.557   7.894   6.284  0.7600 -0.8043  0.9999
 5217WAT    EPW21576   5.632   7.896   6.261  0.3037  0.0301  0.4784
 5218WAT      O21577   4.582   7.524   6.612 -0.0564  0.2436 -0.3100
 5218WAT     H121578   4.572   7.608   6.591  2.1964  0.6719  0.1123
 5218WAT     H221579   4.555   7.521   6.695 -1.1172  0.2879 -0.6312
 5218WAT    EPW21580   4.576   7.536   6.621 -0.2841  0.0559 -1.0364
 5219WAT      O21581   4.654   1.454   0.365 -0.4236  0.1583  0.0856
 5219WAT     H121582   4.708   1.397   0.328 -0.4983 -0.7891  1.3692
 5219WAT     H221583   4.697   1.482   0.435 -1.1921  0.1221  0.5938
 5219WAT    EPW21584   4.668   1.450   0.370  1.0470 -0.0257  0.1527
 5220WAT      O21585   4.906   0.544   6.780 -0.1373  0.4566 -0.5125
 5220WAT     H121586   4.943   0.593   6.842 -0.0915  1.4064 -1.2553
 5220WAT     H221587   4.947   0.467   6.787  1.5370  1.2705 -0.8626
 5220WAT    EPW21588   4.918   0.540   6.790 -0.1438  0.7844  0.4383
 5221WAT      O21589   6.526   8.037   7.680  0.0241 -0.0786 -0.5875
 5221WAT     H121590   6.604   8.045   7.720  0.0751  2.7112 -1.0336
 5221WAT     H221591   6.480   7.988   7.735  2.1481 -2.0570 -0.4378
 5221WAT    EPW21592   6.531   8.031   7.694  0.1853 -0.3341 -0.6245
 5222WAT      O21593   5.427   1.452   4.283  0.2390 -0.4697 -0.2264
 5222WAT     H121594   5.358   1.484   4.326  0.5053 -0.7411  0.4260
 5222WAT     H221595   5.464   1.523   4.249  1.0468  0.0133  1.5256
 5222WAT    EPW21596   5.422   1.467   4.284  0.4091 -0.1100  0.0710
 5223WAT      O21597   4.548   0.664   0.020  0.3022 -0.0680  0.1826
 5223WAT     H121598   4.612   0.721   0.033  2.2432 -2.2720  1.0614
 5223WAT     H221599   4.572   0.620  -0.052 -1.5070  0.6189 -0.9055
 5223WAT    EPW21600   4.561   0.666   0.012 -0.4065 -0.2300 -0.2391
 5224WAT      O21601   5.213   1.559   4.402 -0.5445  0.5957 -0.2868
 5224WAT     H121602   5.186   1.527   4.478  0.0296  0.6727 -0.0472
 5224WAT     H221603   5.253   1.634   4.424  3.2491 -1.2547 -0.1492
 5224WAT    EPW21604   5.215   1.566   4.416  0.5234 -0.0824  0.7430
 5225WAT      O21605   5.872   2.505   5.186  0.2686 -0.2441 -0.2087
 5225WAT     H121606   5.846   2.455   5.120 -1.4100 -1.4376  1.2500
 5225WAT     H221607   5.886   2.448   5.250  0.5569  0.9746  0.8589
 5225WAT    EPW21608   5.871   2.489   5.186 -0.0351  0.7781 -0.8254
 5226WAT      O21609   6.078   7.831   5.963  0.1183  0.2016 -0.1140
 5226WAT     H121610   6.063   7.763   6.016 -0.0700  0.5877  0.3302
 5226WAT     H221611   6.162   7.821   5.940  0.5186  0.6067  1.0988
 5226WAT    EPW21612   6.088   7.820   5.968 -0.1114  0.2553 -0.3931
 5227WAT      O21613   5.196   0.248   4.631  0.3752 -0.2298  0.0595
 5227WAT     H121614   5.210   0.333   4.618 -2.2221  0.2326 -0.3186
 5227WAT     H221615   5.167   0.244   4.713  0.9624 -0.8341  0.2467
 5227WAT    EPW21616   5.194   0.260   4.641 -0.5188 -0.8497  0.2377
 5228WAT      O21617   5.855   0.764   0.434  0.7629  0.0975  0.1686
 5228WAT     H121618   5.917   0.703   0.427  0.7373  0.0122  0.6041
 5228WAT     H221619   5.786   0.727   0.397  0.8287 -0.0225  0.1645
 5228WAT    EPW21620   5.854   0.749   0.428  0.5220  0.9409 -0.4975
 5229WAT      O21621   5.723   7.694   5.817  0.3187  0.3171  0.3105
 5229WAT     H121622   5.750   7.627   5.866  0.1193  1.0310  1.4450
 5229WAT     H221623   5.715   7.759   5.874 -0.0575  1.1588 -0.6632
 5229WAT    EPW21624   5.726   7.694   5.833 -0.1754  0.9133 -0.0996
 5230WAT      O21625   4.437   2.997   5.566 -0.3848  0.2651 -0.3726
 5230WAT     H121626   4.464   3.062   5.515 -2.3282  0.9261 -0.6666
 5230WAT     H221627   4.452   3.026   5.647  1.2842 -0.1242 -0.5204
 5230WAT    EPW21628   4.443   3.011   5.570  0.5291 -0.0624 -0.2656
 5231WAT      O21629   4.000   0.347   5.256  0.4079 -0.1603 -0.6109
 5231WAT     H121630   3.994   0.414   5.311 -0.9148 -0.5201 -0.2899
 5231WAT     H221631   4.081   0.316   5.270 -0.1546 -0.7288  1.6840
 5231WAT    EPW21632   4.011   0.353   5.266 -0.7988 -0.2368  0.8168
 5232WAT      O21633   4.390   1.026   4.516 -0.3509  0.2231  0.4134
 5232WAT     H121634   4.433   0.997   4.586  1.7421 -0.5716 -1.0947
 5232WAT     H221635   4.405   1.112   4.517 -0.7305  0.2857  1.1721
 5232WAT    EPW21636   4.398   1.034   4.527  0.3246  0.3748 -0.0565
 5233WAT      O21637   6.277   1.759   4.788  0.2823  0.2809  0.4297
 5233WAT     H121638   6.277   1.835   4.745 -1.7486 -0.1606 -0.4484
 5233WAT     H221639   6.213   1.714   4.750  1.5700 -1.9915  0.7679
 5233WAT    EPW21640   6.268   1.764   4.776  0.0958  0.1691  0.5380
 5234WAT      O21641   4.822   1.635   6.997 -0.2284 -0.0871 -0.1667
 5234WAT     H121642   4.815   1.614   6.913 -0.7371 -1.1983  0.1287
 5234WAT     H221643   4.863   1.566   7.032  4.2248  2.1573 -0.1890
 5234WAT    EPW21644   4.827   1.622   6.990 -0.6225 -0.3164 -0.2488
 5235WAT      O21645   6.134   1.040   7.154  0.6686 -0.1158 -0.0695
 5235WAT     H121646   6.203   1.084   7.184  0.0273  0.8187  0.1007
 5235WAT     H221647   6.115   0.985   7.219  1.6147 -0.8160 -0.3718
 5235WAT    EPW21648   6.141   1.039   7.168  0.4301 -0.3363 -0.7280
 5236WAT      O21649   5.288   1.128   7.699 -0.0210  0.1862 -0.7749
 5236WAT     H121650   5.248   1.139   7.622 -0.4421  1.5535 -0.4022
 5236WAT     H221651   5.341   1.197   7.704  0.8331 -0.4840 -0.3161
 5236WAT    EPW21652   5.290   1.140   7.688  0.0317  0.3340 -0.1693
 5237WAT      O21653   4.133   1.482   4.860 -0.0476 -0.1418  0.0166
 5237WAT     H121654   4.093   1.553   4.890 -0.9594 -0.0597 -1.2741
 5237WAT     H221655   4.198   1.513   4.811  0.0619 -0.2135  0.1161
 5237WAT    EPW21656   4.136   1.497   4.857 -0.2069 -1.0968 -0.7626
 5238WAT      O21657   4.686   1.081   7.052  0.1288 -1.2799  0.1384
 5238WAT     H121658   4.750   1.127   7.090  0.8962 -0.9054 -1.5128
 5238WAT     H221659   4.613   1.112   7.088  0.7268  0.2016  0.1181
 5238WAT    EPW21660   4.685   1.092   7.063  0.0033  0.2042  0.7284
 5239WAT      O21661   5.062   2.181   7.341 -0.1276  0.0843  0.7023
 5239WAT     H121662   5.081   2.105   7.379 -1.4072 -0.5540  0.1234
 5239WAT     H221663   4.982   2.200   7.370 -0.1648  0.7806  0.1868
 5239WAT    EPW21664   5.053   2.172   7.351 -0.7117 -0.1295 -0.5736
 5240WAT      O21665   5.354   7.415   3.497  0.8263 -0.3859  0.6939
 5240WAT     H121666   5.386   7.483   3.453 -0.7736 -0.9729 -1.5607
 5240WAT     H221667   5.346   7.445   3.578  4.2333  0.6698  0.7980
 5240WAT    EPW21668   5.358   7.429   3.502  0.3124 -0.1419 -0.8339
 5241WAT      O21669   4.871   1.146   5.913 -0.1832  0.2728  0.5863
 5241WAT     H121670   4.846   1.199   5.978  0.3098 -0.4754  1.4136
 5241WAT     H221671   4.948   1.115   5.941 -0.9483 -1.7232  0.6600
 5241WAT    EPW21672   4.878   1.149   5.927 -0.6791  0.5091  0.3926
 5242WAT      O21673   6.061   1.031   4.754  0.3435  0.4248  0.0692
 5242WAT     H121674   6.128   1.039   4.809  0.7932  1.8502 -0.6433
 5242WAT     H221675   6.091   1.067   4.680 -0.7799 -0.0422 -0.6379
 5242WAT    EPW21676   6.075   1.037   4.751 -0.0094  0.7304  0.7459
 5243WAT      O21677   5.159   1.962   3.920  0.2955 -0.0241  0.1998
 5243WAT     H121678   5.089   1.990   3.876 -0.0857  0.0872  0.8666
 5243WAT     H221679   5.206   2.034   3.934  0.4283 -0.0633 -0.0499
 5243WAT    EPW21680   5.156   1.977   3.916 -0.3105 -0.1571  0.2646
 5244WAT      O21681   4.668   1.297   6.056  0.5264 -0.0996 -0.1369
 5244WAT     H121682   4.663   1.340   5.980  3.4354 -0.6740 -0.7773
 5244WAT     H221683   4.673   1.361   6.115  0.8297  0.3866 -0.6770
 5244WAT    EPW21684   4.668   1.313   6.054 -0.4410  0.1551  0.1132
 5245WAT      O21685   5.312   0.379   6.468 -0.2574  0.3083  0.2363
 5245WAT     H121686   5.397   0.378   6.448 -0.3594  3.5075 -1.1120
 5245WAT     H221687   5.275   0.414   6.397 -2.7817 -1.1302  0.7090
 5245WAT    EPW21688   5.319   0.384   6.454  0.5993  0.7429 -0.8428
 5246WAT      O21689   5.201   7.492   6.279 -0.0589  0.3081 -0.1525
 5246WAT     H121690   5.195   7.429   6.339 -2.5899  0.9688  0.4110
 5246WAT     H221691   5.276   7.475   6.239 -0.5076 -2.9245  0.1093
 5246WAT    EPW21692   5.211   7.480   6.282 -0.3363 -0.5940 -0.0642
 5247WAT      O21693   3.482   1.102   6.138  0.1502 -0.0566 -0.4750
 5247WAT     H121694   3.422   1.106   6.075 -1.0334 -1.0015  0.5132
 5247WAT     H221695   3.487   1.016   6.155  0.7477  0.1419  0.4119
 5247WAT    EPW21696   3.474   1.090   6.131 -0.2923  0.3427  0.0066
 5248WAT      O21697   6.079   0.184   4.705  0.1383 -0.4810  0.0551
 5248WAT     H121698   6.129   0.240   4.662 -0.3873 -0.5239 -0.6389
 5248WAT     H221699   6.094   0.108   4.665  0.5929 -0.7753  0.7712
 5248WAT    EPW21700   6.088   0.181   4.693 -0.2644 -0.0556 -0.2675
 5249WAT      O21701   4.221   1.421   6.614  0.0858  0.2825  0.2928
 5249WAT     H121702   4.140   1.432   6.585  0.9927  1.7954 -1.9352
 5249WAT     H221703   4.226   1.335   6.628 -1.6789  0.0640 -0.1908
 5249WAT    EPW21704   4.210   1.410   6.612 -0.1890 -0.2098  1.1098
 5250WAT      O21705   4.263   0.667   2.830  0.2841  0.3884  0.2567
 5250WAT     H121706   4.212   0.597   2.819 -1.0463  1.4660 -0.7192
 5250WAT     H221707   4.344   0.634   2.832 -0.2061 -1.0342 -1.5963
 5250WAT    EPW21708   4.267   0.652   2.829  0.6245 -0.3312 -0.0573
 5251WAT      O21709   6.119   0.955   4.350  0.5401  0.2360 -0.1571
 5251WAT     H121710   6.110   0.990   4.270  0.9916 -0.2315 -0.4214
 5251WAT     H221711   6.143   1.022   4.400  1.7947  0.2467 -0.7345
 5251WAT    EPW21712   6.121   0.970   4.345 -0.9253  0.3190 -0.0099
 5252WAT      O21713   3.582   7.893   2.640  0.1716  0.1170  0.5962
 5252WAT     H121714   3.528   7.891   2.572 -1.1385  0.5339  1.5949
 5252WAT     H221715   3.654   7.853   2.610 -0.8578 -0.9193 -0.6031
 5252WAT    EPW21716   3.585   7.887   2.626 -0.0265  0.9111 -0.7774
 5253WAT      O21717   7.741   7.991   2.638 -0.6323 -0.5048 -0.3680
 5253WAT     H121718   7.761   7.930   2.696 -1.4381  0.0995  0.5688
 5253WAT     H221719   7.660   7.971   2.613 -1.5002  0.9861  1.0676
 5253WAT    EPW21720   7.732   7.979   2.643 -0.1020  1.1093 -0.5953
 5254WAT      O21721   6.685   8.028   3.173  0.7054 -0.1829 -0.2470
 5254WAT     H121722   6.679   7.941   3.174  0.3218 -0.1579  0.4708
 5254WAT     H221723   6.692   8.049   3.257 -3.8720  0.7130  0.1744
 5254WAT    EPW21724   6.685   8.018   3.185  1.6452 -0.1055  0.4931
 5255WAT      O21725   5.497   0.606   2.106 -0.5135  0.0472 -1.0013
 5255WAT     H121726   5.462   0.526   2.106 -0.7420  0.1090  0.6374
 5255WAT     H221727   5.444   0.651   2.158  0.9645  0.6342  0.0463
 5255WAT    EPW21728   5.484   0.601   2.113 -0.7177 -0.0344  0.2195
 5256WAT      O21729   5.483   7.240   3.031  0.1067  0.1856  0.3077
 5256WAT     H121730   5.432   7.187   2.984  1.6968 -0.2194 -1.0633
 5256WAT     H221731   5.545   7.186   3.062  1.1816  1.0522 -0.2617
 5256WAT    EPW21732   5.485   7.224   3.029  0.5585  0.1904  0.3049
 5257WAT      O21733   4.888   1.221   4.771  0.3432  0.3358  0.0305
 5257WAT     H121734   4.808   1.255   4.757  0.6937  1.0871 -0.1821
 5257WAT     H221735   4.884   1.194   4.854 -0.6112 -0.9843 -0.4029
 5257WAT    EPW21736   4.875   1.222   4.781 -0.3753  1.2688  0.0456
 5258WAT      O21737   5.350   6.609   2.907  0.1822 -0.3988  0.8444
 5258WAT     H121738   5.369   6.656   2.978 -0.9663 -0.8217  1.4536
 5258WAT     H221739   5.336   6.670   2.845 -1.4624  0.1158  1.6634
 5258WAT    EPW21740   5.351   6.625   2.908  0.4246  0.6923  0.0536
 5259WAT      O21741   6.383   1.357   3.069  0.5768 -0.3243 -0.4793
 5259WAT     H121742   6.318   1.351   3.011  1.2047  1.0358 -1.3697
 5259WAT     H221743   6.428   1.283   3.055  0.2070 -0.4481 -1.0968
 5259WAT    EPW21744   6.380   1.345   3.058 -0.5913 -0.2806  0.8185
 5260WAT      O21745   5.073   7.511   1.937 -0.1924 -0.0586  0.0081
 5260WAT     H121746   5.030   7.462   1.879  0.0322 -1.9319  1.3420
 5260WAT     H221747   5.028   7.500   2.011  0.7543  0.5412  0.7014
 5260WAT    EPW21748   5.060   7.502   1.940 -0.2845  0.3625  0.1785
 5261WAT      O21749   5.716   7.443   2.666 -0.5860 -0.3030  0.4418
 5261WAT     H121750   5.708   7.493   2.737 -1.4165 -0.7128  0.6456
 5261WAT     H221751   5.746   7.498   2.606  0.1802  0.0361  1.1193
 5261WAT    EPW21752   5.719   7.458   2.668  0.0355 -0.4454  0.0535
 5262WAT      O21753   5.410   1.315   2.155 -0.2225 -0.0026  0.4821
 5262WAT     H121754   5.469   1.339   2.095  0.5445  1.5712  1.8145
 5262WAT     H221755   5.444   1.342   2.230 -1.2709 -1.7189  1.6560
 5262WAT    EPW21756   5.424   1.322   2.157  0.0285 -0.3084 -0.6334
 5263WAT      O21757   4.965   7.327   1.760  0.3351  0.0934 -0.2157
 5263WAT     H121758   5.017   7.353   1.694  0.3251 -0.8520 -0.6143
 5263WAT     H221759   4.957   7.242   1.746  0.6749 -0.1957  1.2658
 5263WAT    EPW21760   4.972   7.319   1.748 -0.5318 -0.4079 -0.7364
 5264WAT      O21761   6.045   0.920   1.717  0.2285 -0.7154  0.1950
 5264WAT     H121762   6.011   0.946   1.793 -3.2858  0.0691 -1.4315
 5264WAT     H221763   6.128   0.947   1.721 -0.6040  1.9291  2.5944
 5264WAT    EPW21764   6.053   0.928   1.729 -1.4074  0.6878  0.1952
 5265WAT      O21765   5.131   0.835   2.635  1.2144 -0.0339  0.4568
 5265WAT     H121766   5.189   0.773   2.618  0.1405 -0.6944 -0.9982
 5265WAT     H221767   5.054   0.799   2.613  0.2969  0.9967  1.7830
 5265WAT    EPW21768   5.128   0.821   2.629  0.1285  0.9577 -1.3912
 5266WAT      O21769   5.920   1.685   2.930  1.0196  0.1113  0.2295
 5266WAT     H121770   5.907   1.767   2.957  1.6114  0.5421 -0.7392
 5266WAT     H221771   5.974   1.695   2.861 -0.2622 -0.9337 -0.9802
 5266WAT    EPW21772   5.926   1.699   2.923  0.5566 -0.7011  0.0360
 5267WAT      O21773   7.834   7.974   3.045 -0.1247  0.3995  0.2522
 5267WAT     H121774   7.819   7.898   3.004 -1.1954  1.1386 -0.8110
 5267WAT     H221775   7.754   7.999   3.070  0.2317  1.1424  0.6795
 5267WAT    EPW21776   7.820   7.966   3.043  1.0098 -0.9749 -0.4601
 5268WAT      O21777   0.591   0.175   2.821 -0.4412  0.5212 -0.3639
 5268WAT     H121778   0.558   0.152   2.898 -0.2195 -0.7396 -0.6102
 5268WAT     H221779   0.665   0.128   2.815 -0.7020  0.2074 -1.5271
 5268WAT    EPW21780   0.597   0.164   2.831 -0.7796  0.4951  0.1043
 5269WAT      O21781   6.034   7.997   3.288  0.6579  0.0895  0.1958
 5269WAT     H121782   6.026   8.062   3.345  1.7726  1.1794 -0.8305
 5269WAT     H221783   5.975   8.017   3.226 -1.4888 -1.7716  1.4867
 5269WAT    EPW21784   6.024   8.009   3.287 -0.4159 -0.4437 -0.0633
 5270WAT      O21785   7.656   2.270   2.604  0.0637 -0.0926  0.3565
 5270WAT     H121786   7.672   2.233   2.681 -1.5886 -1.4074  0.0977
 5270WAT     H221787   7.640   2.203   2.551 -1.2799  0.8846 -0.5394
 5270WAT    EPW21788   7.656   2.255   2.607  0.1554 -0.6535 -0.6985
 5271WAT      O21789   5.062   0.105   3.534  0.0972 -0.5820 -0.0993
 5271WAT     H121790   4.983   0.079   3.561  0.0037  0.6292  0.8519
 5271WAT     H221791   5.106   0.029   3.525 -1.0176 -1.2377 -0.1914
 5271WAT    EPW21792   5.057   0.090   3.537 -0.1165 -0.3096 -0.0286
 5272WAT      O21793   5.115   1.398   4.615 -0.3285  0.1250 -0.0708
 5272WAT     H121794   5.037   1.423   4.645 -0.8666 -0.1372 -1.2109
 5272WAT     H221795   5.119   1.314   4.639 -0.6367 -0.0087 -0.4750
 5272WAT    EPW21796   5.104   1.389   4.623  0.0439 -0.5413 -1.1743
 5273WAT      O21797   0.218   1.263   3.633  0.5623 -0.5751 -0.2870
 5273WAT     H121798   0.149   1.296   3.674  0.6454 -0.8261  0.0479
 5273WAT     H221799   0.211   1.296   3.552  0.3219 -0.2052 -0.1165
 5273WAT    EPW21800   0.207   1.273   3.627 -0.3545 -0.0593 -0.6373
 5274WAT      O21801   4.180   1.937   2.805  0.3339  0.6905 -0.1635
 5274WAT     H121802   4.205   1.946   2.722  2.0282  3.3360  0.5235
 5274WAT     H221803   4.114   1.993   2.813 -1.7257 -1.5532 -0.3078
 5274WAT    EPW21804   4.174   1.947   2.794 -0.0414  0.2572 -0.2935
 5275WAT      O21805   6.258   1.493   3.862 -0.0709 -0.0919 -0.2788
 5275WAT     H121806   6.216   1.450   3.925  0.0444 -0.7011 -0.6091
 5275WAT     H221807   6.315   1.434   3.832  0.6437  0.5475 -0.2005
 5275WAT    EPW21808   6.260   1.478   3.867  0.1163  0.7263 -0.6410
 5276WAT      O21809   7.406   1.809   3.389 -0.1614  0.0596  0.2555
 5276WAT     H121810   7.408   1.771   3.467  0.0049 -1.0386 -0.2699
 5276WAT     H221811   7.341   1.867   3.397 -1.4737 -1.3946  0.6161
 5276WAT    EPW21812   7.396   1.812   3.402  0.0064 -0.2628 -0.8202
 5277WAT      O21813   6.355   0.817   4.377 -0.6912  0.3274 -0.1671
 5277WAT     H121814   6.416   0.878   4.366  0.0356 -0.5972 -1.4330
 5277WAT     H221815   6.280   0.860   4.367 -0.2013  1.1204 -0.4336
 5277WAT    EPW21816   6.353   0.832   4.374 -0.0879 -0.6329  0.3726
 5278WAT      O21817   5.652   0.430   3.272  0.2024  0.0412 -0.9229
 5278WAT     H121818   5.671   0.499   3.222 -1.5219  0.5039 -0.9821
 5278WAT     H221819   5.593   0.386   3.226 -1.1844  0.3042  0.5285
 5278WAT    EPW21820   5.646   0.434   3.258 -0.2152 -0.3556 -0.1055
 5279WAT      O21821   5.849   6.768   4.083  0.0287  0.3170  0.3428
 5279WAT     H121822   5.923   6.735   4.051 -0.9505 -0.4189 -1.2988
 5279WAT     H221823   5.872   6.847   4.112  1.5683 -0.1420  0.4534
 5279WAT    EPW21824   5.864   6.775   4.082  0.7035  0.0143 -0.0858
 5280WAT      O21825   5.089   7.561   5.285  0.2012  0.2152 -0.3173
 5280WAT     H121826   5.105   7.482   5.319 -0.4005 -0.2637 -1.0845
 5280WAT     H221827   5.037   7.598   5.344 -0.0684 -0.2400 -0.2569
 5280WAT    EPW21828   5.083   7.555   5.299 -0.1051 -0.3086  0.4363
 5281WAT      O21829   5.671   0.835   4.091 -0.2628  0.2618 -0.5875
 5281WAT     H121830   5.733   0.813   4.149  0.9250  2.9243 -0.6751
 5281WAT     H221831   5.597   0.832   4.138  0.2369 -0.6824  0.1827
 5281WAT    EPW21832   5.669   0.831   4.107  0.8246 -0.2351  0.1067
 5282WAT      O21833   5.423   0.105   4.122 -0.5423 -0.4691  0.3720
 5282WAT     H121834   5.475   0.086   4.054 -0.9929 -1.1822  0.2184
 5282WAT     H221835   5.456   0.180   4.152  0.6032 -0.9187  0.2972
 5282WAT    EPW21836   5.436   0.113   4.116  0.9161 -0.2620 -0.5822
 5283WAT      O21837   7.855  -0.000   2.366 -0.2967  0.2532  0.1537
 5283WAT     H121838   7.872   0.086   2.366 -0.3693  0.2756 -0.6583
 5283WAT     H221839   7.818  -0.014   2.444  0.2634  0.8484  0.5381
 5283WAT    EPW21840   7.852   0.011   2.378 -0.4512  0.4697 -0.0376
 5284WAT      O21841   5.617   7.060   3.795  0.8650 -0.2151 -0.3765
 5284WAT     H121842   5.553   7.059   3.735  1.0955 -0.2154 -0.6254
 5284WAT     H221843   5.587   7.114   3.856  0.0512 -1.2111  0.1464
 5284WAT    EPW21844   5.603   7.068   3.795 -0.6000 -0.5683 -0.3071
 5285WAT      O21845   4.320   1.908   3.045  0.3524  0.8291  0.2279
 5285WAT     H121846   4.282   1.925   2.968 -0.7566 -2.3052 -0.0394
 5285WAT     H221847   4.403   1.930   3.032  0.0363  1.1477 -1.5673
 5285WAT    EPW21848   4.326   1.914   3.032 -0.2592  0.5638  0.3544
 5286WAT      O21849   6.607   0.903   4.114  0.1022 -0.1127  0.3979
 5286WAT     H121850   6.657   0.975   4.110 -0.3600  0.2773  1.2892
 5286WAT     H221851   6.653   0.850   4.167 -0.1647  0.0337  0.7787
 5286WAT    EPW21852   6.621   0.906   4.121  0.0550 -0.3141  0.0782
 5287WAT      O21853   7.824   1.637   2.787 -0.0821  0.0779  0.3549
 5287WAT     H121854   7.835   1.724   2.793 -2.4690  0.6118 -1.4638
 5287WAT     H221855   7.904   1.608   2.769  0.2116  2.5121 -3.6558
 5287WAT    EPW21856   7.838   1.646   2.785  0.0520  0.0723  0.2004
 5288WAT      O21857   4.789   0.365   2.968 -0.2453 -0.2553  0.1436
 5288WAT     H121858   4.848   0.390   3.027  0.6382  0.0606 -0.8299
 5288WAT     H221859   4.776   0.437   2.920  2.1723 -1.4013 -2.5595
 5288WAT    EPW21860   4.796   0.379   2.969 -0.6717 -0.1293 -0.1385
 5289WAT      O21861   5.036   7.521   3.143 -0.0809  0.7465 -0.5094
 5289WAT     H121862   5.101   7.463   3.153 -1.2586 -0.4895  0.3570
 5289WAT     H221863   5.077   7.595   3.122  1.4996 -0.3168 -1.3462
 5289WAT    EPW21864   5.052   7.523   3.141  0.2879  0.0671  0.3437
 5290WAT      O21865   5.169   0.941   2.048 -0.4894  0.3794 -0.5144
 5290WAT     H121866   5.201   1.012   2.008 -2.0098  0.9837 -0.7592
 5290WAT     H221867   5.189   0.876   1.994  0.5899  0.6651 -0.4814
 5290WAT    EPW21868   5.177   0.942   2.034 -0.5721 -0.4709  0.3762
 5291WAT      O21869   5.329   0.721   2.310 -0.1983 -0.2982 -0.0040
 5291WAT     H121870   5.296   0.654   2.356  0.0120  0.0198  0.6342
 5291WAT     H221871   5.290   0.791   2.346  0.4096  0.0015  0.0890
 5291WAT    EPW21872   5.318   0.722   2.322 -0.1702 -0.2949 -0.1417
 5292WAT      O21873   5.831   0.097   2.667 -0.2768  0.2611 -0.2196
 5292WAT     H121874   5.769   0.153   2.640  0.0179  0.8837  0.3847
 5292WAT     H221875   5.833   0.108   2.753  0.0142 -0.4579 -0.1278
 5292WAT    EPW21876   5.822   0.107   2.675  0.4361 -0.2492 -0.5964
 5293WAT      O21877   6.372   1.293   4.155  0.0817 -0.1126  0.3445
 5293WAT     H121878   6.440   1.281   4.102  0.1662 -2.1671  0.8370
 5293WAT     H221879   6.381   1.231   4.215 -1.9972 -0.2141  0.6476
 5293WAT    EPW21880   6.383   1.282   4.156 -0.3399 -0.2892 -0.0655
 5294WAT      O21881   5.040   0.547   3.943  0.0861 -0.0124 -0.3334
 5294WAT     H121882   5.073   0.468   3.960 -0.7986 -0.6436 -1.4203
 5294WAT     H221883   5.065   0.595   4.011  0.9130 -1.1441  0.1889
 5294WAT    EPW21884   5.049   0.542   3.955  0.2463 -0.2033  0.7765
 5295WAT      O21885   6.021   6.970   3.928 -0.2343 -0.3573 -0.1528
 5295WAT     H121886   6.086   6.916   3.904 -1.0852 -1.5612  0.1147
 5295WAT     H221887   5.994   7.004   3.852 -1.0564 -1.9729 -0.6420
 5295WAT    EPW21888   6.027   6.967   3.913  0.2679  0.5318  0.0556
 5296WAT      O21889   7.024   1.890   4.026  0.2538  0.7002  0.0202
 5296WAT     H121890   6.996   1.967   4.056 -1.5541  0.4147 -0.7944
 5296WAT     H221891   6.989   1.885   3.947  1.6896 -0.2765 -0.6018
 5296WAT    EPW21892   7.015   1.900   4.019  0.0785  1.1691 -0.2463
 5297WAT      O21893   6.247   1.837   3.298  0.2461  0.3649  0.2477
 5297WAT     H121894   6.199   1.894   3.252 -0.0964  0.2201  0.4246
 5297WAT     H221895   6.199   1.764   3.297  0.2977  0.3218  0.7236
 5297WAT    EPW21896   6.233   1.835   3.291 -0.3226 -0.1754 -0.4433
 5298WAT      O21897   5.438   7.716   3.145  0.5073 -0.0720 -0.4086
 5298WAT     H121898   5.486   7.648   3.120 -0.2768 -0.5608 -0.5980
 5298WAT     H221899   5.360   7.700   3.111 -0.5487 -0.6475  2.0929
 5298WAT    EPW21900   5.434   7.704   3.136  0.1917  0.0621  0.3147
 5299WAT      O21901   6.589   0.461   3.456  0.0402 -0.1400 -0.0947
 5299WAT     H121902   6.546   0.455   3.380  0.5273  0.4112 -0.4200
 5299WAT     H221903   6.634   0.535   3.448 -1.5600  1.0987  1.5824
 5299WAT    EPW21904   6.589   0.471   3.443  0.2458 -0.9132 -0.8159
 5300WAT      O21905   4.526   0.720   5.108 -0.1543  0.4235 -0.0099
 5300WAT     H121906   4.450   0.711   5.151  0.3078 -0.7868  0.5878
 5300WAT     H221907   4.586   0.699   5.168  0.5854  0.0416 -0.8610
 5300WAT    EPW21908   4.524   0.716   5.123  0.4664 -0.4075 -0.5697
 5301WAT      O21909   6.772   7.895   4.255  0.1107  0.4123 -0.4326
 5301WAT     H121910   6.700   7.918   4.211  0.6948  2.2519 -0.5043
 5301WAT     H221911   6.806   7.971   4.279  1.4042 -0.4742  0.6472
 5301WAT    EPW21912   6.766   7.910   4.252 -0.1251  0.4097 -0.7132
 5302WAT      O21913   4.515   1.136   5.191  0.3477  0.0844 -0.2658
 5302WAT     H121914   4.579   1.162   5.137 -0.5882  1.4422 -0.7851
 5302WAT     H221915   4.486   1.210   5.226 -1.6747 -0.3323 -0.9012
 5302WAT    EPW21916   4.520   1.151   5.188  0.3257  0.3942 -0.1963
 5303WAT      O21917   5.155   0.537   2.881  0.1269 -0.0149 -0.4161
 5303WAT     H121918   5.226   0.553   2.930 -0.0887 -0.7136  0.1402
 5303WAT     H221919   5.089   0.566   2.930 -0.2003 -1.7631  0.2663
 5303WAT    EPW21920   5.156   0.543   2.896 -0.0678 -0.1979 -0.3493
 5304WAT      O21921   6.345   7.790   4.209 -0.8690  0.4194  0.0114
 5304WAT     H121922   6.266   7.822   4.229 -0.0068  3.4604 -0.9466
 5304WAT     H221923   6.334   7.756   4.130 -1.3186  0.4950  0.0395
 5304WAT    EPW21924   6.332   7.790   4.200  0.4345 -0.3451 -0.6748
 5305WAT      O21925   6.260   0.493   3.833 -0.6464  0.0096  0.4305
 5305WAT     H121926   6.208   0.534   3.776 -1.0224 -0.4851  0.4128
 5305WAT     H221927   6.283   0.420   3.791  0.5921  0.5064  0.1800
 5305WAT    EPW21928   6.256   0.488   3.818 -0.5576  0.6135  0.3987
 5306WAT      O21929   6.628   7.559   3.717 -0.7023  0.1005  0.0476
 5306WAT     H121930   6.673   7.523   3.784 -0.8179 -1.2151 -0.5475
 5306WAT     H221931   6.589   7.491   3.680 -2.2467  1.0730 -0.1921
 5306WAT    EPW21932   6.629   7.544   3.722 -0.5227 -0.1357 -1.0645
 5307WAT      O21933   6.571   0.799   3.533 -0.4973 -0.0461  0.5138
 5307WAT     H121934   6.534   0.847   3.596  2.2822  1.8607  0.9049
 5307WAT     H221935   6.633   0.754   3.575 -1.1505 -1.7952 -0.3177
 5307WAT    EPW21936   6.575   0.800   3.548  0.6307  0.0926  0.7710
 5308WAT      O21937   0.142   1.297   3.348  0.3555 -0.0446 -0.2894
 5308WAT     H121938   0.062   1.272   3.371  0.4333 -0.5309 -0.5393
 5308WAT     H221939   0.156   1.254   3.273  1.0033 -0.2748 -0.0395
 5308WAT    EPW21940   0.132   1.287   3.340  0.5023 -0.8000 -0.4483
 5309WAT      O21941   7.914   7.120   2.674  0.1694 -0.4041 -0.1068
 5309WAT     H121942   7.867   7.048   2.658 -0.7989  0.4455 -1.2879
 5309WAT     H221943   7.979   7.115   2.615 -0.7511  0.4004 -1.2335
 5309WAT    EPW21944   7.917   7.108   2.663  0.5666  0.3344 -0.1942
 5310WAT      O21945   6.333   0.227   3.774 -0.3459 -0.5935 -0.5381
 5310WAT     H121946   6.416   0.236   3.750 -0.2215  0.6042  0.2737
 5310WAT     H221947   6.293   0.205   3.699  0.8083 -2.1103 -0.7649
 5310WAT    EPW21948   6.339   0.225   3.759 -0.6124  0.5749  0.0567
 5311WAT      O21949   6.072   0.738   3.344  0.3501 -0.5244  0.4889
 5311WAT     H121950   6.156   0.720   3.361  0.3762 -1.4701 -0.4777
 5311WAT     H221951   6.076   0.809   3.293  0.6088 -0.8477  0.0488
 5311WAT    EPW21952   6.085   0.746   3.339 -0.3689 -0.2496 -0.9093
 5312WAT      O21953   5.469   0.383   3.051  0.6565  0.3832  0.1277
 5312WAT     H121954   5.428   0.457   3.074  0.1754 -0.1365  0.9954
 5312WAT     H221955   5.414   0.320   3.078  0.4949 -0.2917 -1.6396
 5312WAT    EPW21956   5.455   0.385   3.059  0.1307  0.4117 -0.2123
 5313WAT      O21957   6.350   0.693   3.389  0.5105 -0.3408 -0.1202
 5313WAT     H121958   6.355   0.608   3.371  0.4437 -0.8271  1.9715
 5313WAT     H221959   6.411   0.705   3.450  0.6675  1.1802 -0.5264
 5313WAT    EPW21960   6.360   0.683   3.395  0.4498 -0.5507 -0.8147
 5314WAT      O21961   6.901   0.992   4.369 -0.4561  0.1383  0.1705
 5314WAT     H121962   6.850   0.943   4.420 -0.4967  0.2524  0.2398
 5314WAT     H221963   6.892   1.072   4.402  0.2696  0.0597  0.5921
 5314WAT    EPW21964   6.892   0.996   4.382 -0.2984 -1.1418 -0.4995
 5315WAT      O21965   5.841   0.169   2.918 -0.0769 -0.2823 -0.2728
 5315WAT     H121966   5.924   0.193   2.930 -0.2677 -0.3792  1.5045
 5315WAT     H221967   5.801   0.243   2.896  0.3745 -0.1369 -0.6251
 5315WAT    EPW21968   5.848   0.183   2.916  1.1499 -0.9462  0.7946
 5316WAT      O21969   4.663   1.170   2.240 -0.6524  0.1089  0.4072
 5316WAT     H121970   4.592   1.178   2.291 -0.5802  0.7208  0.4206
 5316WAT     H221971   4.651   1.232   2.179 -0.9378 -0.8873 -0.5785
 5316WAT    EPW21972   4.651   1.180   2.239 -0.1651  0.0263 -1.0519
 5317WAT      O21973   3.799   7.404   2.424 -0.0798 -0.4100  0.2487
 5317WAT     H121974   3.826   7.334   2.469  1.2129  0.3366  0.7016
 5317WAT     H221975   3.754   7.449   2.483 -0.2302 -0.4747  0.1831
 5317WAT    EPW21976   3.797   7.400   2.439  0.0101 -0.8413  0.6300
 5318WAT      O21977   0.425   8.042   2.709  0.4470 -0.1650 -0.2331
 5318WAT     H121978   0.395   7.985   2.768 -0.6175 -0.0296 -0.6279
 5318WAT     H221979   0.490   8.082   2.751 -0.0473 -0.3313  0.7199
 5318WAT    EPW21980   0.430   8.039   2.724  0.4429  0.0696 -0.4073
 5319WAT      O21981   7.215   7.345   4.115  0.6206  0.5265  0.3366
 5319WAT     H121982   7.277   7.376   4.062 -1.0044  1.4117 -1.1686
 5319WAT     H221983   7.167   7.295   4.062  0.9461 -1.5029  1.8583
 5319WAT    EPW21984   7.217   7.343   4.099 -0.0161 -0.0127 -1.1395
 5320WAT      O21985   4.049   0.973   2.838  0.1234  0.1489  0.4511
 5320WAT     H121986   3.990   0.910   2.826 -0.1731  0.4063  0.5420
 5320WAT     H221987   4.103   0.939   2.897  1.6026 -1.1362 -1.5062
 5320WAT    EPW21988   4.048   0.959   2.845 -0.1443  0.2279 -0.5796
 5321WAT      O21989   4.546   0.330   3.209 -0.4072 -0.5009  0.5684
 5321WAT     H121990   4.459   0.335   3.199 -0.3203  0.6786  0.1153
 5321WAT     H221991   4.575   0.322   3.127  0.0734  3.7204  0.1007
 5321WAT    EPW21992   4.537   0.330   3.195  0.3425  0.3341 -0.3721
 5322WAT      O21993   7.576   7.880   3.450 -0.0123 -0.7129 -0.2654
 5322WAT     H121994   7.494   7.889   3.478 -0.9116  2.2797 -3.2017
 5322WAT     H221995   7.575   7.804   3.408 -0.7236 -1.5698  1.2421
 5322WAT    EPW21996   7.563   7.870   3.448  0.5647  0.4266  0.4274
 5323WAT      O21997   6.995   0.195   3.391 -0.0915 -0.6477 -0.3807
 5323WAT     H121998   7.070   0.166   3.358  0.1838 -0.3289 -0.0506
 5323WAT     H221999   6.945   0.209   3.321  1.4690  2.9208 -1.0136
 5323WAT    EPW22000   6.999   0.193   3.376 -0.1427  0.0628  0.3957
 5324WAT      O22001   7.717   0.997   2.968 -0.3521  0.1174  0.3253
 5324WAT     H122002   7.638   1.033   2.963  0.6010  2.6109  1.5989
 5324WAT     H222003   7.733   0.995   3.054  0.4673 -1.5989  0.1765
 5324WAT    EPW22004   7.708   1.002   2.980  0.0354 -0.6872  0.0983
 5325WAT      O22005   5.032   0.529   4.665 -0.0935  0.3721 -0.2330
 5325WAT     H122006   5.114   0.533   4.694 -0.5895 -1.2001  1.5609
 5325WAT     H222007   5.041   0.500   4.583  1.0844 -2.1779  0.6975
 5325WAT    EPW22008   5.045   0.526   4.657  0.1794 -0.6461 -0.2252
 5326WAT      O22009   6.653   7.949   3.685 -0.6382  0.0238  0.1187
 5326WAT     H122010   6.728   7.992   3.675 -0.4565 -0.0696  0.9573
 5326WAT     H222011   6.667   7.873   3.644 -0.5344  0.2878 -0.3422
 5326WAT    EPW22012   6.666   7.944   3.678 -0.0141 -0.5316 -0.3437
 5327WAT      O22013   6.842   0.587   3.322  0.2294  0.2848  0.6055
 5327WAT     H122014   6.853   0.652   3.266  0.5848  0.0688  0.4177
 5327WAT     H222015   6.890   0.612   3.391 -0.3095  0.6098  0.8710
 5327WAT    EPW22016   6.851   0.600   3.324  0.5131 -0.4658 -0.3601
 5328WAT      O22017   5.005   0.671   3.157  0.2669  0.2674  0.1388
 5328WAT     H122018   4.940   0.728   3.168 -0.0687  0.1065 -0.9361
 5328WAT     H222019   5.074   0.721   3.140  0.5359  0.4600  1.6640
 5328WAT    EPW22020   5.006   0.686   3.156  0.0860 -0.4774 -0.3212
 5329WAT      O22021   5.442   0.791   4.524  0.3615  0.5312  0.0437
 5329WAT     H122022   5.527   0.807   4.526  0.0203  2.4446  1.5216
 5329WAT     H222023   5.409   0.843   4.585 -2.0553  0.9405 -1.4654
 5329WAT    EPW22024   5.449   0.801   4.533 -0.7588  0.3408 -0.8396
 5330WAT      O22025   6.642   0.275   4.036 -0.8996 -0.7217  0.0297
 5330WAT     H122026   6.728   0.289   4.031 -0.6582 -1.4753  1.6018
 5330WAT     H222027   6.617   0.321   4.106 -1.7322 -0.7071 -0.2597
 5330WAT    EPW22028   6.651   0.284   4.045 -0.7317  1.4323 -0.4829
 5331WAT      O22029   0.189   0.627   3.413  0.3135  0.3642 -0.4010
 5331WAT     H122030   0.171   0.541   3.409 -1.6131  0.7397 -0.7311
 5331WAT     H222031   0.211   0.639   3.496 -0.8644 -0.2074  0.0126
 5331WAT    EPW22032   0.190   0.616   3.424  0.9935 -1.2790 -0.7662
 5332WAT      O22033   5.920   2.879   3.963  0.0275  0.4903  0.6732
 5332WAT     H122034   5.838   2.890   3.992 -0.8475  1.8950 -2.0091
 5332WAT     H222035   5.969   2.909   4.028 -1.4326 -1.7153  2.9828
 5332WAT    EPW22036   5.915   2.885   3.977  0.1151 -0.1130  0.0020
 5333WAT      O22037   6.744   0.853   4.543  0.2334  0.4286  0.0344
 5333WAT     H122038   6.682   0.793   4.552 -0.0641  0.1377 -2.9199
 5333WAT     H222039   6.717   0.918   4.596 -0.6014 -1.0852  1.5785
 5333WAT    EPW22040   6.731   0.854   4.552 -0.3859  0.0190 -0.1020
 5334WAT      O22041   5.311   1.788   4.052  0.3285  0.6589  0.1442
 5334WAT     H122042   5.269   1.842   3.997  2.6226  2.8085  0.3235
 5334WAT     H222043   5.255   1.780   4.119 -1.6872 -0.4153 -1.5428
 5334WAT    EPW22044   5.296   1.795   4.054  0.3271 -0.0511 -0.3334
 5335WAT      O22045   6.044   0.734   2.224 -0.4641  0.1026  0.3828
 5335WAT     H122046   6.024   0.791   2.162  1.5379 -0.6779 -1.0863
 5335WAT     H222047   5.990   0.667   2.209  0.7759 -0.5848 -1.3697
 5335WAT    EPW22048   6.034   0.733   2.213  0.5746 -0.3560 -1.1589
 5336WAT      O22049   5.725   0.633   4.504  0.0847 -0.0464 -0.0653
 5336WAT     H122050   5.763   0.677   4.438  2.8290 -0.8198  0.8876
 5336WAT     H222051   5.760   0.669   4.575  0.1142 -1.7468  0.8199
 5336WAT    EPW22052   5.736   0.645   4.505  0.4220 -0.3505 -0.7307
 5337WAT      O22053   0.504   1.592   3.327 -0.5402  0.0720  0.6767
 5337WAT     H122054   0.545   1.604   3.251 -2.6614 -0.0549 -0.5913
 5337WAT     H222055   0.528   1.513   3.352 -0.6618 -0.3420 -0.4618
 5337WAT    EPW22056   0.513   1.582   3.319  0.1045 -0.2247 -0.5552
 5338WAT      O22057   4.894   7.395   3.348  0.4336 -0.4983  0.5653
 5338WAT     H122058   4.919   7.441   3.418 -1.6064 -1.1242  1.7840
 5338WAT     H222059   4.915   7.447   3.282  1.1060  0.7828  1.7269
 5338WAT    EPW22060   4.901   7.410   3.349  0.3243  0.3205 -0.2393
 5339WAT      O22061   5.691   1.448   4.651 -0.5689 -0.3968 -0.1069
 5339WAT     H122062   5.731   1.522   4.671 -0.9024  0.0446 -1.0341
 5339WAT     H222063   5.751   1.387   4.669  0.0403  0.1591 -0.2223
 5339WAT    EPW22064   5.705   1.450   4.657 -0.2609  0.7425 -0.1085
 5340WAT      O22065   5.954   7.870   3.775  0.5107 -0.5445 -0.1832
 5340WAT     H122066   6.022   7.905   3.733 -0.1251  0.4422 -0.4191
 5340WAT     H222067   5.916   7.821   3.714  1.1876 -1.3865  0.0457
 5340WAT    EPW22068   5.959   7.868   3.760 -0.4146 -0.5399 -0.2431
 5341WAT      O22069   7.821   7.792   2.257 -0.0256  0.7620 -0.4645
 5341WAT     H122070   7.744   7.761   2.283  0.3899  0.6274  0.6451
 5341WAT     H222071   7.827   7.870   2.295  0.1919  0.9799 -0.9249
 5341WAT    EPW22072   7.811   7.799   2.266 -0.1106 -1.2857 -0.4016
 5342WAT      O22073   4.972   0.379   3.172  0.1389 -0.1232 -0.0149
 5342WAT     H122074   4.998   0.462   3.176  0.3695 -0.1540 -0.7320
 5342WAT     H222075   4.909   0.374   3.231  1.7077 -0.0220  1.7783
 5342WAT    EPW22076   4.967   0.390   3.181  0.6312 -0.1717 -0.8645
 5343WAT      O22077   5.862   2.207   2.432  0.0149 -0.2501 -0.0245
 5343WAT     H122078   5.790   2.227   2.388 -0.6867  0.7564  1.4952
 5343WAT     H222079   5.923   2.259   2.397 -0.8511  1.6050  1.0644
 5343WAT    EPW22080   5.860   2.218   2.421 -0.4006 -0.4525  0.1040
 5344WAT      O22081   6.030   0.287   4.998 -0.6328 -0.4924 -0.0400
 5344WAT     H122082   6.111   0.291   5.031 -0.3763  1.2144 -0.7364
 5344WAT     H222083   6.042   0.248   4.921 -0.7989 -1.9420  0.6366
 5344WAT    EPW22084   6.044   0.282   4.991 -0.6420  0.2998  0.1756
 5345WAT      O22085   6.627   1.475   3.325 -0.2750 -0.0566  0.0459
 5345WAT     H122086   6.570   1.430   3.277 -1.4587  0.4146  0.9572
 5345WAT     H222087   6.630   1.553   3.286  0.8812 -0.5057 -0.8401
 5345WAT    EPW22088   6.619   1.480   3.312  0.1503  0.1858 -0.4459
 5346WAT      O22089   5.074   7.994   3.971 -0.3537  0.5313  0.3091
 5346WAT     H122090   5.116   7.963   4.042 -1.8723  1.4113  1.6566
 5346WAT     H222091   5.011   7.936   3.958  1.1688 -0.8068 -1.7461
 5346WAT    EPW22092   5.071   7.981   3.980 -0.1142  0.4665 -0.1509
 5347WAT      O22093   6.706   1.183   4.446  0.2737  0.8206 -0.3102
 5347WAT     H122094   6.746   1.257   4.422  0.2155  0.7826 -0.5324
 5347WAT     H222095   6.697   1.192   4.532  0.9709  0.7258 -0.2174
 5347WAT    EPW22096   6.711   1.195   4.455  0.1415 -0.5202 -0.2512
 5348WAT      O22097   5.532   7.637   3.440 -0.9726 -0.3960 -0.1201
 5348WAT     H122098   5.608   7.670   3.469 -1.4448 -0.5056  1.3581
 5348WAT     H222099   5.522   7.674   3.362 -1.1807  2.6132  1.1786
 5348WAT    EPW22100   5.541   7.648   3.433 -0.7745  0.4437  0.2570
 5349WAT      O22101   5.650   6.836   4.570 -0.1414 -0.5021 -0.0879
 5349WAT     H122102   5.696   6.824   4.643  0.1638 -1.5712 -0.4330
 5349WAT     H222103   5.704   6.880   4.518 -0.0592 -0.4491  0.0419
 5349WAT    EPW22104   5.664   6.841   4.573  0.0293 -0.1075 -0.5866
 5350WAT      O22105   6.588   0.257   3.659  0.5310  0.3028 -0.3560
 5350WAT     H122106   6.649   0.257   3.721  0.1505 -0.3856  0.0226
 5350WAT     H222107   6.610   0.326   3.610  1.2328  0.4504  0.1421
 5350WAT    EPW22108   6.601   0.268   3.661  0.0525 -0.1571 -0.3790
 5351WAT      O22109   5.606   2.372   4.166  0.1096 -0.0085  0.5327
 5351WAT     H122110   5.611   2.441   4.220 -0.1240  1.6048 -1.3758
 5351WAT     H222111   5.536   2.389   4.118  0.9232 -0.8121 -0.9992
 5351WAT    EPW22112   5.596   2.385   4.167  0.2756  0.6901 -0.3276
 5352WAT      O22113   6.424   7.645   4.995  0.1345 -0.0315 -0.2857
 5352WAT     H122114   6.461   7.719   5.021 -2.5984  1.6368 -0.7805
 5352WAT     H222115   6.386   7.614   5.067  0.8559 -0.7585 -0.1936
 5352WAT    EPW22116   6.424   7.651   5.010 -0.0534 -0.0433  0.1091
 5353WAT      O22117   6.916   2.221   3.536 -0.1011  0.1452 -0.3411
 5353WAT     H122118   6.947   2.302   3.541  1.3255 -0.3403 -0.6079
 5353WAT     H222119   6.865   2.214   3.605  0.2841  1.0724  0.0525
 5353WAT    EPW22120   6.913   2.232   3.547 -0.4152  0.0086  0.5630
 5354WAT      O22121   5.848   0.656   3.622  0.2099 -0.5145 -0.4435
 5354WAT     H122122   5.802   0.582   3.623  0.1772 -0.5051 -1.0778
 5354WAT     H222123   5.812   0.702   3.557  1.1568 -0.5309 -0.9876
 5354WAT    EPW22124   5.836   0.652   3.613  0.2385  0.2901  0.4905
 5355WAT      O22125   5.806   0.911   3.152  0.0799 -0.1877 -0.5137
 5355WAT     H122126   5.765   0.988   3.159 -0.4271 -0.4447 -0.6048
 5355WAT     H222127   5.808   0.881   3.234 -2.5765 -1.5180 -0.8453
 5355WAT    EPW22128   5.800   0.918   3.165  0.7468  0.6406  0.3232
 5356WAT      O22129   5.649   0.780   3.814 -0.9681  0.2881  0.2963
 5356WAT     H122130   5.725   0.750   3.786 -1.3559  0.8587 -1.5137
 5356WAT     H222131   5.656   0.778   3.901  0.7858 -0.4189  0.1637
 5356WAT    EPW22132   5.661   0.776   3.823 -0.1793 -0.1286 -0.0888
 5357WAT      O22133   7.002   1.892   4.507 -0.3477 -0.7766 -0.5468
 5357WAT     H122134   7.025   1.849   4.435  0.0167 -0.9239 -0.3444
 5357WAT     H222135   6.969   1.830   4.558  0.2828 -0.8437 -0.2102
 5357WAT    EPW22136   7.000   1.877   4.504 -0.4267 -0.2607 -0.7172
 5358WAT      O22137   5.845   0.395   4.078  0.0408 -0.8145 -0.3623
 5358WAT     H122138   5.830   0.392   4.164 -0.1860 -0.9369 -0.4028
 5358WAT     H222139   5.908   0.454   4.070 -0.3307 -0.3786 -0.1638
 5358WAT    EPW22140   5.852   0.403   4.090 -0.6280  0.6644  0.0158
 5359WAT      O22141   4.800   0.453   4.783  0.2691 -0.0533 -0.2139
 5359WAT     H122142   4.873   0.478   4.742 -0.5756 -0.0707 -1.8219
 5359WAT     H222143   4.747   0.431   4.717 -0.5280 -1.8948  0.9831
 5359WAT    EPW22144   4.803   0.453   4.767  0.6712  0.5537 -0.4201
 5360WAT      O22145   7.363   0.263   3.085 -0.1475 -0.2184 -0.6019
 5360WAT     H122146   7.348   0.336   3.129  0.1587 -0.7116  0.3483
 5360WAT     H222147   7.432   0.282   3.035 -1.7749  1.0356 -2.5656
 5360WAT    EPW22148   7.371   0.276   3.084  0.0326 -0.6180 -0.6531
 5361WAT      O22149   4.607   1.455   4.354 -0.0365 -0.2751  0.9325
 5361WAT     H122150   4.668   1.393   4.361  0.9482  0.7050  1.3306
 5361WAT     H222151   4.636   1.505   4.289 -1.6413 -1.0882 -0.4612
 5361WAT    EPW22152   4.620   1.453   4.346  0.0963  0.4026 -0.3746
 5362WAT      O22153   6.455   0.972   3.736  0.5014  0.3101 -0.2645
 5362WAT     H122154   6.374   0.965   3.706 -0.4226  2.9289  1.3384
 5362WAT     H222155   6.449   0.943   3.818  1.0346  1.1049  0.0613
 5362WAT    EPW22156   6.442   0.967   3.744 -0.6861 -0.5970 -0.4201
 5363WAT      O22157   0.385   0.122   3.905 -0.5369  0.5191 -0.2748
 5363WAT     H122158   0.419   0.100   3.982 -1.6080  0.2828  0.1477
 5363WAT     H222159   0.449   0.104   3.849 -0.3101 -0.8287  0.3820
 5363WAT    EPW22160   0.400   0.116   3.908 -0.1749 -0.1541 -0.4717
 5364WAT      O22161   5.144   0.605   1.294 -0.3874  0.6340  0.7460
 5364WAT     H122162   5.079   0.562   1.255 -0.1799  2.5423 -2.0673
 5364WAT     H222163   5.103   0.665   1.342 -0.7615  1.0158 -0.0226
 5364WAT    EPW22164   5.128   0.608   1.295 -0.2568 -0.1889 -0.7076
 5365WAT      O22165   6.332   1.027   2.764 -0.2666  0.6221  0.4350
 5365WAT     H122166   6.248   1.017   2.783 -0.7360  0.6759 -1.3771
 5365WAT     H222167   6.332   1.043   2.678  1.4236  2.9277  0.7508
 5365WAT    EPW22168   6.320   1.028   2.754  0.2804  0.0751  0.7140
 5366WAT      O22169   7.092   1.563   1.654 -0.3142 -0.1963 -0.0528
 5366WAT     H122170   7.099   1.618   1.721  1.0412  0.7629 -0.9331
 5366WAT     H222171   7.016   1.587   1.617  1.4907  3.1904 -2.0842
 5366WAT    EPW22172   7.082   1.575   1.658  0.4686  0.5055 -0.2955
 5367WAT      O22173   6.169   0.452   3.088 -0.5810 -0.0338 -0.2901
 5367WAT     H122174   6.145   0.376   3.053 -0.1489 -0.2946 -0.0307
 5367WAT     H222175   6.100   0.475   3.137  0.0261 -1.2665  1.2448
 5367WAT    EPW22176   6.155   0.444   3.090 -0.9039  0.1247  0.1547
 5368WAT      O22177   6.233   7.552   2.857  0.1123  1.0226 -0.4545
 5368WAT     H122178   6.292   7.488   2.853  1.2159  2.0232 -0.5033
 5368WAT     H222179   6.162   7.512   2.890  0.4631 -0.4228 -1.3791
 5368WAT    EPW22180   6.231   7.537   2.861  0.3012 -0.5553 -0.9052
 5369WAT      O22181   5.957   7.819   5.719 -0.1220 -0.7095  0.6634
 5369WAT     H122182   5.889   7.766   5.731 -0.9577  0.3988  1.0079
 5369WAT     H222183   6.006   7.806   5.790  0.5262 -2.1618  0.0047
 5369WAT    EPW22184   5.954   7.809   5.731 -0.7415 -0.1445 -0.3003
 5370WAT      O22185   4.539   1.734   3.899 -0.1922  0.2422  0.2583
 5370WAT     H122186   4.605   1.766   3.851 -0.7889  0.8882 -0.1538
 5370WAT     H222187   4.469   1.746   3.849 -0.5799 -0.8451  0.5105
 5370WAT    EPW22188   4.539   1.741   3.885  0.1293 -0.7247 -0.5552
 5371WAT      O22189   6.440   0.433   3.235 -0.3272  0.1576 -0.7817
 5371WAT     H122190   6.483   0.378   3.184 -0.3452  0.7981 -1.5078
 5371WAT     H222191   6.356   0.421   3.213 -0.4272 -0.2390 -0.2169
 5371WAT    EPW22192   6.434   0.423   3.224  0.0049 -0.1283 -0.0200
 5372WAT      O22193   4.452   0.363   4.225 -0.6314 -0.4514 -0.1362
 5372WAT     H122194   4.490   0.290   4.255 -0.9491  0.0398  1.6061
 5372WAT     H222195   4.497   0.381   4.153  0.4444 -1.5498  0.2105
 5372WAT    EPW22196   4.465   0.355   4.219 -1.4094 -0.7093 -0.4765
 5373WAT      O22197   5.478   2.050   1.238  0.0617 -0.2739 -0.1942
 5373WAT     H122198   5.495   2.051   1.153 -0.2356  2.6970 -0.3274
 5373WAT     H222199   5.394   2.075   1.243  0.4485  0.9296  0.9719
 5373WAT    EPW22200   5.468   2.054   1.226  0.0982 -0.7890 -0.8201
 5374WAT      O22201   7.861   1.715   0.752 -0.0366 -0.1919 -0.3381
 5374WAT     H122202   7.800   1.666   0.790  1.9506 -3.6641 -1.1575
 5374WAT     H222203   7.837   1.716   0.668  0.2200 -0.3079 -0.4161
 5374WAT    EPW22204   7.848   1.708   0.745  0.3643  0.5553 -1.2629
 5375WAT      O22205   6.677   0.585   7.647  0.2848  0.1908  0.1413
 5375WAT     H122206   6.605   0.551   7.682 -0.1660  0.5284 -0.4355
 5375WAT     H222207   6.738   0.569   7.707 -0.0909 -0.8389  0.2804
 5375WAT    EPW22208   6.675   0.577   7.661  0.5150 -0.3041 -0.1507
 5376WAT      O22209   7.275   0.391   0.864 -0.6634 -0.1844 -0.2226
 5376WAT     H122210   7.297   0.453   0.806 -1.7730  1.1478  0.7231
 5376WAT     H222211   7.193   0.411   0.885 -1.3060 -2.4019 -0.3564
 5376WAT    EPW22212   7.266   0.403   0.858  0.8411 -0.0538 -0.3592
 5377WAT      O22213   3.567   7.271   0.657 -0.5880  0.0871  0.6163
 5377WAT     H122214   3.607   7.229   0.593 -1.5685  1.0085 -0.6511
 5377WAT     H222215   3.626   7.329   0.684 -0.1696 -0.3093  0.5474
 5377WAT    EPW22216   3.581   7.274   0.652 -0.1254 -0.5750 -0.2603
 5378WAT      O22217   4.884   1.887   2.068 -0.1554 -0.3051 -0.3842
 5378WAT     H122218   4.928   1.954   2.033 -0.8082 -0.9553 -2.5717
 5378WAT     H222219   4.891   1.824   2.009 -0.5458 -1.8224  1.1099
 5378WAT    EPW22220   4.891   1.888   2.054 -0.0492 -0.5290 -0.1129
 5379WAT      O22221   5.215   0.404   1.579 -0.1131 -0.1051 -0.1484
 5379WAT     H122222   5.192   0.324   1.554 -2.8107  0.6611 -0.3712
 5379WAT     H222223   5.251   0.438   1.507  1.7976 -1.2926  0.1703
 5379WAT    EPW22224   5.217   0.397   1.564 -0.4334  0.9391 -0.1963
 5380WAT      O22225   5.384   1.182   1.318 -0.8616 -0.3576 -0.2408
 5380WAT     H122226   5.327   1.119   1.300 -1.4324  0.5765 -1.9322
 5380WAT     H222227   5.456   1.158   1.275 -0.4110 -0.8212  0.7374
 5380WAT    EPW22228   5.386   1.169   1.309 -0.3799 -0.3844 -0.0838
 5381WAT      O22229   4.150   7.521   1.581 -0.0164 -0.2837 -0.5173
 5381WAT     H122230   4.098   7.589   1.596 -0.4874 -0.8429  0.4512
 5381WAT     H222231   4.218   7.556   1.538 -2.0578  0.1411 -3.6989
 5381WAT    EPW22232   4.153   7.536   1.576  1.2092 -0.1046  0.1481
 5382WAT      O22233   7.400   1.221   2.176  0.2631  0.6653  0.0276
 5382WAT     H122234   7.449   1.191   2.241  0.4533 -2.3518 -1.3227
 5382WAT     H222235   7.329   1.253   2.216  0.8613 -0.0604  1.7660
 5382WAT    EPW22236   7.397   1.221   2.191 -0.1992 -0.1106 -0.1303
 5383WAT      O22237   6.233   0.587   1.594  0.3116  0.3853 -0.2249
 5383WAT     H122238   6.167   0.551   1.551  2.2186 -0.9489 -2.2529
 5383WAT     H222239   6.253   0.657   1.545  0.0817  1.1025  0.6815
 5383WAT    EPW22240   6.227   0.592   1.580 -0.2508 -0.5163 -0.2702
 5384WAT      O22241   7.283   0.908   1.784 -0.2373 -0.2189 -0.6370
 5384WAT     H122242   7.325   0.861   1.844 -3.4713 -1.8829  0.6003
 5384WAT     H222243   7.252   0.976   1.829 -0.4972 -0.0603 -1.0494
 5384WAT    EPW22244   7.285   0.911   1.799  0.2742 -0.0545  0.4008
 5385WAT      O22245   4.588  -0.003   2.333  0.7514 -0.5628  0.3187
 5385WAT     H122246   4.616   0.078   2.347 -1.0789 -0.1915  2.5182
 5385WAT     H222247   4.566  -0.003   2.249  0.2779  1.4429  0.3828
 5385WAT    EPW22248   4.589   0.009   2.323 -0.8974 -0.2297  0.0020
 5386WAT      O22249   7.919   0.868   1.481 -0.0010 -0.1490  0.4351
 5386WAT     H122250   7.999   0.876   1.513  0.5897 -2.6454 -0.2152
 5386WAT     H222251   7.884   0.804   1.529 -0.7904 -0.6540 -0.7642
 5386WAT    EPW22252   7.925   0.860   1.493 -0.2895 -0.0458  0.0899
 5387WAT      O22253   7.621   0.026   3.214  0.0497  0.1841  0.1403
 5387WAT     H122254   7.609   0.107   3.245  1.6027 -0.2923  2.2089
 5387WAT     H222255   7.622  -0.024   3.286  0.2204 -1.5456 -0.9928
 5387WAT    EPW22256   7.619   0.030   3.229 -0.1709 -0.2074 -0.4792
 5388WAT      O22257   6.394   1.581   2.360 -0.2276  0.2953  0.4733
 5388WAT     H122258   6.478   1.606   2.365 -0.6401  2.4789 -1.5561
 5388WAT     H222259   6.352   1.656   2.342 -2.4086 -0.9971 -0.1270
 5388WAT    EPW22260   6.400   1.596   2.358 -0.2877  0.3059 -0.2877
 5389WAT      O22261   4.746   1.137   1.172  0.0285 -0.2798 -0.2535
 5389WAT     H122262   4.730   1.217   1.140 -0.9497 -0.2179  0.3362
 5389WAT     H222263   4.704   1.137   1.249 -0.2607 -1.4635 -0.3922
 5389WAT    EPW22264   4.737   1.149   1.179  0.3471  0.0440  0.3447
 5390WAT      O22265   7.818   0.196   2.746 -0.3741  0.2948  0.7015
 5390WAT     H122266   7.872   0.182   2.814 -1.7262 -0.4172  1.6686
 5390WAT     H222267   7.801   0.116   2.716  0.4920  0.6224 -0.7438
 5390WAT    EPW22268   7.824   0.182   2.752  0.6340 -0.2601 -0.3523
 5391WAT      O22269   5.454   1.725   2.299  0.7562  0.1137  0.6112
 5391WAT     H122270   5.474   1.807   2.323  0.4764  0.1379  0.7671
 5391WAT     H222271   5.408   1.736   2.226  2.9671 -0.0303 -0.8839
 5391WAT    EPW22272   5.450   1.739   2.292  0.3900  0.1921 -0.1781
 5392WAT      O22273   4.301   1.943   0.875  0.4781 -0.7575  0.1554
 5392WAT     H122274   4.325   1.936   0.791  0.2818 -2.0739  0.1835
 5392WAT     H222275   4.247   1.875   0.886  0.6386 -0.7031  1.3964
 5392WAT    EPW22276   4.296   1.932   0.864 -0.0121 -0.1395  0.3200
 5393WAT      O22277   7.917   7.371   1.230 -0.0647 -0.3086  0.0627
 5393WAT     H122278   7.993   7.367   1.187  0.0040 -0.3857  0.1894
 5393WAT     H222279   7.864   7.321   1.182 -0.3109  0.5426 -0.5697
 5393WAT    EPW22280   7.920   7.363   1.216 -0.2121 -1.0496 -0.4305
 5394WAT      O22281   5.490   1.074   2.497 -0.6577  0.4266 -0.1887
 5394WAT     H122282   5.536   1.042   2.563  0.3721 -0.4013 -1.2632
 5394WAT     H222283   5.407   1.069   2.525 -0.1782  1.2674  1.4880
 5394WAT    EPW22284   5.484   1.069   2.511 -0.1746  0.7639 -0.0877
 5395WAT      O22285   7.627   0.748   3.846  0.1082  0.0628 -0.2695
 5395WAT     H122286   7.559   0.797   3.870 -0.5085 -1.0590  0.3471
 5395WAT     H222287   7.690   0.807   3.834 -0.5875  1.0131  0.4726
 5395WAT    EPW22288   7.626   0.764   3.848  0.1422  0.2253  0.3027
 5396WAT      O22289   7.871   1.621   2.425 -0.2147 -0.0224  0.9868
 5396WAT     H122290   7.866   1.703   2.394 -0.0043 -0.4034 -0.0787
 5396WAT     H222291   7.789   1.605   2.452 -0.1639  0.6775  1.5996
 5396WAT    EPW22292   7.858   1.631   2.424 -0.2326 -0.5669 -0.5809
 5397WAT      O22293   5.744   7.741   1.165 -0.0538 -0.1506 -0.4854
 5397WAT     H122294   5.814   7.717   1.211 -0.7342 -1.0444  0.1188
 5397WAT     H222295   5.684   7.757   1.227 -0.9718 -1.3235 -1.0414
 5397WAT    EPW22296   5.745   7.740   1.181 -0.1019 -0.3859  0.2053
 5398WAT      O22297   7.678   1.574   3.406  0.4298  0.3273 -0.0797
 5398WAT     H122298   7.683   1.616   3.482 -0.6022  0.5483 -0.1157
 5398WAT     H222299   7.737   1.613   3.356  0.9911  0.2995  0.5491
 5398WAT    EPW22300   7.687   1.586   3.410  0.1330 -0.3637 -0.1024
 5399WAT      O22301   6.634   0.774   0.905  0.1130  0.6578 -0.1325
 5399WAT     H122302   6.579   0.829   0.945 -1.5939 -1.5461  0.8095
 5399WAT     H222303   6.585   0.736   0.845  1.4180  0.5735 -1.1874
 5399WAT    EPW22304   6.619   0.776   0.902  0.0027  0.3524  0.6418
 5400WAT      O22305   7.031   1.083   2.160 -0.0447 -0.0520 -0.7493
 5400WAT     H122306   6.979   1.038   2.107 -0.0139  0.1456 -0.9475
 5400WAT     H222307   7.100   1.102   2.110  0.8941 -1.5343 -0.1088
 5400WAT    EPW22308   7.034   1.079   2.145  0.0487 -0.0562 -0.1134
 5401WAT      O22309   4.976   0.936   0.903  0.1570 -0.6553  0.7031
 5401WAT     H122310   4.990   0.937   0.817 -1.5976 -1.2946  0.3630
 5401WAT     H222311   5.012   0.861   0.929  0.0037 -0.8422  0.3799
 5401WAT    EPW22312   4.984   0.925   0.894 -0.0496 -0.8529  0.5157
 5402WAT      O22313   7.058   7.811   1.524  0.2559 -0.3837  0.0715
 5402WAT     H122314   6.994   7.848   1.570  0.3561 -0.8046  0.5543
 5402WAT     H222315   7.048   7.846   1.444  1.5583  2.2246  0.9264
 5402WAT    EPW22316   7.047   7.822   1.519 -0.1752  0.2407  0.5072
 5403WAT      O22317   6.773   0.195   1.394  0.4110 -0.2257  0.1627
 5403WAT     H122318   6.777   0.278   1.368  2.1805 -0.3232  0.0440
 5403WAT     H222319   6.760   0.151   1.319 -0.2617 -0.1013  0.1948
 5403WAT    EPW22320   6.771   0.201   1.379 -0.3104 -0.1284 -1.0709
 5404WAT      O22321   7.896   0.744   2.552  0.6068 -0.1484  0.4147
 5404WAT     H122322   7.892   0.673   2.602  0.5397 -0.0229  0.5923
 5404WAT     H222323   7.978   0.772   2.562  0.9757 -0.8318 -0.5533
 5404WAT    EPW22324   7.907   0.738   2.561 -0.8552 -0.0160 -0.3009
 5405WAT      O22325   5.758   0.904   2.273 -0.0393 -0.0641  0.3734
 5405WAT     H122326   5.691   0.960   2.280 -1.6725 -1.9664  1.0951
 5405WAT     H222327   5.752   0.876   2.190 -0.7584 -0.9195  0.7021
 5405WAT    EPW22328   5.747   0.908   2.262  0.0102 -0.2069 -0.3631
 5406WAT      O22329   7.948   0.611   2.982 -0.5684  0.4723 -0.0343
 5406WAT     H122330   7.878   0.594   3.031 -1.2743 -1.0106 -1.4565
 5406WAT     H222331   7.926   0.581   2.903  1.3937  0.6700 -0.7269
 5406WAT    EPW22332   7.934   0.604   2.977  0.1896  0.1860 -0.5969
 5407WAT      O22333   5.509   0.869   1.084  0.2698 -0.1711  0.9108
 5407WAT     H122334   5.544   0.945   1.106 -0.7274  0.1380  1.4815
 5407WAT     H222335   5.460   0.888   1.015  0.4942 -0.4188  0.6804
 5407WAT    EPW22336   5.507   0.883   1.077  0.4532 -0.1489 -0.7240
 5408WAT      O22337   5.044   0.327   2.113 -0.2541  0.7610  0.5148
 5408WAT     H122338   5.023   0.260   2.062  0.4923 -1.1676  2.5843
 5408WAT     H222339   4.989   0.390   2.088  0.6127  0.2736 -3.1450
 5408WAT    EPW22340   5.032   0.327   2.102  0.1705  0.0256  0.8017
 5409WAT      O22341   7.240   0.795   3.353  0.0818  0.5653 -0.5350
 5409WAT     H122342   7.320   0.790   3.386 -0.7213  0.2579  1.5364
 5409WAT     H222343   7.228   0.880   3.339  0.8956  0.5693 -1.2594
 5409WAT    EPW22344   7.250   0.807   3.356 -0.2288  0.1929  0.2150
 5410WAT      O22345   7.319   1.205   1.411 -0.5122 -0.2423  0.4544
 5410WAT     H122346   7.284   1.284   1.427 -0.2071  0.0884 -0.4254
 5410WAT     H222347   7.277   1.180   1.338 -1.5657 -1.4957  1.4422
 5410WAT    EPW22348   7.307   1.213   1.402 -0.3063 -0.3709  0.2812
 5411WAT      O22349   6.658   1.279   1.935  0.2487 -0.4260 -0.0128
 5411WAT     H122350   6.737   1.269   1.969  0.1945 -1.5060 -0.1820
 5411WAT     H222351   6.624   1.199   1.935  0.6342 -0.7684 -3.4842
 5411WAT    EPW22352   6.665   1.266   1.940 -0.4007  0.4185 -0.5073
 5412WAT      O22353   4.346   0.797   2.271 -0.3182 -0.3600  0.3245
 5412WAT     H122354   4.335   0.724   2.225  0.4856 -0.9782  1.0888
 5412WAT     H222355   4.393   0.848   2.218  0.6162 -1.0714  0.4504
 5412WAT    EPW22356   4.351   0.794   2.257 -0.5252  0.2965 -0.4058
 5413WAT      O22357   5.298   0.344   2.638 -0.4790 -0.1492 -0.2685
 5413WAT     H122358   5.366   0.293   2.658  0.6668  0.9269 -1.1904
 5413WAT     H222359   5.242   0.331   2.703  0.7941 -0.7893  0.7455
 5413WAT    EPW22360   5.300   0.335   2.651 -0.4886 -0.3229 -0.2228
 5414WAT      O22361   7.382   7.875   0.462 -0.0678 -0.4046  0.1023
 5414WAT     H122362   7.428   7.942   0.431 -0.2930 -0.1120  0.3854
 5414WAT     H222363   7.311   7.913   0.495 -0.9477 -0.9361 -1.1249
 5414WAT    EPW22364   7.378   7.891   0.463 -0.3216 -0.3836 -0.5878
 5415WAT      O22365   7.824   1.128   1.523 -0.7270 -0.0220  0.0306
 5415WAT     H122366   7.839   1.042   1.518 -1.7015 -0.1599 -1.0441
 5415WAT     H222367   7.759   1.140   1.466 -0.8013  1.3871  0.3882
 5415WAT    EPW22368   7.817   1.117   1.514  0.0629 -0.3130 -1.0651
 5416WAT      O22369   6.628   0.577   1.926  0.0498 -0.1781 -0.9394
 5416WAT     H122370   6.555   0.528   1.932 -0.1443  0.2054  0.1354
 5416WAT     H222371   6.651   0.589   2.010 -0.9118  3.0301 -0.9966
 5416WAT    EPW22372   6.620   0.572   1.939  0.1426  0.0021  0.0777
 5417WAT      O22373   6.243   7.766   2.700  0.2022  0.3358  0.3451
 5417WAT     H122374   6.168   7.807   2.715  0.4926  0.7276  0.7363
 5417WAT     H222375   6.232   7.689   2.738  0.1491  0.5434  0.7521
 5417WAT    EPW22376   6.231   7.761   2.708  0.1227 -0.0251 -0.3561
 5418WAT      O22377   5.975   1.123   2.165 -0.4088  0.3865  0.1290
 5418WAT     H122378   5.966   1.206   2.191 -0.6427  0.3310  0.2205
 5418WAT     H222379   5.930   1.078   2.224  0.2133  0.1396  0.4271
 5418WAT    EPW22380   5.967   1.129   2.178  0.1958  0.2084 -0.3465
 5419WAT      O22381   6.304   1.891   1.999 -0.3302  0.5289 -0.0314
 5419WAT     H122382   6.299   1.838   2.068 -2.4626  0.8571  0.1300
 5419WAT     H222383   6.264   1.964   2.025 -1.7726  0.4450 -1.7477
 5419WAT    EPW22384   6.297   1.894   2.013  0.4681  0.0477  0.4352
 5420WAT      O22385   6.005   0.944   0.607  0.0522  0.1079 -0.2747
 5420WAT     H122386   5.983   1.025   0.629 -1.3089 -0.8177  2.2000
 5420WAT     H222387   5.935   0.915   0.565  0.5669  0.2113 -1.2228
 5420WAT    EPW22388   5.991   0.952   0.604 -1.1770 -0.6448  0.1734
 5421WAT      O22389   6.471   0.594   0.782 -0.0173 -0.2509 -0.4452
 5421WAT     H122390   6.431   0.608   0.858  0.3352 -0.6980 -0.1729
 5421WAT     H222391   6.408   0.605   0.723  0.0683  1.7776 -0.2342
 5421WAT    EPW22392   6.456   0.598   0.784  0.5264 -1.3060  0.6890
 5422WAT      O22393   0.458   1.010   2.758 -0.0661  0.5691 -0.4755
 5422WAT     H122394   0.422   1.043   2.685 -1.0280  1.0387  0.2028
 5422WAT     H222395   0.395   0.962   2.793  0.0066  1.2768  0.6569
 5422WAT    EPW22396   0.444   1.008   2.752  1.3653  0.0545  0.0611
 5423WAT      O22397   4.838   7.890   1.999 -0.1501  0.3593 -0.1295
 5423WAT     H122398   4.883   7.869   2.071 -0.5190  0.2940  0.0846
 5423WAT     H222399   4.894   7.872   1.934 -0.2990 -0.9220  0.0602
 5423WAT    EPW22400   4.853   7.884   2.000 -0.9780 -0.2012  0.0903
 5424WAT      O22401   7.135   0.124   2.433 -0.1408 -0.0153 -0.2123
 5424WAT     H122402   7.163   0.122   2.516 -1.0396  0.6638  0.1286
 5424WAT     H222403   7.051   0.103   2.439  0.1620 -1.7078 -1.1776
 5424WAT    EPW22404   7.127   0.121   2.446 -0.1314 -0.6061 -0.6001
 5425WAT      O22405   6.588   0.201   2.532 -0.4093  0.1577  0.4481
 5425WAT     H122406   6.561   0.155   2.601 -1.0033 -0.5737 -0.2526
 5425WAT     H222407   6.533   0.177   2.469  0.9489 -0.2137 -0.6371
 5425WAT    EPW22408   6.576   0.191   2.533  0.3756 -0.7029 -0.8174
 5426WAT      O22409   7.809   7.978   0.411  0.5077 -0.8354 -0.3946
 5426WAT     H122410   7.731   8.013   0.391  0.5281 -0.0488  0.8283
 5426WAT     H222411   7.820   7.998   0.495  2.0141 -0.9822 -0.5276
 5426WAT    EPW22412   7.799   7.986   0.420  0.3947 -0.3031  1.2644
 5427WAT      O22413   6.322   1.080   3.380  0.2176  0.0719  0.1449
 5427WAT     H122414   6.408   1.073   3.363  0.2825  1.0143 -0.0078
 5427WAT     H222415   6.307   1.165   3.368 -1.1948 -0.3951 -1.8710
 5427WAT    EPW22416   6.333   1.092   3.376  0.0630 -0.2240  0.7820
 5428WAT      O22417   5.630   1.105   1.148 -0.2155  0.1087 -0.0915
 5428WAT     H122418   5.692   1.156   1.113 -0.3101  1.6592  1.8549
 5428WAT     H222419   5.673   1.053   1.202 -0.4708  0.5876  0.5956
 5428WAT    EPW22420   5.646   1.105   1.150  0.0153 -0.1461 -0.5805
 5429WAT      O22421   6.591   1.825   2.561 -0.1647 -0.5408 -0.2972
 5429WAT     H122422   6.616   1.771   2.498  1.2112  1.0281 -1.1582
 5429WAT     H222423   6.636   1.797   2.631 -0.5651 -1.3544 -0.3441
 5429WAT    EPW22424   6.601   1.813   2.562  0.2976  0.7016  0.1139
 5430WAT      O22425   7.008   0.935   0.361 -0.0489 -0.1883 -0.3447
 5430WAT     H122426   6.936   0.933   0.311 -1.6560 -0.8885  1.8195
 5430WAT     H222427   6.980   0.973   0.435  1.5661 -1.2269  0.8678
 5430WAT    EPW22428   6.993   0.940   0.365  0.2658 -0.1250  0.0100
 5431WAT      O22429   7.513   0.966   1.307  0.5112  0.3404 -0.9155
 5431WAT     H122430   7.456   0.900   1.303  0.3776  0.4210 -0.4183
 5431WAT     H222431   7.541   0.965   1.390 -0.6958  1.9068 -0.4398
 5431WAT    EPW22432   7.509   0.956   1.318  0.5881  0.1437 -0.5909
 5432WAT      O22433   6.794   0.753   2.356 -0.4577  0.2408  0.1116
 5432WAT     H122434   6.741   0.728   2.421 -1.1599  0.0524 -0.5166
 5432WAT     H222435   6.749   0.817   2.318  0.1517  0.6507  0.0862
 5432WAT    EPW22436   6.779   0.759   2.360 -0.1271 -0.1643 -0.4879
 5433WAT      O22437   0.256   0.852   2.864  0.1767  0.8351 -0.4391
 5433WAT     H122438   0.273   0.811   2.940  2.0619  1.2053 -0.6073
 5433WAT     H222439   0.197   0.911   2.885 -0.7405 -0.3078  0.3374
 5433WAT    EPW22440   0.250   0.854   2.878 -0.2189 -0.2396  0.6476
 5434WAT      O22441   6.317   2.137   1.180  0.3585  0.1706  0.1384
 5434WAT     H122442   6.280   2.087   1.119 -0.3517  0.0171  0.6830
 5434WAT     H222443   6.285   2.106   1.255  1.2388  0.3360  0.6074
 5434WAT    EPW22444   6.307   2.125   1.182 -0.2543  0.5699 -0.3553
 5435WAT      O22445   7.342   1.057   2.531 -0.1805  0.1957  0.2391
 5435WAT     H122446   7.384   1.012   2.592 -0.6218  0.7103  0.9346
 5435WAT     H222447   7.405   1.102   2.490  0.5758 -2.4214 -1.7599
 5435WAT    EPW22448   7.357   1.057   2.534  0.4938  0.6387  0.0826
 5436WAT      O22449   7.301   1.245   0.801 -0.6386  0.4089  0.5789
 5436WAT     H122450   7.273   1.263   0.720 -1.0437  0.7673  0.7951
 5436WAT     H222451   7.350   1.174   0.790 -0.8331  0.3532  0.0410
 5436WAT    EPW22452   7.304   1.237   0.787 -0.2188  0.3861 -0.8172
 5437WAT      O22453   7.462   1.088   2.973 -0.0628  0.3938 -0.4232
 5437WAT     H122454   7.445   1.146   3.036  2.0789  0.6470 -0.0187
 5437WAT     H222455   7.389   1.041   2.970 -0.4767  0.7311  1.8759
 5437WAT    EPW22456   7.449   1.090   2.982  0.0904 -0.4118 -0.7132
 5438WAT      O22457   6.782   0.010   0.845  0.2379  0.3437  0.5119
 5438WAT     H122458   6.865   0.018   0.871  0.4818  0.4480 -0.2835
 5438WAT     H222459   6.786   0.018   0.758 -0.7018  1.0994  0.5179
 5438WAT    EPW22460   6.795   0.012   0.836 -0.2465  0.6689  0.2328
 5439WAT      O22461   4.248   0.290   7.983 -0.3243 -0.8576  0.1232
 5439WAT     H122462   4.266   0.376   7.979 -1.5190 -0.5977 -0.3838
 5439WAT     H222463   4.325   0.252   7.968 -0.0622  0.1470 -1.3343
 5439WAT    EPW22464   4.262   0.297   7.980  0.1062 -0.5813  0.7324
 5440WAT      O22465   5.031   0.656   2.110 -0.5155 -0.0237  0.0647
 5440WAT     H122466   5.098   0.671   2.164 -0.4354 -0.0593 -0.0237
 5440WAT     H222467   5.069   0.621   2.039 -0.4881  0.9356 -0.4140
 5440WAT    EPW22468   5.046   0.653   2.107 -0.1985  0.1934 -0.0463
 5441WAT      O22469   6.956   1.326   2.474 -0.1868 -0.4507  0.6388
 5441WAT     H122470   6.920   1.372   2.539 -0.7859 -1.0397  0.7349
 5441WAT     H222471   6.895   1.328   2.412  0.2232 -0.2243  0.2400
 5441WAT    EPW22472   6.942   1.333   2.474  0.6022 -0.0626  0.1183
 5442WAT      O22473   5.992   7.877   2.668  0.0203 -0.2518  0.2828
 5442WAT     H122474   5.954   7.952   2.647  1.3297  0.0055 -1.3865
 5442WAT     H222475   5.949   7.818   2.621  1.7130  0.0731 -1.8152
 5442WAT    EPW22476   5.980   7.880   2.658 -0.1653 -0.2954  0.5316
 5443WAT      O22477   4.643   0.747   0.606  0.1173  0.2921 -0.0003
 5443WAT     H122478   4.601   0.754   0.530 -0.3290  0.5130  0.2619
 5443WAT     H222479   4.663   0.829   0.626  1.1627  0.1557 -0.3780
 5443WAT    EPW22480   4.640   0.760   0.598  0.1597 -0.2266 -0.0211
 5444WAT      O22481   4.444   1.390   1.424  0.4182 -0.0929 -0.0194
 5444WAT     H122482   4.466   1.306   1.411 -0.0820 -0.2737  0.2668
 5444WAT     H222483   4.357   1.387   1.431  0.2657  0.6285 -1.3199
 5444WAT    EPW22484   4.435   1.377   1.423  0.0726 -0.0863 -0.7078
 5445WAT      O22485   7.090   1.523   2.140  0.4736  0.3975 -0.4132
 5445WAT     H122486   7.138   1.500   2.210 -2.1796  1.4901  1.9727
 5445WAT     H222487   7.144   1.573   2.094  2.1591  0.1852  1.1928
 5445WAT    EPW22488   7.105   1.527   2.144 -0.0064 -1.1130 -0.6432
 5446WAT      O22489   7.813   0.975   1.972  0.0367 -0.4134  0.2279
 5446WAT     H122490   7.816   1.062   1.964 -0.9569 -0.4088 -0.1865
 5446WAT     H222491   7.834   0.961   2.055 -0.8483  0.2920  0.5806
 5446WAT    EPW22492   7.817   0.986   1.983  1.0199  0.2045 -0.4242
 5447WAT      O22493   7.555   0.689   1.797 -0.1587 -0.1213  0.3161
 5447WAT     H122494   7.624   0.742   1.784 -0.6003  0.5791  0.7800
 5447WAT     H222495   7.529   0.669   1.716  0.9986 -0.9515  0.1238
 5447WAT    EPW22496   7.562   0.694   1.783 -0.4017  0.1072 -0.0647
 5448WAT      O22497   7.322   1.459   2.566  0.4810 -0.0492 -0.2287
 5448WAT     H122498   7.380   1.514   2.528  0.2633  1.1826  1.1419
 5448WAT     H222499   7.372   1.408   2.615  0.6281 -0.7449 -1.0714
 5448WAT    EPW22500   7.338   1.460   2.568 -0.4320 -0.3890  0.5053
 5449WAT      O22501   7.141   1.299   3.120  0.1951  0.2551 -0.5433
 5449WAT     H122502   7.111   1.218   3.109 -1.5910  0.9462 -1.1551
 5449WAT     H222503   7.226   1.292   3.106  0.0402 -1.4626 -0.8206
 5449WAT    EPW22504   7.149   1.286   3.116  0.3074  0.0416 -0.1400
 5450WAT      O22505   0.291   7.541   0.954 -0.1080  0.3771 -0.1904
 5450WAT     H122506   0.320   7.557   0.873 -0.3404  0.1057 -0.3328
 5450WAT     H222507   0.302   7.617   0.996 -2.0572  1.2504 -1.0952
 5450WAT    EPW22508   0.297   7.555   0.948 -0.0408 -0.5632  0.5210
 5451WAT      O22509   6.058   6.919   2.443 -0.5180  0.6326  0.8047
 5451WAT     H122510   6.033   6.935   2.361  0.1598 -3.0259 -0.2877
 5451WAT     H222511   6.067   6.999   2.477 -0.1604  2.3860 -2.8700
 5451WAT    EPW22512   6.056   6.933   2.436 -0.3251 -1.4713 -0.4478
 5452WAT      O22513   5.327   0.393   2.154 -0.2811  0.5424 -0.5751
 5452WAT     H122514   5.251   0.359   2.128 -0.7366 -0.9198  2.2177
 5452WAT     H222515   5.374   0.323   2.176  0.4968  1.5170  1.0731
 5452WAT    EPW22516   5.323   0.377   2.153  1.1366  0.2346  0.4256
 5453WAT      O22517   7.306   0.998   0.287 -0.2429 -0.3034 -0.6935
 5453WAT     H122518   7.231   0.965   0.317  0.2880 -0.7929  0.1596
 5453WAT     H222519   7.363   0.934   0.302  0.4601  0.3105 -0.7360
 5453WAT    EPW22520   7.303   0.984   0.294  0.6991 -0.4105  0.4424
 5454WAT      O22521   5.124   1.515   1.576  0.4911  0.4817 -0.6107
 5454WAT     H122522   5.167   1.516   1.500 -0.2530  2.0211 -1.0564
 5454WAT     H222523   5.097   1.597   1.585 -1.8622 -0.2758 -0.1004
 5454WAT    EPW22524   5.126   1.527   1.566  0.8281 -0.4204  1.6322
 5455WAT      O22525   6.869   0.516   1.476 -0.0451  0.4302  0.2388
 5455WAT     H122526   6.891   0.587   1.429 -0.7497  0.2170 -0.4256
 5455WAT     H222527   6.830   0.549   1.546  1.1379  0.7607  0.7633
 5455WAT    EPW22528   6.867   0.532   1.479 -0.3108  0.1141 -0.2722
 5456WAT      O22529   7.224   0.134   2.695  0.4891  0.0172  0.2728
 5456WAT     H122530   7.304   0.113   2.723  1.4903  0.8198 -1.7691
 5456WAT     H222531   7.187   0.171   2.765  2.6142  1.4414  0.7604
 5456WAT    EPW22532   7.231   0.136   2.709  0.6757 -0.4383 -0.2135
 5457WAT      O22533   7.514   1.162   4.007 -0.3385  0.1551 -0.2824
 5457WAT     H122534   7.443   1.211   4.023 -0.7421  0.2145 -2.0603
 5457WAT     H222535   7.567   1.216   3.963  0.0745 -0.4104 -0.4922
 5457WAT    EPW22536   7.511   1.177   4.003 -0.0634 -0.4687 -0.6889
 5458WAT      O22537   7.281   0.070   1.541  0.4944  0.1370  0.3183
 5458WAT     H122538   7.271  -0.012   1.569  1.5078  0.2363  1.0001
 5458WAT     H222539   7.307   0.114   1.612  1.4149  0.7415 -0.3676
 5458WAT    EPW22540   7.283   0.064   1.555 -0.7423 -0.0843 -0.2351
 5459WAT      O22541   7.107   1.929   2.779 -0.1869  0.8351 -0.5045
 5459WAT     H122542   7.119   1.851   2.741  0.0193  0.9651 -0.7108
 5459WAT     H222543   7.188   1.952   2.805 -0.3864  0.5497  0.4178
 5459WAT    EPW22544   7.121   1.921   2.777  0.1712 -1.6791 -0.4479
 5460WAT      O22545   6.723   0.326   1.798  0.2944 -0.3466  0.4914
 5460WAT     H122546   6.791   0.278   1.772 -0.2277 -0.0931 -1.4534
 5460WAT     H222547   6.758   0.403   1.818  0.6309 -0.2950 -0.2695
 5460WAT    EPW22548   6.738   0.330   1.797  0.1750  0.1737  0.0661
 5461WAT      O22549   7.125   0.129   1.975 -0.3515 -0.3796  0.2875
 5461WAT     H122550   7.140   0.186   2.039 -0.3782 -1.2085  1.0523
 5461WAT     H222551   7.200   0.087   1.967 -0.1295  0.1900 -0.7291
 5461WAT    EPW22552   7.138   0.131   1.983  0.4030 -0.4885  0.4648
 5462WAT      O22553   5.019   1.445   2.286 -0.4988 -0.0339 -0.2341
 5462WAT     H122554   4.978   1.519   2.307 -0.4988  0.4112 -1.7252
 5462WAT     H222555   5.098   1.454   2.322 -1.5138 -0.7686  2.4102
 5462WAT    EPW22556   5.025   1.457   2.295  0.5655  0.0041 -0.5566
 5463WAT      O22557   7.142   1.660   2.727 -0.4272 -0.2078  0.5713
 5463WAT     H122558   7.207   1.616   2.691 -1.0105 -0.8377  0.2681
 5463WAT     H222559   7.118   1.610   2.794  0.4746  0.8262  1.7022
 5463WAT    EPW22560   7.148   1.646   2.732  0.2174 -0.3999  0.2940
 5464WAT      O22561   7.774   7.222   1.057  0.9936 -0.7857 -0.0275
 5464WAT     H122562   7.804   7.161   1.002 -0.7237 -1.5555 -0.1504
 5464WAT     H222563   7.734   7.175   1.119 -0.3153  0.1995 -0.0955
 5464WAT    EPW22564   7.773   7.206   1.058 -0.1935  0.0795 -0.6399
 5465WAT      O22565   7.395   1.463   3.370  0.1241 -0.0390 -0.1420
 5465WAT     H122566   7.368   1.520   3.309  2.7032  1.7354  0.1648
 5465WAT     H222567   7.481   1.478   3.374  0.9341 -3.8185  0.2358
 5465WAT    EPW22568   7.404   1.474   3.362  0.2202 -0.7048 -0.2598
 5466WAT      O22569   6.294   0.885   1.994 -0.1935 -0.3564  0.6783
 5466WAT     H122570   6.240   0.825   1.960 -0.6160 -0.7296  1.9511
 5466WAT     H222571   6.264   0.896   2.075  0.7908  0.4890  0.9497
 5466WAT    EPW22572   6.282   0.878   2.001  0.4236 -0.7938 -0.3649
 5467WAT      O22573   6.710   0.677   3.050 -0.1129 -0.1199  0.7734
 5467WAT     H122574   6.624   0.689   3.056 -0.5552 -1.3828 -1.5819
 5467WAT     H222575   6.719   0.590   3.046  0.9373  0.0153 -1.5404
 5467WAT    EPW22576   6.699   0.666   3.050  0.2042 -0.0697 -0.0750
 5468WAT      O22577   6.819   0.610   1.722 -0.0704  0.5493 -0.3364
 5468WAT     H122578   6.883   0.666   1.743  0.0010 -0.3969  2.3997
 5468WAT     H222579   6.762   0.619   1.788 -1.3484 -0.7138 -1.2089
 5468WAT    EPW22580   6.820   0.620   1.735  0.4897  0.3388 -0.5455
 5469WAT      O22581   7.387   0.750   2.025  0.8415  0.1745  0.2841
 5469WAT     H122582   7.444   0.723   1.966  0.4852  1.5439 -0.7404
 5469WAT     H222583   7.436   0.769   2.094  1.3486 -0.7420  0.1815
 5469WAT    EPW22584   7.402   0.749   2.027  0.9339 -1.1220  0.2176
 5470WAT      O22585   6.687   0.079   3.451  0.7608  0.2191 -0.5225
 5470WAT     H122586   6.631   0.120   3.505 -0.0536 -0.7136 -0.6321
 5470WAT     H222587   6.746   0.045   3.505 -0.4298 -1.2899 -0.1223
 5470WAT    EPW22588   6.687   0.080   3.467 -0.0340 -0.0817 -0.1635
 5471WAT      O22589   7.430   0.196   1.754  0.0796  0.0272  0.2971
 5471WAT     H122590   7.428   0.277   1.789 -1.4731  0.4047 -0.5742
 5471WAT     H222591   7.420   0.144   1.823  0.9559  0.5701  0.8572
 5471WAT    EPW22592   7.429   0.201   1.769  0.4788  0.3466 -0.8257
 5472WAT      O22593   5.342   6.917   2.101 -0.9063 -0.5929 -0.2150
 5472WAT     H122594   5.404   6.950   2.153 -1.1015 -1.4670  0.5880
 5472WAT     H222595   5.298   6.987   2.074  1.2371  0.2438 -1.9323
 5472WAT    EPW22596   5.345   6.932   2.105  0.4544 -0.2330 -0.7516
 5473WAT      O22597   5.689   0.792   2.026  0.4372  0.3518 -0.5473
 5473WAT     H122598   5.646   0.838   1.965  0.0154 -0.8700 -1.1969
 5473WAT     H222599   5.632   0.730   2.049  1.3249 -0.4072 -0.3526
 5473WAT    EPW22600   5.674   0.790   2.020  0.3529 -0.9920 -0.3870
 5474WAT      O22601   5.677   0.403   2.873 -0.6098  0.1766 -0.5838
 5474WAT     H122602   5.706   0.480   2.843 -1.8767  0.3446 -1.4714
 5474WAT     H222603   5.619   0.425   2.934 -1.4615 -0.0323 -1.2962
 5474WAT    EPW22604   5.673   0.418   2.877  0.3100  0.5091  0.8470
 5475WAT      O22605   7.357   0.495   1.322  0.3630  0.8928  0.4835
 5475WAT     H122606   7.406   0.507   1.393  1.0693  0.9162  0.0129
 5475WAT     H222607   7.354   0.574   1.285 -0.7773  1.0821  0.9573
 5475WAT    EPW22608   7.364   0.508   1.327  1.0081 -0.4323  0.1115
 5476WAT      O22609   7.376   1.779   1.771 -0.8868  0.1519 -0.4888
 5476WAT     H122610   7.353   1.707   1.813 -1.1272  0.4565 -0.0887
 5476WAT     H222611   7.409   1.750   1.696  0.8421 -0.4903  0.4633
 5476WAT    EPW22612   7.378   1.764   1.766  0.4829 -0.3507  1.5056
 5477WAT      O22613   3.902   7.039   1.569  0.3372 -0.3218  0.1318
 5477WAT     H122614   3.914   7.124   1.583 -0.2240 -0.3110  0.5394
 5477WAT     H222615   3.982   7.005   1.582  0.6327  0.1700 -0.3300
 5477WAT    EPW22616   3.916   7.046   1.573  0.2192 -0.0204 -1.0394
 5478WAT      O22617   6.237   1.014   2.224  0.1950 -0.0632  0.3660
 5478WAT     H122618   6.298   1.071   2.201  0.5387  1.0143  3.4499
 5478WAT     H222619   6.163   1.049   2.194  0.7760  0.0557 -0.9656
 5478WAT    EPW22620   6.235   1.027   2.216 -0.2435 -0.3359 -0.2615
 5479WAT      O22621   7.949   8.039   1.320  0.0004 -0.2096  0.2002
 5479WAT     H122622   7.900   8.104   1.290  1.3864  0.9491  0.3303
 5479WAT     H222623   7.934   7.974   1.264 -0.0642  0.7965 -1.0006
 5479WAT    EPW22624   7.939   8.039   1.308  0.0654 -0.2087  1.1093
 5480WAT      O22625   5.034   1.156   1.074 -0.2323 -0.3501 -0.0621
 5480WAT     H122626   5.012   1.100   1.011 -0.1775 -0.6858  0.2133
 5480WAT     H222627   4.972   1.144   1.135  0.9559 -1.6647  0.9427
 5480WAT    EPW22628   5.021   1.146   1.074  0.3652 -0.4369 -0.2903
 5481WAT      O22629   7.499   0.781   3.456  0.4423 -0.3073  0.2908
 5481WAT     H122630   7.559   0.842   3.473 -0.7308  0.4079  2.1850
 5481WAT     H222631   7.530   0.710   3.495  2.0185 -1.1627 -2.2703
 5481WAT    EPW22632   7.513   0.780   3.464 -0.9106 -0.4411  0.3147
 5482WAT      O22633   5.858   1.681   2.049  0.6655 -0.7268 -0.2565
 5482WAT     H122634   5.934   1.652   2.018  1.7634 -0.1741  1.7797
 5482WAT     H222635   5.853   1.762   2.018  0.3527 -1.1107 -1.2626
 5482WAT    EPW22636   5.868   1.688   2.040  0.0612  0.4333 -0.1411
 5483WAT      O22637   7.963   7.912   1.561 -0.0119  0.1905 -0.2191
 5483WAT     H122638   7.970   7.973   1.624  0.9473  0.1691 -0.2921
 5483WAT     H222639   7.953   7.960   1.488 -0.0944  0.2396 -0.1760
 5483WAT    EPW22640   7.963   7.928   1.559  0.1843 -0.6617  0.2210
 5484WAT      O22641   4.273   0.074   2.749 -0.3208 -0.0349  0.7379
 5484WAT     H122642   4.272   0.048   2.666 -0.9056  1.6308  0.1752
 5484WAT     H222643   4.305   0.005   2.792  1.1356 -0.5176 -1.0109
 5484WAT    EPW22644   4.277   0.060   2.743  0.3230 -0.4259 -0.5957
 5485WAT      O22645   5.095   7.876   0.894 -0.2649  0.1679 -0.2744
 5485WAT     H122646   5.040   7.869   0.826 -0.4370 -1.4868 -0.0063
 5485WAT     H222647   5.046   7.852   0.962  0.0196  1.4458  0.4217
 5485WAT    EPW22648   5.080   7.872   0.894 -0.5667  0.1538  0.3610
 5486WAT      O22649   7.079   7.111   1.774 -0.3877 -0.7536  0.1235
 5486WAT     H122650   7.135   7.083   1.835 -1.4741 -2.1538  0.5470
 5486WAT     H222651   7.063   7.194   1.797  1.0199 -0.5231  0.3325
 5486WAT    EPW22652   7.085   7.119   1.786 -0.1616 -0.2989 -0.2383
 5487WAT      O22653   6.869   1.914   7.906  0.4603  0.3491  0.3808
 5487WAT     H122654   6.801   1.966   7.891  1.3997  1.5105  0.0205
 5487WAT     H222655   6.837   1.834   7.894 -0.0822  0.9453 -3.2374
 5487WAT    EPW22656   6.855   1.910   7.902 -0.0602  0.0572  0.7220
 5488WAT      O22657   6.219   7.727   1.052  0.2426 -0.0032 -0.3816
 5488WAT     H122658   6.255   7.735   0.973  1.7559 -1.7694  0.0544
 5488WAT     H222659   6.276   7.766   1.105  0.0852 -0.2852  0.0052
 5488WAT    EPW22660   6.232   7.734   1.048  0.2453 -0.0419  0.1533
 5489WAT      O22661   7.372   0.591   0.411 -0.1455  0.9129  0.1631
 5489WAT     H122662   7.383   0.551   0.334 -2.3815  0.0089  0.2171
 5489WAT     H222663   7.429   0.657   0.409  0.6913  0.2001 -1.7471
 5489WAT    EPW22664   7.382   0.595   0.400  0.2473 -0.2140  0.0225
 5490WAT      O22665   7.067   0.515   3.985 -0.3264 -0.2519  0.5343
 5490WAT     H122666   7.128   0.575   4.003 -2.8977  2.4077  1.1596
 5490WAT     H222667   7.062   0.516   3.898 -0.4352  0.5844  0.5428
 5490WAT    EPW22668   7.075   0.524   3.975 -0.7859 -0.8780 -0.9311
 5491WAT      O22669   7.792   7.006   1.303 -0.3278 -0.7322  0.4095
 5491WAT     H122670   7.800   7.031   1.386 -0.8723  0.9933 -0.0053
 5491WAT     H222671   7.708   6.984   1.296 -0.4303 -0.2777  0.1788
 5491WAT    EPW22672   7.781   7.006   1.314  0.1951 -0.1132 -0.0988
 5492WAT      O22673   6.748   0.703   4.271 -0.0425  0.3885  0.0259
 5492WAT     H122674   6.797   0.743   4.332  0.3458  1.7751 -1.1274
 5492WAT     H222675   6.802   0.696   4.203 -0.1575 -2.0495  0.0969
 5492WAT    EPW22676   6.763   0.708   4.270  0.1889 -0.0670  0.2499
 5493WAT      O22677   7.094   0.761   1.959  0.1420 -0.6981  0.3651
 5493WAT     H122678   7.050   0.712   2.017  1.2807  0.0469  1.9180
 5493WAT     H222679   7.175   0.765   1.993  0.5588  0.6850 -0.7194
 5493WAT    EPW22680   7.100   0.754   1.973  0.3483  1.1000  0.3122
 5494WAT      O22681   5.997   0.166   0.982 -0.1490  0.1751 -0.5396
 5494WAT     H122682   5.958   0.089   0.982  1.1825 -0.5338 -1.0855
 5494WAT     H222683   5.937   0.220   0.948 -1.6790 -0.2533  1.3387
 5494WAT    EPW22684   5.982   0.163   0.977 -0.8938  0.3222 -0.0857
 5495WAT      O22685   5.763   1.340   2.217  0.1901 -0.0033 -0.1109
 5495WAT     H122686   5.722   1.268   2.193  0.0718  0.0204  0.0249
 5495WAT     H222687   5.702   1.388   2.256  0.8753 -1.0105  2.3734
 5495WAT    EPW22688   5.748   1.337   2.219 -0.0459  0.1201 -0.8666
 5496WAT      O22689   6.439   1.664   0.871  0.8382 -0.4822  0.1568
 5496WAT     H122690   6.517   1.703   0.860 -0.2097  1.5493 -0.4947
 5496WAT     H222691   6.390   1.699   0.808 -0.6087 -1.7472  0.5516
 5496WAT    EPW22692   6.443   1.675   0.860  0.5194  0.4038 -0.0170
 5497WAT      O22693   6.565   1.013   7.940 -0.7724  0.4409 -0.0473
 5497WAT     H122694   6.556   0.972   8.017  0.0262  1.7992  0.8005
 5497WAT     H222695   6.486   1.006   7.904 -1.3836  0.4371  1.2356
 5497WAT    EPW22696   6.552   1.006   7.946 -0.3450  0.2591 -0.1849
 5498WAT      O22697   6.711   1.594   0.389 -0.5389  0.2320  0.2087
 5498WAT     H122698   6.731   1.669   0.429 -1.5916  0.1713  0.8949
 5498WAT     H222699   6.668   1.549   0.450 -0.8029 -0.5140 -0.5100
 5498WAT    EPW22700   6.707   1.599   0.404  0.3368  0.1885 -0.4207
 5499WAT      O22701   6.357   0.973   0.935 -0.0274 -0.0673  0.2524
 5499WAT     H122702   6.414   1.026   0.975  0.9932  1.1321 -2.5637
 5499WAT     H222703   6.282   1.018   0.937  0.0350  0.0175  0.7213
 5499WAT    EPW22704   6.355   0.987   0.941 -0.1408 -0.5276 -0.8735
 5500WAT      O22705   5.288   1.934   0.025  0.4297  0.0830  0.1523
 5500WAT     H122706   5.346   1.952   0.087  1.2817 -1.1444 -0.2636
 5500WAT     H222707   5.212   1.935   0.067  0.5601  2.8119  0.5012
 5500WAT    EPW22708   5.285   1.937   0.040 -0.2692 -0.0340 -0.4645
 5501WAT      O22709   6.900   0.962   1.959  0.4083  0.1114  0.1011
 5501WAT     H122710   6.971   0.912   1.956  1.5831  1.7110 -0.2590
 5501WAT     H222711   6.881   0.976   1.875 -0.6265 -0.6685  0.1907
 5501WAT    EPW22712   6.908   0.957   1.946  0.4558  0.0861 -1.1274
 5502WAT      O22713   4.770   1.652   0.914 -0.0845 -0.4941 -0.5642
 5502WAT     H122714   4.803   1.636   0.835 -0.2672 -0.9563 -0.5502
 5502WAT     H222715   4.685   1.666   0.898 -0.3303 -1.6516 -0.3312
 5502WAT    EPW22716   4.762   1.652   0.900 -0.7367  0.1374  0.0052
 5503WAT      O22717   5.722   2.407   0.665 -0.4062  0.5899  0.1974
 5503WAT     H122718   5.661   2.456   0.704 -0.3582  0.1979  0.7825
 5503WAT     H222719   5.693   2.399   0.583 -0.8762  0.8264  0.3378
 5503WAT    EPW22720   5.709   2.413   0.659 -0.0863 -0.6084  0.3221
 5504WAT      O22721   7.508   1.434   0.506  0.2839  0.2302  0.0555
 5504WAT     H122722   7.450   1.369   0.501 -1.6150  1.8353  0.0544
 5504WAT     H222723   7.500   1.463   0.588 -1.2116  2.3465 -0.7233
 5504WAT    EPW22724   7.498   1.429   0.517 -0.5214 -0.2692 -0.5009
 5505WAT      O22725   6.356   0.258   1.699  0.3261  0.7233  0.0790
 5505WAT     H122726   6.374   0.192   1.753 -0.8922  0.3817  0.0910
 5505WAT     H222727   6.412   0.245   1.632 -0.1356 -0.5418 -0.0923
 5505WAT    EPW22728   6.367   0.247   1.697  0.8121  0.1967 -0.3631
 5506WAT      O22729   5.427   6.910   1.010 -0.4346 -0.5387 -0.0414
 5506WAT     H122730   5.512   6.898   0.994 -0.7514 -0.0837 -2.6168
 5506WAT     H222731   5.388   6.849   0.961 -1.6208  1.2074 -1.4048
 5506WAT    EPW22732   5.434   6.899   1.000  0.5995  0.1241 -0.1831
 5507WAT      O22733   5.139   0.738   1.010 -0.0773  0.0901 -0.0995
 5507WAT     H122734   5.161   0.727   1.094  1.8283  0.0746 -0.5569
 5507WAT     H222735   5.110   0.659   0.986 -2.1859  0.4853  0.9148
 5507WAT    EPW22736   5.138   0.725   1.019 -0.0735  0.5691  0.3707
 5508WAT      O22737   4.883   7.295   1.338  0.1279  0.2321 -0.2677
 5508WAT     H122738   4.825   7.263   1.394  0.6255 -0.5275 -0.1697
 5508WAT     H222739   4.859   7.378   1.327 -0.2258  0.2622  0.7365
 5508WAT    EPW22740   4.871   7.303   1.344 -0.0611 -0.3775  0.2374
 5509WAT      O22741   5.824   0.713   2.477 -0.2576 -0.0913  0.7438
 5509WAT     H122742   5.801   0.761   2.408 -0.1188  2.9657  2.6229
 5509WAT     H222743   5.908   0.697   2.464 -0.2052  0.5462  0.2350
 5509WAT    EPW22744   5.833   0.718   2.465  0.1944 -0.1193 -0.5867
 5510WAT      O22745   6.058   2.180   0.448  0.2680  0.3156  0.9958
 5510WAT     H122746   6.021   2.241   0.398 -1.4239 -0.7116  0.9168
 5510WAT     H222747   5.990   2.143   0.489  1.4021 -0.3977  2.3233
 5510WAT    EPW22748   6.042   2.183   0.447  0.6923 -0.2403  0.2427
 5511WAT      O22749   6.457   7.640   1.928  0.0147  0.3318  0.6097
 5511WAT     H122750   6.416   7.664   2.001 -0.5786  0.5740  0.2003
 5511WAT     H222751   6.439   7.555   1.921  1.3744 -0.0725  1.5775
 5511WAT    EPW22752   6.448   7.631   1.938 -0.0387  0.0216  0.1637
 5512WAT      O22753   6.159   2.711   1.236  0.7277  0.1529  0.4912
 5512WAT     H122754   6.214   2.702   1.303  0.6862  1.2526  0.6941
 5512WAT     H222755   6.169   2.636   1.191 -0.1404 -1.1392  2.3525
 5512WAT    EPW22756   6.169   2.698   1.239  0.1780  0.1245  1.2865
 5513WAT      O22757   5.476   8.017   0.721  0.4197  0.0377 -0.3478
 5513WAT     H122758   5.389   8.008   0.719  0.5736 -1.7877 -2.4765
 5513WAT     H222759   5.497   8.033   0.638  2.1557  0.1865  0.0802
 5513WAT    EPW22760   5.467   8.018   0.708 -0.2407 -1.5080 -0.4965
 5514WAT      O22761   7.072   0.368   1.562 -0.0244 -0.3695 -0.0011
 5514WAT     H122762   7.012   0.418   1.523  1.0485  0.6813 -0.3590
 5514WAT     H222763   7.110   0.326   1.496  0.7623  0.2511  0.0434
 5514WAT    EPW22764   7.069   0.369   1.547  0.2631  0.7522 -0.1347
 5515WAT      O22765   5.564   1.308   1.913 -0.2892  0.4025  0.0686
 5515WAT     H122766   5.632   1.254   1.921 -2.0829 -2.3629 -1.5709
 5515WAT     H222767   5.594   1.372   1.861  1.2139 -0.3646 -0.0580
 5515WAT    EPW22768   5.578   1.310   1.907 -0.2499  0.2724 -0.4762
 5516WAT      O22769   6.908   0.742   1.328  0.0094 -0.0618  0.0297
 5516WAT     H122770   6.901   0.713   1.246 -0.5526 -0.3827  0.1822
 5516WAT     H222771   6.825   0.756   1.352  0.2160  0.7830  0.2851
 5516WAT    EPW22772   6.894   0.740   1.320  0.4150 -0.1119 -0.0143
 5517WAT      O22773   6.159   1.133   1.301  0.2317 -0.0972 -0.1820
 5517WAT     H122774   6.157   1.220   1.289 -0.7835  0.1616  1.5258
 5517WAT     H222775   6.093   1.119   1.357  0.5012 -1.9539 -0.2799
 5517WAT    EPW22776   6.149   1.144   1.308 -0.6288  0.9336  0.0990
 5518WAT      O22777   7.148   1.978   7.996 -0.2945  0.0103 -0.2144
 5518WAT     H122778   7.130   1.959   8.079 -0.2989  3.2425  0.6387
 5518WAT     H222779   7.075   1.956   7.953 -0.3588 -1.5174  0.6179
 5518WAT    EPW22780   7.135   1.972   8.002 -0.6413 -0.5903 -0.2975
 5519WAT      O22781   6.912   1.305   2.066  0.2144 -0.0186  0.0977
 5519WAT     H122782   6.948   1.236   2.107  0.8852  0.6189  0.6179
 5519WAT     H222783   6.967   1.370   2.084  0.0275  0.4890 -1.0713
 5519WAT    EPW22784   6.926   1.304   2.075  0.5406  0.2162  1.3467
 5520WAT      O22785   5.803   0.309   0.827  0.3676 -0.2534 -0.4154
 5520WAT     H122786   5.827   0.303   0.743 -2.2896  3.8310 -1.7750
 5520WAT     H222787   5.720   0.282   0.826  0.7709 -1.8139  1.4126
 5520WAT    EPW22788   5.794   0.304   0.814  0.2268 -0.6734 -0.3742
 5521WAT      O22789   5.575   8.041   1.413 -1.1758  0.2341 -0.6719
 5521WAT     H122790   5.651   8.000   1.425 -1.9481 -1.1202 -0.2436
 5521WAT     H222791   5.571   8.051   1.326 -0.5980  0.1520 -0.7138
 5521WAT    EPW22792   5.585   8.036   1.402 -0.3158  0.4048  0.6467
 5522WAT      O22793   6.454   1.869   7.463 -0.7084 -0.1796  0.0843
 5522WAT     H122794   6.421   1.796   7.427  1.4451 -0.3449 -1.7894
 5522WAT     H222795   6.473   1.919   7.394 -1.7809  2.0986  1.2928
 5522WAT    EPW22796   6.452   1.866   7.447  0.1491  0.2874 -0.1036
 5523WAT      O22797   7.979   2.155   0.182 -0.4371  0.1501  0.6426
 5523WAT     H122798   8.002   2.073   0.201 -1.0350 -0.0480  0.5263
 5523WAT     H222799   8.052   2.201   0.200 -0.3186 -0.3031  1.4020
 5523WAT    EPW22800   7.994   2.150   0.188 -0.4042  0.6591 -0.0110
 5524WAT      O22801   6.601   7.791   7.971 -0.0263  0.2327 -0.0266
 5524WAT     H122802   6.634   7.803   8.051  2.6529 -0.2654 -0.9553
 5524WAT     H222803   6.528   7.839   7.971  1.2520  2.3538  1.8787
 5524WAT    EPW22804   6.595   7.800   7.983  0.0841 -0.8696  0.0379
 5525WAT      O22805   7.015   7.582   0.684  0.2637 -0.2071 -0.4527
 5525WAT     H122806   7.090   7.537   0.694  0.0276 -0.6707 -0.7198
 5525WAT     H222807   7.027   7.653   0.733  0.7158 -0.4789 -0.1612
 5525WAT    EPW22808   7.028   7.586   0.693 -0.1180 -0.7005 -0.1270
 5526WAT      O22809   0.152   0.137   1.014  0.4210 -0.1870 -0.3745
 5526WAT     H122810   0.216   0.138   0.955  1.6493 -1.5923  0.8394
 5526WAT     H222811   0.088   0.095   0.974  0.5013  0.6097 -1.3708
 5526WAT    EPW22812   0.152   0.131   1.000 -0.3199  0.1463  0.2980
 5527WAT      O22813   6.500   2.783   7.874 -0.0301 -0.1728  0.3700
 5527WAT     H122814   6.528   2.701   7.884 -0.5118 -0.1435  2.4200
 5527WAT     H222815   6.479   2.808   7.955 -0.2747  1.8523 -0.2529
 5527WAT    EPW22816   6.501   2.774   7.887 -0.1288 -0.1330 -0.3718
 5528WAT      O22817   6.579   7.722   1.414  0.8166  0.2103 -0.3864
 5528WAT     H122818   6.618   7.796   1.437  0.5108  0.4617 -0.6607
 5528WAT     H222819   6.645   7.666   1.403  0.9720  0.0341  1.2159
 5528WAT    EPW22820   6.594   7.724   1.416 -0.5987 -0.7090  0.0797
 5529WAT      O22821   7.960   0.951   0.629  0.3101 -0.3308 -0.1508
 5529WAT     H122822   7.895   1.005   0.650 -1.1776 -1.2659 -2.0288
 5529WAT     H222823   8.032   0.998   0.644 -0.8338  1.2778  0.5921
 5529WAT    EPW22824   7.961   0.966   0.634 -0.1417 -0.3480 -0.3379
 5530WAT      O22825   7.110   1.520   0.303  0.2866  0.2410 -0.0927
 5530WAT     H122826   7.069   1.554   0.234  0.2447  0.3038 -0.0375
 5530WAT     H222827   7.194   1.541   0.289  0.0414  2.0618  0.8892
 5530WAT    EPW22828   7.116   1.528   0.291 -0.2841 -0.8166  0.2741
 5531WAT      O22829   4.477   0.780   1.280  0.3436  0.6934  0.7389
 5531WAT     H122830   4.455   0.704   1.318  1.3852  0.9657  1.9669
 5531WAT     H222831   4.515   0.755   1.205  1.3012 -0.0625  1.4498
 5531WAT    EPW22832   4.480   0.765   1.274  0.3861 -0.5519 -0.2854
 5532WAT      O22833   6.764   1.265   1.420  0.5735  0.7791  0.1674
 5532WAT     H122834   6.703   1.215   1.382  0.2836  0.7428  0.6700
 5532WAT     H222835   6.724   1.295   1.492  1.2523  0.4690  0.6923
 5532WAT    EPW22836   6.749   1.262   1.425  0.1078 -0.1097 -0.2622
 5533WAT      O22837   6.848   1.654   1.517  0.2277 -0.1635  0.2196
 5533WAT     H122838   6.857   1.740   1.516  0.3033 -0.1648  0.6251
 5533WAT     H222839   6.862   1.630   1.434  0.7686  0.1549  0.2173
 5533WAT    EPW22840   6.851   1.663   1.505 -0.2674 -0.4774 -0.3404
 5534WAT      O22841   6.497   2.113   7.691 -0.1086 -0.2950 -0.2844
 5534WAT     H122842   6.567   2.079   7.650 -0.5808 -0.7985 -0.6896
 5534WAT     H222843   6.524   2.119   7.774  1.2276  1.7073 -0.7840
 5534WAT    EPW22844   6.512   2.109   7.697 -0.2907 -0.8689 -0.2439
 5535WAT      O22845   6.879   7.124   0.597 -0.3230 -0.2638 -0.2357
 5535WAT     H122846   6.843   7.202   0.610  1.0111  0.7145 -1.9460
 5535WAT     H222847   6.964   7.138   0.609 -0.0744 -1.5227 -0.3636
 5535WAT    EPW22848   6.886   7.138   0.601 -0.1103  0.2826 -0.0449
 5536WAT      O22849   7.320   0.773   1.272  0.0076  0.0958  0.0445
 5536WAT     H122850   7.292   0.781   1.190 -1.4292 -0.6546  0.4259
 5536WAT     H222851   7.248   0.782   1.320  0.7076 -0.1390  1.1999
 5536WAT    EPW22852   7.306   0.775   1.267 -0.1636 -0.7188  0.1287
 5537WAT      O22853   7.034   1.547   0.873  0.1294 -0.0833 -0.0925
 5537WAT     H122854   7.020   1.556   0.959 -2.3660  1.9378 -0.6026
 5537WAT     H222855   6.957   1.524   0.842  1.0685 -1.0834 -1.8194
 5537WAT    EPW22856   7.021   1.545   0.881 -0.5721  0.3286 -1.5646
 5538WAT      O22857   5.927   1.278   1.475 -0.8736  0.8959 -0.5789
 5538WAT     H122858   5.937   1.192   1.480  0.9137  0.9787 -1.9323
 5538WAT     H222859   5.922   1.303   1.558  1.5599 -0.2375 -0.0160
 5538WAT    EPW22860   5.927   1.269   1.488  0.4027 -0.0097  0.6875
 5539WAT      O22861   6.370   7.687   0.442 -0.3157  0.3837 -0.1226
 5539WAT     H122862   6.416   7.648   0.505  2.5515  0.3024 -2.0573
 5539WAT     H222863   6.346   7.621   0.390 -0.3489  0.6783 -0.4901
 5539WAT    EPW22864   6.373   7.672   0.443 -0.1552 -0.8329  0.1515
 5540WAT      O22865   4.773   1.713   1.580 -0.0159  0.0915  0.4299
 5540WAT     H122866   4.749   1.676   1.656 -0.1657  0.0078  0.3407
 5540WAT     H222867   4.740   1.660   1.520 -1.4580  1.1203  0.2660
 5540WAT    EPW22868   4.765   1.699   1.582  0.0462  0.2490  0.1302
 5541WAT      O22869   6.752   1.542   1.035  0.1203 -0.4331  0.0089
 5541WAT     H122870   6.721   1.596   0.974 -2.4309  0.1382  1.6790
 5541WAT     H222871   6.731   1.463   1.005  2.7145 -0.5630 -1.8091
 5541WAT    EPW22872   6.745   1.538   1.022  0.6151 -0.2426  0.1396
 5542WAT      O22873   6.416   1.497   1.467 -0.4086 -0.0777 -0.2355
 5542WAT     H122874   6.342   1.524   1.504 -0.4025 -0.2612 -0.0874
 5542WAT     H222875   6.478   1.535   1.515 -0.4000 -0.3473 -0.0295
 5542WAT    EPW22876   6.414   1.506   1.479 -0.2539  0.0382  0.0905
 5543WAT      O22877   6.148   1.579   0.281 -0.2412 -0.4730 -0.1499
 5543WAT     H122878   6.177   1.515   0.333 -2.0379 -2.0673 -0.9766
 5543WAT     H222879   6.182   1.559   0.203  0.5431  0.5729 -0.0939
 5543WAT    EPW22880   6.157   1.567   0.277 -0.6542  0.3421  0.1053
 5544WAT      O22881   7.665   1.343   1.016  0.5089 -0.0798 -0.0886
 5544WAT     H122882   7.658   1.256   1.004  0.0792  0.1403 -1.7274
 5544WAT     H222883   7.585   1.366   1.042  0.6280 -0.1769  0.3655
 5544WAT    EPW22884   7.652   1.333   1.018 -0.0279 -0.1476  0.6395
 5545WAT      O22885   4.327   0.022   7.459 -0.2352  0.0134  0.2270
 5545WAT     H122886   4.399  -0.020   7.433 -0.4743 -0.2900  0.0527
 5545WAT     H222887   4.339   0.103   7.430 -0.1716 -0.1478 -0.1931
 5545WAT    EPW22888   4.340   0.027   7.451  0.3708  0.3517  0.5430
 5546WAT      O22889   4.853   0.410   0.445 -0.3435 -0.3101 -0.3756
 5546WAT     H122890   4.774   0.395   0.410 -1.2347  2.9208 -0.0668
 5546WAT     H222891   4.895   0.454   0.384  0.6124 -0.5222  0.1105
 5546WAT    EPW22892   4.848   0.414   0.431  0.2759 -0.1026 -0.2800
 5547WAT      O22893   6.304   7.909   0.584 -0.3064 -0.0993 -0.5678
 5547WAT     H122894   6.319   7.842   0.530  0.7162  1.1215 -1.8864
 5547WAT     H222895   6.325   7.878   0.662  1.0127 -1.0661 -1.2737
 5547WAT    EPW22896   6.309   7.895   0.588 -0.0019  0.0434 -0.3479
 5548WAT      O22897   0.494   1.049   0.612 -0.3390 -0.9482  0.5416
 5548WAT     H122898   0.489   0.977   0.564  0.4572  0.0460 -1.1403
 5548WAT     H222899   0.491   1.020   0.694  0.7111 -2.9490 -0.0702
 5548WAT    EPW22900   0.493   1.034   0.617  0.0019  0.8156 -0.5418
 5549WAT      O22901   7.151   1.275   0.039 -0.4322 -0.0206 -0.0578
 5549WAT     H122902   7.099   1.302   0.104 -1.1709  0.4518 -0.8256
 5549WAT     H222903   7.097   1.226  -0.010 -0.4931  1.4571 -1.5243
 5549WAT    EPW22904   7.135   1.272   0.041 -0.2134  0.1212 -0.3093
 5550WAT      O22905   7.192   1.077   1.177  0.3569  0.0546 -0.1445
 5550WAT     H122906   7.152   1.132   1.123  0.1380 -0.4461 -0.5095
 5550WAT     H222907   7.221   1.014   1.123 -2.1285 -1.8214  0.5638
 5550WAT    EPW22908   7.191   1.076   1.161 -0.3141  0.2987 -0.2412
 5551WAT      O22909   4.544   2.149   1.330  0.3203 -0.1374 -0.1958
 5551WAT     H122910   4.503   2.163   1.254  0.9754  2.1435 -0.2142
 5551WAT     H222911   4.628   2.160   1.311  0.7499 -1.9971  0.4090
 5551WAT    EPW22912   4.550   2.153   1.316  0.8447  0.2088  0.4065
 5552WAT      O22913   5.086   8.002   0.475 -0.1049 -0.5740  0.1890
 5552WAT     H122914   5.002   7.984   0.490 -0.0470 -1.3023 -0.3365
 5552WAT     H222915   5.083   8.077   0.430 -0.4834 -0.7938 -0.1487
 5552WAT    EPW22916   5.073   8.011   0.471  0.4241  0.5866  0.6460
 5553WAT      O22917   5.106   2.547   2.391 -0.0888 -0.1669  0.0972
 5553WAT     H122918   5.169   2.582   2.441  0.2873  0.0464 -0.5068
 5553WAT     H222919   5.151   2.508   2.327 -0.5791  0.6598 -0.7766
 5553WAT    EPW22920   5.122   2.547   2.389  0.6513 -0.1721 -0.2730
 5554WAT      O22921   6.155   7.269   0.638  0.2117  0.1538  0.2985
 5554WAT     H122922   6.219   7.321   0.610  0.8253 -1.0963 -0.7559
 5554WAT     H222923   6.159   7.201   0.583 -2.2926  0.2067 -0.0750
 5554WAT    EPW22924   6.165   7.267   0.626  1.1899 -0.6535 -0.2178
 5555WAT      O22925   7.126   1.287   2.725  0.6087  0.4970  0.3355
 5555WAT     H122926   7.103   1.267   2.643 -0.2674  1.0695  0.4351
 5555WAT     H222927   7.209   1.313   2.717  1.4649 -2.0305  0.0392
 5555WAT    EPW22928   7.135   1.288   2.712  0.5203 -0.0311 -0.7522
 5556WAT      O22929   5.822   7.970   1.003 -0.0095 -0.1667  0.2565
 5556WAT     H122930   5.809   7.899   1.053 -1.1362 -1.4048 -1.6484
 5556WAT     H222931   5.827   7.937   0.923  2.7989  1.6402 -0.4205
 5556WAT    EPW22932   5.821   7.955   0.999  0.0191 -0.3169  0.1229
 5557WAT      O22933   5.755   1.436   1.330  0.0778  0.8270 -0.0931
 5557WAT     H122934   5.681   1.423   1.375  0.3546  0.5908  0.3013
 5557WAT     H222935   5.814   1.389   1.374  0.4194  0.8466 -0.5266
 5557WAT    EPW22936   5.752   1.428   1.343  0.1702 -0.8916  0.1870
 5558WAT      O22937   3.566   5.419   7.522 -0.0766  0.4189 -0.2696
 5558WAT     H122938   3.515   5.349   7.529 -0.9183  1.0633  0.2509
 5558WAT     H222939   3.510   5.483   7.503  0.7854  0.8050 -1.6666
 5558WAT    EPW22940   3.550   5.418   7.520 -0.1656  1.0489 -0.2823
 5559WAT      O22941   2.390   7.226   7.715  0.4889  0.3121  0.2299
 5559WAT     H122942   2.445   7.242   7.649  0.1675  0.9558  0.1145
 5559WAT     H222943   2.436   7.171   7.766  0.8588  0.0618 -0.3596
 5559WAT    EPW22944   2.405   7.220   7.713 -0.1122  0.1385  0.4979
 5560WAT      O22945   4.515   0.603   6.941  0.0283 -0.5415  0.5123
 5560WAT     H122946   4.490   0.675   6.898 -1.4946 -1.1545  0.2743
 5560WAT     H222947   4.444   0.581   6.987  0.0381 -2.4848 -0.2697
 5560WAT    EPW22948   4.501   0.610   6.942 -0.7316 -0.7982 -0.1798
 5561WAT      O22949   4.271   0.651   0.253  0.0041  0.6744  0.0710
 5561WAT     H122950   4.220   0.705   0.206 -0.1437  1.0503  0.6520
 5561WAT     H222951   4.251   0.572   0.222 -1.2188  0.7808  0.5445
 5561WAT    EPW22952   4.260   0.647   0.241  0.3267 -0.1233 -0.6311
 5562WAT      O22953   3.748   7.466   7.437 -0.4394  0.2271 -0.7305
 5562WAT     H122954   3.727   7.540   7.479  1.5976 -0.1671  1.1729
 5562WAT     H222955   3.835   7.472   7.427 -0.2516 -1.7980 -0.6999
 5562WAT    EPW22956   3.758   7.478   7.442  0.2841 -1.1788  0.3081
 5563WAT      O22957   3.624   7.009   7.570 -0.2701  0.3228 -0.2567
 5563WAT     H122958   3.651   6.975   7.494 -3.2264  2.1974 -2.3477
 5563WAT     H222959   3.670   7.083   7.577 -0.1343  0.2460 -0.3297
 5563WAT    EPW22960   3.635   7.015   7.560 -0.2148  0.9444 -0.6596
 5564WAT      O22961   3.876   7.974   7.110  0.2103  0.2766  0.0301
 5564WAT     H122962   3.857   8.057   7.132 -0.9923  0.2559 -0.8438
 5564WAT     H222963   3.963   7.975   7.102  0.1625  1.6639 -0.7006
 5564WAT    EPW22964   3.886   7.987   7.112  0.1591 -0.2184  0.1718
 5565WAT      O22965   5.123   7.175   7.725 -0.1348 -0.0604 -0.4577
 5565WAT     H122966   5.124   7.258   7.751  0.6638 -0.4064  0.6643
 5565WAT     H222967   5.116   7.130   7.799 -3.3133 -0.9867 -1.1479
 5565WAT    EPW22968   5.122   7.181   7.740 -0.6084  0.0324 -0.3937
 5566WAT      O22969   3.762   6.022   0.597 -0.1492 -0.2594 -0.0086
 5566WAT     H122970   3.707   6.081   0.564 -0.2492 -0.0656  0.4987
 5566WAT     H222971   3.710   5.966   0.638 -0.0160 -0.4360 -0.0775
 5566WAT    EPW22972   3.746   6.022   0.598  0.2023 -0.9912 -0.0177
 5567WAT      O22973   5.585   7.306   6.710  0.5901 -0.0114 -0.7048
 5567WAT     H122974   5.660   7.288   6.751  0.7464  2.8450  0.4855
 5567WAT     H222975   5.609   7.361   6.647 -0.4337  0.4165 -0.7270
 5567WAT    EPW22976   5.600   7.311   6.707  0.4953  0.2901 -0.0986
 5568WAT      O22977   4.471   6.754   0.542  0.2675  0.1291 -0.0401
 5568WAT     H122978   4.513   6.720   0.611  0.3195  1.3822  0.5674
 5568WAT     H222979   4.444   6.832   0.571  0.6568  0.8629 -1.5740
 5568WAT    EPW22980   4.473   6.760   0.557  0.0434  0.5151  0.0728
 5569WAT      O22981   3.865   6.978   0.305  0.1852  0.3102 -0.1897
 5569WAT     H122982   3.862   6.898   0.271  1.2886  0.4013 -0.5686
 5569WAT     H222983   3.950   6.988   0.325  0.2682  1.7597 -1.1242
 5569WAT    EPW22984   3.877   6.968   0.303 -0.3282 -0.2168 -0.5785
 5570WAT      O22985   3.921   7.050   0.044 -0.2337 -0.2810 -0.3155
 5570WAT     H122986   3.853   7.068  -0.008 -0.3025  2.7688  0.6328
 5570WAT     H222987   3.884   7.040   0.123  0.3274  0.7448  0.0955
 5570WAT    EPW22988   3.905   7.051   0.048 -0.8520 -0.2693 -0.2025
 5571WAT      O22989   3.502   6.741   7.980  0.0645  0.6489 -0.1896
 5571WAT     H122990   3.452   6.678   7.946  0.9825 -0.8610  1.1354
 5571WAT     H222991   3.579   6.729   7.942  0.3850  0.6331  0.4534
 5571WAT    EPW22992   3.506   6.730   7.969 -0.0528 -0.2955  0.6218
 5572WAT      O22993   4.682   5.868   0.387  0.4489 -0.1147  0.2740
 5572WAT     H122994   4.714   5.793   0.417  0.8943 -0.2403 -0.4874
 5572WAT     H222995   4.654   5.848   0.307 -0.7588  0.2017  0.5946
 5572WAT    EPW22996   4.683   5.854   0.380 -0.4607 -0.0838  0.4895
 5573WAT      O22997   2.840   7.158   7.818 -0.5682  0.4441  0.0682
 5573WAT     H122998   2.826   7.241   7.843 -0.6813  0.8403 -1.2271
 5573WAT     H222999   2.926   7.154   7.807 -0.7469  1.0927 -2.0395
 5573WAT    EPW23000   2.851   7.170   7.820  0.1833  0.3729  0.5856
 5574WAT      O23001   4.092   0.720   1.009  0.0167 -0.2585 -0.1392
 5574WAT     H123002   4.084   0.701   1.094  0.9449  1.5401  0.4034
 5574WAT     H223003   4.168   0.682   0.987 -0.4374 -1.0936 -0.2944
 5574WAT    EPW23004   4.102   0.711   1.018  0.1633 -0.0103 -0.0143
 5575WAT      O23005   3.646   6.324   0.310  0.0161 -0.1859  0.2750
 5575WAT     H123006   3.589   6.362   0.255 -1.2609 -0.0346  1.6260
 5575WAT     H223007   3.710   6.383   0.317 -1.7029  1.6757  1.9648
 5575WAT    EPW23008   3.647   6.338   0.303 -0.3587 -0.6238  0.2221
 5576WAT      O23009   2.904   6.683   7.737 -0.1348  0.4340  0.0803
 5576WAT     H123010   2.968   6.742   7.731  1.0806 -0.5912  1.9596
 5576WAT     H223011   2.832   6.731   7.743  0.7036  1.7053  0.3999
 5576WAT    EPW23012   2.903   6.699   7.737  0.2748  1.1106 -0.0475
 5577WAT      O23013   3.288   6.301   6.949 -0.3783 -0.5732 -0.1937
 5577WAT     H123014   3.300   6.369   7.002 -0.9140 -0.6959  0.0922
 5577WAT     H223015   3.365   6.291   6.910  0.5680 -1.5031  1.7539
 5577WAT    EPW23016   3.301   6.309   6.951  0.1616  0.5415 -0.5065
 5578WAT      O23017   3.487   5.604   0.308  1.2346 -0.0556  0.6288
 5578WAT     H123018   3.560   5.569   0.277  1.2560  1.2228 -0.8783
 5578WAT     H223019   3.427   5.586   0.247  0.6164  0.1716  1.1504
 5578WAT    EPW23020   3.489   5.596   0.294  0.5129 -0.0670  0.5779
 5579WAT      O23021   3.189   6.837   6.840 -0.2043  0.3688  0.2391
 5579WAT     H123022   3.169   6.800   6.916  0.9225  1.6534  1.2230
 5579WAT     H223023   3.149   6.915   6.844  0.4857  0.7556 -0.1244
 5579WAT    EPW23024   3.180   6.843   6.852 -0.0295 -0.5124  0.4246
 5580WAT      O23025   5.228   0.182   6.653 -0.2334  0.1637  0.5647
 5580WAT     H123026   5.248   0.236   6.587  0.1857 -0.0720  0.4943
 5580WAT     H223027   5.297   0.129   6.657 -0.6618 -0.3989  0.6008
 5580WAT    EPW23028   5.242   0.182   6.644 -0.1470  0.0730 -0.0923
 5581WAT      O23029   5.000   0.997   0.122  0.7682  0.3761 -0.0505
 5581WAT     H123030   5.051   0.999   0.051 -1.0440 -0.5637 -1.4493
 5581WAT     H223031   5.004   1.080   0.151  3.2749  0.2831  0.1168
 5581WAT    EPW23032   5.008   1.010   0.115  0.3611  0.6755  0.2464
 5582WAT      O23033   2.717   7.189   7.528 -0.4623  0.2747 -0.2908
 5582WAT     H123034   2.719   7.269   7.491  0.5647  0.0642 -0.7225
 5582WAT     H223035   2.752   7.202   7.607  0.1331  0.1750 -0.5337
 5582WAT    EPW23036   2.723   7.203   7.534 -0.0753  0.8201 -0.0357
 5583WAT      O23037   6.001   7.764   7.315  0.8085 -0.2066 -0.0434
 5583WAT     H123038   5.943   7.757   7.250 -0.0635  1.1654  0.5305
 5583WAT     H223039   6.037   7.685   7.320  0.9256 -0.3362 -2.2044
 5583WAT    EPW23040   5.998   7.751   7.306 -0.2254 -0.0532 -1.0687
 5584WAT      O23041   5.727   7.965   7.618  0.4420  0.0467 -0.4657
 5584WAT     H123042   5.695   7.887   7.641 -0.3631  0.2412 -0.8660
 5584WAT     H223043   5.798   7.946   7.572 -0.1876 -0.4960 -1.2351
 5584WAT    EPW23044   5.733   7.951   7.614  0.0806 -0.2831 -0.4428
 5585WAT      O23045   3.154   0.164   0.541 -0.1196  0.2405 -0.1106
 5585WAT     H123046   3.129   0.142   0.460 -0.7184  1.0183 -0.1450
 5585WAT     H223047   3.152   0.251   0.540  2.1981  0.3569  0.0261
 5585WAT    EPW23048   3.150   0.173   0.529 -0.2380 -0.2301 -0.0237
 5586WAT      O23049   3.317   6.755   7.527  0.3682  0.2196 -0.3040
 5586WAT     H123050   3.360   6.824   7.557  0.1969  0.2905 -0.2209
 5586WAT     H223051   3.333   6.693   7.587  0.1153  0.3297 -0.1245
 5586WAT    EPW23052   3.326   6.756   7.540 -0.3719  0.8540  0.0436
 5587WAT      O23053   3.734   7.479   0.728  0.2036  0.6433 -0.4951
 5587WAT     H123054   3.787   7.449   0.665 -1.1495  0.3913 -1.5371
 5587WAT     H223055   3.675   7.526   0.686  0.9947  3.0716  0.9075
 5587WAT    EPW23056   3.733   7.482   0.713 -0.2539 -0.1874 -0.3208
 5588WAT      O23057   3.872   0.126   0.794  0.2806 -0.5040  0.0947
 5588WAT     H123058   3.899   0.043   0.786 -0.7900 -0.8562 -0.0357
 5588WAT     H223059   3.857   0.135   0.879  2.4816  0.2620  0.4616
 5588WAT    EPW23060   3.874   0.115   0.805  0.0405 -0.6519 -0.1302
 5589WAT      O23061   4.252   7.277   6.905 -0.3304  0.0035 -0.2054
 5589WAT     H123062   4.326   7.304   6.942  0.4430  0.3120 -1.8932
 5589WAT     H223063   4.203   7.350   6.902 -0.6814 -0.1762  0.8086
 5589WAT    EPW23064   4.256   7.292   6.910 -0.1460  0.6388 -0.9668
 5590WAT      O23065   4.201   7.717   7.383 -0.2231  0.4097  0.6820
 5590WAT     H123066   4.116   7.699   7.392  0.1757 -2.1666  0.2087
 5590WAT     H223067   4.237   7.682   7.454  0.3448  2.9928  1.7658
 5590WAT    EPW23068   4.193   7.709   7.395 -0.6076  0.1293 -0.1008
 5591WAT      O23069   3.469   0.725   6.747 -0.5003  0.2911  0.3235
 5591WAT     H123070   3.513   0.742   6.821  1.3700  2.9704 -1.2210
 5591WAT     H223071   3.419   0.795   6.736 -1.8748 -0.7295 -0.2782
 5591WAT    EPW23072   3.468   0.738   6.756 -0.0325 -0.0264  0.2342
 5592WAT      O23073   2.501   6.626   7.722  0.6529 -0.2534 -0.0391
 5592WAT     H123074   2.556   6.571   7.683 -0.8508 -3.8391  2.3076
 5592WAT     H223075   2.445   6.647   7.658  1.8526 -0.6368 -1.2664
 5592WAT    EPW23076   2.501   6.621   7.707  0.4914  0.1118  0.7765
 5593WAT      O23077   4.330   7.801   7.911  0.1741 -0.3166  0.1655
 5593WAT     H123078   4.399   7.749   7.907 -0.3609 -1.0013 -0.3685
 5593WAT     H223079   4.359   7.876   7.877  1.2477  0.1133  1.9095
 5593WAT    EPW23080   4.344   7.805   7.905  0.5846  0.2101 -0.4665
 5594WAT      O23081   3.219   6.153   6.343 -1.0149 -0.1724 -0.5425
 5594WAT     H123082   3.294   6.135   6.301  0.5569  0.0374  1.9582
 5594WAT     H223083   3.178   6.076   6.344  0.0363 -0.7534 -0.3500
 5594WAT    EPW23084   3.224   6.139   6.337 -0.3946 -0.6529  0.2478
 5595WAT      O23085   3.551   7.694   8.019  0.4994  0.7246 -0.1562
 5595WAT     H123086   3.532   7.724   7.939  0.6249  0.8346 -0.1450
 5595WAT     H223087   3.570   7.610   8.006  1.7758  1.0309 -0.4371
 5595WAT    EPW23088   3.551   7.686   8.005  0.6161 -0.1092 -0.3760
 5596WAT      O23089   3.509   7.635   0.621  0.2092  0.1038 -0.5659
 5596WAT     H123090   3.480   7.716   0.605 -0.5888 -0.2710 -1.0931
 5596WAT     H223091   3.477   7.617   0.700  0.2668  0.2460 -0.5096
 5596WAT    EPW23092   3.500   7.645   0.630  0.0669  1.0391 -0.3328
 5597WAT      O23093   2.467   0.358   7.586 -0.3402 -0.0010 -0.1425
 5597WAT     H123094   2.477   0.421   7.526  1.3356  1.1968  1.3234
 5597WAT     H223095   2.390   0.377   7.623 -0.5568  0.2820 -0.7251
 5597WAT    EPW23096   2.457   0.370   7.582 -0.3989  0.8205 -0.0910
 5598WAT      O23097   2.993   0.213   6.844  0.3982 -0.1815 -0.8129
 5598WAT     H123098   3.004   0.298   6.825 -1.8398  0.0381 -1.4336
 5598WAT     H223099   2.965   0.215   6.927  0.9268 -0.3631 -0.6310
 5598WAT    EPW23100   2.990   0.226   6.854  0.1912 -0.4063 -0.0346
 5599WAT      O23101   4.435   7.298   7.533  0.1068  0.3692 -0.2946
 5599WAT     H123102   4.517   7.275   7.516  0.6137  0.2650  2.0137
 5599WAT     H223103   4.441   7.346   7.605 -1.9696 -0.7107  0.6765
 5599WAT    EPW23104   4.448   7.301   7.541  0.4919 -0.8993 -0.1425
 5600WAT      O23105   3.190   7.128   7.456  0.7570  0.2838  0.0088
 5600WAT     H123106   3.230   7.093   7.525  1.1325  0.5433 -0.0781
 5600WAT     H223107   3.110   7.094   7.460  0.9499 -0.1428  0.2473
 5600WAT    EPW23108   3.184   7.118   7.467  0.2463 -0.2471  0.0826
 5601WAT      O23109   3.151   7.780   7.897 -0.7664 -0.7967 -0.0584
 5601WAT     H123110   3.139   7.864   7.915 -0.8386 -0.6264 -0.8960
 5601WAT     H223111   3.188   7.749   7.970 -2.8657 -0.5589  1.1794
 5601WAT    EPW23112   3.155   7.788   7.911  0.1596  0.1509  0.2389
 5602WAT      O23113   4.711   0.091   0.843  0.6085  0.3623 -0.4956
 5602WAT     H123114   4.776   0.089   0.901 -0.0291 -0.9899  0.2160
 5602WAT     H223115   4.640   0.095   0.894 -0.0892 -2.8341 -1.0199
 5602WAT    EPW23116   4.710   0.091   0.859  0.5593  0.6474 -0.3797
 5603WAT      O23117   4.435   1.275   0.138 -0.3315  0.0865  0.4272
 5603WAT     H123118   4.362   1.302   0.098 -0.3986  0.9142  1.0780
 5603WAT     H223119   4.499   1.311   0.091 -0.2908 -1.1955 -0.5530
 5603WAT    EPW23120   4.434   1.285   0.125 -0.0115 -0.3344 -0.6067
 5604WAT      O23121   4.258   7.083   7.647  0.3366 -0.3175 -0.6358
 5604WAT     H123122   4.323   7.128   7.611 -0.7374  2.4820  0.6215
 5604WAT     H223123   4.187   7.116   7.609 -0.6086  0.4835  1.6414
 5604WAT    EPW23124   4.257   7.094   7.636  0.4468 -0.4251 -0.4518
 5605WAT      O23125   4.839   0.215   7.184  0.0695  0.4230  0.2493
 5605WAT     H123126   4.800   0.267   7.126 -0.4946  2.8231  2.5789
 5605WAT     H223127   4.781   0.150   7.195 -0.4647  0.7000 -0.7335
 5605WAT    EPW23128   4.824   0.213   7.177 -0.5634 -0.0259 -0.0303
 5606WAT      O23129   4.616   6.210   5.830 -0.1667 -0.3692  0.0518
 5606WAT     H123130   4.688   6.258   5.817  0.1137 -0.7248  0.2753
 5606WAT     H223131   4.563   6.234   5.765 -0.4665  1.0562  0.7764
 5606WAT    EPW23132   4.619   6.221   5.819 -0.0190 -0.7239 -0.4563
 5607WAT      O23133   5.606   1.305   0.351  0.1190 -0.1302 -0.0176
 5607WAT     H123134   5.556   1.276   0.417 -0.1634  1.0795  0.3188
 5607WAT     H223135   5.659   1.237   0.335 -0.3390 -0.7381  0.9104
 5607WAT    EPW23136   5.607   1.290   0.358  0.0572 -0.0203 -0.2199
 5608WAT      O23137   3.923   0.412   6.898 -0.7554  0.7063 -0.2137
 5608WAT     H123138   3.876   0.403   6.826 -0.7087  0.1550 -0.1747
 5608WAT     H223139   4.004   0.392   6.873 -0.5667  1.4357 -0.2287
 5608WAT    EPW23140   3.928   0.408   6.884  0.1056  0.2753 -0.0858
 5609WAT      O23141   4.500   7.770   0.905  0.1375 -0.1192  0.2216
 5609WAT     H123142   4.534   7.800   0.979 -1.0282 -0.2212  0.8211
 5609WAT     H223143   4.527   7.687   0.902  0.3178 -0.0697  0.4453
 5609WAT    EPW23144   4.509   7.762   0.915  0.6152  0.1863  0.0077
 5610WAT      O23145   5.906   0.394   7.540  0.0546  0.5107 -0.3454
 5610WAT     H123146   5.875   0.324   7.583  0.0622  0.5837 -0.2199
 5610WAT     H223147   5.972   0.362   7.493 -1.4608 -0.0677 -2.2166
 5610WAT    EPW23148   5.911   0.379   7.540 -0.5628 -0.2050  0.0489
 5611WAT      O23149   3.676   0.099   7.892 -0.3397  0.1266  0.3069
 5611WAT     H123150   3.747   0.126   7.848 -0.6352  0.9180  0.3015
 5611WAT     H223151   3.698   0.111   7.975 -0.0513 -0.6938  0.3567
 5611WAT    EPW23152   3.690   0.105   7.898  0.6339  1.0176  0.0428
 5612WAT      O23153   4.549   7.895   7.432  0.1439  0.0076 -0.4236
 5612WAT     H123154   4.589   7.935   7.498  1.3360  0.6496 -1.4835
 5612WAT     H223155   4.544   7.812   7.459  0.5752  0.2598  0.4836
 5612WAT    EPW23156   4.554   7.888   7.446  0.2480  0.2746 -0.6253
 5613WAT      O23157   2.953   7.431   6.733  0.1595  0.2983  0.9895
 5613WAT     H123158   2.967   7.515   6.711  1.9846  0.0398  1.0005
 5613WAT     H223159   3.024   7.411   6.780  1.4896 -2.2014 -1.7842
 5613WAT    EPW23160   2.966   7.440   6.737 -0.1168 -0.5874 -0.4393
 5614WAT      O23161   5.323   1.048   0.562 -0.2851 -0.0254 -0.1234
 5614WAT     H123162   5.362   1.126   0.566  1.8854 -0.9870 -1.2324
 5614WAT     H223163   5.297   1.042   0.479 -1.4436 -0.0546  0.2281
 5614WAT    EPW23164   5.325   1.059   0.551 -0.5774 -0.3936  0.2724
 5615WAT      O23165   3.249   0.572   0.337  0.2879 -0.1470 -0.1686
 5615WAT     H123166   3.226   0.655   0.322 -3.2115 -0.9714 -0.4076
 5615WAT     H223167   3.247   0.536   0.258  1.6100 -0.5182 -0.0415
 5615WAT    EPW23168   3.245   0.579   0.323  0.4031 -1.2776 -0.0411
 5616WAT      O23169   3.001   7.388   7.164 -0.1302  0.2232 -0.4914
 5616WAT     H123170   2.940   7.326   7.157  0.2394 -0.1587 -0.3954
 5616WAT     H223171   2.959   7.461   7.143 -0.7097  0.0158 -0.0689
 5616WAT    EPW23172   2.986   7.389   7.160  0.7191  0.6349  0.3738
 5617WAT      O23173   4.233   7.579   7.631  0.0996  0.1698 -0.6926
 5617WAT     H123174   4.177   7.627   7.678 -0.4363 -0.0514 -1.0944
 5617WAT     H223175   4.284   7.542   7.692 -0.3116  0.2289 -0.3045
 5617WAT    EPW23176   4.232   7.581   7.647 -0.3016  0.2610 -0.0108
 5618WAT      O23177   5.622   6.988   5.687  0.2272 -0.3051  0.2395
 5618WAT     H123178   5.673   7.045   5.644 -0.0207 -0.7994 -0.7143
 5618WAT     H223179   5.664   6.978   5.763  0.6053  0.6667  0.1803
 5618WAT    EPW23180   5.636   6.995   5.692  0.3817 -0.1926  0.1558
 5619WAT      O23181   4.734   0.621   5.272 -0.3662 -0.5871 -0.1947
 5619WAT     H123182   4.749   0.599   5.355 -0.5612 -0.2551 -0.0697
 5619WAT     H223183   4.798   0.581   5.228  1.7380  1.8557  0.4562
 5619WAT    EPW23184   4.745   0.612   5.278  0.1675  0.5574  0.8768
 5620WAT      O23185   4.992   7.625   4.984 -0.1719  0.3132  0.0990
 5620WAT     H123186   5.029   7.704   4.975  1.3294 -0.2784  0.6479
 5620WAT     H223187   5.028   7.595   5.057 -1.0585 -0.7212  0.1293
 5620WAT    EPW23188   5.003   7.632   4.994  0.3656  0.5760  0.1787
 5621WAT      O23189   4.915   0.781   4.739  0.7586 -0.0672 -0.5116
 5621WAT     H123190   4.837   0.786   4.699  0.0309  0.6992  0.9133
 5621WAT     H223191   4.946   0.704   4.713 -0.4591 -0.3739 -1.1596
 5621WAT    EPW23192   4.908   0.771   4.730 -0.0821 -0.3487  0.0928
 5622WAT      O23193   5.535   0.064   5.320 -0.3968 -0.7555 -0.3195
 5622WAT     H123194   5.567   0.013   5.257 -0.0845 -0.7121 -0.1952
 5622WAT     H223195   5.539   0.015   5.392  1.1823 -0.1128  0.0783
 5622WAT    EPW23196   5.540   0.049   5.321 -0.0522  0.4688 -0.5036
 5623WAT      O23197   1.883   7.391   6.224 -0.4820  0.0216 -0.6913
 5623WAT     H123198   1.964   7.370   6.200  0.1495  0.5980  0.8293
 5623WAT     H223199   1.851   7.433   6.155  0.3273 -0.6508 -1.4997
 5623WAT    EPW23200   1.890   7.394   6.210 -0.2546 -0.1094  0.0010
 5624WAT      O23201   3.896   0.194   4.020 -0.2324  0.1311 -0.4505
 5624WAT     H123202   3.956   0.166   4.078 -1.6902  1.4082  1.8034
 5624WAT     H223203   3.821   0.162   4.051 -1.0343  0.6095 -1.8278
 5624WAT    EPW23204   3.894   0.185   4.033 -1.0047  0.5760  0.2998
 5625WAT      O23205   3.331   7.674   4.768  0.2932 -0.2183  0.0885
 5625WAT     H123206   3.310   7.720   4.696 -0.0345  0.0618  0.3589
 5625WAT     H223207   3.369   7.603   4.736 -0.4518 -0.4139 -0.3947
 5625WAT    EPW23208   3.334   7.670   4.753 -0.5582  0.2246 -0.2213
 5626WAT      O23209   3.726   6.909   6.817 -0.3942  0.1248  0.3648
 5626WAT     H123210   3.659   6.933   6.867 -0.8000 -0.3998  0.0903
 5626WAT     H223211   3.702   6.937   6.737 -0.3119 -0.1146  0.2568
 5626WAT    EPW23212   3.712   6.917   6.812  0.0663 -0.7431 -0.0038
 5627WAT      O23213   3.882   0.410   7.426 -0.4725 -0.1349  0.1256
 5627WAT     H123214   3.838   0.339   7.450 -0.4349 -0.2486 -0.1332
 5627WAT     H223215   3.947   0.378   7.377 -1.7253  0.2010 -1.8690
 5627WAT    EPW23216   3.885   0.395   7.422  0.6893 -0.1829 -0.8511
 5628WAT      O23217   3.105   7.078   4.233 -0.1529 -0.5248  0.5389
 5628WAT     H123218   3.065   7.047   4.304 -1.8201 -1.8457 -0.8905
 5628WAT     H223219   3.148   7.009   4.203 -1.5209 -0.7237 -1.0862
 5628WAT    EPW23220   3.106   7.063   4.239  0.5185 -1.0056  0.1116
 5629WAT      O23221   4.933   6.439   7.634 -0.2534 -0.5450  0.5896
 5629WAT     H123222   5.006   6.470   7.670  0.3182  0.0945 -1.0265
 5629WAT     H223223   4.919   6.364   7.676  2.6866 -1.9205 -0.6546
 5629WAT    EPW23224   4.941   6.433   7.645 -0.0209  0.3817 -0.3203
 5630WAT      O23225   4.299   6.136   4.875 -0.1540 -0.1515  0.4046
 5630WAT     H123226   4.279   6.209   4.919 -0.4830 -0.3330  0.5609
 5630WAT     H223227   4.342   6.166   4.805 -1.1910  0.2791 -0.0728
 5630WAT    EPW23228   4.302   6.152   4.871  0.4012 -0.2535 -1.1541
 5631WAT      O23229   4.520   0.353   5.915  0.2836  0.3589  0.3743
 5631WAT     H123230   4.513   0.268   5.897 -0.5569  0.8274 -1.8646
 5631WAT     H223231   4.602   0.361   5.945  0.3966 -1.2179  0.5442
 5631WAT    EPW23232   4.531   0.342   5.917 -0.7914  0.3050  0.0791
 5632WAT      O23233   2.849   7.012   4.944 -0.0505  0.0654  0.8747
 5632WAT     H123234   2.880   6.954   5.003  0.7791  1.7967  2.2429
 5632WAT     H223235   2.890   7.086   4.966  1.2372  0.5684 -2.6720
 5632WAT    EPW23236   2.860   7.014   4.956  0.6354 -0.3025  0.2509
 5633WAT      O23237   2.185   7.342   5.464 -0.2085  0.1057  0.2594
 5633WAT     H123238   2.257   7.293   5.463 -0.2211  0.0823 -1.1744
 5633WAT     H223239   2.122   7.286   5.485 -0.2185 -0.5160 -1.3306
 5633WAT    EPW23240   2.187   7.327   5.467  0.3739  0.4699  0.0747
 5634WAT      O23241   3.517   6.574   6.998 -0.1773 -0.0079 -0.1260
 5634WAT     H123242   3.470   6.578   6.924  0.9662 -1.1281 -0.9412
 5634WAT     H223243   3.599   6.586   6.972  0.2483 -0.3819  0.9722
 5634WAT    EPW23244   3.522   6.576   6.983 -0.5227  0.1988 -0.4692
 5635WAT      O23245   4.775   7.008   5.542 -0.1877 -0.3086  0.3294
 5635WAT     H123246   4.716   7.071   5.528  0.2185 -0.1946 -1.0282
 5635WAT     H223247   4.744   6.966   5.612 -0.1933  1.7038  1.6480
 5635WAT    EPW23248   4.762   7.011   5.550  0.2676 -0.4170  0.3677
 5636WAT      O23249   2.727   6.713   6.030  0.7513  0.3285  0.0810
 5636WAT     H123250   2.690   6.782   5.992 -0.5641 -0.7043 -0.5722
 5636WAT     H223251   2.665   6.652   6.028  1.5274 -0.5679  1.5848
 5636WAT    EPW23252   2.712   6.715   6.024 -0.6150  0.0937 -0.2026
 5637WAT      O23253   4.579   0.630   5.654 -0.0637  0.1115  0.0147
 5637WAT     H123254   4.638   0.572   5.626 -0.1755 -0.8030  1.5578
 5637WAT     H223255   4.503   0.600   5.623  0.2786  2.0153 -3.1424
 5637WAT    EPW23256   4.577   0.617   5.645  0.0412  0.1905 -0.6107
 5638WAT      O23257   2.744   6.751   4.223  0.1628 -0.0616 -0.5944
 5638WAT     H123258   2.684   6.688   4.215  2.1163 -2.0757 -0.1625
 5638WAT     H223259   2.763   6.771   4.140 -0.4549 -0.0221 -0.7361
 5638WAT    EPW23260   2.738   6.745   4.210  0.2121 -0.4676 -0.1345
 5639WAT      O23261   3.284   0.358   7.012  0.1783 -0.0611  0.4949
 5639WAT     H123262   3.356   0.350   6.964  0.5280  0.6045  0.8857
 5639WAT     H223263   3.244   0.428   6.978  0.4547  0.4484  1.1749
 5639WAT    EPW23264   3.289   0.367   7.000  0.6660  0.7924 -0.2524
 5640WAT      O23265   4.643   0.850   6.317  0.3512  0.1539  0.1182
 5640WAT     H123266   4.611   0.922   6.280 -0.5700  0.2575  1.0833
 5640WAT     H223267   4.698   0.881   6.377 -0.5032  0.0754  0.9461
 5640WAT    EPW23268   4.647   0.865   6.320 -0.3207 -0.4069 -0.8650
 5641WAT      O23269   3.284   7.961   7.361  0.0594  0.3747 -0.0992
 5641WAT     H123270   3.219   8.015   7.383 -0.2283  0.1590 -0.3967
 5641WAT     H223271   3.249   7.881   7.374 -0.2002  0.2272 -1.4636
 5641WAT    EPW23272   3.269   7.957   7.366 -0.3366 -0.4291  0.1699
 5642WAT      O23273   4.296   0.691   5.303 -0.8822 -0.0649  0.5066
 5642WAT     H123274   4.335   0.620   5.334 -0.5958 -0.0876  0.1022
 5642WAT     H223275   4.342   0.757   5.336 -0.0099 -0.0997 -0.5714
 5642WAT    EPW23276   4.308   0.690   5.312 -0.3626 -0.3514 -0.6902
 5643WAT      O23277   4.007   6.855   5.204  0.0021  0.3731  0.1331
 5643WAT     H123278   3.959   6.797   5.159 -0.8195  0.0225  1.4065
 5643WAT     H223279   4.082   6.812   5.218  0.3117  0.5264 -0.9537
 5643WAT    EPW23280   4.011   6.840   5.199  0.1474  0.0435 -0.7911
 5644WAT      O23281   4.275   7.839   5.011  0.2696 -0.1771  0.2767
 5644WAT     H123282   4.201   7.795   5.022  0.0956  0.0869  0.1938
 5644WAT     H223283   4.254   7.898   4.950  0.0590  0.9730  1.3959
 5644WAT    EPW23284   4.261   7.841   5.004  0.6151  1.1226 -0.0056
 5645WAT      O23285   3.985   6.513   4.775 -0.0516  0.1441 -0.1866
 5645WAT     H123286   4.029   6.473   4.711 -2.3127 -0.5004 -1.4642
 5645WAT     H223287   3.981   6.596   4.749  0.8018  0.3225  0.2084
 5645WAT    EPW23288   3.991   6.519   4.762  0.4070 -0.3111 -1.0185
 5646WAT      O23289   5.742   0.406   5.211  0.0231 -0.3835  0.6945
 5646WAT     H123290   5.669   0.413   5.258 -1.0452 -1.2207 -0.7638
 5646WAT     H223291   5.760   0.320   5.213  0.3933 -0.3219  0.2234
 5646WAT    EPW23292   5.734   0.394   5.218 -0.5098 -0.3996  0.2316
 5647WAT      O23293   2.862   5.828   4.692  0.1366  0.3833  0.3873
 5647WAT     H123294   2.883   5.858   4.613  1.8248  0.3686  0.7984
 5647WAT     H223295   2.882   5.744   4.688 -0.6929  0.1690  0.5457
 5647WAT    EPW23296   2.868   5.820   4.680 -0.1338  0.1909 -0.7889
 5648WAT      O23297   3.582   0.738   7.438  0.0891 -0.0719  0.4411
 5648WAT     H123298   3.520   0.798   7.435 -0.7959 -1.0048 -1.8357
 5648WAT     H223299   3.565   0.695   7.512 -0.1582  1.4975  1.3300
 5648WAT    EPW23300   3.570   0.740   7.449  0.0005  0.1451  1.2922
 5649WAT      O23301   3.917   6.883   5.989  0.8039  0.3874 -0.0025
 5649WAT     H123302   3.835   6.873   5.960  0.7816 -2.9364  0.7441
 5649WAT     H223303   3.960   6.817   5.951  2.6179  0.7509  1.2797
 5649WAT    EPW23304   3.911   6.872   5.979  0.9487  0.3218  0.5470
 5650WAT      O23305   3.015   5.949   7.301 -0.3372 -0.4165 -0.0096
 5650WAT     H123306   3.061   6.010   7.259 -1.8510 -0.6416 -2.1963
 5650WAT     H223307   2.960   5.920   7.240 -0.3302 -3.3182  1.2007
 5650WAT    EPW23308   3.014   5.954   7.286  0.7996 -0.9101  0.5475
 5651WAT      O23309   2.962   7.331   4.749 -0.3151 -0.1346  0.2222
 5651WAT     H123310   3.041   7.349   4.717  0.2347 -0.7315  1.1920
 5651WAT     H223311   2.920   7.407   4.745  0.8677  0.6065  1.2284
 5651WAT    EPW23312   2.968   7.345   4.744  0.1558 -0.0035  0.5998
 5652WAT      O23313   4.470   7.996   6.313  0.0824 -0.5119 -0.2031
 5652WAT     H123314   4.431   7.980   6.237  0.5636  0.0285 -0.5682
 5652WAT     H223315   4.547   8.030   6.290 -0.7427  2.0860  0.5002
 5652WAT    EPW23316   4.476   7.999   6.298  0.0300  1.4086  0.4811
 5653WAT      O23317   6.096   0.382   4.321  0.0747  0.1614 -0.2195
 5653WAT     H123318   6.104   0.442   4.258  0.4947 -0.1966 -0.5156
 5653WAT     H223319   6.113   0.307   4.280  1.6342  0.0359  0.5708
 5653WAT    EPW23320   6.100   0.380   4.306  0.5403  0.1718  0.2894
 5654WAT      O23321   4.121   7.715   5.381 -0.6298 -0.8270  0.4070
 5654WAT     H123322   4.042   7.690   5.353  0.9206 -1.2529 -4.6966
 5654WAT     H223323   4.125   7.799   5.356 -0.6080  0.4237  4.0727
 5654WAT    EPW23324   4.110   7.724   5.373  0.3499  0.2292 -0.6541
 5655WAT      O23325   3.456   5.919   6.555  0.8451 -0.2605  0.0036
 5655WAT     H123326   3.539   5.919   6.585  0.6319  0.1432  0.6189
 5655WAT     H223327   3.442   6.002   6.532  0.5145 -0.2602  0.1933
 5655WAT    EPW23328   3.466   5.931   6.556 -0.5506 -0.4721 -0.6955
 5656WAT      O23329   5.508   6.973   6.917  0.3946  0.1418 -0.0859
 5656WAT     H123330   5.561   7.022   6.967  0.4430 -0.1488  0.1487
 5656WAT     H223331   5.428   7.002   6.937  0.2143 -1.4851  1.8789
 5656WAT    EPW23332   5.504   6.985   6.927  0.4515 -0.3344  0.8154
 5657WAT      O23333   3.257   7.063   3.540 -0.1979  0.8310  0.1914
 5657WAT     H123334   3.225   7.136   3.575  1.5960  0.6539  2.4609
 5657WAT     H223335   3.269   7.011   3.610  0.3488 -0.9115 -1.1325
 5657WAT    EPW23336   3.254   7.066   3.556  0.1788 -0.4957 -1.0471
 5658WAT      O23337   2.902   7.604   4.764  0.4089  0.5166  0.0831
 5658WAT     H123338   2.949   7.647   4.823 -0.4713  0.8154  0.5909
 5658WAT     H223339   2.927   7.638   4.688  0.6371  1.0242  0.3862
 5658WAT    EPW23340   2.913   7.615   4.761 -0.0682 -0.8087 -0.2134
 5659WAT      O23341   5.057   7.210   6.805 -0.2984  0.1491 -0.1248
 5659WAT     H123342   5.066   7.239   6.887  1.2688  0.1029 -0.2387
 5659WAT     H223343   5.022   7.277   6.762 -1.9218 -0.1085  0.7268
 5659WAT    EPW23344   5.053   7.224   6.811  0.4401 -0.9936  0.2525
 5660WAT      O23345   1.698   7.023   5.506  0.1262 -0.1903  0.0021
 5660WAT     H123346   1.668   6.941   5.508 -1.2288  0.2986  1.0467
 5660WAT     H223347   1.681   7.048   5.424 -0.7083 -0.5254  0.0601
 5660WAT    EPW23348   1.691   7.015   5.494 -0.5182  0.6233 -0.6811
 5661WAT      O23349   5.021   6.682   6.721 -0.8651 -0.0712 -0.6097
 5661WAT     H123350   5.008   6.767   6.734 -0.4987 -0.4659  3.4540
 5661WAT     H223351   4.960   6.644   6.771  0.5769 -2.1335 -0.2878
 5661WAT    EPW23352   5.010   6.689   6.730  0.0933  0.2767 -0.4331
 5662WAT      O23353   3.694   7.692   3.741 -0.7884 -0.1744 -0.6025
 5662WAT     H123354   3.635   7.633   3.715 -0.5978  0.2959 -2.1933
 5662WAT     H223355   3.770   7.657   3.717 -0.5786  0.1886 -0.4804
 5662WAT    EPW23356   3.696   7.678   3.734  0.7105 -0.1125  0.9432
 5663WAT      O23357   5.169   7.902   4.517  0.2172 -0.1162  0.5711
 5663WAT     H123358   5.173   7.927   4.433 -3.0312  1.9167  0.8485
 5663WAT     H223359   5.232   7.948   4.555  0.6660  0.1754 -0.4916
 5663WAT    EPW23360   5.179   7.912   4.510  0.9490  0.2804  1.0027
 5664WAT      O23361   3.347   0.401   6.447 -0.1666  0.0291  0.2784
 5664WAT     H123362   3.324   0.440   6.522 -0.1427 -1.5971  1.1678
 5664WAT     H223363   3.347   0.316   6.467  0.6454 -0.3941 -1.3528
 5664WAT    EPW23364   3.344   0.395   6.461 -0.0413 -0.0425 -0.2566
 5665WAT      O23365   4.197   0.604   5.794  0.6569  0.1957  0.1178
 5665WAT     H123366   4.220   0.543   5.736  0.5870  0.3964 -0.1241
 5665WAT     H223367   4.127   0.570   5.833 -0.8294  1.0801 -1.6267
 5665WAT    EPW23368   4.190   0.590   5.791 -0.0297 -0.4968 -0.0878
 5666WAT      O23369   3.210   7.291   6.961 -0.2791  0.1369  0.3191
 5666WAT     H123370   3.258   7.250   7.021 -0.1639 -1.8585 -1.0768
 5666WAT     H223371   3.138   7.314   7.006 -0.0392 -0.9654  1.3070
 5666WAT    EPW23372   3.206   7.289   6.977  0.0152 -0.5051  0.0619
 5667WAT      O23373   5.073   7.126   4.704 -0.8849 -0.1878 -0.5295
 5667WAT     H123374   5.084   7.143   4.789 -2.4645 -0.1698 -0.3118
 5667WAT     H223375   5.145   7.159   4.667 -0.7619  0.9307  0.6599
 5667WAT    EPW23376   5.086   7.134   4.711 -1.2198 -0.1135 -0.7648
 5668WAT      O23377   4.443   0.462   5.389 -0.3730  0.1978  0.6792
 5668WAT     H123378   4.387   0.444   5.454 -2.9862  0.2679 -1.4021
 5668WAT     H223379   4.417   0.410   5.325 -0.4177  2.7533 -1.5603
 5668WAT    EPW23380   4.431   0.452   5.389 -0.0206  0.1241  0.0523
 5669WAT      O23381   3.395   7.637   5.167  0.0984  0.2339  0.4128
 5669WAT     H123382   3.368   7.559   5.195  0.4399  0.5428  1.6884
 5669WAT     H223383   3.330   7.691   5.190  0.6464  0.5883  1.1889
 5669WAT    EPW23384   3.381   7.634   5.175 -0.7726  0.0072 -0.1227
 5670WAT      O23385   4.002   0.472   5.958 -0.1871 -0.4037 -0.0048
 5670WAT     H123386   3.987   0.524   6.025 -1.2122 -1.5060  0.6698
 5670WAT     H223387   3.942   0.495   5.899  0.9245  0.7914 -0.7333
 5670WAT    EPW23388   3.991   0.483   5.959  0.4990  0.3352  0.9498
 5671WAT      O23389   5.049   0.509   0.866  0.9122  0.2408  0.4234
 5671WAT     H123390   5.081   0.431   0.843  1.1611  0.5177 -0.1898
 5671WAT     H223391   5.029   0.546   0.790  1.2630  0.9731  0.6776
 5671WAT    EPW23392   5.051   0.503   0.852  0.1201  0.2348 -0.6430
 5672WAT      O23393   4.493   6.325   6.257  0.2325 -0.7344  0.7490
 5672WAT     H123394   4.568   6.366   6.243  0.7188 -2.3038 -2.0177
 5672WAT     H223395   4.433   6.381   6.226  0.2099  0.3687  2.6432
 5672WAT    EPW23396   4.495   6.340   6.250 -0.3905 -0.0034  0.5462
 5673WAT      O23397   1.794   6.654   6.260  0.1566  0.3765  0.0935
 5673WAT     H123398   1.809   6.641   6.345  2.2868 -0.0322 -0.2863
 5673WAT     H223399   1.802   6.740   6.251  1.4781  0.2631  0.0684
 5673WAT    EPW23400   1.797   6.665   6.271 -0.1322 -0.8792 -0.3363
 5674WAT      O23401   3.789   0.310   6.468  0.1526  0.8254  0.5825
 5674WAT     H123402   3.766   0.325   6.550  0.5670  2.5821  0.4048
 5674WAT     H223403   3.853   0.367   6.453  0.7769 -0.1463 -0.6654
 5674WAT    EPW23404   3.795   0.320   6.478  0.7371  0.7777 -0.4544
 5675WAT      O23405   4.671   7.743   6.937  0.5769 -0.3600  0.1651
 5675WAT     H123406   4.706   7.792   7.000 -0.3135 -0.6901  0.9442
 5675WAT     H223407   4.590   7.775   6.929 -0.1077 -1.7908  0.8505
 5675WAT    EPW23408   4.664   7.755   6.945 -0.0992  0.5407  0.3180
 5676WAT      O23409   3.444   7.969   5.876  0.2251 -0.4461 -0.2825
 5676WAT     H123410   3.382   7.915   5.903  0.7683 -1.8899 -1.7510
 5676WAT     H223411   3.505   7.962   5.938  0.0879 -1.1745 -0.2160
 5676WAT    EPW23412   3.444   7.960   5.889  0.6111  0.0091 -0.7607
 5677WAT      O23413   1.844   7.416   4.105  0.3044 -0.0262 -0.1483
 5677WAT     H123414   1.771   7.437   4.148 -0.0600 -1.0380 -0.2392
 5677WAT     H223415   1.853   7.480   4.047  0.6486  1.2137  1.2174
 5677WAT    EPW23416   1.835   7.428   4.102  0.6302  0.4936  0.0828
 5678WAT      O23417   2.678   0.410   5.073  0.0365  0.1283 -0.0455
 5678WAT     H123418   2.745   0.375   5.116 -1.0100  0.9227  2.3810
 5678WAT     H223419   2.620   0.344   5.068 -0.7758  0.6448  1.9393
 5678WAT    EPW23420   2.679   0.395   5.078 -0.2091  0.3860 -0.0808
 5679WAT      O23421   4.242   7.415   5.542 -0.2297  0.2884 -0.4021
 5679WAT     H123422   4.312   7.420   5.594 -0.1839  0.8745 -0.5093
 5679WAT     H223423   4.184   7.370   5.589 -0.0912  0.5746  0.0509
 5679WAT    EPW23424   4.244   7.409   5.557  0.2423 -0.2620  0.1822
 5680WAT      O23425   3.982   0.074   6.691 -0.4420  0.0606 -0.1390
 5680WAT     H123426   3.930   0.033   6.747  1.0035  0.1146  1.3269
 5680WAT     H223427   3.942   0.064   6.614 -0.9165 -2.7880  0.3848
 5680WAT    EPW23428   3.969   0.067   6.688 -0.0430 -0.3396 -0.1982
 5681WAT      O23429   4.463   0.047   5.912 -0.2813 -0.1029 -0.3804
 5681WAT     H123430   4.521   0.016   5.854  1.1687  1.4946  0.1201
 5681WAT     H223431   4.441  -0.023   5.959 -0.5303 -1.1863 -2.0447
 5681WAT    EPW23432   4.469   0.032   5.910  0.1761 -0.7593 -0.2684
 5682WAT      O23433   3.156   0.111   7.644  0.1033  0.1694  0.4702
 5682WAT     H123434   3.182   0.195   7.643 -1.7926  0.7982 -0.6443
 5682WAT     H223435   3.139   0.094   7.560  2.6789 -2.1422  0.2982
 5682WAT    EPW23436   3.157   0.121   7.631 -0.7703  0.3722 -0.5365
 5683WAT      O23437   5.785   7.919   3.972 -0.4637  0.2522  0.2859
 5683WAT     H123438   5.805   7.997   4.006  0.6132 -0.0331  0.3255
 5683WAT     H223439   5.845   7.907   3.911 -0.9407 -0.3274 -0.0779
 5683WAT    EPW23440   5.797   7.929   3.968  0.0240 -0.2749 -0.7943
 5684WAT      O23441   5.643   7.603   6.290 -0.1910 -0.4109  0.3270
 5684WAT     H123442   5.632   7.690   6.291  1.7168 -0.1297  0.0846
 5684WAT     H223443   5.684   7.587   6.365 -0.6350 -1.1301  0.4224
 5684WAT    EPW23444   5.647   7.614   6.301  0.9752 -0.0698  0.1959
 5685WAT      O23445   3.441   6.946   5.553 -0.0085 -0.0714  0.3492
 5685WAT     H123446   3.404   6.887   5.605 -0.6940 -0.6892 -0.8062
 5685WAT     H223447   3.409   6.927   5.474 -1.5398  2.8717  0.1518
 5685WAT    EPW23448   3.431   6.934   5.549  0.5335  0.0193 -0.2504
 5686WAT      O23449   4.702   6.956   7.502  0.1550  0.3965 -0.4463
 5686WAT     H123450   4.722   6.872   7.517 -2.2483 -0.1857 -0.2052
 5686WAT     H223451   4.752   6.998   7.560  1.4363 -0.8290 -0.5812
 5686WAT    EPW23452   4.713   6.949   7.513 -0.5977 -1.5365  0.7032
 5687WAT      O23453   3.855   7.361   4.098  0.0852  0.0968 -0.3073
 5687WAT     H123454   3.795   7.324   4.149 -1.3909  2.2555 -0.3299
 5687WAT     H223455   3.909   7.400   4.154  2.1140 -2.5629 -0.2446
 5687WAT    EPW23456   3.854   7.361   4.114 -1.3301  0.0608  0.6004
 5688WAT      O23457   3.490   0.500   7.542 -0.1957 -0.1014  0.0155
 5688WAT     H123458   3.535   0.459   7.604 -0.4466 -0.1480  0.1671
 5688WAT     H223459   3.490   0.443   7.476 -1.9325 -1.0827  0.7668
 5688WAT    EPW23460   3.496   0.486   7.541  0.5268  0.3201 -0.0051
 5689WAT      O23461   2.546   0.188   7.316 -0.4935 -1.0727 -0.1565
 5689WAT     H123462   2.528   0.266   7.351 -0.9604 -0.9110 -0.7378
 5689WAT     H223463   2.472   0.143   7.327 -1.0813 -0.6296 -1.9549
 5689WAT    EPW23464   2.533   0.193   7.323  0.7110  0.7836 -0.2501
 5690WAT      O23465   4.120   7.794   6.356 -0.5533 -0.3212 -0.3804
 5690WAT     H123466   4.153   7.859   6.404 -0.2421 -0.8881  0.1976
 5690WAT     H223467   4.093   7.833   6.283  2.3993  0.0580 -1.3977
 5690WAT    EPW23468   4.121   7.809   6.352  0.0873  0.4631 -0.0086
 5691WAT      O23469   5.558   0.525   0.213 -0.2145 -0.4152 -0.1826
 5691WAT     H123470   5.528   0.451   0.248  1.8863 -2.0465 -1.6155
 5691WAT     H223471   5.552   0.582   0.279  0.4178 -2.4966  1.8032
 5691WAT    EPW23472   5.552   0.523   0.228  0.2931 -0.4058 -0.1662
 5692WAT      O23473   3.457   6.150   6.195  0.4345  0.0029 -0.3493
 5692WAT     H123474   3.500   6.078   6.170  1.8700 -1.0611  4.2422
 5692WAT     H223475   3.519   6.198   6.234 -1.1905  2.1259 -0.2350
 5692WAT    EPW23476   3.473   6.147   6.197  0.3184 -0.6035  0.1836
 5693WAT      O23477   4.093   7.724   7.820  0.1705  0.1768  0.3497
 5693WAT     H123478   4.059   7.798   7.788 -0.0042  0.0006  0.1215
 5693WAT     H223479   4.165   7.751   7.862 -0.2257  0.5544  0.8027
 5693WAT    EPW23480   4.098   7.739   7.822 -0.0518  0.0030  0.6970
 5694WAT      O23481   4.766   6.355   6.161  0.0752  0.3064  0.0163
 5694WAT     H123482   4.806   6.326   6.089 -0.4973  0.4506 -0.3699
 5694WAT     H223483   4.791   6.439   6.165 -1.2477  0.7948 -1.0139
 5694WAT    EPW23484   4.776   6.363   6.151  0.2091 -0.5123 -0.6256
 5695WAT      O23485   4.634   7.056   7.233  0.4273  0.3992 -0.3505
 5695WAT     H123486   4.650   7.017   7.310  2.1007  0.7416 -0.4794
 5695WAT     H223487   4.614   6.990   7.180  1.4846 -0.1045 -0.1440
 5695WAT    EPW23488   4.633   7.041   7.237  0.1121  0.4537  0.4656
 5696WAT      O23489   2.196   7.501   7.091  0.0591 -0.5122  0.2727
 5696WAT     H123490   2.277   7.487   7.118 -0.0695 -0.1228  0.8630
 5696WAT     H223491   2.168   7.421   7.068  0.4982 -0.6931  0.3583
 5696WAT    EPW23492   2.203   7.487   7.091  1.1533  0.4683  0.5084
 5697WAT      O23493   4.651   0.254   5.482  0.7799  0.0335  0.4748
 5697WAT     H123494   4.582   0.202   5.492  0.8830 -0.7578 -2.1329
 5697WAT     H223495   4.616   0.331   5.460  0.6922 -0.0721  0.2399
 5697WAT    EPW23496   4.636   0.257   5.480  0.4415 -0.3852 -0.6734
 5698WAT      O23497   3.359   0.035   6.238 -0.1947 -0.4175 -0.3762
 5698WAT     H123498   3.432  -0.010   6.220  0.4694  0.4019  0.1664
 5698WAT     H223499   3.322   0.046   6.160  1.7634  1.6429 -1.1565
 5698WAT    EPW23500   3.365   0.030   6.224  0.2698  0.0361  0.6912
 5699WAT      O23501   4.160   0.111   5.509 -0.1402 -0.5336 -0.1367
 5699WAT     H123502   4.114   0.056   5.458 -1.1659  1.0018 -0.9552
 5699WAT     H223503   4.174   0.180   5.457 -3.5000  2.2965  2.2069
 5699WAT    EPW23504   4.155   0.113   5.494  0.0944 -0.5480  0.3698
 5700WAT      O23505   5.382   7.966   6.666  0.3286 -0.0765 -0.1918
 5700WAT     H123506   5.324   7.942   6.727 -0.6795  2.4642 -0.0372
 5700WAT     H223507   5.459   7.950   6.704 -0.2807  0.7149  1.4978
 5700WAT    EPW23508   5.384   7.960   6.681 -2.1426 -0.3197 -0.1009
 5701WAT      O23509   5.359   8.034   5.679 -0.2341 -0.2858  0.0504
 5701WAT     H123510   5.398   7.987   5.617 -1.2794  0.1199 -0.9502
 5701WAT     H223511   5.407   8.106   5.684  2.2352 -1.8722  2.5763
 5701WAT    EPW23512   5.371   8.037   5.671  0.3563  0.1054  0.2487
 5702WAT      O23513   4.946   0.254   6.314  0.6504 -0.3968 -0.0187
 5702WAT     H123514   4.921   0.203   6.379 -0.9273  0.2809 -0.0489
 5702WAT     H223515   4.944   0.334   6.348 -0.0005 -0.0541 -0.8109
 5702WAT    EPW23516   4.942   0.259   6.328  0.9855 -0.5419 -0.2524
 5703WAT      O23517   5.449   7.700   5.903 -0.2035 -0.5389 -0.3841
 5703WAT     H123518   5.533   7.686   5.885  0.3057  0.6283  0.8725
 5703WAT     H223519   5.408   7.678   5.830  1.3145 -0.0513 -1.4375
 5703WAT    EPW23520   5.455   7.695   5.890 -0.1369  0.4146 -0.5960
 5704WAT      O23521   5.120   5.638   6.192  0.5735 -0.1573  0.4743
 5704WAT     H123522   5.043   5.677   6.179 -0.4232 -1.1474  2.8819
 5704WAT     H223523   5.135   5.597   6.116  1.2318  3.8584 -1.8556
 5704WAT    EPW23524   5.111   5.638   6.179  0.7476 -0.1683 -0.5352
 5705WAT      O23525   5.151   1.122   5.056 -0.3114 -0.1435  0.0903
 5705WAT     H123526   5.116   1.159   5.127  0.5930 -0.6388  0.8151
 5705WAT     H223527   5.143   1.183   4.995  0.6738  1.0656  1.1265
 5705WAT    EPW23528   5.145   1.136   5.057 -0.6180 -0.9107 -0.6229
 5706WAT      O23529   2.635   8.029   0.101 -0.1572  0.1048  0.3393
 5706WAT     H123530   2.671   7.964   0.054 -2.3759  0.3361 -1.8708
 5706WAT     H223531   2.603   8.083   0.040  0.7241  2.8193  2.1274
 5706WAT    EPW23532   2.635   8.027   0.085 -0.7831  0.1370 -0.3278
 5707WAT      O23533   3.793   7.641   5.568  0.7481 -0.4315 -0.4269
 5707WAT     H123534   3.780   7.703   5.507  1.4746  1.1436  0.9526
 5707WAT     H223535   3.718   7.640   5.612  0.4353 -1.1563 -0.9567
 5707WAT    EPW23536   3.780   7.650   5.565  0.0981 -0.5955  0.0719
 5708WAT      O23537   5.324   1.026   7.173  0.2472  0.5037 -0.1692
 5708WAT     H123538   5.385   1.027   7.235  0.5331  1.8142 -0.4261
 5708WAT     H223539   5.348   1.092   7.120 -0.5838  0.1093 -1.0695
 5708WAT    EPW23540   5.337   1.036   7.174  0.4430 -0.6420 -0.1303
 5709WAT      O23541   6.476   7.637   7.372 -0.0383  0.2574  0.0554
 5709WAT     H123542   6.439   7.692   7.316  1.3348  1.2610  0.0612
 5709WAT     H223543   6.503   7.571   7.321 -0.8715  0.0299 -0.0966
 5709WAT    EPW23544   6.475   7.636   7.356  0.8718 -0.0996 -0.1675
 5710WAT      O23545   4.278   0.096   0.188  0.0388  0.2973 -0.3514
 5710WAT     H123546   4.240   0.038   0.135 -0.9011  3.0377 -3.0010
 5710WAT     H223547   4.216   0.115   0.246 -1.3064  1.6560 -2.1051
 5710WAT    EPW23548   4.263   0.090   0.189 -0.0785  0.2252 -1.4270
 5711WAT      O23549   2.740   0.853   4.822 -0.2975 -0.9120  0.1273
 5711WAT     H123550   2.739   0.766   4.822 -0.0312 -0.9228  0.9025
 5711WAT     H223551   2.723   0.873   4.905  0.6364 -0.2388  0.1628
 5711WAT    EPW23552   2.737   0.843   4.834 -0.0960 -0.0089 -0.3861
 5712WAT      O23553   3.423   0.343   5.971  0.4495 -0.1521  0.5692
 5712WAT     H123554   3.443   0.285   5.909 -0.8682 -1.1095  1.0032
 5712WAT     H223555   3.501   0.368   6.001  1.0608 -1.3856  0.0783
 5712WAT    EPW23556   3.438   0.338   5.966 -0.0189 -0.1167  0.5186
 5713WAT      O23557   5.194   7.318   5.554  0.2289  0.5715  0.1779
 5713WAT     H123558   5.278   7.341   5.561 -0.0535  3.4366 -3.1823
 5713WAT     H223559   5.155   7.365   5.617  0.8657  1.6260 -0.1905
 5713WAT    EPW23560   5.200   7.329   5.565  0.0297 -0.3785 -0.5450
 5714WAT      O23561   3.766   6.087   0.195 -0.7407 -0.0568 -0.5026
 5714WAT     H123562   3.740   6.162   0.231 -0.0320  0.0468 -0.2028
 5714WAT     H223563   3.825   6.111   0.136  1.1748 -0.4957  1.1288
 5714WAT    EPW23564   3.771   6.102   0.191 -0.4441  0.1596  0.6289
 5715WAT      O23565   3.913   6.346   6.585 -0.0878 -0.3950  0.1956
 5715WAT     H123566   3.839   6.387   6.606 -0.3760 -0.9520  0.2770
 5715WAT     H223567   3.886   6.277   6.539  0.4220 -0.2183 -0.3848
 5715WAT    EPW23568   3.898   6.342   6.581 -0.1876 -0.1786  0.3786
 5716WAT      O23569   3.386   0.263   0.235 -0.4191 -0.2791 -0.2913
 5716WAT     H123570   3.390   0.240   0.319 -2.8658 -1.3515 -0.3812
 5716WAT     H223571   3.459   0.228   0.201 -0.7890 -2.3469  0.8751
 5716WAT    EPW23572   3.398   0.254   0.242 -0.9736 -0.1968 -0.0217
 5717WAT      O23573   3.224   7.042   4.622 -0.4735 -0.5636 -0.2916
 5717WAT     H123574   3.146   7.023   4.588 -0.5435  0.9639 -1.0735
 5717WAT     H223575   3.264   6.964   4.627 -1.4245 -1.1568 -1.4348
 5717WAT    EPW23576   3.219   7.027   4.618 -0.7717  0.1333 -0.6222
 5718WAT      O23577   4.726   7.348   5.653  0.4554  0.1214  0.0369
 5718WAT     H123578   4.735   7.296   5.723 -0.1152  0.4096  0.3272
 5718WAT     H223579   4.696   7.294   5.591 -0.3867  0.1475  0.4084
 5718WAT    EPW23580   4.723   7.332   5.654 -0.8775  0.5396 -0.7621
 5719WAT      O23581   3.386   6.893   5.281  0.3443  0.3486  0.5056
 5719WAT     H123582   3.321   6.898   5.223  0.8113 -1.1593 -0.2069
 5719WAT     H223583   3.429   6.968   5.269 -1.5449  1.6592  1.4120
 5719WAT    EPW23584   3.383   6.905   5.270 -0.6919 -0.4322 -0.1721
 5720WAT      O23585   5.983   0.775   7.041 -0.2380 -0.2692 -0.3315
 5720WAT     H123586   6.023   0.750   7.115 -0.8940 -2.2225 -0.5736
 5720WAT     H223587   5.990   0.862   7.042 -1.2186 -0.1278  2.5878
 5720WAT    EPW23588   5.990   0.784   7.052 -1.4266 -0.2217 -0.0854
 5721WAT      O23589   5.515   0.041   7.168  0.0476 -0.0235 -0.7276
 5721WAT     H123590   5.515   0.016   7.251  0.4248 -0.6073 -0.8968
 5721WAT     H223591   5.431   0.034   7.144  0.1225 -1.0065 -0.7328
 5721WAT    EPW23592   5.503   0.036   7.176  0.0011 -0.0873 -0.2498
 5722WAT      O23593   4.761   1.152   5.021 -0.2993 -0.2257  0.1329
 5722WAT     H123594   4.803   1.161   5.097  1.1695  1.3150 -0.7938
 5722WAT     H223595   4.772   1.067   5.002  0.4608 -0.3369  0.9819
 5722WAT    EPW23596   4.769   1.140   5.030  0.4182  0.6017 -0.0510
 5723WAT      O23597   3.273   0.509   5.810 -0.1394  0.1764  0.0525
 5723WAT     H123598   3.310   0.580   5.775 -0.9156  0.1059 -0.9511
 5723WAT     H223599   3.341   0.465   5.841  0.4161  1.0670  0.1427
 5723WAT    EPW23600   3.289   0.513   5.809 -0.1866 -0.3207 -0.6416
 5724WAT      O23601   4.307   0.852   7.113  0.4849 -0.5701 -0.0298
 5724WAT     H123602   4.304   0.765   7.110  0.0105 -0.6097  0.9115
 5724WAT     H223603   4.275   0.877   7.036 -2.5112 -1.2432  0.8507
 5724WAT    EPW23604   4.302   0.843   7.101  0.2479 -0.1628 -0.1958
 5725WAT      O23605   4.623   5.868   6.215  0.5576 -0.3569 -0.1949
 5725WAT     H123606   4.590   5.909   6.146 -1.5368 -1.1022  0.2722
 5725WAT     H223607   4.606   5.923   6.281 -0.7324 -1.1831  0.1921
 5725WAT    EPW23608   4.615   5.882   6.215 -0.0362 -0.0622  0.0229
 5726WAT      O23609   4.071   7.981   7.508  0.0257  0.6348  0.0468
 5726WAT     H123610   4.154   8.004   7.494  0.3065  1.2465  2.2764
 5726WAT     H223611   4.067   7.899   7.478  1.5483  0.4932  0.1569
 5726WAT    EPW23612   4.083   7.972   7.502  0.4849  0.9159 -1.1529
 5727WAT      O23613   4.693   7.355   4.764  0.2300 -0.2196 -0.0616
 5727WAT     H123614   4.649   7.289   4.798  0.6761 -0.2559  0.4645
 5727WAT     H223615   4.743   7.318   4.703  0.8574 -0.4519  0.5845
 5727WAT    EPW23616   4.694   7.340   4.760 -0.4696 -0.6669 -0.1521
 5728WAT      O23617   4.254   7.162   6.646 -0.1854 -0.4309  0.1628
 5728WAT     H123618   4.228   7.090   6.686  0.7906 -0.6224  0.4633
 5728WAT     H223619   4.243   7.225   6.706 -0.9926 -0.3208 -0.0850
 5728WAT    EPW23620   4.248   7.161   6.660 -0.9610 -0.0407 -0.1450
 5729WAT      O23621   4.300   7.005   7.032 -0.1080  0.1224  0.1717
 5729WAT     H123622   4.292   7.092   7.037  0.0409  0.0613  1.9505
 5729WAT     H223623   4.246   6.976   7.094  0.7659 -0.9949  0.4363
 5729WAT    EPW23624   4.290   7.014   7.042  0.1112  0.3223  0.4241
 5730WAT      O23625   5.126   0.097   5.747 -0.0861 -0.2333 -0.0189
 5730WAT     H123626   5.203   0.058   5.737  0.6207  1.0714  0.0649
 5730WAT     H223627   5.072   0.032   5.770  0.6011 -1.4486 -1.6926
 5730WAT    EPW23628   5.129   0.082   5.749  0.4329  0.3822 -0.5187
 5731WAT      O23629   4.134   0.086   6.296 -0.3682 -0.2890  0.2834
 5731WAT     H123630   4.053   0.069   6.324 -0.5833  2.1461  1.3888
 5731WAT     H223631   4.120   0.125   6.218 -0.7574  3.9427  2.1892
 5731WAT    EPW23632   4.120   0.090   6.288  0.3349  0.3614 -0.0559
 5732WAT      O23633   5.493   7.349   5.574  0.1840 -0.1329 -0.3573
 5732WAT     H123634   5.534   7.425   5.590 -2.3779  0.9570  1.6695
 5732WAT     H223635   5.559   7.293   5.562  2.2300  1.8837  0.6068
 5732WAT    EPW23636   5.509   7.352   5.574 -0.7927  0.2551 -0.0413
 5733WAT      O23637   4.342   0.375   6.141 -0.3783 -0.3984  0.6183
 5733WAT     H123638   4.384   0.399   6.069  0.7169  1.1129  1.6943
 5733WAT     H223639   4.278   0.324   6.112 -1.3617  1.9286 -1.6459
 5733WAT    EPW23640   4.339   0.371   6.126  0.0044 -0.2197 -0.2823
 5734WAT      O23641   4.844   1.029   0.440  0.9135  0.6948  0.0526
 5734WAT     H123642   4.924   1.047   0.469  0.6441  0.6179  0.8672
 5734WAT     H223643   4.798   1.018   0.513  0.4435 -0.5345 -0.4011
 5734WAT    EPW23644   4.849   1.030   0.455 -0.2881  0.3901 -1.0884
 5735WAT      O23645   4.837   7.418   0.200 -0.6067  0.0020  0.0267
 5735WAT     H123646   4.864   7.337   0.219 -0.0034  0.8670  3.6301
 5735WAT     H223647   4.900   7.469   0.233 -1.7232  1.9999 -0.7250
 5735WAT    EPW23648   4.851   7.414   0.208  0.1873  0.3919 -0.6830
 5736WAT      O23649   5.382   7.908   6.369 -0.1294  0.6725  0.0780
 5736WAT     H123650   5.372   7.954   6.442 -1.9101  1.4295 -0.5677
 5736WAT     H223651   5.330   7.839   6.381 -0.5624  0.8824 -0.5141
 5736WAT    EPW23652   5.372   7.904   6.382  0.1030  0.1801 -0.0794
 5737WAT      O23653   3.245   7.673   7.456  0.5501  0.2221  0.5932
 5737WAT     H123654   3.276   7.670   7.537 -2.2374  1.3583  1.8458
 5737WAT     H223655   3.211   7.594   7.443 -1.8452  0.9436  1.9035
 5737WAT    EPW23656   3.245   7.661   7.466 -0.2039  0.0871  0.1213
 5738WAT      O23657   5.375   7.544   6.601 -0.2824 -0.3266 -0.0021
 5738WAT     H123658   5.346   7.467   6.629 -1.1426  0.2091  0.6281
 5738WAT     H223659   5.444   7.523   6.552 -1.5673 -1.6295 -1.3404
 5738WAT    EPW23660   5.381   7.530   6.598 -0.6194  0.0481 -0.3031
 5739WAT      O23661   3.315   7.321   2.608 -0.0262 -0.8491 -0.7730
 5739WAT     H123662   3.229   7.322   2.593 -0.2607  0.5605  0.4139
 5739WAT     H223663   3.320   7.314   2.695  0.9818  1.0569 -0.6313
 5739WAT    EPW23664   3.303   7.320   2.619  0.6419  0.0640 -1.2488
 5740WAT      O23665   3.771   6.525   3.688 -0.4427 -0.4543 -0.3862
 5740WAT     H123666   3.715   6.467   3.656  1.1871 -0.8424 -2.7625
 5740WAT     H223667   3.830   6.535   3.624  2.6886 -0.6822  2.2254
 5740WAT    EPW23668   3.771   6.518   3.674 -0.4428 -0.7460  0.1529
 5741WAT      O23669   2.751   7.537   1.229  0.0250  0.3115  0.1552
 5741WAT     H123670   2.787   7.587   1.291 -0.4002 -0.0200  0.6846
 5741WAT     H223671   2.814   7.529   1.169  0.1650  1.3166  0.1476
 5741WAT    EPW23672   2.766   7.543   1.229  1.2261 -1.2349 -0.1637
 5742WAT      O23673   3.469   0.139   3.130  0.6325 -0.0057  0.0796
 5742WAT     H123674   3.391   0.100   3.130  0.9364 -0.6135 -0.3014
 5742WAT     H223675   3.500   0.124   3.051  0.5892  1.3749 -0.2216
 5742WAT    EPW23676   3.462   0.131   3.119 -0.4509  0.1122 -0.3226
 5743WAT      O23677   5.071   7.024   4.044  0.0904 -0.6253  0.2055
 5743WAT     H123678   4.996   6.980   4.034  0.3314 -1.9804  3.2447
 5743WAT     H223679   5.130   6.973   4.006 -0.2672 -0.3212 -0.8064
 5743WAT    EPW23680   5.069   7.010   4.037  0.7583  0.0783  0.0621
 5744WAT      O23681   4.638   6.859   3.331 -0.8385 -0.3710  0.8089
 5744WAT     H123682   4.669   6.931   3.292 -1.1292 -0.5342  0.2670
 5744WAT     H223683   4.698   6.841   3.392 -1.5650  1.2717  2.0793
 5744WAT    EPW23684   4.652   6.867   3.334  0.6633 -0.1738 -0.3159
 5745WAT      O23685   3.091   7.909   1.513 -0.4407 -0.1845 -0.0080
 5745WAT     H123686   3.100   7.988   1.549  1.1487 -1.3161  2.3575
 5745WAT     H223687   3.172   7.876   1.514 -1.4046 -2.8664  1.7886
 5745WAT    EPW23688   3.104   7.916   1.519 -0.3062  1.2053  0.0796
 5746WAT      O23689   3.719   0.428   2.953  0.1488 -0.3509  0.0696
 5746WAT     H123690   3.715   0.404   3.036  0.5003 -0.5000  0.0436
 5746WAT     H223691   3.765   0.365   2.915 -1.2708 -1.0631 -0.5343
 5746WAT    EPW23692   3.725   0.415   2.960  0.2136  0.0488  0.1883
 5747WAT      O23693   3.154   0.077   3.068  0.1008  0.0420  0.2223
 5747WAT     H123694   3.073   0.108   3.081 -0.1456  0.0333 -1.1969
 5747WAT     H223695   3.154   0.002   3.113 -1.2598 -0.8143 -1.1330
 5747WAT    EPW23696   3.142   0.070   3.077 -0.4865 -0.6601  0.0598
 5748WAT      O23697   3.406   7.357   3.419  0.0831 -0.1081 -0.5901
 5748WAT     H123698   3.445   7.279   3.413  2.2993  0.7189  1.5221
 5748WAT     H223699   3.327   7.337   3.450  0.1932 -1.5683 -1.1264
 5748WAT    EPW23700   3.400   7.342   3.423 -0.5890 -0.8032  0.3797
 5749WAT      O23701   3.112   6.009   4.475  0.5086  0.1185  0.7618
 5749WAT     H123702   3.163   5.953   4.431  2.2298  0.6350  2.0046
 5749WAT     H223703   3.044   6.021   4.421 -0.0764 -3.2861  0.5101
 5749WAT    EPW23704   3.110   6.002   4.460 -0.2449 -0.4109 -0.1984
 5750WAT      O23705   4.070   0.302   3.801 -0.0283  0.4781 -0.0992
 5750WAT     H123706   4.012   0.294   3.736 -0.7845  0.1577  0.5988
 5750WAT     H223707   4.026   0.272   3.871  0.8803  0.5213  0.4955
 5750WAT    EPW23708   4.055   0.296   3.801 -0.5184  1.1588 -0.1973
 5751WAT      O23709   3.852   6.402   4.208  0.2507  0.1357 -0.4421
 5751WAT     H123710   3.896   6.329   4.227 -1.3995 -0.7093  0.4625
 5751WAT     H223711   3.849   6.402   4.121  0.8878 -0.4916 -0.4783
 5751WAT    EPW23712   3.858   6.391   4.198 -0.4833 -1.6270  0.2062
 5752WAT      O23713   2.742   7.387   2.197  0.2425  0.0112 -0.2880
 5752WAT     H123714   2.826   7.402   2.213 -0.2402  0.4937  2.3664
 5752WAT     H223715   2.742   7.307   2.162  1.7643 -0.3043  0.3518
 5752WAT    EPW23716   2.754   7.377   2.194 -0.2891 -0.8799 -0.5007
 5753WAT      O23717   3.513   7.793   3.426  0.2100  0.1133  0.0648
 5753WAT     H123718   3.451   7.748   3.468  0.1637  1.1565  1.1458
 5753WAT     H223719   3.542   7.736   3.366 -0.2030 -1.1785  1.0500
 5753WAT    EPW23720   3.508   7.778   3.423  0.3557 -0.2902  0.8653
 5754WAT      O23721   4.064   6.577   3.751  0.0182 -0.2871  1.2814
 5754WAT     H123722   4.082   6.516   3.691 -2.9532 -0.8094  0.7908
 5754WAT     H223723   4.085   6.651   3.710  0.9610 -0.8004  0.7893
 5754WAT    EPW23724   4.070   6.579   3.736 -0.7973 -0.1490 -0.4652
 5755WAT      O23725   3.494   5.951   4.898  0.0035  0.1236  0.2300
 5755WAT     H123726   3.578   5.931   4.889 -0.4143 -1.3484 -0.6347
 5755WAT     H223727   3.455   5.907   4.834 -1.6608 -0.8924  1.8320
 5755WAT    EPW23728   3.500   5.942   4.887 -0.2109  0.5568 -0.3020
 5756WAT      O23729   5.642   7.285   5.173  0.3109 -0.6818  0.0028
 5756WAT     H123730   5.667   7.301   5.091  1.1308  0.1180  0.3986
 5756WAT     H223731   5.563   7.248   5.163  0.5144 -0.8412 -1.1516
 5756WAT    EPW23732   5.634   7.282   5.160 -0.4955  0.2624 -0.0578
 5757WAT      O23733   2.036   6.943   3.629  0.6524 -0.4182  0.0713
 5757WAT     H123734   1.963   6.910   3.595  0.3909 -0.1371  0.3513
 5757WAT     H223735   2.030   6.922   3.714  0.6820 -0.0140  0.1744
 5757WAT    EPW23736   2.024   6.935   3.637 -0.0937 -0.2292  0.4697
 5758WAT      O23737   4.208   7.554   3.698  0.3686  0.1199 -0.2662
 5758WAT     H123738   4.137   7.583   3.657  1.3342  2.0478 -0.7148
 5758WAT     H223739   4.188   7.472   3.719 -1.6295  0.3220 -1.1596
 5758WAT    EPW23740   4.195   7.546   3.695  0.6293 -0.8287  0.1506
 5759WAT      O23741   3.339   6.972   3.304  0.3350 -0.8914  0.7125
 5759WAT     H123742   3.331   7.018   3.377 -0.9996  0.4426 -0.2027
 5759WAT     H223743   3.346   6.890   3.332  0.0491 -0.4006  2.3403
 5759WAT    EPW23744   3.339   6.966   3.319  1.2321  0.1779 -0.9568
 5760WAT      O23745   6.041   7.904   2.269 -0.4897  0.2895  0.2747
 5760WAT     H123746   6.022   7.982   2.303 -0.1743  0.3492  0.3165
 5760WAT     H223747   5.989   7.899   2.198 -1.6484 -0.1248  1.1212
 5760WAT    EPW23748   6.031   7.914   2.263 -0.7653 -1.1686  0.0816
 5761WAT      O23749   4.471   7.162   3.480 -0.3561 -0.3631  0.4166
 5761WAT     H123750   4.549   7.125   3.487 -1.1412 -2.3888 -0.5076
 5761WAT     H223751   4.481   7.222   3.417  0.2507 -1.2636 -0.3704
 5761WAT    EPW23752   4.484   7.165   3.472 -0.0592 -0.6416 -0.4548
 5762WAT      O23753   2.583   7.012   5.026  0.3120 -0.0900 -0.0752
 5762WAT     H123754   2.652   6.996   4.975  0.0372  1.1088 -0.8549
 5762WAT     H223755   2.532   7.062   4.976  0.2767  1.5755  1.5408
 5762WAT    EPW23756   2.585   7.017   5.011 -0.9832 -0.2719 -0.5959
 5763WAT      O23757   4.636   7.406   1.974  0.2156 -0.3500 -0.3322
 5763WAT     H123758   4.652   7.329   2.011  0.6501  0.8250  2.1379
 5763WAT     H223759   4.570   7.439   2.021 -0.1565  0.6800 -1.5117
 5763WAT    EPW23760   4.629   7.399   1.986  0.3565  0.0143  0.0440
 5764WAT      O23761   2.461   7.480   1.553 -0.2098 -0.5246  0.2983
 5764WAT     H123762   2.389   7.484   1.502 -0.2274  0.1931  0.3606
 5764WAT     H223763   2.429   7.461   1.632 -0.2319 -1.1499  0.1446
 5764WAT    EPW23764   2.446   7.478   1.557 -0.0269 -0.1368 -0.0527
 5765WAT      O23765   3.521   6.801   4.380  0.0354 -0.4456 -0.4774
 5765WAT     H123766   3.436   6.816   4.374 -0.0241 -0.6448 -0.1327
 5765WAT     H223767   3.530   6.719   4.350  0.2414 -0.0705 -1.4851
 5765WAT    EPW23768   3.510   6.791   4.374 -0.0811 -0.2760 -0.9664
 5766WAT      O23769   4.210   7.998   3.112  0.3054 -0.3449  0.0214
 5766WAT     H123770   4.269   8.027   3.170 -0.9558 -0.5050  1.4498
 5766WAT     H223771   4.256   7.991   3.038  1.9068  0.1795  0.9104
 5766WAT    EPW23772   4.226   8.002   3.110 -0.5746 -0.0521  0.3448
 5767WAT      O23773   4.640   7.489   3.312  0.0042  0.7874 -0.4166
 5767WAT     H123774   4.706   7.433   3.322  0.2535  1.0939 -0.3240
 5767WAT     H223775   4.654   7.548   3.374 -1.3787 -0.1177  0.8242
 5767WAT    EPW23776   4.651   7.490   3.323  0.7054 -0.9945  0.1961
 5768WAT      O23777   3.011   7.539   1.099 -0.2427  0.0927  0.5018
 5768WAT     H123778   2.981   7.588   1.034  1.3521  0.3231 -0.1017
 5768WAT     H223779   3.088   7.574   1.118  0.7200 -1.8194  0.4163
 5768WAT    EPW23780   3.018   7.551   1.093 -0.3708  1.4342 -0.9430
 5769WAT      O23781   4.552   1.326   2.785 -0.0570  0.5395  0.0166
 5769WAT     H123782   4.521   1.274   2.721  2.9714 -1.2716 -0.1546
 5769WAT     H223783   4.589   1.392   2.741 -2.0146  1.8319  0.1740
 5769WAT    EPW23784   4.553   1.328   2.769 -0.4463  0.0997 -0.5980
 5770WAT      O23785   3.062   7.343   4.239 -0.5294  0.3612 -0.0639
 5770WAT     H123786   3.011   7.366   4.306  0.9865  0.1488  1.2133
 5770WAT     H223787   3.078   7.259   4.252  1.0035  0.6522  0.2074
 5770WAT    EPW23788   3.057   7.334   4.250  0.3892 -0.1133 -0.9156
 5771WAT      O23789   5.162   7.948   2.643  0.4584 -0.4006  0.4431
 5771WAT     H123790   5.121   7.912   2.711 -1.0105  0.7757  0.2368
 5771WAT     H223791   5.136   8.031   2.646  1.8910  0.0998 -0.4446
 5771WAT    EPW23792   5.152   7.955   2.653 -0.0602  0.4509 -0.4376
 5772WAT      O23793   3.240   7.329   4.656  0.4897  0.0639 -0.1439
 5772WAT     H123794   3.219   7.246   4.673 -1.0148  0.5555  0.4838
 5772WAT     H223795   3.312   7.341   4.704  0.7436 -0.8811 -0.2618
 5772WAT    EPW23796   3.248   7.318   4.666 -0.7804 -0.5149 -0.8038
 5773WAT      O23797   3.866   8.023   3.531 -0.1426 -0.0321  0.7316
 5773WAT     H123798   3.797   8.020   3.584  1.5659 -0.0294  3.0913
 5773WAT     H223799   3.918   7.960   3.560  0.5488 -0.6048 -1.5313
 5773WAT    EPW23800   3.864   8.013   3.543 -0.2905  0.3000  0.3039
 5774WAT      O23801   2.127   5.916   1.636  0.2335 -0.5667  0.6846
 5774WAT     H123802   2.212   5.935   1.626 -0.0412  1.2078  1.3664
 5774WAT     H223803   2.123   5.831   1.620  2.1152 -0.6448  0.4235
 5774WAT    EPW23804   2.139   5.906   1.632  0.1847 -0.0464 -0.4218
 5775WAT      O23805   3.881   7.039   2.422 -0.1018  0.4415  0.1368
 5775WAT     H123806   3.869   7.028   2.336 -1.4916  0.2930  0.3325
 5775WAT     H223807   3.886   6.958   2.453  0.6161  0.4960  0.1802
 5775WAT    EPW23808   3.880   7.026   2.414  0.8039  0.0201 -0.2438
 5776WAT      O23809   4.216   7.281   4.010 -0.4960 -0.0985 -0.1427
 5776WAT     H123810   4.159   7.262   4.074 -0.3630  1.1971  0.3784
 5776WAT     H223811   4.256   7.204   3.995  0.6636 -0.1310  2.5249
 5776WAT    EPW23812   4.214   7.267   4.017 -0.2299 -0.4096 -1.0358
 5777WAT      O23813   4.423   0.385   3.622 -0.5018  0.4707  0.5527
 5777WAT     H123814   4.507   0.363   3.630  0.2450  2.3456 -1.3298
 5777WAT     H223815   4.392   0.329   3.563  0.4353  1.9431 -1.4571
 5777WAT    EPW23816   4.430   0.373   3.615  0.7058  0.1883 -0.1092
 5778WAT      O23817   4.188   0.844   3.623  0.0907  0.1860  0.0149
 5778WAT     H123818   4.217   0.916   3.662 -2.8730  1.5674 -0.0546
 5778WAT     H223819   4.168   0.791   3.689 -0.8815  0.8167  0.2501
 5778WAT    EPW23820   4.190   0.847   3.638 -0.5692  0.3050 -0.0235
 5779WAT      O23821   4.033   7.956   2.382  0.1170 -0.0848 -0.0019
 5779WAT     H123822   4.105   7.974   2.336 -0.0206 -1.0105 -0.5937
 5779WAT     H223823   3.977   7.924   2.323  0.2285 -2.1063  0.8924
 5779WAT    EPW23824   4.035   7.954   2.367 -0.4359 -0.4150 -1.0260
 5780WAT      O23825   3.732   7.859   2.293 -0.1711  0.2684  0.0882
 5780WAT     H123826   3.762   7.779   2.276 -0.5508  0.6792 -2.9714
 5780WAT     H223827   3.765   7.877   2.372  1.2685 -2.2400  0.1536
 5780WAT    EPW23828   3.741   7.850   2.303 -0.3988 -0.2417  0.8265
 5781WAT      O23829   5.337   7.602   2.547  0.0235 -0.1880  0.4055
 5781WAT     H123830   5.377   7.679   2.551  0.6676 -0.4109 -1.2435
 5781WAT     H223831   5.256   7.619   2.576  0.1664  1.0964  0.0936
 5781WAT    EPW23832   5.331   7.616   2.552 -0.8517  0.2660  0.1853
 5782WAT      O23833   1.676   5.303   1.846  0.2215 -0.4097 -0.0769
 5782WAT     H123834   1.761   5.315   1.828 -0.0717 -1.1061 -2.1569
 5782WAT     H223835   1.639   5.377   1.819  0.2786  0.5823  2.3110
 5782WAT    EPW23836   1.683   5.316   1.839  0.3690 -0.4362 -0.7773
 5783WAT      O23837   3.797   7.173   4.641  0.0349  0.1832 -0.5127
 5783WAT     H123838   3.827   7.122   4.577  1.8604  1.8272 -1.0665
 5783WAT     H223839   3.735   7.220   4.601  0.6286  0.6625 -0.8844
 5783WAT    EPW23840   3.792   7.173   4.626  0.2762  0.5728 -0.2887
 5784WAT      O23841   3.940   0.392   1.866 -0.0921  0.0078 -0.1624
 5784WAT     H123842   3.928   0.478   1.856 -0.5088 -0.0186  0.0794
 5784WAT     H223843   4.017   0.377   1.827 -1.0980  0.0860 -2.3162
 5784WAT    EPW23844   3.950   0.402   1.859  0.0611 -0.4966 -0.4140
 5785WAT      O23845   3.578   7.087   2.402  0.1126  0.0357 -0.7519
 5785WAT     H123846   3.553   7.171   2.397  0.2385  0.2264  0.9392
 5785WAT     H223847   3.664   7.094   2.419  0.1136 -0.4384 -0.5713
 5785WAT    EPW23848   3.587   7.101   2.404 -0.3514  0.3090  0.2773
 5786WAT      O23849   2.845   7.417   4.409 -0.6016  0.1668  0.0817
 5786WAT     H123850   2.862   7.409   4.494 -1.3869  0.4333  0.2710
 5786WAT     H223851   2.829   7.503   4.400 -1.2612  0.0204 -0.1875
 5786WAT    EPW23852   2.845   7.429   4.420  0.0318  0.4015 -0.0789
 5787WAT      O23853   5.037   0.511   4.371  0.4013 -0.0246  0.5796
 5787WAT     H123854   4.953   0.503   4.348 -0.4256  0.5306  3.0704
 5787WAT     H223855   5.067   0.572   4.317 -0.3663 -1.1946 -1.2779
 5787WAT    EPW23856   5.029   0.519   4.359  0.0004 -0.2690 -1.3717
 5788WAT      O23857   4.097   6.360   3.582 -0.0192 -0.0623  0.2476
 5788WAT     H123858   4.046   6.341   3.514 -0.3195 -1.5196  0.8548
 5788WAT     H223859   4.172   6.320   3.563 -1.2185 -3.8472  2.3873
 5788WAT    EPW23860   4.101   6.352   3.569 -0.5270 -0.8649  0.2715
 5789WAT      O23861   4.568   6.830   3.900 -0.1437  0.2797  0.8702
 5789WAT     H123862   4.592   6.762   3.851 -1.0399  1.1665 -0.9009
 5789WAT     H223863   4.530   6.793   3.970  2.7507 -1.0576  1.8703
 5789WAT    EPW23864   4.566   6.814   3.903 -0.1007  0.3651  0.0539
 5790WAT      O23865   4.397   7.886   3.507 -0.4947 -0.1976  0.2343
 5790WAT     H123866   4.426   7.879   3.589 -1.8153 -2.3672  0.6123
 5790WAT     H223867   4.312   7.900   3.516 -0.6437 -0.3843 -0.7459
 5790WAT    EPW23868   4.389   7.887   3.520 -0.4358 -0.0546 -1.4027
 5791WAT      O23869   2.285   6.115   4.633 -0.4851 -0.3145 -0.0520
 5791WAT     H123870   2.236   6.184   4.651 -0.1960 -0.0711 -0.1957
 5791WAT     H223871   2.323   6.096   4.710  1.1274  1.0229 -0.4703
 5791WAT    EPW23872   2.283   6.122   4.647 -1.4018  0.3042  0.0456
 5792WAT      O23873   4.160   0.110   1.999 -0.4185  0.1698 -0.3528
 5792WAT     H123874   4.093   0.054   2.000 -0.5415  0.3080  1.1058
 5792WAT     H223875   4.202   0.092   2.073 -0.2822  1.8187 -0.0047
 5792WAT    EPW23876   4.157   0.099   2.010  0.5244 -0.3565 -1.1870
 5793WAT      O23877   3.004   7.428   2.319 -0.1072 -0.1539  0.4478
 5793WAT     H123878   3.017   7.381   2.391  2.1150  0.2068  0.3644
 5793WAT     H223879   3.085   7.450   2.294 -0.8398  0.2729 -1.8099
 5793WAT    EPW23880   3.018   7.424   2.326 -0.1541  0.1768 -0.5443
 5794WAT      O23881   4.374   7.382   3.289 -0.9341  0.2688 -1.1096
 5794WAT     H123882   4.442   7.433   3.308  1.3637 -3.7191  3.1469
 5794WAT     H223883   4.408   7.323   3.234 -0.0247 -2.7819  2.3623
 5794WAT    EPW23884   4.389   7.381   3.283 -0.7665  0.0637  0.3519
 5795WAT      O23885   4.821   6.802   4.901 -0.4789  0.1038 -0.0234
 5795WAT     H123886   4.858   6.817   4.824  0.0780  0.1178  0.2413
 5795WAT     H223887   4.848   6.721   4.921 -0.1553  0.3186  0.4171
 5795WAT    EPW23888   4.830   6.792   4.893 -0.2946 -0.1541 -0.0389
 5796WAT      O23889   2.846   0.126   2.485 -0.3674  0.1316 -0.0130
 5796WAT     H123890   2.833   0.045   2.516  0.6363  0.0634  0.2871
 5796WAT     H223891   2.932   0.127   2.468 -0.3439  1.1873  0.1237
 5796WAT    EPW23892   2.857   0.114   2.487  0.2803 -0.0485  0.0021
 5797WAT      O23893   4.271   1.060   3.750  0.2757 -0.2824  0.2087
 5797WAT     H123894   4.219   1.110   3.799 -0.0537 -1.1432  0.7631
 5797WAT     H223895   4.321   1.019   3.808  2.0019  0.9474 -0.3423
 5797WAT    EPW23896   4.271   1.062   3.766 -0.1553  0.4872  0.3568
 5798WAT      O23897   4.123   7.179   2.979 -0.3037  0.4443 -0.0701
 5798WAT     H123898   4.055   7.232   2.987 -0.4074  0.4488 -0.9131
 5798WAT     H223899   4.092   7.111   2.934  0.5881  1.1609 -1.8891
 5798WAT    EPW23900   4.109   7.177   2.973 -0.2652  0.4875 -0.8743
 5799WAT      O23901   4.738   7.083   3.209  0.3411 -0.5005  0.2473
 5799WAT     H123902   4.769   7.121   3.281  0.1782 -2.6417  1.5433
 5799WAT     H223903   4.810   7.071   3.160  0.3901  1.3736 -0.2078
 5799WAT    EPW23904   4.753   7.087   3.212 -0.0646 -1.0198 -0.1181
 5800WAT      O23905   2.927   7.486   1.896 -0.0536 -0.2045 -0.0329
 5800WAT     H123906   2.864   7.541   1.873  0.2007  0.5209  0.9350
 5800WAT     H223907   2.947   7.510   1.977  2.0103  0.0949 -0.5681
 5800WAT    EPW23908   2.921   7.497   1.905 -0.5369 -0.3731 -0.0449
 5801WAT      O23909   4.497   7.523   4.321 -0.2138 -0.1758  0.1243
 5801WAT     H123910   4.497   7.439   4.344  0.1456 -0.0474  0.6066
 5801WAT     H223911   4.428   7.530   4.268 -1.6292 -0.2946  1.8529
 5801WAT    EPW23912   4.487   7.512   4.316  0.3409 -0.0199 -0.0166
 5802WAT      O23913   3.765   0.369   3.228 -0.2180 -0.2572 -0.3694
 5802WAT     H123914   3.814   0.423   3.277 -0.8338  0.6597 -0.7199
 5802WAT     H223915   3.712   0.332   3.285  2.6188 -3.4597  0.5036
 5802WAT    EPW23916   3.764   0.372   3.243 -0.0125  0.4468  0.4460
 5803WAT      O23917   3.527   7.982   2.925 -0.4892 -0.0298 -0.5465
 5803WAT     H123918   3.538   7.955   2.843 -0.4245 -0.3148 -0.4470
 5803WAT     H223919   3.606   7.971   2.961 -0.4317  0.4126 -0.5370
 5803WAT    EPW23920   3.540   7.976   2.918  0.5333  0.2904 -0.9709
 5804WAT      O23921   2.798   0.421   2.584 -0.1218 -0.4816  0.0300
 5804WAT     H123922   2.783   0.400   2.501 -2.3435 -0.2654  0.3218
 5804WAT     H223923   2.859   0.364   2.609 -0.5920 -1.6093 -1.2787
 5804WAT    EPW23924   2.805   0.409   2.576  0.0242 -0.2757 -0.0536
 5805WAT      O23925   4.607   7.204   5.442 -0.4251 -0.8022  0.1188
 5805WAT     H123926   4.520   7.197   5.445 -0.4048 -0.8574  1.2474
 5805WAT     H223927   4.627   7.180   5.361 -1.4475 -1.0125 -0.0861
 5805WAT    EPW23928   4.597   7.199   5.431 -0.2230  0.5467 -0.1189
 5806WAT      O23929   3.472   7.037   2.148 -0.5903  0.0702  0.0720
 5806WAT     H123930   3.507   7.026   2.228 -0.3381 -0.9078 -0.1676
 5806WAT     H223931   3.463   7.124   2.142  1.7753  0.3831  0.1724
 5806WAT    EPW23932   3.476   7.048   2.159  0.2632  0.0794  0.7051
 5807WAT      O23933   5.333   7.410   3.804 -0.6826 -0.2710 -0.2670
 5807WAT     H123934   5.279   7.394   3.871  1.8645  0.0352  2.0531
 5807WAT     H223935   5.411   7.390   3.836  1.0089  2.5371 -2.2543
 5807WAT    EPW23936   5.336   7.404   3.819  0.2522  0.1317 -0.4170
 5808WAT      O23937   3.198   6.768   2.960 -0.3630  0.1564 -0.3013
 5808WAT     H123938   3.214   6.685   2.984  0.6613  0.1232 -0.9866
 5808WAT     H223939   3.278   6.800   2.944 -0.8411  0.7786 -1.6066
 5808WAT    EPW23940   3.212   6.760   2.961  0.3981  0.9030 -0.3750
 5809WAT      O23941   4.625   7.102   3.863  0.5057  0.4526  0.3018
 5809WAT     H123942   4.614   7.023   3.827  1.4651  0.7567 -0.7221
 5809WAT     H223943   4.570   7.152   3.819  1.6704  0.8222 -0.8093
 5809WAT    EPW23944   4.616   7.097   3.852  0.4694 -0.4667  0.1533
 5810WAT      O23945   3.209   0.057   2.793  0.1572 -0.2506  0.1751
 5810WAT     H123946   3.208   0.053   2.880 -1.8457  0.6343  0.2506
 5810WAT     H223947   3.188  -0.023   2.768  0.5428 -0.4590  0.5085
 5810WAT    EPW23948   3.206   0.045   2.802 -0.3181 -0.0127 -0.2906
 5811WAT      O23949   4.539   1.815   6.854  0.4801 -0.3046 -0.2104
 5811WAT     H123950   4.524   1.896   6.825 -1.9942 -0.9555 -0.9472
 5811WAT     H223951   4.601   1.786   6.800  0.0791  0.4956 -1.1316
 5811WAT    EPW23952   4.546   1.823   6.842  0.4848  0.2425 -0.7341
 5812WAT      O23953   5.350   7.693   4.110  0.2779  0.0116  0.2513
 5812WAT     H123954   5.348   7.640   4.179  1.3000  0.5669  0.7269
 5812WAT     H223955   5.433   7.687   4.082  0.3860  1.2675  0.2645
 5812WAT    EPW23956   5.362   7.684   4.116  0.4679  0.0773  0.1263
 5813WAT      O23957   4.976   7.069   3.049 -0.1774  0.0400 -0.8312
 5813WAT     H123958   5.021   7.133   3.008  0.7527  0.6592  1.0448
 5813WAT     H223959   5.031   7.001   3.046  0.9129  0.7357  1.2719
 5813WAT    EPW23960   4.991   7.068   3.042 -0.0946  0.4166 -0.1796
 5814WAT      O23961   4.280   7.524   4.890 -0.1395  0.1944  0.1194
 5814WAT     H123962   4.195   7.507   4.900 -0.7262 -0.2948 -3.8376
 5814WAT     H223963   4.281   7.580   4.823  2.6669  0.5964  0.3814
 5814WAT    EPW23964   4.267   7.530   4.881 -0.0430  0.1633 -1.1855
 5815WAT      O23965   3.062   6.425   4.261 -0.3407  0.3870 -0.1465
 5815WAT     H123966   3.115   6.377   4.312 -1.0085  0.8075  0.9685
 5815WAT     H223967   2.988   6.379   4.261 -0.7718  1.0797  0.3762
 5815WAT    EPW23968   3.059   6.411   4.269  0.1008 -0.2887 -0.9686
 5816WAT      O23969   4.881   1.346   3.022 -0.1540  0.1541 -0.7481
 5816WAT     H123970   4.827   1.293   3.066 -0.9705 -0.4219 -2.3894
 5816WAT     H223971   4.931   1.381   3.085 -0.4309 -1.5982  0.5043
 5816WAT    EPW23972   4.880   1.343   3.038  0.1923 -0.1065 -0.0601
 5817WAT      O23973   4.235   6.698   5.245 -0.3064 -0.2611  0.3928
 5817WAT     H123974   4.273   6.735   5.314 -2.0170  0.5207  0.9847
 5817WAT     H223975   4.299   6.655   5.206  0.9682  0.3079  1.7842
 5817WAT    EPW23976   4.250   6.697   5.249 -0.1129  0.1225 -0.5827
 5818WAT      O23977   4.636   6.291   3.978 -0.6384  0.2913  0.5816
 5818WAT     H123978   4.686   6.329   3.918 -0.2427  0.1124  0.7990
 5818WAT     H223979   4.693   6.257   4.034 -0.9458 -1.3698 -0.0473
 5818WAT    EPW23980   4.651   6.291   3.977 -0.5330  0.2675 -0.2970
 5819WAT      O23981   4.250   7.330   5.117 -0.6157 -1.0274  0.0289
 5819WAT     H123982   4.263   7.329   5.031  0.2978 -0.3281  0.1406
 5819WAT     H223983   4.265   7.413   5.139  0.1939 -1.4055  0.9948
 5819WAT    EPW23984   4.254   7.342   5.108  0.1407 -0.1200  0.3946
 5820WAT      O23985   5.074   7.831   3.489  0.5233  0.0089 -0.2499
 5820WAT     H123986   5.073   7.866   3.409  0.8171  1.3744  0.3068
 5820WAT     H223987   5.159   7.819   3.506  0.4852  0.0612 -0.0094
 5820WAT    EPW23988   5.086   7.835   3.480 -0.5129 -0.1612  0.3693
 5821WAT      O23989   4.293   0.581   2.120  0.7726 -0.1822  0.0472
 5821WAT     H123990   4.240   0.642   2.085 -0.1405 -1.3043 -0.6292
 5821WAT     H223991   4.238   0.528   2.162  1.5225 -0.6181  0.4966
 5821WAT    EPW23992   4.277   0.582   2.121 -0.7387 -0.0403 -0.3151
 5822WAT      O23993   3.306   7.811   2.932 -0.0202  0.4252 -0.0366
 5822WAT     H123994   3.277   7.780   3.008  0.5531 -2.0907 -0.7731
 5822WAT     H223995   3.374   7.861   2.955 -0.1757  0.1415  1.1227
 5822WAT    EPW23996   3.312   7.814   2.947 -0.1664 -0.7211  0.3281
 5823WAT      O23997   4.271   0.161   3.478  0.1934  0.1792 -0.7269
 5823WAT     H123998   4.188   0.160   3.450 -0.1441 -3.2991  0.0160
 5823WAT     H223999   4.315   0.124   3.412  0.8691  0.3793 -0.3950
 5823WAT    EPW24000   4.265   0.156   3.464  0.2349 -0.8460  0.2659
 5824WAT      O24001   4.500   7.938   3.772  0.4838  0.2506 -0.0633
 5824WAT     H124002   4.561   7.993   3.802  0.5155  0.1437  0.0658
 5824WAT     H224003   4.429   7.958   3.818  0.3005  0.6742 -0.5194
 5824WAT    EPW24004   4.499   7.949   3.783 -0.4776 -0.2802 -0.0796
 5825WAT      O24005   4.958   0.240   4.032  0.0577 -0.1745  0.6541
 5825WAT     H124006   5.031   0.268   4.070 -0.1704 -0.4340  1.3005
 5825WAT     H224007   4.982   0.164   3.997  0.4623  0.4220 -0.3866
 5825WAT    EPW24008   4.973   0.233   4.033  0.1650  0.5089  0.3027
 5826WAT      O24009   4.408   7.603   3.523 -0.2110  0.1826 -0.4281
 5826WAT     H124010   4.354   7.584   3.589  1.3737  2.6580  1.7970
 5826WAT     H224011   4.374   7.676   3.490  1.0657  1.1296  0.2650
 5826WAT    EPW24012   4.395   7.611   3.528 -0.1007 -0.2696 -0.0397
 5827WAT      O24013   5.385   6.589   3.357  0.0044  0.0827  0.4766
 5827WAT     H124014   5.355   6.530   3.300  0.6595  0.5750 -0.4130
 5827WAT     H224015   5.470   6.571   3.363 -0.3378 -1.0120  2.6203
 5827WAT    EPW24016   5.393   6.578   3.349 -0.7071 -0.1676  0.3268
 5828WAT      O24017   5.373   7.361   4.178 -0.1452 -0.1418  0.1238
 5828WAT     H124018   5.394   7.294   4.230  1.3959  0.4589  0.3262
 5828WAT     H224019   5.298   7.335   4.141 -0.3054 -1.3737  1.2304
 5828WAT    EPW24020   5.365   7.347   4.180 -0.0827 -0.1122 -1.1315
 5829WAT      O24021   3.048   6.719   3.810 -0.0952 -0.2603 -0.8283
 5829WAT     H124022   3.051   6.680   3.732  2.1551 -0.5580 -0.6732
 5829WAT     H224023   3.101   6.788   3.801  0.8390 -0.7319  0.5993
 5829WAT    EPW24024   3.057   6.723   3.797  0.0603 -0.0532 -1.0590
 5830WAT      O24025   1.645   6.818   3.056 -0.6870 -0.1340  0.2579
 5830WAT     H124026   1.677   6.771   2.990 -2.5805 -0.3914 -0.5494
 5830WAT     H224027   1.702   6.805   3.120  1.1766  0.0421 -1.2664
 5830WAT    EPW24028   1.658   6.810   3.055 -0.2301  0.0483 -0.6118
 5831WAT      O24029   4.550   0.236   5.161 -0.7093 -0.4125  0.0288
 5831WAT     H124030   4.637   0.240   5.171 -0.7066 -0.3733 -0.0075
 5831WAT     H224031   4.535   0.152   5.144 -0.6146 -0.3214 -0.5268
 5831WAT    EPW24032   4.561   0.224   5.160 -0.4230 -0.1741  0.1792
 5832WAT      O24033   2.863   7.068   3.963 -0.7240 -0.8153  0.3475
 5832WAT     H124034   2.895   7.092   4.040 -1.3575 -2.8303  1.3271
 5832WAT     H224035   2.796   7.122   3.951  1.4877  1.9547 -0.6574
 5832WAT    EPW24036   2.858   7.079   3.973 -0.1127  0.1748 -0.1993
 5833WAT      O24037   4.903   0.844   5.196 -0.4375  0.4527 -0.4783
 5833WAT     H124038   4.838   0.788   5.210  0.9816 -1.2443 -0.3099
 5833WAT     H224039   4.906   0.890   5.270  0.1876 -1.2464  0.6289
 5833WAT    EPW24040   4.894   0.842   5.209 -0.3408 -0.0763  0.7831
 5834WAT      O24041   4.465   7.662   3.857  0.1174 -0.3201 -0.1003
 5834WAT     H124042   4.501   7.734   3.822 -0.7048 -0.5563 -1.5283
 5834WAT     H224043   4.400   7.644   3.801 -0.8151 -1.1434  1.2219
 5834WAT    EPW24044   4.460   7.670   3.843 -0.1684  0.4874  0.2149
 5835WAT      O24045   4.016   7.868   4.040 -0.6746  0.3856  0.6590
 5835WAT     H124046   4.027   7.944   4.083  0.0486  0.1637  0.8859
 5835WAT     H224047   3.958   7.825   4.088 -0.7030  0.5886  0.8075
 5835WAT    EPW24048   4.009   7.873   4.053  0.1028  0.4842  0.1710
 5836WAT      O24049   5.339   7.163   2.791  0.6359  0.0265  0.0166
 5836WAT     H124050   5.343   7.106   2.724  1.2425  0.5884 -0.4422
 5836WAT     H224051   5.390   7.229   2.764  1.0311  0.1812  1.1159
 5836WAT    EPW24052   5.347   7.164   2.777 -0.1991  0.3677  0.1494
 5837WAT      O24053   2.399   5.978   4.414 -0.0382 -0.7091  0.4803
 5837WAT     H124054   2.355   5.904   4.429  1.2892 -1.1852  2.2965
 5837WAT     H224055   2.387   6.024   4.487  0.4856  0.1748  0.0227
 5837WAT    EPW24056   2.391   5.974   4.427 -0.2993 -0.5654 -1.2096
 5838WAT      O24057   5.319   7.710   4.874  0.7528  0.0407  0.4006
 5838WAT     H124058   5.249   7.757   4.898  0.9223 -0.1780  1.3431
 5838WAT     H224059   5.293   7.673   4.799  0.5614  1.4906 -0.3030
 5838WAT    EPW24060   5.305   7.712   4.866  0.2175  0.8659 -0.0673
 5839WAT      O24061   2.714   0.184   4.260 -0.4759 -0.6546 -0.6222
 5839WAT     H124062   2.769   0.250   4.276  0.8307 -1.9001  0.2720
 5839WAT     H224063   2.642   0.206   4.304  1.2486 -1.5195  2.9970
 5839WAT    EPW24064   2.712   0.197   4.269 -0.0653  0.0115 -0.1997
 5840WAT      O24065   3.455   6.882   2.901 -0.0898  0.0267 -0.2777
 5840WAT     H124066   3.464   6.955   2.948  0.1576 -0.2414  0.0902
 5840WAT     H224067   3.430   6.912   2.822 -1.1505  0.4384  0.1933
 5840WAT    EPW24068   3.452   6.897   2.896  0.7005 -0.2051 -0.9779
 5841WAT      O24069   3.803   0.251   4.887  0.0572 -0.0647 -0.5691
 5841WAT     H124070   3.836   0.186   4.935 -0.1913 -0.5658 -1.0650
 5841WAT     H224071   3.834   0.323   4.925  0.4251 -0.4803 -0.0794
 5841WAT    EPW24072   3.813   0.252   4.900 -0.1817  0.8588 -0.2251
 5842WAT      O24073   3.260   6.759   4.563 -0.3251  0.3904  0.0508
 5842WAT     H124074   3.205   6.693   4.578  0.4862 -1.5918 -4.1412
 5842WAT     H224075   3.334   6.732   4.602 -0.4527 -0.3723 -0.2143
 5842WAT    EPW24076   3.263   6.745   4.571  0.1468 -0.2334 -0.7971
 5843WAT      O24077   6.884   7.209   2.666 -0.5888 -0.7509 -0.2267
 5843WAT     H124078   6.905   7.144   2.720  0.5713 -0.7628 -0.6517
 5843WAT     H224079   6.959   7.225   2.624 -0.8817  0.7861 -0.2118
 5843WAT    EPW24080   6.898   7.201   2.667 -0.8326  0.7081  0.0241
 5844WAT      O24081   4.473   0.220   3.922 -0.5796  0.4535  0.0343
 5844WAT     H124082   4.505   0.295   3.889 -0.6895  0.9832  1.0783
 5844WAT     H224083   4.419   0.192   3.860  0.9069  0.2105 -1.2249
 5844WAT    EPW24084   4.470   0.227   3.908 -0.9662  0.0067 -0.1842
 5845WAT      O24085   4.429   1.629   3.338  0.1687 -0.4805  0.3792
 5845WAT     H124086   4.394   1.551   3.357  0.5981 -0.8175 -0.1909
 5845WAT     H224087   4.377   1.661   3.277 -1.0886  0.5126  1.8926
 5845WAT    EPW24088   4.416   1.622   3.332  0.7899 -1.0425  0.0007
 5846WAT      O24089   3.858   7.984   4.370 -0.1935  0.6073  0.0734
 5846WAT     H124090   3.849   7.898   4.358  1.6814  0.4142 -0.2778
 5846WAT     H224091   3.859   8.016   4.288 -1.3695  1.0464  0.2130
 5846WAT    EPW24092   3.857   7.976   4.356  0.4109 -0.2630  0.3071
 5847WAT      O24093   5.081   0.747   4.177  0.2421  0.2614 -0.1344
 5847WAT     H124094   5.012   0.784   4.140 -0.0154 -0.1503 -0.0694
 5847WAT     H224095   5.118   0.813   4.221 -1.2245  0.0887  1.4760
 5847WAT    EPW24096   5.077   0.762   4.178  0.8683  0.5533  0.2707
 5848WAT      O24097   5.983   6.766   4.391  0.0747 -0.9150  0.8345
 5848WAT     H124098   5.951   6.696   4.350 -0.4696  0.6123 -1.5981
 5848WAT     H224099   6.027   6.808   4.328  1.2837  0.4102  2.4644
 5848WAT    EPW24100   5.985   6.762   4.376  0.0129  0.5479 -0.0465
 5849WAT      O24101   4.998   7.600   4.355 -0.1347  0.7231  0.1835
 5849WAT     H124102   5.084   7.614   4.359 -0.2296  1.4925 -0.2610
 5849WAT     H224103   4.971   7.614   4.437  0.3818 -1.2152  0.7318
 5849WAT    EPW24104   5.007   7.604   4.368  0.1028  0.1744 -0.3258
 5850WAT      O24105   4.673   6.666   2.642  0.1377  0.0779 -0.5430
 5850WAT     H124106   4.633   6.730   2.686 -0.5066  1.2333 -2.6920
 5850WAT     H224107   4.696   6.609   2.705  1.0548  2.5410  1.5087
 5850WAT    EPW24108   4.670   6.667   2.658  0.0815 -0.6420  1.0105
 5851WAT      O24109   5.285   6.429   3.572 -0.1665 -0.3080  0.5887
 5851WAT     H124110   5.347   6.368   3.566  0.4941  0.3934  0.1072
 5851WAT     H224111   5.305   6.485   3.507 -0.0444  1.0612  1.7527
 5851WAT    EPW24112   5.297   6.428   3.561  0.3287  0.6003  0.0530
 5852WAT      O24113   4.384   7.472   2.128  0.2270 -0.1835  0.1031
 5852WAT     H124114   4.421   7.503   2.201  2.7424 -1.0601 -0.6956
 5852WAT     H224115   4.383   7.542   2.075 -0.5172  0.1738  0.5861
 5852WAT    EPW24116   4.390   7.487   2.131  0.0356 -0.4735 -0.5021
 5853WAT      O24117   3.697   6.951   4.202  0.2043  0.0891  0.1910
 5853WAT     H124118   3.765   6.897   4.203 -0.0282 -0.2070  0.5442
 5853WAT     H224119   3.640   6.912   4.255 -0.0338  0.5951  0.3114
 5853WAT    EPW24120   3.699   6.937   4.210  0.2579 -0.0913 -0.2016
 5854WAT      O24121   3.433   7.723   4.079  0.1161  0.1999 -0.4796
 5854WAT     H124122   3.380   7.666   4.119 -0.4246 -0.2717 -1.7970
 5854WAT     H224123   3.381   7.762   4.021  0.9917  0.4603 -1.1009
 5854WAT    EPW24124   3.417   7.720   4.076  1.3457 -0.6481 -0.5132
 5855WAT      O24125   6.913   7.825   2.919  0.0472 -0.4833 -0.8818
 5855WAT     H124126   6.839   7.822   2.873 -0.8708 -0.2281  0.5233
 5855WAT     H224127   6.909   7.755   2.970  0.2115  0.1455  0.0252
 5855WAT    EPW24128   6.902   7.814   2.920  0.2133 -0.8792 -0.0250
 5856WAT      O24129   3.973   7.731   1.343 -0.0067  0.3883  0.0113
 5856WAT     H124130   3.936   7.808   1.325  1.6044  1.0645 -0.6323
 5856WAT     H224131   4.023   7.748   1.413 -1.8471 -0.8391  1.7383
 5856WAT    EPW24132   3.975   7.745   1.351  0.1987 -0.2408  0.1685
 5857WAT      O24133   4.278   7.207   4.829  0.2470  0.3379  0.6683
 5857WAT     H124134   4.265   7.291   4.809  1.0208  0.6157  1.2746
 5857WAT     H224135   4.204   7.169   4.806  0.4512  0.9103 -1.1216
 5857WAT    EPW24136   4.265   7.214   4.822 -0.7157  0.1008  0.2123
 5858WAT      O24137   4.614   0.406   4.532 -0.2427 -0.1272 -0.5045
 5858WAT     H124138   4.674   0.410   4.469 -1.2360  0.8972 -1.4378
 5858WAT     H224139   4.579   0.486   4.532 -2.3122 -0.9643 -0.7674
 5858WAT    EPW24140   4.617   0.418   4.522  0.6273 -0.1847 -0.1110
 5859WAT      O24141   3.918   7.566   3.652 -0.2677 -0.2965  0.1649
 5859WAT     H124142   3.875   7.536   3.582 -0.7818  0.0455  0.3273
 5859WAT     H224143   3.915   7.500   3.709 -0.3466 -0.3709  0.0749
 5859WAT    EPW24144   3.911   7.552   3.650 -0.8458 -1.0182 -0.3142
 5860WAT      O24145   3.453   7.482   3.166  0.0922  0.0213 -0.7561
 5860WAT     H124146   3.436   7.429   3.233 -1.9363  0.7128 -0.6553
 5860WAT     H224147   3.429   7.435   3.096  0.2712  0.0494 -0.8373
 5860WAT    EPW24148   3.447   7.467   3.166 -0.2003 -0.2243 -0.4205
 5861WAT      O24149   6.558   0.547   3.881 -0.4271  0.4834  0.0998
 5861WAT     H124150   6.586   0.467   3.901  1.9393  0.9877 -0.8964
 5861WAT     H224151   6.474   0.535   3.860 -0.0763 -1.7609 -0.1950
 5861WAT    EPW24152   6.549   0.534   3.881  0.3090 -0.8242  0.3086
 5862WAT      O24153   4.507   7.162   0.983  0.0268 -0.1514 -0.0313
 5862WAT     H124154   4.439   7.211   0.959  1.7183  1.5207 -1.7220
 5862WAT     H224155   4.483   7.081   0.961 -1.5634  0.3317 -0.2067
 5862WAT    EPW24156   4.493   7.158   0.976 -0.5727  0.1178 -0.1874
 5863WAT      O24157   3.078   5.259   2.241  0.9547 -0.4455 -0.1233
 5863WAT     H124158   3.150   5.241   2.195  0.1792 -1.1340 -1.0796
 5863WAT     H224159   3.079   5.200   2.305  0.9392 -0.8056 -0.4600
 5863WAT    EPW24160   3.089   5.248   2.244 -0.5772  0.4603 -0.7462
 5864WAT      O24161   3.198   6.775   0.654 -0.5414 -0.0908  0.2023
 5864WAT     H124162   3.115   6.772   0.627 -0.2050  1.2387 -1.1337
 5864WAT     H224163   3.235   6.832   0.599  1.0995 -0.1275  1.2088
 5864WAT    EPW24164   3.191   6.783   0.642 -0.9380  0.8932 -0.3634
 5865WAT      O24165   3.448   7.066   0.825  0.9452 -0.6269  0.3004
 5865WAT     H124166   3.514   7.036   0.874  0.9226  0.0933  0.7915
 5865WAT     H224167   3.485   7.130   0.778  0.6055 -0.2338  0.5623
 5865WAT    EPW24168   3.464   7.071   0.825  0.5253  0.0854 -1.0122
 5866WAT      O24169   4.029   0.811   1.326 -0.3535  0.2128 -0.3407
 5866WAT     H124170   4.055   0.729   1.341 -0.9585  0.2666  1.2145
 5866WAT     H224171   3.944   0.804   1.313 -0.1720  0.4441 -1.8364
 5866WAT    EPW24172   4.021   0.798   1.327  1.1773  0.7833  0.1502
 5867WAT      O24173   3.058   6.864   1.311  0.2693  0.1605  0.0326
 5867WAT     H124174   3.127   6.917   1.307  0.2166  0.1643 -2.1084
 5867WAT     H224175   3.029   6.862   1.229 -0.1451 -2.6355  0.1546
 5867WAT    EPW24176   3.064   6.872   1.298 -0.3870  0.1933  0.8691
 5868WAT      O24177   2.964   7.586   0.140  0.0367  0.1328 -0.0892
 5868WAT     H124178   2.961   7.671   0.122 -0.5527  0.3820  1.0730
 5868WAT     H224179   3.022   7.580   0.205  1.3371 -0.5945 -1.2693
 5868WAT    EPW24180   2.972   7.598   0.147 -0.2136 -0.3389 -0.6875
 5869WAT      O24181   3.523   7.636   2.339  0.0920 -0.0151  0.2358
 5869WAT     H124182   3.561   7.713   2.322  3.3043 -1.8448 -2.1514
 5869WAT     H224183   3.536   7.625   2.425 -0.5735  2.1039  0.6524
 5869WAT    EPW24184   3.531   7.645   2.349 -0.0388  0.0442  0.7133
 5870WAT      O24185   3.345   7.919   0.205 -0.1665 -0.1612 -0.3186
 5870WAT     H124186   3.358   7.948   0.124  0.4774 -0.8770 -0.4926
 5870WAT     H224187   3.423   7.931   0.243 -0.5366  0.4018  0.2709
 5870WAT    EPW24188   3.359   7.925   0.199 -0.4276  0.7225 -0.0909
 5871WAT      O24189   4.867   1.244   1.894 -0.3751 -0.3896 -0.0649
 5871WAT     H124190   4.944   1.279   1.915  0.5522 -1.6645 -1.2275
 5871WAT     H224191   4.811   1.287   1.946  1.0299  0.9060  0.4652
 5871WAT    EPW24192   4.870   1.256   1.905 -0.1509  0.3558 -0.3450
 5872WAT      O24193   2.486   6.324   0.417 -0.0627  0.6885 -0.2283
 5872WAT     H124194   2.456   6.320   0.499  1.8559 -1.0954  0.4518
 5872WAT     H224195   2.419   6.294   0.370 -1.2223  1.8157  0.6150
 5872WAT    EPW24196   2.471   6.319   0.422 -0.4188 -0.9928 -0.1509
 5873WAT      O24197   3.501   7.342   2.378  0.2775 -0.6113  0.9546
 5873WAT     H124198   3.511   7.427   2.361  1.6259 -0.9450 -0.1308
 5873WAT     H224199   3.432   7.339   2.430  0.0809  1.1348  0.8416
 5873WAT    EPW24200   3.492   7.354   2.383  1.1573  0.2049  0.2805
 5874WAT      O24201   3.910   6.057   1.422 -0.2779  0.5333  0.0873
 5874WAT     H124202   3.840   6.098   1.455 -0.1133  1.8352 -1.1075
 5874WAT     H224203   3.976   6.110   1.443  0.2470 -0.2055  0.3515
 5874WAT    EPW24204   3.909   6.071   1.430  1.1673 -0.6368 -0.4289
 5875WAT      O24205   3.715   6.467   1.135 -0.7604 -0.6382  0.5896
 5875WAT     H124206   3.789   6.462   1.090 -0.9518 -0.1814  0.2151
 5875WAT     H224207   3.740   6.498   1.213 -0.5900 -0.2054  0.3685
 5875WAT    EPW24208   3.729   6.471   1.140 -0.0421 -0.4242  0.3076
 5876WAT      O24209   2.787   6.760   0.880  0.1346 -1.0560  0.1561
 5876WAT     H124210   2.844   6.786   0.940 -0.5610 -1.1387  0.8609
 5876WAT     H224211   2.828   6.778   0.804  0.8380 -0.5608  0.6388
 5876WAT    EPW24212   2.801   6.766   0.877 -0.4757  0.0443 -0.4749
 5877WAT      O24213   2.792   6.500   0.987  0.2399  0.2247 -0.5625
 5877WAT     H124214   2.752   6.456   0.923 -1.3907 -1.8653  1.7017
 5877WAT     H224215   2.795   6.581   0.956 -1.2084 -0.4979 -2.9440
 5877WAT    EPW24216   2.786   6.505   0.973  0.9826 -0.5961  0.1076
 5878WAT      O24217   3.075   7.546   3.332 -0.3836 -0.1143 -0.3447
 5878WAT     H124218   3.041   7.472   3.364  0.2432 -0.0871  0.4067
 5878WAT     H224219   3.008   7.601   3.333 -0.2254  0.0987  1.6403
 5878WAT    EPW24220   3.060   7.543   3.337 -0.3222 -0.4673  0.1558
 5879WAT      O24221   3.187   6.837   1.781  0.3285  0.6106  0.5188
 5879WAT     H124222   3.223   6.842   1.861  0.2964 -0.3350  0.6020
 5879WAT     H224223   3.236   6.891   1.733  0.9817  0.4154  0.9570
 5879WAT    EPW24224   3.200   6.845   1.786 -0.8816  0.4659  0.3469
 5880WAT      O24225   2.059   0.293   2.679 -0.6309 -0.7024 -0.1985
 5880WAT     H124226   2.064   0.350   2.745 -1.1501 -0.2925 -0.5087
 5880WAT     H224227   2.136   0.252   2.682 -0.8443 -1.0528  0.9867
 5880WAT    EPW24228   2.071   0.296   2.689 -0.4326 -0.5183 -0.3183
 5881WAT      O24229   4.299   7.302   1.731 -0.2652  0.3534 -0.0768
 5881WAT     H124230   4.260   7.377   1.754  0.8147  1.0411 -0.4492
 5881WAT     H224231   4.255   7.243   1.778 -0.2427  1.3613  1.3052
 5881WAT    EPW24232   4.286   7.305   1.741  0.1310  0.2537  0.2590
 5882WAT      O24233   3.484   0.428   2.016 -0.0711 -0.1676 -0.8897
 5882WAT     H124234   3.397   0.432   2.003 -0.1259  0.6648 -0.3410
 5882WAT     H224235   3.516   0.474   1.949 -0.3617  4.2677  1.6174
 5882WAT    EPW24236   3.476   0.435   2.004  0.0615 -0.1011 -0.0058
 5883WAT      O24237   4.991   7.783   1.793 -0.0211  0.4022 -0.6013
 5883WAT     H124238   5.058   7.728   1.803 -0.8837 -0.5082  0.3608
 5883WAT     H224239   4.921   7.732   1.805 -0.9582  1.0533 -2.8439
 5883WAT    EPW24240   4.991   7.767   1.796  0.0771  0.1823 -0.4756
 5884WAT      O24241   2.965   6.924   2.115  0.1606 -0.1944 -0.5504
 5884WAT     H124242   2.928   6.851   2.086  0.8950 -1.3165  1.1922
 5884WAT     H224243   2.985   6.967   2.042 -0.7268 -1.4917 -1.6095
 5884WAT    EPW24244   2.963   6.920   2.100  0.0757 -0.7257  1.1610
 5885WAT      O24245   3.811   6.460   2.111  0.7836 -1.3411 -0.0750
 5885WAT     H124246   3.739   6.494   2.077  1.2087 -1.8380 -1.5616
 5885WAT     H224247   3.783   6.419   2.183 -0.1464 -0.2248  0.2184
 5885WAT    EPW24248   3.796   6.459   2.116 -0.4181 -0.1223 -0.4776
 5886WAT      O24249   3.394   5.582   1.209  0.1109 -0.3532  0.3485
 5886WAT     H124250   3.467   5.580   1.257 -0.8638 -0.2383  1.9197
 5886WAT     H224251   3.364   5.663   1.221  0.4363  0.0656 -1.4474
 5886WAT    EPW24252   3.400   5.594   1.218 -0.9024 -0.9246  0.0225
 5887WAT      O24253   2.450   6.969   1.738 -0.2028  0.2040  0.0040
 5887WAT     H124254   2.460   6.891   1.702  1.0508  0.5077 -0.3594
 5887WAT     H224255   2.381   6.959   1.791 -0.0304 -1.1472  0.0051
 5887WAT    EPW24256   2.442   6.956   1.741  0.3198 -0.1526 -0.4910
 5888WAT      O24257   4.234   1.634   1.872 -0.3975 -0.2607  0.0089
 5888WAT     H124258   4.217   1.567   1.925  0.9985  0.7069  1.7874
 5888WAT     H224259   4.231   1.599   1.793 -2.2126 -1.8530  0.7039
 5888WAT    EPW24260   4.231   1.619   1.868 -0.1742  0.5310  0.5959
 5889WAT      O24261   3.046   6.335   1.335  0.4307  0.2810 -0.3392
 5889WAT     H124262   3.085   6.323   1.412 -0.4411  0.7738  0.1955
 5889WAT     H224263   2.963   6.313   1.351 -0.1060  1.9095 -0.6939
 5889WAT    EPW24264   3.040   6.330   1.349 -0.0569  1.1022  0.0651
 5890WAT      O24265   3.849   0.147   1.760 -0.6729 -0.3003  0.1402
 5890WAT     H124266   3.831   0.118   1.841  1.4486 -1.2399  0.3267
 5890WAT     H224267   3.865   0.232   1.773 -0.4286 -0.4244  0.6997
 5890WAT    EPW24268   3.849   0.155   1.774  0.7779 -0.1748 -1.6372
 5891WAT      O24269   4.447   7.751   3.106  0.5670  0.5914 -0.0909
 5891WAT     H124270   4.532   7.740   3.119  1.1326 -1.2002 -3.8718
 5891WAT     H224271   4.441   7.832   3.074  0.8397  0.7634  0.3010
 5891WAT    EPW24272   4.458   7.761   3.103 -0.3426 -0.0710  0.1013
 5892WAT      O24273   2.749   7.383   1.520  0.1567  0.1199  0.1646
 5892WAT     H124274   2.761   7.336   1.593  0.3606 -0.9067 -0.4998
 5892WAT     H224275   2.662   7.386   1.511  0.1441 -1.4104 -0.5486
 5892WAT    EPW24276   2.738   7.376   1.529 -0.5349  0.0892  0.0573
 5893WAT      O24277   3.114   7.639   1.752 -0.2439  0.4466 -0.3753
 5893WAT     H124278   3.102   7.625   1.667  1.6402 -0.4100 -0.5273
 5893WAT     H224279   3.055   7.586   1.789 -0.3814  0.0554 -1.1225
 5893WAT    EPW24280   3.103   7.629   1.745 -0.5433  0.3852  0.1423
 5894WAT      O24281   4.170   7.895   0.077  0.4309 -0.2098  0.2128
 5894WAT     H124282   4.201   7.853   0.007  0.7298 -0.1997  0.3378
 5894WAT     H224283   4.210   7.856   0.144  1.0004  0.5129  0.3091
 5894WAT    EPW24284   4.180   7.883   0.077  0.0748  0.1046 -0.2637
 5895WAT      O24285   4.641   7.364   3.973 -0.1528 -0.5418  0.2144
 5895WAT     H124286   4.587   7.373   4.041 -0.9618 -1.0953 -0.3255
 5895WAT     H224287   4.641   7.278   3.959 -1.1276 -0.3389 -1.3289
 5895WAT    EPW24288   4.633   7.353   3.981  0.3537  0.6380 -0.5623
 5896WAT      O24289   2.685   0.650   0.870  0.6479 -0.2185  0.5704
 5896WAT     H124290   2.757   0.696   0.856 -0.6820  1.4235 -1.4823
 5896WAT     H224291   2.650   0.687   0.941  0.5842  0.6446  0.0967
 5896WAT    EPW24292   2.690   0.662   0.878 -0.3254 -0.4785  0.5987
 5897WAT      O24293   2.776   0.654   2.327  0.0638  0.5191 -0.2356
 5897WAT     H124294   2.723   0.695   2.383 -1.1680 -1.4487  0.1637
 5897WAT     H224295   2.721   0.606   2.278  1.3236  0.1288 -1.3409
 5897WAT    EPW24296   2.760   0.653   2.328  0.5564 -0.4743 -0.3459
 5898WAT      O24297   2.973   6.364   1.989  0.2383 -0.5082 -0.7435
 5898WAT     H124298   2.984   6.446   2.016  2.0466 -1.2318  0.9449
 5898WAT     H224299   3.029   6.318   2.038 -1.6765 -2.9648 -0.6496
 5898WAT    EPW24300   2.983   6.369   2.000 -0.0584 -0.4939 -0.0660
 5899WAT      O24301   4.624   6.869   1.912 -0.2492  0.5931 -0.7953
 5899WAT     H124302   4.543   6.865   1.878 -0.4848  0.3774 -0.2209
 5899WAT     H224303   4.619   6.819   1.982  0.9638 -1.1151 -1.8572
 5899WAT    EPW24304   4.611   6.861   1.917  0.1664  0.8653 -0.2349
 5900WAT      O24305   3.693   6.964   3.926  0.6832 -0.1745  0.0974
 5900WAT     H124306   3.680   6.978   4.011  1.2031 -0.7870  0.2814
 5900WAT     H224307   3.734   6.887   3.923  0.4000 -0.3057 -0.7293
 5900WAT    EPW24308   3.697   6.955   3.938  0.3098  0.2534 -0.2639
 5901WAT      O24309   6.401   0.034   1.872 -0.4318  0.2977 -0.0943
 5901WAT     H124310   6.355  -0.007   1.934 -0.8828 -0.0975 -0.6783
 5901WAT     H224311   6.436  -0.032   1.825 -0.2965  0.5875 -0.4051
 5901WAT    EPW24312   6.399   0.018   1.874  0.0586 -0.3363  0.6885
 5902WAT      O24313   1.169   7.813   1.221  0.0352  0.2952 -0.3457
 5902WAT     H124314   1.213   7.876   1.263 -0.3119  0.6578 -0.5267
 5902WAT     H224315   1.231   7.754   1.202  0.3817  0.6351 -0.2844
 5902WAT    EPW24316   1.185   7.814   1.225 -0.0826  0.3639  0.6015
 5903WAT      O24317   3.863   6.999   2.102 -0.3965  0.0470 -0.1336
 5903WAT     H124318   3.884   7.078   2.070  1.9036 -0.6815 -0.6489
 5903WAT     H224319   3.822   6.960   2.036 -1.2317  0.6642  0.0048
 5903WAT    EPW24320   3.860   7.005   2.088  0.4536  0.3719 -0.7221
 5904WAT      O24321   4.167   7.140   1.894 -0.2443  0.1847 -0.2641
 5904WAT     H124322   4.220   7.154   1.962  0.1382 -1.9885 -0.0450
 5904WAT     H224323   4.090   7.123   1.933 -0.3524  0.3078 -0.4267
 5904WAT    EPW24324   4.163   7.139   1.910 -0.1341  0.3043 -0.0947
 5905WAT      O24325   4.616   7.771   0.467 -0.1510  0.2585 -0.1583
 5905WAT     H124326   4.645   7.810   0.540  0.0780  1.1693 -0.7160
 5905WAT     H224327   4.652   7.692   0.470 -0.3953  0.1734  0.8686
 5905WAT    EPW24328   4.626   7.765   0.478  0.2987 -0.0220 -0.6193
 5906WAT      O24329   2.564   7.919   2.311 -0.4436  0.3959 -0.2434
 5906WAT     H124330   2.624   7.915   2.374 -1.8569  0.2452  1.1528
 5906WAT     H224331   2.608   7.897   2.239  0.7387 -1.7793  1.0477
 5906WAT    EPW24332   2.579   7.915   2.310 -0.3895 -0.3308  0.5192
 5907WAT      O24333   4.057   7.676   0.458 -0.1554 -0.6280  0.5920
 5907WAT     H124334   4.086   7.758   0.462  1.1917 -1.0447 -0.1966
 5907WAT     H224335   3.998   7.679   0.394 -0.7090 -0.1180  1.1137
 5907WAT    EPW24336   4.052   7.688   0.449 -0.1754 -1.0826  0.7788
 5908WAT      O24337   1.371   7.892   0.898 -0.3684 -0.1715 -0.0047
 5908WAT     H124338   1.398   7.859   0.973  1.5264 -0.5609 -0.8006
 5908WAT     H224339   1.385   7.978   0.907  0.9103 -0.3253 -0.2602
 5908WAT    EPW24340   1.377   7.900   0.910  0.3249 -0.0541 -0.4148
 5909WAT      O24341   2.978   7.142   1.956  0.0647  0.4444  0.2658
 5909WAT     H124342   2.967   7.130   1.871 -2.1535  0.5430  0.4728
 5909WAT     H224343   3.036   7.207   1.961  1.2873 -0.4817 -1.1004
 5909WAT    EPW24344   2.985   7.150   1.944  0.5234  0.8001  0.2783
 5910WAT      O24345   4.400   7.708   2.604 -0.1817  0.0114 -0.0058
 5910WAT     H124346   4.455   7.775   2.611 -0.0419 -0.1418  0.3921
 5910WAT     H224347   4.385   7.685   2.687 -1.6684  0.7187 -0.0367
 5910WAT    EPW24348   4.406   7.714   2.617 -0.4886  1.0217  0.7244
 5911WAT      O24349   3.742   0.018   1.980 -0.0224  0.0951 -0.7376
 5911WAT     H124350   3.680  -0.042   1.994  0.8746 -0.3439  1.9278
 5911WAT     H224351   3.715   0.086   2.028 -0.0382  1.1442 -2.1779
 5911WAT    EPW24352   3.729   0.020   1.989 -0.3516  0.2024 -0.2382
 5912WAT      O24353   4.140   6.836   0.815 -0.0529 -0.0297 -0.0625
 5912WAT     H124354   4.122   6.878   0.889  0.4489 -2.5239  1.6117
 5912WAT     H224355   4.072   6.854   0.764 -0.1454  2.2371  0.7496
 5912WAT    EPW24356   4.128   6.845   0.819 -0.7753 -0.0490 -0.5686
 5913WAT      O24357   3.532   7.854   1.969  0.2534 -0.1659  0.7031
 5913WAT     H124358   3.474   7.816   1.916 -2.7153  1.2677  2.6265
 5913WAT     H224359   3.593   7.793   1.979 -2.1342 -2.8419  0.4182
 5913WAT    EPW24360   3.532   7.839   1.962  1.2978 -0.1209  0.6129
 5914WAT      O24361   3.106   7.608   1.452  0.5200  0.0120 -0.3279
 5914WAT     H124362   3.164   7.545   1.468  0.4426  0.4272  2.0325
 5914WAT     H224363   3.126   7.635   1.372  0.9744 -2.5331 -1.1595
 5914WAT    EPW24364   3.117   7.603   1.442 -0.3104  0.5907 -0.6948
 5915WAT      O24365   4.390   6.971   0.672 -0.7359 -0.5031 -0.2899
 5915WAT     H124366   4.404   7.056   0.654  0.2081 -0.6431 -0.2616
 5915WAT     H224367   4.306   6.961   0.654 -0.3095 -0.2115 -3.0467
 5915WAT    EPW24368   4.380   6.982   0.666  0.1025 -0.1014 -0.0918
 5916WAT      O24369   3.589   6.687   1.033  0.6733  0.5277 -0.2378
 5916WAT     H124370   3.522   6.665   0.983  0.9532 -1.0874  0.0466
 5916WAT     H224371   3.619   6.610   1.062 -0.7831  1.3019  4.1358
 5916WAT    EPW24372   3.584   6.672   1.030  0.4331  0.0244 -0.3166
 5917WAT      O24373   7.444   0.711   2.918  0.8336  0.3361 -0.1173
 5917WAT     H124374   7.361   0.684   2.923  1.3108 -1.7512 -1.6761
 5917WAT     H224375   7.462   0.739   2.998 -0.9026 -0.7042  0.7003
 5917WAT    EPW24376   7.434   0.711   2.930 -0.0405 -0.3572  0.0033
 5918WAT      O24377   6.065   0.485   2.513  0.2622  0.4402 -0.0367
 5918WAT     H124378   6.115   0.503   2.443  1.4656  2.1104  1.1663
 5918WAT     H224379   6.051   0.399   2.507  2.1609  0.1570 -1.1618
 5918WAT    EPW24380   6.070   0.475   2.502  0.2347 -1.1742 -0.5222
 5919WAT      O24381   2.899   6.123   0.133 -0.0614  0.4527 -0.4151
 5919WAT     H124382   2.857   6.047   0.131  0.6156  0.0835 -1.3611
 5919WAT     H224383   2.865   6.167   0.066 -0.0220  0.7495 -0.2408
 5919WAT    EPW24384   2.888   6.118   0.123 -0.5666  0.0486 -0.1397
 5920WAT      O24385   3.414   7.910   2.420  0.4639 -0.7636 -0.1959
 5920WAT     H124386   3.433   7.943   2.341  0.0673 -0.6318 -0.2410
 5920WAT     H224387   3.331   7.935   2.432  0.0308 -2.0529 -0.3804
 5920WAT    EPW24388   3.404   7.919   2.410  0.7620  0.3755 -1.0704
 5921WAT      O24389   2.501   7.422   1.170 -0.3392  0.2294  0.8839
 5921WAT     H124390   2.580   7.460   1.177 -1.0988  2.2332 -0.4849
 5921WAT     H224391   2.496   7.373   1.242  1.8912  0.5108  1.3225
 5921WAT    EPW24392   2.512   7.420   1.182 -0.4574 -0.1826 -0.8105
 5922WAT      O24393   3.374   7.726   1.760  0.2489  0.1966  0.0290
 5922WAT     H124394   3.297   7.684   1.769  0.5025 -0.0820  1.1421
 5922WAT     H224395   3.373   7.755   1.678 -0.3277 -1.2360 -0.4976
 5922WAT    EPW24396   3.362   7.724   1.750  0.2968 -0.1750  0.8211
 5923WAT      O24397   2.282   7.053   0.955  0.2723 -0.1405 -0.6552
 5923WAT     H124398   2.253   7.007   0.887  1.2607 -3.5050  0.9562
 5923WAT     H224399   2.229   7.029   1.020  0.1252  2.0179  0.1025
 5923WAT    EPW24400   2.270   7.043   0.955 -0.6697 -0.1630 -0.1206
 5924WAT      O24401   4.033   6.701   1.238 -0.9993 -0.3016  0.0462
 5924WAT     H124402   3.981   6.771   1.240 -1.2630 -0.4375 -1.2078
 5924WAT     H224403   4.108   6.732   1.207 -1.0345 -0.5170 -0.2616
 5924WAT    EPW24404   4.036   6.715   1.234 -0.2736 -0.8065 -0.6723
 5925WAT      O24405   2.490   6.808   1.176 -0.3268  0.0594 -0.1147
 5925WAT     H124406   2.558   6.852   1.209 -0.8422  0.6474  0.1860
 5925WAT     H224407   2.483   6.739   1.229  0.3808 -0.3042 -0.4844
 5925WAT    EPW24408   2.499   6.804   1.189  0.0066 -0.1523  0.8153
 5926WAT      O24409   2.988   6.589   0.668  0.1702  0.5109 -0.1249
 5926WAT     H124410   2.963   6.527   0.612  0.1118 -0.1540  0.6155
 5926WAT     H224411   2.913   6.614   0.706  0.4242 -0.4512  1.0563
 5926WAT    EPW24412   2.973   6.584   0.665 -0.0426  0.4429 -0.5507
 5927WAT      O24413   3.601   7.464   6.869 -0.2195 -0.6707  0.3005
 5927WAT     H124414   3.597   7.378   6.881 -0.8634 -0.5118  1.5085
 5927WAT     H224415   3.559   7.496   6.939  0.8074  0.6517  0.3626
 5927WAT    EPW24416   3.594   7.456   6.881 -0.1062 -0.3453 -0.4305
 5928WAT      O24417   4.452   0.037   3.294 -0.3891 -0.0706 -0.3565
 5928WAT     H124418   4.533   0.069   3.290  0.4282 -1.8141  0.7616
 5928WAT     H224419   4.454  -0.015   3.365 -2.4551 -0.2710 -0.3703
 5928WAT    EPW24420   4.464   0.034   3.304 -0.2143 -0.1886 -0.3643
 5929WAT      O24421   3.735   7.655   1.996  0.0504  0.5297 -0.3864
 5929WAT     H124422   3.759   7.617   2.070 -0.1851  0.4706 -0.3412
 5929WAT     H224423   3.687   7.594   1.956  2.1969 -0.3898 -1.7224
 5929WAT    EPW24424   3.731   7.640   2.001 -0.0770  0.8816 -0.5444
 5930WAT      O24425   4.104   7.682   2.533  0.3862  0.9890  0.0327
 5930WAT     H124426   4.182   7.714   2.556  2.0586 -2.0528 -0.8422
 5930WAT     H224427   4.108   7.678   2.446 -0.9085  1.0759 -0.0467
 5930WAT    EPW24428   4.116   7.686   2.524  0.1184  0.2036  0.3425
 5931WAT      O24429   4.245   7.955   0.505 -0.1017  0.5764 -0.5299
 5931WAT     H124430   4.177   8.007   0.488 -1.0610 -0.3457  0.3729
 5931WAT     H224431   4.314   8.009   0.502 -1.0678  1.9092  0.4217
 5931WAT    EPW24432   4.245   7.971   0.502  0.2317 -0.6787  0.2990
 5932WAT      O24433   3.827   7.363   2.770  0.6054 -0.3100  0.1036
 5932WAT     H124434   3.778   7.292   2.763 -0.1887  0.1188  1.0454
 5932WAT     H224435   3.779   7.425   2.730  0.5814  0.0096  0.6132
 5932WAT    EPW24436   3.812   7.362   2.763  1.0078 -0.1708 -0.1573
 5933WAT      O24437   4.013   6.493   2.898  0.6747 -0.1574 -0.1832
 5933WAT     H124438   3.955   6.431   2.880  1.8596 -0.9241 -1.6440
 5933WAT     H224439   4.014   6.543   2.826  0.1802  1.2351  0.7297
 5933WAT    EPW24440   4.005   6.491   2.885  0.4067  1.1090 -0.7937
 5934WAT      O24441   4.310   7.351   2.839  0.0292 -0.1635  0.3091
 5934WAT     H124442   4.386   7.315   2.863 -0.1967 -0.5230  0.5080
 5934WAT     H224443   4.254   7.321   2.899 -0.1528  0.6044  0.5396
 5934WAT    EPW24444   4.313   7.341   2.852 -0.8810 -0.0485 -0.0404
 5935WAT      O24445   3.290   7.687   3.175  1.0222 -0.4619 -0.6271
 5935WAT     H124446   3.356   7.631   3.182  0.6668 -0.9066 -0.8177
 5935WAT     H224447   3.219   7.637   3.179  0.7080 -0.2078 -2.2352
 5935WAT    EPW24448   3.289   7.672   3.177 -0.6994 -0.7808  0.1567
 5936WAT      O24449   3.135   6.983   0.877  0.5106 -0.4764 -0.5875
 5936WAT     H124450   3.152   6.925   0.815  0.3216 -0.1944 -0.9106
 5936WAT     H224451   3.210   7.026   0.887  0.9075 -1.3308  0.2654
 5936WAT    EPW24452   3.148   6.981   0.870 -0.0622 -0.3346  0.1941
 5937WAT      O24453   4.679   7.705   3.510 -0.2044  0.0062 -1.0018
 5937WAT     H124454   4.594   7.685   3.519 -0.4457  0.6094 -1.7678
 5937WAT     H224455   4.716   7.673   3.582 -1.4209  1.5091  0.3718
 5937WAT    EPW24456   4.672   7.697   3.522  0.2355 -0.7399 -1.2561
 5938WAT      O24457   4.625   5.587   1.857 -0.0310 -0.1457  0.0595
 5938WAT     H124458   4.587   5.665   1.846  0.7779  0.4383  1.1930
 5938WAT     H224459   4.564   5.540   1.898 -1.1226 -0.6782 -2.0084
 5938WAT    EPW24460   4.610   5.592   1.862  0.3800 -0.8788  0.5211
 5939WAT      O24461   2.291   7.006   1.250 -0.0087  0.0134  0.2277
 5939WAT     H124462   2.325   7.082   1.222 -0.0669 -0.4353 -1.0893
 5939WAT     H224463   2.348   6.947   1.222 -0.6126 -0.5412  0.1622
 5939WAT    EPW24464   2.305   7.009   1.242 -0.1233  0.3418 -0.1355
 5940WAT      O24465   4.000   8.034   2.689 -0.1702 -0.5423 -0.1643
 5940WAT     H124466   3.997   7.969   2.630  1.2468 -1.8690  1.1492
 5940WAT     H224467   4.069   8.014   2.738 -0.5165  1.2506  1.1329
 5940WAT    EPW24468   4.010   8.021   2.687 -0.1787  0.0806 -0.3491
 5941WAT      O24469   3.947   6.608   1.696 -0.2305 -0.1262  0.4637
 5941WAT     H124470   3.959   6.572   1.775  0.3776  0.6174  0.7260
 5941WAT     H224471   3.918   6.542   1.648 -1.0932 -0.4882  1.4326
 5941WAT    EPW24472   3.944   6.593   1.701  0.0090  0.2450  0.1663
 5942WAT      O24473   3.049   6.782   2.744 -0.1789  0.4494 -0.0158
 5942WAT     H124474   2.975   6.750   2.778  0.6689  0.9392  2.5620
 5942WAT     H224475   3.104   6.781   2.812  1.7876  1.3596 -1.5026
 5942WAT    EPW24476   3.046   6.777   2.759  0.2130 -0.0847  0.3081
 5943WAT      O24477   6.657   7.763   0.812 -0.1069  0.2790  0.1575
 5943WAT     H124478   6.684   7.842   0.839 -2.0113  0.2488  2.4998
 5943WAT     H224479   6.671   7.713   0.882  0.7311 -1.4392 -1.1689
 5943WAT    EPW24480   6.663   7.767   0.827 -0.3990 -0.2457 -0.5136
 5944WAT      O24481   3.714   0.877   1.035 -0.4802 -0.2579  0.5873
 5944WAT     H124482   3.694   0.946   1.084  0.8492  0.7089 -0.1414
 5944WAT     H224483   3.754   0.912   0.966  2.0202 -1.8272  1.0963
 5944WAT    EPW24484   3.717   0.892   1.032  0.7250 -1.0740  0.1569
 5945WAT      O24485   3.572   6.570   2.007  0.1789 -0.5305  0.2744
 5945WAT     H124486   3.561   6.542   1.925 -0.2905 -1.2455  0.5703
 5945WAT     H224487   3.591   6.655   1.998  3.0280 -1.1600 -0.7630
 5945WAT    EPW24488   3.573   6.578   1.993 -0.0469 -0.6186 -0.0098
 5946WAT      O24489   4.227   0.212   1.548 -0.1752 -0.1932 -0.1031
 5946WAT     H124490   4.310   0.203   1.520  0.2296  0.2812  0.9112
 5946WAT     H224491   4.236   0.235   1.632 -1.3093  0.9349 -0.2576
 5946WAT    EPW24492   4.241   0.214   1.556 -0.5933 -0.5710  0.4240
 5947WAT      O24493   3.280   5.755   2.123 -0.1997  0.1299  0.1511
 5947WAT     H124494   3.304   5.770   2.040 -1.0618  0.8350  0.0151
 5947WAT     H224495   3.352   5.774   2.169  0.5232 -0.9767 -0.4723
 5947WAT    EPW24496   3.294   5.760   2.117  0.0768  0.1035 -1.0787
 5948WAT      O24497   3.165   7.201   0.252  0.1820 -0.1073 -0.3591
 5948WAT     H124498   3.182   7.283   0.278  0.9991 -0.1974 -0.5697
 5948WAT     H224499   3.228   7.154   0.290 -0.5672 -0.7112  0.1513
 5948WAT    EPW24500   3.177   7.206   0.261  0.8599 -0.1128 -0.1225
 5949WAT      O24501   2.437   5.728   0.497 -0.2198 -0.1244 -0.0230
 5949WAT     H124502   2.459   5.715   0.413 -1.9036 -0.2174 -0.4778
 5949WAT     H224503   2.508   5.702   0.540 -0.0946 -2.1731 -1.3257
 5949WAT    EPW24504   2.451   5.722   0.491  0.9872  0.1682 -0.5112
 5950WAT      O24505   4.236   6.609   1.571  0.8218 -0.3330  0.4253
 5950WAT     H124506   4.149   6.617   1.572  0.8421  0.3613 -1.0130
 5950WAT     H224507   4.259   6.649   1.497  2.2764 -1.4322  0.2479
 5950WAT    EPW24508   4.226   6.616   1.560 -0.4036 -0.0866 -0.6974
 5951WAT      O24509   5.469   7.736   0.816 -0.1274 -0.2045  0.7334
 5951WAT     H124510   5.478   7.817   0.786 -0.7187 -0.0548  0.9598
 5951WAT     H224511   5.551   7.711   0.830  0.2085 -0.3481 -1.1732
 5951WAT    EPW24512   5.483   7.744   0.813  0.0885  0.2544 -0.1388
 5952WAT      O24513   3.605   6.154   1.842 -0.5147  0.6511 -0.3554
 5952WAT     H124514   3.692   6.168   1.839 -0.6352  1.7745  0.4583
 5952WAT     H224515   3.590   6.102   1.774  1.4896 -3.6550  2.0714
 5952WAT    EPW24516   3.616   6.149   1.832  0.4616 -0.1522  0.0277
 5953WAT      O24517   3.026   7.252   0.832  0.1737 -0.3459 -0.2268
 5953WAT     H124518   3.075   7.304   0.882  1.3507  0.4078 -2.0375
 5953WAT     H224519   3.051   7.172   0.855  0.2687 -0.0359  0.7728
 5953WAT    EPW24520   3.037   7.248   0.843  0.4664 -0.0370  0.3579
 5954WAT      O24521   5.003   7.034   2.648 -0.4613 -0.2915 -0.3458
 5954WAT     H124522   4.971   7.102   2.692  0.4748 -1.0551  1.6194
 5954WAT     H224523   4.961   6.966   2.682 -1.3932 -0.7744 -2.2853
 5954WAT    EPW24524   4.992   7.034   2.659  1.0411 -0.3334 -1.5391
 5955WAT      O24525   4.206   1.225   1.542 -0.0263  0.1875 -0.7944
 5955WAT     H124526   4.190   1.148   1.505  1.8667  0.1013 -1.5280
 5955WAT     H224527   4.174   1.216   1.623 -2.6638 -0.2169 -1.7750
 5955WAT    EPW24528   4.199   1.212   1.548  0.8502  0.6956  0.6089
 5956WAT      O24529   5.735   7.929   3.366 -0.4285 -0.5156 -0.4273
 5956WAT     H124530   5.752   7.949   3.282  1.4395 -1.2234 -0.2687
 5956WAT     H224531   5.741   8.006   3.407 -0.9066 -0.2345 -0.8721
 5956WAT    EPW24532   5.739   7.944   3.359 -1.3817 -0.1358 -0.5260
 5957WAT      O24533   3.859   7.481   1.376  0.2387  0.3986 -0.0660
 5957WAT     H124534   3.886   7.563   1.365  0.5109  0.3777  0.3935
 5957WAT     H224535   3.933   7.436   1.386  0.0561  0.3662  1.3669
 5957WAT    EPW24536   3.874   7.487   1.376  0.1003 -0.3824 -0.1169
 5958WAT      O24537   4.638   7.403   1.053 -0.0736 -0.0443  0.8762
 5958WAT     H124538   4.635   7.460   0.986  0.0472 -0.1016  0.8208
 5958WAT     H224539   4.627   7.326   1.014  0.8456 -0.1551  0.8075
 5958WAT    EPW24540   4.636   7.400   1.037  0.8638  0.1772  0.4959
 5959WAT      O24541   3.189   6.217   2.054 -0.3970 -0.0958 -0.2104
 5959WAT     H124542   3.239   6.254   1.993 -0.2625 -0.8595 -0.5814
 5959WAT     H224543   3.246   6.188   2.113 -0.6203  2.7683  1.5885
 5959WAT    EPW24544   3.205   6.218   2.054 -0.7806  0.5585 -0.0194
 5960WAT      O24545   4.389   6.130   2.104  0.9418  0.1657  0.0910
 5960WAT     H124546   4.325   6.147   2.161  0.8444  0.7745 -0.1934
 5960WAT     H224547   4.461   6.155   2.147  1.1269 -1.4711  0.8153
 5960WAT    EPW24548   4.390   6.136   2.119 -0.4687  0.4645  0.3947
 5961WAT      O24549   4.164   0.292   2.867 -0.2358  0.2857 -0.1165
 5961WAT     H124550   4.207   0.277   2.941 -0.0069 -0.3396 -0.3704
 5961WAT     H224551   4.210   0.248   2.807  0.3080  1.7541 -0.8511
 5961WAT    EPW24552   4.177   0.283   2.869  0.6337 -0.2515  0.2066
 5962WAT      O24553   4.492   0.581   1.919 -0.0647 -0.5032 -0.0386
 5962WAT     H124554   4.446   0.576   1.993  0.3272 -1.3241  0.1641
 5962WAT     H224555   4.568   0.615   1.944  0.0903 -0.8369 -0.0545
 5962WAT    EPW24556   4.496   0.585   1.934  0.2733  0.2729  0.8209
 5963WAT      O24557   2.863   6.857   0.625 -0.1333 -0.1993  0.1381
 5963WAT     H124558   2.819   6.928   0.648 -1.0618 -0.8318  0.3970
 5963WAT     H224559   2.810   6.818   0.567  0.7565 -0.2425 -0.6642
 5963WAT    EPW24560   2.849   6.861   0.620  0.6755  0.2395 -0.9589
 5964WAT      O24561   5.584   1.131   2.255  0.2934  0.7650  0.5910
 5964WAT     H124562   5.513   1.168   2.221 -1.4138 -2.6202  0.1372
 5964WAT     H224563   5.562   1.117   2.338  0.6549  0.1922  0.5960
 5964WAT    EPW24564   5.571   1.135   2.262 -0.2303  0.2965 -0.1265
 5965WAT      O24565   4.695   7.597   2.241  0.2349 -0.1179 -0.3281
 5965WAT     H124566   4.764   7.554   2.210 -0.1790 -1.1511  0.0923
 5965WAT     H224567   4.655   7.537   2.291 -0.3709  0.7821  0.3036
 5965WAT    EPW24568   4.699   7.581   2.244 -1.0025 -0.6348  0.6289
 5966WAT      O24569   4.534   1.120   1.406 -0.0953 -0.4628  0.0942
 5966WAT     H124570   4.472   1.071   1.369 -0.2399 -0.6175  0.5263
 5966WAT     H224571   4.544   1.083   1.485  0.2155 -0.1545  0.2012
 5966WAT    EPW24572   4.526   1.107   1.412 -0.2521  0.6838  0.5281
 5967WAT      O24573   3.564   7.482   1.869 -0.4669 -0.0981  0.8413
 5967WAT     H124574   3.522   7.522   1.804  1.8443 -1.0192 -1.4179
 5967WAT     H224575   3.571   7.400   1.841  0.0388 -0.6862  2.5902
 5967WAT    EPW24576   3.559   7.476   1.855  0.5923 -0.6401  0.4928
 5968WAT      O24577   3.518   7.084   1.224  0.3412  0.0297 -0.0167
 5968WAT     H124578   3.584   7.138   1.240 -0.0493  0.7730 -0.8372
 5968WAT     H224579   3.548   7.034   1.159  0.0589  0.4577 -0.4829
 5968WAT    EPW24580   3.532   7.084   1.216 -0.3740 -0.4513 -0.4722
 5969WAT      O24581   3.498   6.682   1.650 -0.4577  0.0403 -0.4505
 5969WAT     H124582   3.539   6.610   1.677  0.2192  0.2973 -0.7510
 5969WAT     H224583   3.420   6.653   1.625  0.1771 -0.7902 -1.5912
 5969WAT    EPW24584   3.493   6.667   1.650 -0.1190 -0.7568 -0.1063
 5970WAT      O24585   4.117   6.014   1.817 -0.6226 -0.6197  0.6439
 5970WAT     H124586   4.088   5.951   1.764 -2.7448  0.8302 -0.0631
 5970WAT     H224587   4.199   6.028   1.790 -0.5046 -2.2470  0.0599
 5970WAT    EPW24588   4.125   6.007   1.806  0.2399  0.0113 -0.3406
 5971WAT      O24589   4.828   6.818   3.552 -0.0805 -0.0949 -0.3564
 5971WAT     H124590   4.841   6.894   3.592 -0.0885  0.9548 -2.1991
 5971WAT     H224591   4.904   6.802   3.513  0.1116 -1.3692  0.5035
 5971WAT    EPW24592   4.841   6.827   3.552  0.6241 -0.2844 -0.1826
 5972WAT      O24593   4.298   0.206   0.790  0.2484 -0.3985 -0.4879
 5972WAT     H124594   4.279   0.122   0.804  0.4638 -0.2882  0.5756
 5972WAT     H224595   4.221   0.241   0.770  0.3083 -1.0161 -1.9194
 5972WAT    EPW24596   4.284   0.198   0.789  0.3188 -0.3312 -0.2899
 5973WAT      O24597   4.070   6.275   1.471 -0.6166 -0.3572 -0.1613
 5973WAT     H124598   4.070   6.313   1.392  2.4036 -0.5663 -0.3669
 5973WAT     H224599   4.153   6.278   1.495 -1.1954 -1.8083  2.3335
 5973WAT    EPW24600   4.082   6.281   1.463 -0.6384 -0.6224 -0.3873
 5974WAT      O24601   3.991   7.006   1.012 -0.1025  0.0747 -0.0857
 5974WAT     H124602   4.028   7.085   1.023 -0.8587  0.3250  0.7582
 5974WAT     H224603   3.964   6.984   1.092 -1.9168 -0.0260 -0.6735
 5974WAT    EPW24604   3.992   7.015   1.026  0.5472  0.1790 -1.3550
 5975WAT      O24605   5.489   0.087   2.932 -0.6380  0.0647 -0.3111
 5975WAT     H124606   5.513   0.124   3.007  1.4610 -0.5816 -0.5895
 5975WAT     H224607   5.407   0.061   2.947 -0.1379 -0.4199  1.9050
 5975WAT    EPW24608   5.480   0.089   2.946 -0.1356  0.7148 -0.7329
 5976WAT      O24609   2.555   0.113   1.314  0.0651  0.2111 -0.0842
 5976WAT     H124610   2.616   0.060   1.280 -0.5092 -0.1065 -0.6439
 5976WAT     H224611   2.505   0.060   1.361  0.3646  0.5161  0.5902
 5976WAT    EPW24612   2.557   0.097   1.316 -0.0119 -0.6049 -0.8505
 5977WAT      O24613   0.837   7.424   0.881 -0.2117  0.0553 -0.6724
 5977WAT     H124614   0.856   7.344   0.909  2.1126  0.3342 -1.2509
 5977WAT     H224615   0.826   7.469   0.955 -1.1536 -0.6906 -0.3447
 5977WAT    EPW24616   0.838   7.419   0.896 -0.4233  0.0185  0.1534
 5978WAT      O24617   3.180   6.584   2.562 -0.3769 -0.1944 -0.0915
 5978WAT     H124618   3.231   6.639   2.516  0.0652 -0.2816  0.2864
 5978WAT     H224619   3.127   6.637   2.606  1.5718  0.1149  2.1136
 5978WAT    EPW24620   3.180   6.600   2.561  0.0895 -0.0735  0.0273
 5979WAT      O24621   3.320   7.032   1.624  0.1058 -0.2523 -0.4969
 5979WAT     H124622   3.325   7.022   1.537 -1.4065 -0.6729 -0.5711
 5979WAT     H224623   3.395   7.071   1.645  0.5204 -0.1932 -1.9852
 5979WAT    EPW24624   3.332   7.036   1.614  0.0833  0.2774 -0.1856
 5980WAT      O24625   5.170   8.036   2.994 -0.0919  0.2601  0.3541
 5980WAT     H124626   5.088   8.007   3.000  0.5680 -1.6935  0.9141
 5980WAT     H224627   5.163   8.111   2.951 -2.0439 -0.6050 -0.9605
 5980WAT    EPW24628   5.157   8.043   2.988  0.4162  0.6388  0.9860
 5981WAT      O24629   5.840   7.660   2.539  0.2224  0.0811 -1.3946
 5981WAT     H124630   5.889   7.655   2.467 -0.7390 -0.4591 -2.0527
 5981WAT     H224631   5.769   7.703   2.512  0.2471  0.7040 -0.5108
 5981WAT    EPW24632   5.836   7.665   2.524 -0.3858 -0.2899 -0.6724
 5982WAT      O24633   7.123   7.498   2.711  0.7068 -0.2394  0.3644
 5982WAT     H124634   7.037   7.496   2.721  0.3799 -0.3211 -1.8565
 5982WAT     H224635   7.134   7.541   2.636  2.6648  0.5850  1.0340
 5982WAT    EPW24636   7.112   7.504   2.701  0.6324  0.3071 -0.4083
 5983WAT      O24637   4.106   7.117   2.537  0.4786  0.1510 -0.2363
 5983WAT     H124638   4.094   7.201   2.557  1.6834 -0.1586  2.1023
 5983WAT     H224639   4.034   7.097   2.492 -1.5296  1.5620  2.0963
 5983WAT    EPW24640   4.093   7.127   2.533  0.6449  0.2379  0.4847
 5984WAT      O24641   5.091   7.947   3.247  0.2883 -1.0364  0.4156
 5984WAT     H124642   5.018   7.979   3.213 -0.1252  0.2268  2.3265
 5984WAT     H224643   5.154   7.996   3.213 -0.2042  0.8708  2.0561
 5984WAT    EPW24644   5.090   7.959   3.237 -0.1237 -0.2052  0.4674
 5985WAT      O24645   3.953   7.677   0.813 -0.4604 -0.2214 -0.0588
 5985WAT     H124646   3.954   7.667   0.899 -0.4023  0.0443 -0.0292
 5985WAT     H224647   3.880   7.635   0.788 -0.1285 -0.8675  0.0472
 5985WAT    EPW24648   3.942   7.669   0.822  0.4222  0.6283 -0.5282
 5986WAT      O24649   4.909   0.350   1.386  0.2854  0.2244  0.4556
 5986WAT     H124650   4.890   0.375   1.468 -0.2519  1.0841  0.0834
 5986WAT     H224651   4.899   0.424   1.340  1.8435  0.0508 -0.1958
 5986WAT    EPW24652   4.904   0.365   1.391  0.5707  0.7044 -0.2930
 5987WAT      O24653   5.655   0.290   2.043 -0.1792 -0.3997  0.2088
 5987WAT     H124654   5.624   0.233   2.101  0.0497 -0.5214  0.2116
 5987WAT     H224655   5.719   0.247   2.002 -0.4501 -0.3738 -0.2552
 5987WAT    EPW24656   5.660   0.275   2.045  0.7193 -0.6391  0.4469
 5988WAT      O24657   4.446   5.791   1.810 -0.5170 -0.4554  0.2757
 5988WAT     H124658   4.394   5.741   1.760 -0.0654 -0.2395 -0.4226
 5988WAT     H224659   4.399   5.802   1.883 -0.9536 -1.2418  0.1293
 5988WAT    EPW24660   4.431   5.785   1.813 -0.1917  0.6780 -1.5764
 5989WAT      O24661   3.128   7.692   0.752  0.0187 -0.0049  0.3074
 5989WAT     H124662   3.086   7.650   0.688  0.4419 -0.3996  0.2809
 5989WAT     H224663   3.165   7.759   0.711 -1.2622  0.8325  0.4782
 5989WAT    EPW24664   3.127   7.696   0.737 -0.4658  0.5763 -0.5284
 5990WAT      O24665   3.398   6.530   2.256 -0.0658 -0.0944  0.2260
 5990WAT     H124666   3.442   6.534   2.181  0.6216 -1.0143  0.5492
 5990WAT     H224667   3.416   6.449   2.285  0.2592  0.4707  1.7161
 5990WAT    EPW24668   3.407   6.518   2.249  0.1000 -0.0625 -0.0165
 5991WAT      O24669   2.038   6.847   0.125  0.0646 -0.1883 -0.0356
 5991WAT     H124670   1.973   6.828   0.179 -0.9175  2.0313 -0.3351
 5991WAT     H224671   1.998   6.882   0.056  1.4152 -1.2920 -1.4670
 5991WAT    EPW24672   2.023   6.849   0.123  0.1894 -0.1780  0.1491
 5992WAT      O24673   2.145   6.488   0.489 -0.3286 -0.0220 -0.0796
 5992WAT     H124674   2.163   6.410   0.525  0.6129  0.3462  0.2810
 5992WAT     H224675   2.218   6.509   0.448  0.3144  1.7437  1.8120
 5992WAT    EPW24676   2.158   6.480   0.488  0.4928  0.2287  0.1731
 5993WAT      O24677   3.055   6.968   0.469 -0.2198  0.4161 -0.0806
 5993WAT     H124678   2.997   6.927   0.521  0.3104 -0.4422 -0.1377
 5993WAT     H224679   3.095   6.902   0.429  0.5228  1.0218 -0.3444
 5993WAT    EPW24680   3.052   6.952   0.471  0.1631 -1.4868 -0.7789
 5994WAT      O24681   4.662   7.828   1.126 -0.0852  0.3602  0.4432
 5994WAT     H124682   4.648   7.859   1.206  0.8122  1.1641  0.3161
 5994WAT     H224683   4.745   7.851   1.110  0.0621 -0.6521 -0.3338
 5994WAT    EPW24684   4.672   7.836   1.135  0.5769 -0.1948  0.2461
 5995WAT      O24685   2.659   7.951   0.377 -0.6430 -0.0956 -0.5722
 5995WAT     H124686   2.649   7.961   0.291  1.0730  0.9436 -0.6820
 5995WAT     H224687   2.732   7.903   0.384  0.6248  1.8509  0.2927
 5995WAT    EPW24688   2.668   7.945   0.365 -0.3338  0.6412 -0.7847
 5996WAT      O24689   3.493   6.009   7.580 -0.0462  0.6392 -0.0200
 5996WAT     H124690   3.426   6.042   7.536 -2.5411  0.0163  2.9362
 5996WAT     H224691   3.481   5.923   7.575 -1.2021  0.5426  2.7346
 5996WAT    EPW24692   3.482   6.001   7.573  0.0751  0.1204 -0.2634
 5997WAT      O24693   2.875   5.772   0.733  0.2140  0.1258 -0.0413
 5997WAT     H124694   2.876   5.858   0.747 -0.6760  0.2995 -0.8805
 5997WAT     H224695   2.832   5.741   0.802  0.4644  0.3528  0.2239
 5997WAT    EPW24696   2.869   5.780   0.745 -0.0209  0.5780 -0.8393
 5998WAT      O24697   3.773   7.305   0.985  0.5308 -0.3189  0.0950
 5998WAT     H124698   3.749   7.382   0.952  0.0376 -0.2017  0.7027
 5998WAT     H224699   3.781   7.254   0.915  1.9585  0.5579 -0.4359
 5998WAT    EPW24700   3.771   7.309   0.970  0.9921 -0.3240  0.7921
 5999WAT      O24701   3.261   7.406   7.777 -0.3719  0.3478  0.0145
 5999WAT     H124702   3.177   7.426   7.767 -1.4303 -2.7939  1.4517
 5999WAT     H224703   3.269   7.392   7.863  1.2258 -0.9182 -0.3010
 5999WAT    EPW24704   3.250   7.407   7.788  0.0595 -1.2038 -0.3752
 6000WAT      O24705   4.208   5.899   0.274  0.0760  0.2195  0.0285
 6000WAT     H124706   4.240   5.829   0.314  1.2580  0.0441 -1.1633
 6000WAT     H224707   4.124   5.899   0.298  0.1247 -1.4054  0.3227
 6000WAT    EPW24708   4.200   5.889   0.283  0.8427  0.9481  0.1726
 6001WAT      O24709   4.446   0.094   0.522  0.2808 -0.3461 -0.2120
 6001WAT     H124710   4.453   0.132   0.444 -2.8880 -0.6998 -0.8009
 6001WAT     H224711   4.403   0.153   0.570 -0.1629 -1.1772  0.4430
 6001WAT    EPW24712   4.441   0.108   0.518  0.0966  0.2572 -0.3126
 6002WAT      O24713   4.094   7.271   8.044  0.3848 -0.0978 -0.6452
 6002WAT     H124714   4.041   7.202   8.055  1.8366 -1.0092  1.3847
 6002WAT     H224715   4.040   7.339   8.042 -0.9192 -1.0453  0.6648
 6002WAT    EPW24716   4.078   7.271   8.046 -0.4285 -0.0984 -0.1091
 6003WAT      O24717   3.652   0.196   0.972 -0.5684 -0.0114 -0.4187
 6003WAT     H124718   3.584   0.157   1.011 -1.1810 -0.0979 -1.5483
 6003WAT     H224719   3.620   0.223   0.896  0.2089  1.5149 -0.2333
 6003WAT    EPW24720   3.638   0.194   0.967 -0.1748 -0.1927 -0.3611
 6004WAT      O24721   4.189   0.403   0.176  0.2393 -0.1399 -0.8613
 6004WAT     H124722   4.217   0.351   0.113 -1.3079 -0.9305 -0.9368
 6004WAT     H224723   4.180   0.350   0.244 -1.1840  0.0396 -0.8865
 6004WAT    EPW24724   4.192   0.388   0.177  0.8766  0.2176 -0.1676
 6005WAT      O24725   4.346   6.465   8.006 -0.2972 -0.1034 -0.6017
 6005WAT     H124726   4.329   6.395   7.957 -0.5591  0.7001 -1.6929
 6005WAT     H224727   4.354   6.432   8.086  0.6491 -1.5213 -1.2414
 6005WAT    EPW24728   4.345   6.449   8.010 -0.2710 -1.0865  0.2030
 6006WAT      O24729   4.030   0.926   7.596 -0.2830 -0.1360 -0.6721
 6006WAT     H124730   4.087   0.903   7.534 -0.1973 -1.2114 -0.2069
 6006WAT     H224731   3.954   0.928   7.555 -0.2083 -0.7297 -0.8412
 6006WAT    EPW24732   4.028   0.923   7.581 -0.0072  0.6767 -1.1361
 6007WAT      O24733   4.656   7.895   0.693  0.2049  0.0542 -0.4853
 6007WAT     H124734   4.625   7.845   0.758  1.6221 -2.5433 -1.6364
 6007WAT     H224735   4.675   7.970   0.732 -0.3980 -0.8823  1.7778
 6007WAT    EPW24736   4.654   7.898   0.708 -0.6455 -0.9687 -0.3417
 6008WAT      O24737   5.489   8.024   7.430 -0.4521  0.4181 -0.3108
 6008WAT     H124738   5.568   8.006   7.461 -0.4451  0.3406 -0.3735
 6008WAT     H224739   5.479   8.109   7.446 -0.6841  0.2524  0.4343
 6008WAT    EPW24740   5.499   8.034   7.437 -0.3360  0.3959  0.4207
 6009WAT      O24741   3.423   6.490   0.206 -0.4104 -0.2154 -0.1980
 6009WAT     H124742   3.404   6.490   0.291 -0.9672 -0.0199 -0.3160
 6009WAT     H224743   3.478   6.558   0.197 -0.1295 -0.4063  0.0448
 6009WAT    EPW24744   3.429   6.500   0.217 -0.1212 -0.0053  0.6703
 6010WAT      O24745   5.387   8.026   1.624  0.0699  0.2575 -0.1215
 6010WAT     H124746   5.456   8.035   1.572  1.8056  0.2555  2.0070
 6010WAT     H224747   5.422   8.029   1.704 -2.2812 -0.8458  1.0433
 6010WAT    EPW24748   5.402   8.028   1.628  0.0360 -0.2925 -0.7385
 6011WAT      O24749   3.825   7.795   6.437  0.2653 -0.8872 -0.4433
 6011WAT     H124750   3.904   7.823   6.414  0.5040  0.2941  1.6254
 6011WAT     H224751   3.830   7.786   6.523 -1.7758 -1.0467 -0.2945
 6011WAT    EPW24752   3.837   7.798   6.446 -0.4559  1.0771 -0.0227
 6012WAT      O24753   4.269   6.608   0.831  0.1118  0.2030 -0.3449
 6012WAT     H124754   4.270   6.579   0.749  1.5632  1.1930 -0.7277
 6012WAT     H224755   4.215   6.676   0.828 -1.1237 -0.7240 -0.0694
 6012WAT    EPW24756   4.261   6.614   0.818  0.3146 -0.1457 -0.0809
 6013WAT      O24757   4.757   0.845   1.297 -0.3301 -0.4594 -0.3909
 6013WAT     H124758   4.768   0.916   1.248  1.7319 -0.4667 -0.0007
 6013WAT     H224759   4.673   0.850   1.321  0.1028  2.7869  1.0458
 6013WAT    EPW24760   4.746   0.856   1.293 -0.5488 -0.0471  0.0459
 6014WAT      O24761   3.599   1.069   7.539 -0.6975  0.8595  0.1252
 6014WAT     H124762   3.562   0.994   7.515 -1.4443  0.6092  1.8921
 6014WAT     H224763   3.629   1.053   7.619  1.0364  1.8493 -0.2697
 6014WAT    EPW24764   3.598   1.056   7.547  0.2119 -0.0280  0.2938
 6015WAT      O24765   4.428   0.864   1.842  0.3344 -0.2145  0.0007
 6015WAT     H124766   4.462   0.917   1.902  1.5223 -0.0836 -0.7451
 6015WAT     H224767   4.452   0.784   1.868  0.8968 -0.1533 -0.3107
 6015WAT    EPW24768   4.437   0.860   1.854  0.1699  0.2234 -0.0293
 6016WAT      O24769   6.038   7.644   2.317 -0.0449 -0.0928  0.1580
 6016WAT     H124770   6.060   7.725   2.293  0.9487 -0.2844  0.3825
 6016WAT     H224771   6.055   7.596   2.247  0.6738 -0.3099  0.4763
 6016WAT    EPW24772   6.043   7.649   2.303  0.1824  0.1980 -0.3833
 6017WAT      O24773   4.765   0.529   0.916 -0.6703  0.9887 -0.2082
 6017WAT     H124774   4.848   0.528   0.943 -0.5000  4.3678 -0.2030
 6017WAT     H224775   4.770   0.562   0.835 -1.9787  0.7151 -0.4166
 6017WAT    EPW24776   4.778   0.534   0.908 -0.5305 -0.5981 -0.0248
 6018WAT      O24777   4.941   0.416   1.676 -0.2799  0.4565 -0.3491
 6018WAT     H124778   5.024   0.442   1.679 -0.4472  1.0061 -0.2276
 6018WAT     H224779   4.946   0.329   1.678  0.2137  0.4396  2.5105
 6018WAT    EPW24780   4.954   0.407   1.677 -0.1426  0.0098  0.7449
 6019WAT      O24781   3.153   5.728   7.255 -0.2348 -0.0762  0.1028
 6019WAT     H124782   3.142   5.705   7.171 -2.4990  0.9752  0.0648
 6019WAT     H224783   3.134   5.813   7.256  2.3385  0.5929  1.2877
 6019WAT    EPW24784   3.149   5.737   7.243 -0.5440 -0.5858 -0.2957
 6020WAT      O24785   3.221   6.972   7.244 -0.5133 -0.3644 -0.3416
 6020WAT     H124786   3.230   7.000   7.325  0.6208  0.5989 -0.7767
 6020WAT     H224787   3.137   6.985   7.226 -0.6380 -0.0514  0.4741
 6020WAT    EPW24788   3.210   6.978   7.253 -0.1782 -0.0730 -0.0740
 6021WAT      O24789   3.032   7.923   1.245  0.5204  0.4514  0.1712
 6021WAT     H124790   3.053   7.928   1.330  0.2449 -0.7365  0.3234
 6021WAT     H224791   2.957   7.968   1.241 -0.3426 -0.8280  0.9062
 6021WAT    EPW24792   3.024   7.930   1.257  0.1081 -0.4391 -0.7158
 6022WAT      O24793   5.208   7.337   0.418 -0.7622  0.2007  0.5640
 6022WAT     H124794   5.288   7.370   0.428 -0.9680  0.8643  0.1398
 6022WAT     H224795   5.219   7.252   0.432 -0.0708  0.3470  0.9707
 6022WAT    EPW24796   5.222   7.329   0.421  0.3603  0.8714 -0.4296
 6023WAT      O24797   3.566   6.329   0.961  0.0859 -0.1517  0.5601
 6023WAT     H124798   3.552   6.245   0.979  0.2349  0.0921  1.9184
 6023WAT     H224799   3.620   6.355   1.024 -1.6935  1.5162  1.5145
 6023WAT    EPW24800   3.572   6.321   0.973 -0.7548 -0.0749  0.2256
 6024WAT      O24801   3.707   5.901   7.327 -0.3047  0.4974 -0.0444
 6024WAT     H124802   3.743   5.979   7.342  0.4011  0.2176 -0.2593
 6024WAT     H224803   3.676   5.877   7.405 -0.9820  1.2136 -0.0838
 6024WAT    EPW24804   3.708   5.909   7.341 -0.2385  0.1564 -0.3699
 6025WAT      O24805   3.347   6.554   0.460  0.1875 -0.0494 -0.3413
 6025WAT     H124806   3.314   6.509   0.527  0.2363  1.1036  0.5026
 6025WAT     H224807   3.293   6.621   0.452  1.3973  1.0177  0.0212
 6025WAT    EPW24808   3.334   6.557   0.469  0.0445 -0.4691 -0.3383
 6026WAT      O24809   5.125   0.218   6.108 -0.8654  0.2102  0.4551
 6026WAT     H124810   5.194   0.169   6.129 -0.3833  0.4740 -0.4535
 6026WAT     H224811   5.087   0.234   6.185 -0.2636 -0.4504  0.9053
 6026WAT    EPW24812   5.129   0.213   6.122  0.5373 -0.4051  0.5595
 6027WAT      O24813   3.836   7.120   0.800  0.1323 -0.0181  0.0552
 6027WAT     H124814   3.886   7.146   0.734 -0.1164 -1.7113 -0.8503
 6027WAT     H224815   3.891   7.080   0.855  0.1534  0.3627  0.3187
 6027WAT    EPW24816   3.851   7.118   0.799  0.0623  0.0592 -0.0987
 6028WAT      O24817   1.969  -0.001   0.512 -0.4866  0.3097 -0.6075
 6028WAT     H124818   1.985   0.077   0.548  1.4059  0.1503 -1.0278
 6028WAT     H224819   1.974   0.014   0.426 -0.0979 -0.2739 -0.6923
 6028WAT    EPW24820   1.972   0.012   0.505  0.2749 -0.6912  0.2044
 6029WAT      O24821   4.079   6.852   2.176  0.2568  0.5670  0.1149
 6029WAT     H124822   4.013   6.908   2.163  0.0099  0.8616  2.2691
 6029WAT     H224823   4.135   6.898   2.226  0.2387 -0.9355  1.5809
 6029WAT    EPW24824   4.078   6.867   2.181  0.1188 -0.1983 -0.2181
 6030WAT      O24825   4.625   0.056   1.663 -0.7270  0.5435  0.0481
 6030WAT     H124826   4.544   0.048   1.694 -0.6511 -1.0929 -0.0926
 6030WAT     H224827   4.618   0.029   1.581 -0.4977  2.7905 -0.7991
 6030WAT    EPW24828   4.612   0.051   1.655  0.6563  0.0006  0.0647
 6031WAT      O24829   4.035   0.321   0.703  0.8931 -0.2020 -0.0382
 6031WAT     H124830   4.008   0.396   0.739  0.5506  0.4873 -1.6506
 6031WAT     H224831   3.970   0.265   0.722  0.9474  0.0015  0.7960
 6031WAT    EPW24832   4.021   0.324   0.711  0.4826  0.0640 -0.0365
 6032WAT      O24833   3.148   5.905   0.511 -0.0983 -0.0585 -0.0266
 6032WAT     H124834   3.153   5.986   0.544  0.5185  0.1463 -0.6000
 6032WAT     H224835   3.195   5.910   0.438 -0.6417 -0.7603 -0.4302
 6032WAT    EPW24836   3.156   5.918   0.505  0.2055 -0.2920 -0.7819
 6033WAT      O24837   3.603   6.020   1.341  0.7829 -0.0098 -0.2689
 6033WAT     H124838   3.590   6.055   1.262  0.2817  0.4209 -0.0003
 6033WAT     H224839   3.664   5.959   1.326  0.4592 -0.1604 -1.0499
 6033WAT    EPW24840   3.610   6.016   1.327  0.1138 -0.5349 -0.7036
 6034WAT      O24841   2.147   8.039   7.860 -0.1928  0.6256 -0.8718
 6034WAT     H124842   2.151   8.050   7.774 -1.2975  0.7948 -0.9132
 6034WAT     H224843   2.122   7.956   7.869  0.3234  0.4815 -0.6941
 6034WAT    EPW24844   2.144   8.028   7.848  0.4928  0.4708  0.3516
 6035WAT      O24845   4.590   7.781   0.171 -0.4427  0.5515  0.2021
 6035WAT     H124846   4.633   7.779   0.247 -0.6279  1.4599  0.3359
 6035WAT     H224847   4.569   7.697   0.157 -0.3041  0.3618  1.0862
 6035WAT    EPW24848   4.594   7.768   0.180 -0.5584 -0.3762 -0.8773
 6036WAT      O24849   1.588   7.056   0.978 -0.1732  0.1151  0.0697
 6036WAT     H124850   1.501   7.065   0.982 -0.1597 -0.1443  0.9698
 6036WAT     H224851   1.616   7.137   0.964 -0.4487  0.5205  1.7371
 6036WAT    EPW24852   1.579   7.069   0.976 -1.2873 -0.3612 -0.2232
 6037WAT      O24853   5.534   7.683   1.416 -0.5271  0.1241  0.1933
 6037WAT     H124854   5.532   7.599   1.393  0.2092 -0.6231  2.5630
 6037WAT     H224855   5.475   7.688   1.479  0.4221  1.0310  1.0412
 6037WAT    EPW24856   5.525   7.671   1.422 -0.8706  0.1998 -0.2574
 6038WAT      O24857   5.084   7.692   1.396  0.4564  0.4328  0.3014
 6038WAT     H124858   5.089   7.634   1.331 -0.4467  2.7224 -1.9843
 6038WAT     H224859   4.999   7.698   1.412 -0.0416  3.8131 -2.3775
 6038WAT    EPW24860   5.072   7.685   1.389  0.3996 -0.6254  0.0378
 6039WAT      O24861   3.415   7.081   0.344 -0.5985 -0.4510  0.5994
 6039WAT     H124862   3.426   7.011   0.293  0.3852  1.3782 -1.8920
 6039WAT     H224863   3.405   7.047   0.424 -1.0115 -3.4360 -0.6090
 6039WAT    EPW24864   3.415   7.065   0.349 -0.0917 -0.1925 -1.1094
 6040WAT      O24865   3.404   7.217   0.078 -0.4038  0.4663  0.0551
 6040WAT     H124866   3.330   7.260   0.063 -1.1472  0.0266  2.1532
 6040WAT     H224867   3.402   7.200   0.164  1.4790 -0.7556 -0.0632
 6040WAT    EPW24868   3.393   7.220   0.089  0.6461 -1.2250  0.0203
 6041WAT      O24869   4.946   7.819   0.672 -0.6295 -0.3797  0.4085
 6041WAT     H124870   4.859   7.831   0.669 -0.5915  0.0387  0.9191
 6041WAT     H224871   4.955   7.732   0.665 -1.0243 -0.3408 -0.9317
 6041WAT    EPW24872   4.934   7.808   0.670  1.0168 -0.9759  0.5554
 6042WAT      O24873   3.363   5.959   0.290  0.2948  0.2924 -0.3127
 6042WAT     H124874   3.314   6.024   0.258  0.7120  0.4254 -0.6920
 6042WAT     H224875   3.399   5.994   0.361 -1.1846 -0.2246  0.7444
 6042WAT    EPW24876   3.361   5.974   0.296  0.5048 -0.6503 -0.2846
 6043WAT      O24877   3.651   6.378   0.695 -0.2211  0.5024  0.1560
 6043WAT     H124878   3.614   6.377   0.774 -1.0483  1.9394 -0.1704
 6043WAT     H224879   3.733   6.354   0.710  0.1526  2.5557  1.7511
 6043WAT    EPW24880   3.658   6.374   0.709 -0.1795 -1.7608  0.2042
 6044WAT      O24881   2.517   7.446   0.716 -0.4485 -0.9243  0.3262
 6044WAT     H124882   2.560   7.416   0.646 -1.2565 -2.3171  0.3947
 6044WAT     H224883   2.526   7.382   0.775  0.5146  0.3725  1.6559
 6044WAT    EPW24884   2.525   7.432   0.714 -0.8559 -0.1309  0.7720
 6045WAT      O24885   3.462   5.647   0.614  0.1414 -0.6089 -0.2885
 6045WAT     H124886   3.400   5.601   0.654  2.6392 -2.6612  1.5770
 6045WAT     H224887   3.436   5.649   0.531 -2.4491 -1.1682  0.4230
 6045WAT    EPW24888   3.449   5.641   0.607  0.1905 -0.6837 -0.2108
 6046WAT      O24889   3.886   1.343   0.922 -0.1742 -0.6304  0.0578
 6046WAT     H124890   3.799   1.354   0.916 -0.1125  0.3913  0.7251
 6046WAT     H224891   3.895   1.298   0.997 -0.0155  1.4707  1.3634
 6046WAT    EPW24892   3.874   1.338   0.932  0.2806  0.8087 -0.3631
 6047WAT      O24893   4.975   7.946   1.573 -0.1303  0.2149  0.2921
 6047WAT     H124894   5.043   7.923   1.524  0.5476  0.5796  1.0516
 6047WAT     H224895   4.964   7.877   1.626 -0.4771  0.0783  0.0488
 6047WAT    EPW24896   4.983   7.932   1.574  0.1244 -0.1945 -0.3651
 6048WAT      O24897   4.709   7.499   0.436 -0.2124  0.0155 -0.0468
 6048WAT     H124898   4.667   7.423   0.450 -1.8291  0.9376  0.4116
 6048WAT     H224899   4.743   7.489   0.357 -0.9441 -0.9615 -0.2639
 6048WAT    EPW24900   4.708   7.486   0.426 -0.4505  0.5375 -0.6230
 6049WAT      O24901   2.855   6.061   0.800  0.0798 -0.3358 -0.3070
 6049WAT     H124902   2.787   6.069   0.747  1.7541 -1.7894 -2.8594
 6049WAT     H224903   2.913   6.118   0.768  0.4135  0.2989  1.3137
 6049WAT    EPW24904   2.854   6.071   0.788 -0.9720 -0.9851 -0.7123
 6050WAT      O24905   3.521   0.620   1.350  0.0321  0.3706 -0.0459
 6050WAT     H124906   3.484   0.665   1.415 -1.1916 -0.3164 -0.2310
 6050WAT     H224907   3.588   0.671   1.325 -1.1653  2.0054 -0.1077
 6050WAT    EPW24908   3.525   0.634   1.356 -0.9465 -0.2696  0.1106
 6051WAT      O24909   2.026   5.757   7.409  0.1026  0.0236  0.4026
 6051WAT     H124910   2.018   5.671   7.419  1.7941 -0.2040  0.1615
 6051WAT     H224911   2.088   5.778   7.467 -1.5345  1.4160  1.7642
 6051WAT    EPW24912   2.034   5.747   7.419  0.8653  0.4180 -0.8369
 6052WAT      O24913   4.564   7.622   7.521  0.0560  0.5400  0.1042
 6052WAT     H124914   4.541   7.563   7.581 -1.7961 -0.7528 -1.7049
 6052WAT     H224915   4.649   7.610   7.511  0.7093  1.6559  3.2327
 6052WAT    EPW24916   4.573   7.612   7.528 -0.4790  0.5077 -0.3830
 6053WAT      O24917   2.940   4.863   6.594 -0.1570  0.1258 -0.0526
 6053WAT     H124918   2.889   4.831   6.658  0.6632 -0.6038  0.2554
 6053WAT     H224919   2.925   4.808   6.528 -0.7799  0.7079 -0.4069
 6053WAT    EPW24920   2.930   4.850   6.594  1.1365  0.4552  0.7292
 6054WAT      O24921   3.927   5.190   7.432 -0.1617  0.2146 -0.0227
 6054WAT     H124922   3.897   5.170   7.511 -0.1940 -1.7993 -0.5008
 6054WAT     H224923   3.981   5.124   7.412  1.1863  1.5204 -1.0000
 6054WAT    EPW24924   3.931   5.178   7.440 -0.5339  0.1056  0.1789
 6055WAT      O24925   3.520   6.149   0.477  0.1329  0.0656 -1.0340
 6055WAT     H124926   3.563   6.208   0.430  0.4305  0.9132  0.2317
 6055WAT     H224927   3.515   6.186   0.556  0.0192 -1.4649 -0.2876
 6055WAT    EPW24928   3.525   6.163   0.482 -0.2919 -0.1721 -0.1041
 6056WAT      O24929   2.619   6.994   0.437 -0.0831 -0.3418  0.0968
 6056WAT     H124930   2.624   7.008   0.523 -0.7227  0.4016  0.0269
 6056WAT     H224931   2.678   7.048   0.404  0.4889 -0.9589  0.0861
 6056WAT    EPW24932   2.628   7.004   0.445  0.7354 -0.6302  0.3973
 6057WAT      O24933   2.788   4.029   0.164  0.2692  0.1603  0.4175
 6057WAT     H124934   2.710   4.033   0.126  0.0667  2.5617  0.9202
 6057WAT     H224935   2.792   3.948   0.195 -2.2549  0.1179  0.8006
 6057WAT    EPW24936   2.777   4.018   0.163  0.0290  0.2034 -0.0596
 6058WAT      O24937   3.108   7.039   0.015 -0.6461 -0.0128  0.5699
 6058WAT     H124938   3.021   7.029   0.017 -1.1107  2.6477 -1.2167
 6058WAT     H224939   3.124   7.090   0.084 -0.7444  0.6412  0.1220
 6058WAT    EPW24940   3.098   7.045   0.025  0.6427 -0.6968  0.2637
 6059WAT      O24941   4.334   5.773   7.824 -0.6028 -0.1380 -0.3841
 6059WAT     H124942   4.307   5.717   7.885 -0.0567  1.2953  1.2591
 6059WAT     H224943   4.420   5.758   7.819 -0.5262  0.2289 -0.2544
 6059WAT    EPW24944   4.343   5.763   7.832  0.2960  0.0314 -0.0659
 6060WAT      O24945   3.334   4.399   6.390  0.1551 -0.1492 -0.5149
 6060WAT     H124946   3.412   4.389   6.427 -0.3279 -0.3684  0.4714
 6060WAT     H224947   3.339   4.478   6.353  0.0704  0.8976  1.5605
 6060WAT    EPW24948   3.347   4.409   6.390 -0.6781  0.2176 -0.9853
 6061WAT      O24949   4.121   6.224   0.202  0.5542  0.2068 -0.7094
 6061WAT     H124950   4.123   6.195   0.284 -0.7939  1.0401 -0.3505
 6061WAT     H224951   4.199   6.262   0.191  1.5773 -1.7649 -0.5561
 6061WAT    EPW24952   4.133   6.226   0.212  0.4439  0.2430 -0.1774
 6062WAT      O24953   4.456   6.269   0.811 -0.4395  0.3661  0.0462
 6062WAT     H124954   4.426   6.262   0.729 -0.8098  0.1837  0.1964
 6062WAT     H224955   4.510   6.201   0.819 -0.0772  0.6253 -0.1852
 6062WAT    EPW24956   4.459   6.258   0.800 -0.0525  0.4564 -0.5708
 6063WAT      O24957   4.394   5.603   0.793 -0.5502 -0.6827  0.5995
 6063WAT     H124958   4.319   5.627   0.756  0.0628  0.4549  0.0430
 6063WAT     H224959   4.388   5.632   0.874  0.5094  2.2933 -0.2666
 6063WAT    EPW24960   4.382   5.611   0.799  1.0303  0.4763  0.1341
 6064WAT      O24961   5.275   4.268   1.091  0.0158 -0.0548  0.3927
 6064WAT     H124962   5.210   4.327   1.097 -2.3734 -2.5128  0.7305
 6064WAT     H224963   5.250   4.205   1.145  1.0611 -2.5758 -1.8562
 6064WAT    EPW24964   5.261   4.268   1.099  0.2897  0.1090 -0.7549
 6065WAT      O24965   3.882   5.375   6.835  0.1948  0.0311  0.1135
 6065WAT     H124966   3.797   5.367   6.819  0.1423 -1.0692  0.8465
 6065WAT     H224967   3.888   5.448   6.882 -0.0123  1.5469 -2.0546
 6065WAT    EPW24968   3.870   5.385   6.839  0.7760 -0.8493 -0.5488
 6066WAT      O24969   2.292   4.026   7.857 -0.0060 -0.6573 -0.1918
 6066WAT     H124970   2.334   4.101   7.840 -0.8885 -0.2234 -0.5105
 6066WAT     H224971   2.209   4.044   7.838  0.0678 -2.4287 -2.5794
 6066WAT    EPW24972   2.286   4.040   7.852  0.8310 -0.2019 -0.6346
 6067WAT      O24973   1.689   7.902   7.933 -0.0250 -0.1255  0.7805
 6067WAT     H124974   1.682   7.842   7.996  1.6546 -1.0691  0.1321
 6067WAT     H224975   1.608   7.906   7.901 -0.2762 -1.8128  1.0839
 6067WAT    EPW24976   1.676   7.894   7.937  0.4732 -0.6315  0.7734
 6068WAT      O24977   4.540   6.655   6.776 -0.2594  0.3141 -1.0221
 6068WAT     H124978   4.461   6.657   6.738 -1.0418  0.9311  0.5345
 6068WAT     H224979   4.534   6.718   6.836  1.7536  0.9705 -1.4525
 6068WAT    EPW24980   4.527   6.665   6.779  0.5349 -0.6429 -0.7725
 6069WAT      O24981   4.373   6.792   1.398  0.1257  0.1327  0.3922
 6069WAT     H124982   4.459   6.778   1.396  0.3918  1.5199 -1.6511
 6069WAT     H224983   4.351   6.789   1.314 -1.8268 -0.0896  0.8747
 6069WAT    EPW24984   4.383   6.789   1.385 -0.1210  0.5989  0.3247
 6070WAT      O24985   2.525   7.024   0.168  0.7156 -0.6122 -0.0747
 6070WAT     H124986   2.568   6.996   0.238  0.7370 -0.0140  0.1591
 6070WAT     H224987   2.589   7.040   0.110  0.7492 -0.5061 -0.0092
 6070WAT    EPW24988   2.541   7.023   0.170 -0.6964  0.6575  0.3803
 6071WAT      O24989   3.039   6.601   8.008  0.6052 -0.3697  0.3860
 6071WAT     H124990   3.029   6.641   7.931 -0.5033 -0.9786  0.1973
 6071WAT     H224991   3.099   6.649   8.048 -1.1414  1.8830  0.4412
 6071WAT    EPW24992   3.046   6.614   8.002 -0.1635 -0.1120  0.2690
 6072WAT      O24993   4.499   4.996   0.218 -0.3512  0.6429  0.1868
 6072WAT     H124994   4.582   5.000   0.244 -0.0198 -0.9155 -0.5432
 6072WAT     H224995   4.462   5.063   0.260  1.0280  0.7076  1.4002
 6072WAT    EPW24996   4.506   5.007   0.228 -0.4460 -0.0215  0.0462
 6073WAT      O24997   3.305   5.531   0.106  0.4943 -0.2077 -0.5119
 6073WAT     H124998   3.350   5.532   0.031 -1.0954  0.8012 -1.5079
 6073WAT     H224999   3.231   5.571   0.086 -0.3142 -0.6246  1.4255
 6073WAT    EPW25000   3.301   5.537   0.092  0.3048  0.5790 -0.1477
 6074WAT      O25001   2.397   7.522   0.202  0.3886  0.1516 -0.6860
 6074WAT     H125002   2.363   7.565   0.269  0.9618  1.4528 -1.1796
 6074WAT     H225003   2.446   7.460   0.239  0.1887  0.4446  0.0681
 6074WAT    EPW25004   2.400   7.519   0.217  0.4353 -0.1019  0.0509
 6075WAT      O25005   4.479   5.660   6.697 -0.1540  0.5508  0.3032
 6075WAT     H125006   4.509   5.578   6.697 -1.0069  0.2139 -1.2339
 6075WAT     H225007   4.551   5.708   6.693  0.3143 -0.1655 -0.1366
 6075WAT    EPW25008   4.494   5.655   6.697  0.5268  0.3621 -0.5532
 6076WAT      O25009   4.234   5.224   7.101  0.4788 -0.3502 -0.4000
 6076WAT     H125010   4.226   5.253   7.019  0.3546 -0.6475 -0.4907
 6076WAT     H225011   4.287   5.155   7.094  0.8097 -0.1232 -0.1744
 6076WAT    EPW25012   4.241   5.218   7.088  0.4763 -0.1670  0.1734
 6077WAT      O25013   3.902   7.446   7.191  0.3761 -0.3770  0.0045
 6077WAT     H125014   3.986   7.458   7.210  0.7172 -1.0926 -0.9936
 6077WAT     H225015   3.877   7.523   7.161  1.1179 -0.5858 -1.2209
 6077WAT    EPW25016   3.911   7.459   7.190 -0.1921 -0.6599 -1.3790
 6078WAT      O25017   3.872   5.644   0.404  0.6542 -0.0696 -0.4030
 6078WAT     H125018   3.890   5.727   0.384  0.5628 -0.3356 -1.6429
 6078WAT     H225019   3.903   5.599   0.337  0.9513 -1.0772  0.3864
 6078WAT    EPW25020   3.879   5.649   0.391  0.4228  0.3000  0.4423
 6079WAT      O25021   4.428   5.601   7.223  0.1245 -0.0458 -0.7930
 6079WAT     H125022   4.415   5.685   7.206 -4.4840 -0.3961 -0.1632
 6079WAT     H225023   4.444   5.566   7.144  1.0930  1.1713 -1.1814
 6079WAT    EPW25024   4.429   5.608   7.209 -0.5154 -0.7406  0.7076
 6080WAT      O25025   2.567   4.897   0.490 -0.1441  0.1718  0.1577
 6080WAT     H125026   2.561   4.856   0.567  0.3614  0.3834  0.3196
 6080WAT     H225027   2.568   4.832   0.432  0.4471 -0.0500  0.4007
 6080WAT    EPW25028   2.566   4.881   0.493  0.3045 -0.6768 -0.5750
 6081WAT      O25029   4.598   4.995   1.056  0.3872 -0.6159  0.3255
 6081WAT     H125030   4.603   4.947   0.983 -0.8019 -0.7321  0.2996
 6081WAT     H225031   4.680   5.025   1.066  0.0282  1.9436 -2.7681
 6081WAT    EPW25032   4.611   4.993   1.046 -0.2651  0.2154 -0.1081
 6082WAT      O25033   5.614   5.925   7.963 -0.6149  0.0991  0.0422
 6082WAT     H125034   5.670   5.884   7.910 -2.1724 -1.5518 -0.4277
 6082WAT     H225035   5.623   5.883   8.038  0.1586  1.1475  0.5693
 6082WAT    EPW25036   5.624   5.913   7.966  1.0793  0.3153  0.2576
 6083WAT      O25037   3.603   0.108   0.125 -0.1969 -0.1673  0.0596
 6083WAT     H125038   3.619   0.022   0.122  0.9573  0.0198  0.2249
 6083WAT     H225039   3.662   0.138   0.183 -0.7882  0.6916  0.2408
 6083WAT    EPW25040   3.614   0.100   0.133  0.7029  0.7401  0.3749
 6084WAT      O25041   4.725   5.111   7.648 -0.4039  0.6347 -0.6367
 6084WAT     H125042   4.744   5.054   7.585 -0.5496 -1.3362  0.9974
 6084WAT     H225043   4.798   5.114   7.696 -1.2145 -0.2159  0.7240
 6084WAT    EPW25044   4.738   5.103   7.646  0.5092 -0.0022  0.2170
 6085WAT      O25045   3.183   5.639   6.991  0.3632 -0.3145  0.0919
 6085WAT     H125046   3.206   5.663   6.910 -0.2950 -0.2946 -0.0883
 6085WAT     H225047   3.145   5.562   6.980  0.8383 -0.6066  0.4614
 6085WAT    EPW25048   3.181   5.631   6.977 -0.2046  0.1102 -0.3986
 6086WAT      O25049   3.384   6.633   6.761 -0.4045 -0.1914 -0.0228
 6086WAT     H125050   3.311   6.660   6.801 -1.3921 -2.1392 -0.3771
 6086WAT     H225051   3.407   6.702   6.713 -2.2065  0.3979 -0.1352
 6086WAT    EPW25052   3.376   6.647   6.760  0.5406  0.3476  0.7867
 6087WAT      O25053   3.618   4.962   7.352  0.8866  0.2521  0.0269
 6087WAT     H125054   3.577   4.985   7.425 -2.0441 -1.4182 -0.9360
 6087WAT     H225055   3.673   5.029   7.338 -0.6966  2.1306  2.0451
 6087WAT    EPW25056   3.620   4.975   7.361  0.0896 -0.0071 -0.8651
 6088WAT      O25057   2.641   4.322   1.484  0.3439  0.3410  0.1192
 6088WAT     H125058   2.719   4.325   1.524  0.9020 -0.5138 -0.8462
 6088WAT     H225059   2.632   4.238   1.464  0.7675  0.8605 -2.7293
 6088WAT    EPW25060   2.651   4.310   1.487  0.2342  0.1401 -0.1962
 6089WAT      O25061   2.982   5.598   6.554  0.5919 -0.0276  0.2362
 6089WAT     H125062   2.934   5.597   6.626  1.0854  0.0871  0.5719
 6089WAT     H225063   3.054   5.642   6.577  0.4101  0.7226 -0.5544
 6089WAT    EPW25064   2.986   5.604   6.568  0.8827 -0.0502  0.0155
 6090WAT      O25065   5.579   5.380   6.705  0.9174 -0.2345  0.2801
 6090WAT     H125066   5.647   5.411   6.750  1.4438 -1.6628  0.5008
 6090WAT     H225067   5.561   5.304   6.744 -0.4253 -0.1663 -0.1619
 6090WAT    EPW25068   5.587   5.373   6.717  0.7201 -0.0473  0.1804
 6091WAT      O25069   4.672   6.399   8.043 -0.0148 -0.0256  0.1576
 6091WAT     H125070   4.654   6.477   8.007  0.1284 -0.3376 -0.6084
 6091WAT     H225071   4.605   6.349   8.020 -0.5105  0.0749  1.3358
 6091WAT    EPW25072   4.660   6.403   8.034  0.5314 -1.0348 -0.0360
 6092WAT      O25073   4.648   5.979   7.551 -0.0712 -0.1846  0.1740
 6092WAT     H125074   4.723   5.943   7.527  0.0800 -1.0272  1.7601
 6092WAT     H225075   4.659   5.995   7.636 -1.0308  1.4133  0.0482
 6092WAT    EPW25076   4.660   5.976   7.560 -0.2310  0.8390 -0.4357
 6093WAT      O25077   3.762   6.438   0.016 -0.7660 -0.4528  0.0222
 6093WAT     H125078   3.795   6.494  -0.042 -0.0699 -0.9449 -0.0711
 6093WAT     H225079   3.794   6.466   0.092  0.0726 -1.0613 -0.0945
 6093WAT    EPW25080   3.771   6.451   0.019  0.1904 -1.0001 -0.4824
 6094WAT      O25081   4.942   4.009   0.468 -0.1340  0.3563 -0.0029
 6094WAT     H125082   5.001   4.068   0.443 -0.7066  1.4262  1.0343
 6094WAT     H225083   4.866   4.048   0.452 -0.6244 -1.1928 -1.7753
 6094WAT    EPW25084   4.939   4.023   0.462  0.3181 -0.4857 -1.1150
 6095WAT      O25085   3.807   4.766   0.723 -0.2891 -1.0899 -0.1203
 6095WAT     H125086   3.776   4.686   0.735  2.5248 -2.8657 -3.0635
 6095WAT     H225087   3.874   4.771   0.778  0.1978 -1.2507 -0.6815
 6095WAT    EPW25088   3.812   4.755   0.733  0.6088 -0.0153 -0.1550
 6096WAT      O25089   3.562   6.857   0.222  0.4294  0.6055 -0.5778
 6096WAT     H125090   3.642   6.844   0.190  1.7837  1.3177  2.2263
 6096WAT     H225091   3.559   6.808   0.294 -2.9434 -1.9704 -2.1483
 6096WAT    EPW25092   3.573   6.848   0.228 -0.5376 -0.5142  0.1114
 6097WAT      O25093   5.060   4.490   1.156  0.1850  0.2947 -0.0663
 6097WAT     H125094   5.014   4.541   1.102 -0.0491  0.1914  0.0348
 6097WAT     H225095   5.103   4.547   1.206  0.9079  0.3967 -0.7805
 6097WAT    EPW25096   5.060   4.506   1.156 -0.5511  0.1533 -0.9563
 6098WAT      O25097   3.568   5.865   0.775 -0.1233 -0.3205 -0.5093
 6098WAT     H125098   3.506   5.914   0.813  0.2895 -1.2356  1.4699
 6098WAT     H225099   3.526   5.790   0.757  0.1478 -0.5605 -0.1380
 6098WAT    EPW25100   3.552   5.861   0.778 -0.1792 -0.9278 -0.5251
 6099WAT      O25101   3.098   6.167   0.577  0.2944 -0.2437 -0.2046
 6099WAT     H125102   3.096   6.188   0.661 -1.6535 -1.1501  0.0272
 6099WAT     H225103   3.089   6.243   0.536 -1.4567 -0.0366  0.5003
 6099WAT    EPW25104   3.096   6.181   0.583 -0.0195 -0.3308  0.4571
 6100WAT      O25105   4.218   5.200   7.687 -0.2716 -0.3360 -0.0321
 6100WAT     H125106   4.212   5.255   7.620 -0.6024 -1.6247 -1.1008
 6100WAT     H225107   4.167   5.132   7.663 -0.2209 -0.9310  1.4135
 6100WAT    EPW25108   4.209   5.198   7.674  0.5383 -0.1538  0.4178
 6101WAT      O25109   3.614   5.302   6.746 -0.0984 -0.1787 -0.1071
 6101WAT     H125110   3.572   5.364   6.790  0.3950 -0.5140  0.8824
 6101WAT     H225111   3.611   5.329   6.664 -0.0496  1.0768  0.2788
 6101WAT    EPW25112   3.607   5.315   6.741 -0.3175 -0.1016  0.1949
 6102WAT      O25113   4.474   6.204   8.000 -0.5047  0.2856  0.0867
 6102WAT     H125114   4.438   6.160   8.066 -0.0783  0.4311  0.4144
 6102WAT     H225115   4.525   6.145   7.961 -2.7959 -0.6509 -1.8172
 6102WAT    EPW25116   4.476   6.189   8.004 -0.0941  0.4383  0.2259
 6103WAT      O25117   3.560   4.132   7.801 -0.5871  0.4969 -0.1863
 6103WAT     H125118   3.619   4.196   7.806  0.7612 -0.7659  1.7406
 6103WAT     H225119   3.524   4.131   7.880 -0.0986 -1.4760  0.0734
 6103WAT    EPW25120   3.564   4.141   7.813  0.3277 -0.8619  0.3130
 6104WAT      O25121   3.234   6.408   7.456  0.0019  0.1706 -0.2954
 6104WAT     H125122   3.162   6.456   7.468 -0.6290 -0.6259 -0.7919
 6104WAT     H225123   3.271   6.407   7.535 -1.2632 -0.5341  0.3167
 6104WAT    EPW25124   3.229   6.415   7.470 -0.3703 -0.1502  0.2087
 6105WAT      O25125   4.597   5.513   0.061 -0.5200  0.0716  0.1320
 6105WAT     H125126   4.564   5.506   0.141  0.8291  0.8019  0.7916
 6105WAT     H225127   4.681   5.494   0.072 -0.4123 -0.3257 -1.2138
 6105WAT    EPW25128   4.605   5.509   0.074 -0.6490 -0.0091 -0.1388
 6106WAT      O25129   4.872   6.617   0.939  0.0786  0.0982  0.3574
 6106WAT     H125130   4.928   6.659   0.887 -0.3351  0.4855  0.2153
 6106WAT     H225131   4.907   6.625   1.018 -0.4786  1.5756  0.4865
 6106WAT    EPW25132   4.885   6.625   0.943 -0.1349 -0.1219  0.9066
 6107WAT      O25133   3.996   3.944   0.020  0.3871  0.2889 -0.2419
 6107WAT     H125134   3.933   3.914   0.072  2.0713 -1.1995  1.0605
 6107WAT     H225135   3.965   3.931  -0.060  0.0556 -2.9837  0.2882
 6107WAT    EPW25136   3.982   3.938   0.016  0.0485 -0.4200 -0.3318
 6108WAT      O25137   3.933   5.139   6.998  0.0454  0.3287  0.3764
 6108WAT     H125138   3.913   5.211   6.952  2.1274  0.3183 -0.6192
 6108WAT     H225139   3.895   5.075   6.953 -0.6519  0.6283  0.5113
 6108WAT    EPW25140   3.924   5.140   6.985  0.7728 -0.2948  0.4489
 6109WAT      O25141   5.053   6.730   0.750 -0.3059  0.5061 -0.1781
 6109WAT     H125142   5.053   6.817   0.743  0.5262  0.5193 -0.1246
 6109WAT     H225143   5.128   6.713   0.791 -0.6813 -0.2082  0.2304
 6109WAT    EPW25144   5.064   6.740   0.755  0.5832  0.3158  0.0281
 6110WAT      O25145   3.653   5.813   0.181 -0.7714  0.1932  0.2238
 6110WAT     H125146   3.674   5.897   0.190 -1.4335  0.6726 -2.0434
 6110WAT     H225147   3.601   5.797   0.250  0.4400  1.2056  1.4406
 6110WAT    EPW25148   3.649   5.823   0.193 -0.5936 -1.4510 -0.3291
 6111WAT      O25149   4.215   4.700   6.423 -0.1104  0.3811  0.1043
 6111WAT     H125150   4.183   4.777   6.449 -2.4168 -1.0031  1.7958
 6111WAT     H225151   4.145   4.660   6.388  0.2612 -1.8887  1.6981
 6111WAT    EPW25152   4.200   4.705   6.422  0.6073  0.0083 -0.4417
 6112WAT      O25153   2.900   5.921   7.805  0.1239 -0.2771  0.0174
 6112WAT     H125154   2.979   5.928   7.842  0.8959 -1.9296 -1.2222
 6112WAT     H225155   2.910   5.962   7.729  0.5223 -2.3957 -1.1373
 6112WAT    EPW25156   2.914   5.928   7.799  0.7965 -0.3650 -0.5008
 6113WAT      O25157   3.268   5.362   0.406  0.2037  0.6512 -0.3214
 6113WAT     H125158   3.228   5.439   0.407  1.6413  1.4440  0.4570
 6113WAT     H225159   3.244   5.325   0.482  0.0458  0.6302 -0.3820
 6113WAT    EPW25160   3.259   5.368   0.418  0.4157 -1.1984  0.5811
 6114WAT      O25161   4.434   6.655   0.276  0.2941  0.2726  0.3247
 6114WAT     H125162   4.493   6.688   0.221 -0.0113  1.6580  0.7995
 6114WAT     H225163   4.453   6.692   0.352 -0.8280  0.3084  0.6067
 6114WAT    EPW25164   4.445   6.665   0.279  0.6856  0.9967 -1.0086
 6115WAT      O25165   4.286   6.508   0.573 -0.1628 -0.0339  0.3619
 6115WAT     H125166   4.314   6.428   0.553 -0.6767  0.0408 -0.6941
 6115WAT     H225167   4.356   6.558   0.560  0.2223 -0.3266  1.2335
 6115WAT    EPW25168   4.300   6.504   0.568 -0.2465  0.0641 -0.0338
 6116WAT      O25169   3.497   5.214   0.796 -0.2513  0.3559  0.5778
 6116WAT     H125170   3.536   5.266   0.738  0.1003  0.2006  0.6732
 6116WAT     H225171   3.445   5.268   0.840  0.5105  0.7354  1.0322
 6116WAT    EPW25172   3.495   5.229   0.794 -0.5768 -0.3196 -0.0271
 6117WAT      O25173   4.347   6.293   7.718  0.2843  0.1803  0.2558
 6117WAT     H125174   4.338   6.215   7.754  1.7099 -0.3260 -0.4194
 6117WAT     H225175   4.433   6.307   7.720  0.3184  0.6336 -1.8276
 6117WAT    EPW25176   4.359   6.284   7.723  0.0887 -0.4671  0.0753
 6118WAT      O25177   5.189   4.984   0.638 -0.5448 -0.4819  0.3752
 6118WAT     H125178   5.241   5.048   0.666  0.6480 -1.2264 -0.0768
 6118WAT     H225179   5.126   4.982   0.698  0.8438 -0.6647  1.9144
 6118WAT    EPW25180   5.187   4.994   0.651 -0.8848 -0.2319 -0.2648
 6119WAT      O25181   5.559   7.249   0.037  0.1711 -0.0678  0.3689
 6119WAT     H125182   5.520   7.305  -0.017 -0.2780 -0.6875  0.0405
 6119WAT     H225183   5.612   7.299   0.084 -0.2118  0.6290  0.0665
 6119WAT    EPW25184   5.561   7.264   0.036 -0.5180 -0.1651 -0.5566
 6120WAT      O25185   3.905   6.276   7.545  0.6321  0.3068  0.0586
 6120WAT     H125186   3.897   6.215   7.607  1.4637 -0.7710 -0.8597
 6120WAT     H225187   3.973   6.324   7.573 -1.4510  2.4081  2.0129
 6120WAT    EPW25188   3.914   6.274   7.558  0.5459 -0.2344  0.4010
 6121WAT      O25189   3.822   5.499   6.535  0.0181  0.7447 -0.3234
 6121WAT     H125190   3.836   5.527   6.617  1.9000 -0.8103 -0.0334
 6121WAT     H225191   3.837   5.570   6.487  1.7649  1.0442  0.5518
 6121WAT    EPW25192   3.826   5.514   6.540  0.4345  0.2817 -0.3088
 6122WAT      O25193   5.152   6.160   7.987 -0.0071  0.0323  0.4160
 6122WAT     H125194   5.129   6.244   7.991  1.9362  0.5523  2.7360
 6122WAT     H225195   5.229   6.163   7.945  0.6438 -0.4215  1.5547
 6122WAT    EPW25196   5.160   6.173   7.981 -0.0087  0.5074  0.1026
 6123WAT      O25197   4.937   6.488   0.141  0.1643 -0.5419  0.1649
 6123WAT     H125198   4.930   6.446   0.217 -1.0004 -2.1060 -0.7652
 6123WAT     H225199   4.855   6.505   0.118  0.4858 -0.2323 -0.8216
 6123WAT    EPW25200   4.924   6.485   0.149 -0.2663 -0.5840 -0.3529
 6124WAT      O25201   3.345   6.466   1.093 -0.1767 -0.0230 -0.2871
 6124WAT     H125202   3.410   6.427   1.049 -0.8421 -1.2171 -0.2675
 6124WAT     H225203   3.387   6.507   1.157  0.6720  0.3806 -1.0659
 6124WAT    EPW25204   3.361   6.466   1.096 -0.1437  0.1341  0.9749
 6125WAT      O25205   4.895   7.773   7.390 -0.0880  0.3102 -0.1762
 6125WAT     H125206   4.873   7.697   7.426  0.1861  0.3199  0.0149
 6125WAT     H225207   4.956   7.805   7.444  0.8004  0.0245 -0.9908
 6125WAT    EPW25208   4.901   7.767   7.404  0.3920 -0.0011 -0.7749
 6126WAT      O25209   3.365   7.028   7.671 -0.0876 -0.2593  0.1595
 6126WAT     H125210   3.449   7.018   7.649 -0.3195 -1.5996 -0.2072
 6126WAT     H225211   3.368   7.035   7.758  0.5091  1.2324  0.0588
 6126WAT    EPW25212   3.378   7.028   7.681  0.0303 -0.0072 -0.4332
 6127WAT      O25213   5.281   5.251   7.619 -0.0797 -0.2573 -0.1292
 6127WAT     H125214   5.344   5.213   7.664 -0.2393  1.3485  1.5703
 6127WAT     H225215   5.214   5.253   7.675 -1.0183 -0.1890 -1.2218
 6127WAT    EPW25216   5.280   5.246   7.634  0.3022 -0.5661 -0.0814
 6128WAT      O25217   5.854   4.628   7.113  0.5872 -0.1423 -0.2275
 6128WAT     H125218   5.811   4.684   7.062  2.2907  0.7112 -0.7884
 6128WAT     H225219   5.832   4.652   7.194 -0.6065 -0.2562 -0.5048
 6128WAT    EPW25220   5.844   4.640   7.117  0.1738 -0.7657 -0.5405
 6129WAT      O25221   3.743   6.540   7.544  0.0290 -0.4284 -0.1570
 6129WAT     H125222   3.705   6.550   7.466 -0.3347  0.4242  0.1314
 6129WAT     H225223   3.809   6.485   7.526  0.5862  0.5604 -1.2747
 6129WAT    EPW25224   3.747   6.533   7.530 -0.3372  0.6744 -0.4177
 6130WAT      O25225   4.224   4.232   1.366 -0.1870  0.3456  0.2008
 6130WAT     H125226   4.179   4.161   1.342  1.4997 -0.3491 -1.0385
 6130WAT     H225227   4.200   4.292   1.308 -0.2261  0.2640  0.1326
 6130WAT    EPW25228   4.214   4.231   1.354  0.0851 -0.5554 -0.3761
 6131WAT      O25229   3.268   6.134   7.414  0.3571  0.4343  0.5094
 6131WAT     H125230   3.261   6.220   7.403  0.6373  0.2685 -1.1705
 6131WAT     H225231   3.191   6.112   7.449 -0.8130  1.0356 -1.5209
 6131WAT    EPW25232   3.255   6.143   7.418 -0.0192 -0.2697 -0.7723
 6132WAT      O25233   5.096   5.296   7.846 -0.3679 -0.1000  0.4094
 6132WAT     H125234   5.155   5.342   7.891 -0.4772  1.0123 -0.5248
 6132WAT     H225235   5.057   5.357   7.797 -2.0903 -0.8472  0.7783
 6132WAT    EPW25236   5.099   5.312   7.846 -0.4545 -0.3875 -0.0103
 6133WAT      O25237   3.629   6.605   7.294  0.0874  0.2867 -0.2067
 6133WAT     H125238   3.630   6.529   7.252 -0.7696  0.5510 -0.7211
 6133WAT     H225239   3.561   6.647   7.259  1.0695  1.6414 -0.5721
 6133WAT    EPW25240   3.619   6.600   7.283 -0.1625 -0.6009 -0.0125
 6134WAT      O25241   4.890   6.190   7.762  0.6612  0.0300  0.3298
 6134WAT     H125242   4.947   6.142   7.716 -1.4673 -1.8761 -0.5035
 6134WAT     H225243   4.927   6.195   7.841  2.0236 -1.0215 -0.2043
 6134WAT    EPW25244   4.904   6.184   7.767  0.0437 -0.2869  1.0093
 6135WAT      O25245   2.686   6.426   6.315  0.0382  0.2474  0.1695
 6135WAT     H125246   2.739   6.392   6.376  1.6275 -0.7645 -1.6533
 6135WAT     H225247   2.707   6.511   6.315  0.5725  0.1190  0.5245
 6135WAT    EPW25248   2.697   6.434   6.324 -0.9559  0.5001 -0.1661
 6136WAT      O25249   5.323   6.665   0.183  0.0113  0.3260  0.2739
 6136WAT     H125250   5.251   6.694   0.222 -0.2035 -0.1176  0.2143
 6136WAT     H225251   5.337   6.587   0.219  0.6588  0.5537  0.5279
 6136WAT    EPW25252   5.315   6.658   0.194 -1.0495 -0.2772 -0.1588
 6137WAT      O25253   2.525   4.052   0.073  0.1579  0.2827  0.0663
 6137WAT     H125254   2.497   4.051   0.156  0.0551 -1.0037  0.0343
 6137WAT     H225255   2.501   4.130   0.044 -2.1246 -0.2127  0.4806
 6137WAT    EPW25256   2.518   4.063   0.081 -0.1507 -0.7050 -0.3758
 6138WAT      O25257   3.972   5.925   1.170  0.0271  0.4704 -0.3500
 6138WAT     H125258   3.939   5.935   1.251 -1.5636 -1.1079 -0.7398
 6138WAT     H225259   4.033   5.864   1.180 -0.4643 -0.0382 -0.3799
 6138WAT    EPW25260   3.976   5.918   1.184  0.2706  0.2584  0.3345
 6139WAT      O25261   4.909   5.358   6.849 -0.5096  1.1512 -0.0364
 6139WAT     H125262   4.899   5.284   6.893 -0.0083  1.4818  0.6632
 6139WAT     H225263   4.975   5.341   6.794  0.5915  1.4832  1.1182
 6139WAT    EPW25264   4.917   5.345   6.848  0.0132  0.2560 -0.0914
 6140WAT      O25265   3.433   7.275   7.541 -0.1904  0.1514  0.5068
 6140WAT     H125266   3.385   7.346   7.558 -3.7080 -1.3198 -1.8972
 6140WAT     H225267   3.395   7.212   7.588  0.4416 -0.8050 -0.2133
 6140WAT    EPW25268   3.420   7.276   7.550  0.5270 -0.7176  0.0315
 6141WAT      O25269   3.633   4.771   5.885  0.0837  0.0682  0.2671
 6141WAT     H125270   3.715   4.743   5.885 -0.2078 -0.8408  0.2631
 6141WAT     H225271   3.586   4.697   5.878 -0.7197  0.5939 -0.1103
 6141WAT    EPW25272   3.638   4.756   5.884 -0.4134 -0.2453 -0.9745
 6142WAT      O25273   4.625   4.847   0.827 -0.3212 -0.1141 -0.1299
 6142WAT     H125274   4.553   4.801   0.848 -0.6911  0.5730  0.1259
 6142WAT     H225275   4.679   4.786   0.796 -0.5386 -0.8485  0.8521
 6142WAT    EPW25276   4.622   4.831   0.826  0.1964 -0.1889  0.1393
 6143WAT      O25277   4.851   5.905   7.361  0.2746  0.2076  0.3191
 6143WAT     H125278   4.930   5.876   7.381 -0.3143 -0.9633  1.0812
 6143WAT     H225279   4.864   5.990   7.343  1.5515  0.2630  1.3172
 6143WAT    EPW25280   4.864   5.914   7.361  0.2351  0.4225  0.0799
 6144WAT      O25281   5.897   4.529   0.233  0.0473 -0.4977  0.3034
 6144WAT     H125282   5.887   4.445   0.255  0.2725 -0.7111 -0.3723
 6144WAT     H225283   5.852   4.535   0.158  0.2158 -0.0650  0.2355
 6144WAT    EPW25284   5.889   4.517   0.225  0.6793 -0.4155  0.4482
 6145WAT      O25285   4.239   7.439   0.424 -0.2993  0.1319 -0.2006
 6145WAT     H125286   4.206   7.519   0.435 -0.6723  0.0527 -0.7330
 6145WAT     H225287   4.250   7.433   0.338  0.1632 -0.2187 -0.1193
 6145WAT    EPW25288   4.236   7.450   0.413 -0.9480 -0.2547  0.0005
 6146WAT      O25289   3.339   5.423   7.306 -0.1122 -0.5554  0.0962
 6146WAT     H125290   3.350   5.506   7.284  1.5337  0.1044  2.8728
 6146WAT     H225291   3.394   5.380   7.254 -1.5363 -0.1079 -1.9067
 6146WAT    EPW25292   3.348   5.429   7.295 -1.0123 -0.0237 -0.9018
 6147WAT      O25293   5.059   6.337   7.392 -0.2711  0.6861 -0.1355
 6147WAT     H125294   5.022   6.337   7.471 -0.5982 -1.3741 -0.2477
 6147WAT     H225295   5.138   6.303   7.407 -1.2118 -2.1015 -0.9998
 6147WAT    EPW25296   5.066   6.332   7.406  0.3222 -0.1425 -0.0321
 6148WAT      O25297   4.190   4.570   0.003 -0.0817 -0.0702 -0.1440
 6148WAT     H125298   4.204   4.588  -0.081  0.7096  0.2237  0.0428
 6148WAT     H225299   4.235   4.632   0.045 -0.0921 -0.4852  0.4935
 6148WAT    EPW25300   4.199   4.582  -0.003 -0.1541 -0.7853 -0.6616
 6149WAT      O25301   3.876   6.309   7.080 -0.1844  0.4472  0.7770
 6149WAT     H125302   3.804   6.346   7.113 -0.3857  0.9129 -0.1516
 6149WAT     H225303   3.884   6.235   7.126 -0.2408  1.2446  2.1097
 6149WAT    EPW25304   3.866   6.304   7.092  0.1190  0.7508 -0.2981
 6150WAT      O25305   4.019   4.789   0.197  0.1746  0.8313 -0.4407
 6150WAT     H125306   3.973   4.831   0.136 -0.6220  2.1133  0.9669
 6150WAT     H225307   4.090   4.838   0.206  0.5059  0.3940 -0.6356
 6150WAT    EPW25308   4.022   4.802   0.189  0.4061  0.4612 -0.1928
 6151WAT      O25309   5.131   4.780   7.473 -0.6490  0.7490  0.0209
 6151WAT     H125310   5.079   4.715   7.446 -0.6422  0.5188  0.5474
 6151WAT     H225311   5.180   4.743   7.535 -1.7443  1.6232  1.4807
 6151WAT    EPW25312   5.130   4.765   7.478 -0.1801  0.3374 -0.6949
 6152WAT      O25313   4.282   6.786   1.134  0.2016  0.1551  0.0994
 6152WAT     H125314   4.313   6.836   1.069 -1.1896  0.4205 -0.3965
 6152WAT     H225315   4.308   6.706   1.112 -0.0077  0.2848 -0.6478
 6152WAT    EPW25316   4.290   6.782   1.121 -0.2504  0.0826  0.1432
 6153WAT      O25317   3.521   4.806   0.087  0.0757  0.0134  0.2624
 6153WAT     H125318   3.509   4.892   0.080  0.0377  0.0820  1.0768
 6153WAT     H225319   3.586   4.800   0.144  0.6119 -0.4872 -0.3777
 6153WAT    EPW25320   3.529   4.818   0.094 -0.9601  0.0756  0.4966
 6154WAT      O25321   3.573   5.469   6.973 -0.5118 -0.0261  0.1140
 6154WAT     H125322   3.552   5.406   7.029  0.0705  0.4917  0.9419
 6154WAT     H225323   3.650   5.498   7.003  0.0716 -0.0996 -1.2683
 6154WAT    EPW25324   3.581   5.464   6.986 -0.3856 -0.7565 -0.0985
 6155WAT      O25325   5.255   6.032   1.216  0.2130 -0.3760  0.1822
 6155WAT     H125326   5.231   6.060   1.137 -1.3904  1.7153  1.3307
 6155WAT     H225327   5.328   6.077   1.232 -0.5787  0.7492  0.6968
 6155WAT    EPW25328   5.263   6.043   1.206 -0.6339  0.4748  0.0059
 6156WAT      O25329   3.068   5.699   0.024 -0.0943 -0.3082  0.3989
 6156WAT     H125330   3.121   5.767   0.008 -0.5200  0.0429  0.4672
 6156WAT     H225331   3.073   5.652  -0.049  2.0031 -1.4445  1.1793
 6156WAT    EPW25332   3.077   5.702   0.011  0.5615  0.2438 -0.8803
 6157WAT      O25333   3.326   6.328   8.053  0.0891 -0.4421  0.0059
 6157WAT     H125334   3.339   6.393   8.109  1.8293 -2.1878  1.7800
 6157WAT     H225335   3.401   6.325   8.008 -0.4179 -0.5295 -0.8539
 6157WAT    EPW25336   3.339   6.337   8.054  0.2266 -0.3341 -0.5538
 6158WAT      O25337   4.195   5.150   6.212 -0.4246 -0.3095 -0.3159
 6158WAT     H125338   4.215   5.181   6.133 -0.4609 -0.6257 -0.4513
 6158WAT     H225339   4.212   5.217   6.266 -0.0354 -0.2203 -0.5501
 6158WAT    EPW25340   4.200   5.165   6.209  0.7709  0.7477 -0.1878
 6159WAT      O25341   3.073   6.021   6.668 -0.4801  0.1087 -0.3041
 6159WAT     H125342   2.994   6.005   6.634 -1.4257  1.1977  1.2555
 6159WAT     H225343   3.057   6.032   6.753  1.0573  2.2130 -0.2063
 6159WAT    EPW25344   3.059   6.020   6.676 -0.1736 -0.2669  0.0343
 6160WAT      O25345   4.906   6.642   4.267  0.0304  0.0118 -0.2220
 6160WAT     H125346   4.896   6.557   4.253 -0.0496  0.0130 -0.1730
 6160WAT     H225347   4.919   6.675   4.187  1.8900 -0.2844 -0.0705
 6160WAT    EPW25348   4.906   6.634   4.253 -0.0977 -0.6174  0.0730
 6161WAT      O25349   3.940   4.377   6.748 -0.1258 -0.1646 -0.2175
 6161WAT     H125350   3.854   4.377   6.759 -0.0988  0.0009 -0.0077
 6161WAT     H225351   3.964   4.296   6.768 -0.0648  0.1491  1.0567
 6161WAT    EPW25352   3.931   4.365   6.753 -0.1264  1.7526 -0.9598
 6162WAT      O25353   4.471   5.872   7.143 -0.1534 -0.2174 -0.6978
 6162WAT     H125354   4.434   5.849   7.067  0.7174  1.6994 -1.7795
 6162WAT     H225355   4.452   5.957   7.150  0.5423 -0.1499  0.8047
 6162WAT    EPW25356   4.463   5.881   7.133  1.1339 -0.0915 -0.6443
 6163WAT      O25357   4.209   6.760   4.332  0.0178 -0.0807 -0.0850
 6163WAT     H125358   4.256   6.701   4.377  0.6346  1.9533  2.1728
 6163WAT     H225359   4.128   6.746   4.360  0.1959  0.2436  0.6316
 6163WAT    EPW25360   4.204   6.749   4.343  0.9155  0.1870  0.2656
 6164WAT      O25361   4.224   5.477   4.558  0.1820 -0.4966 -0.1623
 6164WAT     H125362   4.204   5.505   4.638 -0.7758  1.1878 -0.9202
 6164WAT     H225363   4.154   5.428   4.536 -0.9136  1.3393 -0.9657
 6164WAT    EPW25364   4.210   5.474   4.566  0.1783 -0.3667 -0.4174
 6165WAT      O25365   4.562   6.723   4.820 -0.4031  0.0118 -0.5416
 6165WAT     H125366   4.578   6.646   4.783 -0.0666 -0.7832  1.1423
 6165WAT     H225367   4.639   6.746   4.855 -0.4322  1.2513 -1.2441
 6165WAT    EPW25368   4.576   6.715   4.820  0.2246  0.7356 -0.4760
 6166WAT      O25369   3.822   5.584   7.035 -0.3428  0.2845 -0.2617
 6166WAT     H125370   3.861   5.547   7.104 -2.2584 -1.1330  0.1395
 6166WAT     H225371   3.829   5.670   7.052 -0.5085 -0.0150  1.5886
 6166WAT    EPW25372   3.829   5.591   7.048  0.4264  0.6610 -1.3209
 6167WAT      O25373   3.456   5.392   5.655  0.1214 -0.2062  0.1912
 6167WAT     H125374   3.534   5.412   5.623 -1.0189  1.7751 -1.6429
 6167WAT     H225375   3.432   5.321   5.609 -0.1224  0.6400 -1.0280
 6167WAT    EPW25376   3.464   5.384   5.643  0.7766 -0.4451 -0.1821
 6168WAT      O25377   2.149   6.921   7.704  0.5030 -0.0597  0.8617
 6168WAT     H125378   2.180   6.950   7.627  0.7688 -1.3921  0.4409
 6168WAT     H225379   2.134   6.994   7.749 -1.3289  0.8602 -1.0726
 6168WAT    EPW25380   2.152   6.936   7.699 -0.1585  0.6712 -0.2731
 6169WAT      O25381   3.326   5.762   6.362 -0.2842  0.5012 -0.1365
 6169WAT     H125382   3.318   5.683   6.399  0.1832  1.0606  1.2322
 6169WAT     H225383   3.375   5.806   6.419  0.2854  1.4955 -1.3526
 6169WAT    EPW25384   3.332   5.756   6.376 -0.1360  0.4497 -0.7247
 6170WAT      O25385   3.589   5.904   5.345  0.2108 -0.5732 -0.1405
 6170WAT     H125386   3.617   5.973   5.392 -1.9106 -0.3119  0.8507
 6170WAT     H225387   3.592   5.838   5.401 -1.0658 -0.5374  0.0021
 6170WAT    EPW25388   3.594   5.905   5.360 -0.5968 -0.4312 -0.9446
 6171WAT      O25389   4.617   6.756   5.447  0.0955  0.3296 -0.4498
 6171WAT     H125390   4.629   6.674   5.475 -1.3679  1.1054  2.9877
 6171WAT     H225391   4.684   6.799   5.483  1.0325  0.6857 -2.4867
 6171WAT    EPW25392   4.629   6.750   5.457  0.2386  0.1300 -0.0871
 6172WAT      O25393   3.712   6.029   6.739  0.2043 -0.5366 -0.3730
 6172WAT     H125394   3.665   6.069   6.801  2.4963  0.2726  0.9948
 6172WAT     H225395   3.696   5.945   6.752  0.8625 -0.4143  1.6444
 6172WAT    EPW25396   3.703   6.023   6.750  0.0651  0.2174 -0.0718
 6173WAT      O25397   3.212   3.049   6.251 -0.0052  0.1660  0.1378
 6173WAT     H125398   3.134   3.061   6.286  1.7901  0.4738  4.6675
 6173WAT     H225399   3.254   3.001   6.310  2.7214 -1.7654 -2.9833
 6173WAT    EPW25400   3.207   3.043   6.265 -0.0731 -0.2196 -0.2888
 6174WAT      O25401   3.447   5.484   5.935  0.1197  0.1001  0.0087
 6174WAT     H125402   3.467   5.447   5.859  1.0815  0.5953  0.0002
 6174WAT     H225403   3.487   5.562   5.931 -0.2110  0.3261  0.8244
 6174WAT    EPW25404   3.456   5.490   5.923  0.4172  0.0994 -0.0354
 6175WAT      O25405   2.943   5.550   4.950  0.4906 -0.7436 -0.1236
 6175WAT     H125406   2.902   5.618   4.986 -0.2294 -1.1503 -0.1710
 6175WAT     H225407   2.971   5.504   5.019  0.1622 -0.8848 -0.0801
 6175WAT    EPW25408   2.941   5.553   4.965  0.6394  0.1262 -0.3478
 6176WAT      O25409   5.214   7.240   6.013 -0.3920  0.7647 -0.3081
 6176WAT     H125410   5.142   7.283   6.037  0.6165  1.8456  0.9034
 6176WAT     H225411   5.183   7.174   5.964 -2.2600  0.7590  0.7801
 6176WAT    EPW25412   5.199   7.236   6.010  0.8040  0.1199 -0.3875
 6177WAT      O25413   4.273   6.370   5.093 -0.0745  0.4640 -0.1100
 6177WAT     H125414   4.191   6.364   5.065  0.5803  0.2340 -2.1448
 6177WAT     H225415   4.303   6.442   5.052  1.2505 -0.5037 -0.9382
 6177WAT    EPW25416   4.265   6.380   5.083  0.2909 -0.3949  0.0215
 6178WAT      O25417   4.729   6.470   5.735  0.2729 -0.0190 -0.0368
 6178WAT     H125418   4.691   6.477   5.657 -0.1385 -0.0007  0.1627
 6178WAT     H225419   4.678   6.518   5.788  0.1536 -0.5897  0.3783
 6178WAT    EPW25420   4.716   6.478   5.732 -0.6114  0.5106  0.3409
 6179WAT      O25421   3.423   4.742   5.630  0.1627  0.0407 -0.3205
 6179WAT     H125422   3.340   4.755   5.607 -0.2803 -1.5011  0.2263
 6179WAT     H225423   3.424   4.761   5.715  0.5118  0.6330 -0.4589
 6179WAT    EPW25424   3.411   4.747   5.639 -0.4057 -0.1969  0.7408
 6180WAT      O25425   5.173   3.040   7.033  0.2370 -0.2934  0.1070
 6180WAT     H125426   5.215   2.968   7.008  0.9113  0.8505 -2.4444
 6180WAT     H225427   5.169   3.033   7.120  0.3308 -3.3210 -0.0171
 6180WAT    EPW25428   5.179   3.028   7.042 -0.4229 -0.1586  0.3684
 6181WAT      O25429   2.304   6.678   6.439 -0.2241  0.2179  0.0041
 6181WAT     H125430   2.281   6.613   6.386  2.1518 -1.1345  0.4815
 6181WAT     H225431   2.228   6.713   6.464 -1.4906 -0.9887 -1.9460
 6181WAT    EPW25432   2.290   6.674   6.435  0.0532  0.0638 -0.2923
 6182WAT      O25433   5.515   7.008   6.112 -0.4036  0.7678 -0.1369
 6182WAT     H125434   5.573   6.967   6.163  1.4457  3.8761  0.5379
 6182WAT     H225435   5.551   7.086   6.099 -2.3208  1.2918 -3.6409
 6182WAT    EPW25436   5.529   7.013   6.117 -0.7901 -0.5398 -0.0862
 6183WAT      O25437   4.019   6.027   5.411 -0.1158  0.7515  0.0541
 6183WAT     H125438   4.056   6.038   5.333  0.5434 -0.1205  0.2313
 6183WAT     H225439   3.944   6.071   5.404  1.1595  3.0070 -0.1221
 6183WAT    EPW25440   4.013   6.035   5.398  0.2304  0.0616  0.1178
 6184WAT      O25441   4.091   4.823   6.033  0.1383 -0.6151 -0.2026
 6184WAT     H125442   4.042   4.866   6.091 -0.7636  0.5869 -1.7676
 6184WAT     H225443   4.033   4.773   5.990  0.5398 -0.4709 -0.9391
 6184WAT    EPW25444   4.075   4.822   6.035 -0.0490 -0.2079 -0.3093
 6185WAT      O25445   3.962   6.066   5.784  0.1268 -0.4838  0.3362
 6185WAT     H125446   3.965   6.109   5.860  0.5165  1.6248 -0.8090
 6185WAT     H225447   4.044   6.039   5.773  0.2595 -0.0535  0.2650
 6185WAT    EPW25448   3.975   6.068   5.794 -0.3911  0.2289  0.4178
 6186WAT      O25449   4.321   7.571   5.237  0.2513  0.5554  0.4824
 6186WAT     H125450   4.271   7.632   5.274  0.7053  1.1756  0.0825
 6186WAT     H225451   4.368   7.540   5.304 -1.4174 -0.8404  1.0991
 6186WAT    EPW25452   4.321   7.575   5.252  0.0476 -0.2337 -0.7772
 6187WAT      O25453   3.336   4.634   6.210  0.3786  0.0262 -0.2009
 6187WAT     H125454   3.297   4.695   6.162 -0.4025  0.6635  1.1716
 6187WAT     H225455   3.419   4.661   6.213  0.4686 -0.1034 -1.2892
 6187WAT    EPW25456   3.342   4.647   6.204 -0.2675  0.2002 -0.6959
 6188WAT      O25457   3.169   6.280   4.488  0.2527 -0.8657 -0.1146
 6188WAT     H125458   3.163   6.196   4.465  0.6454 -0.8887 -0.1340
 6188WAT     H225459   3.231   6.280   4.549  0.5061 -0.5400 -0.3680
 6188WAT    EPW25460   3.177   6.267   4.493 -0.1082  0.1830 -1.6231
 6189WAT      O25461   3.250   6.832   6.296 -0.7255  0.2268 -0.1918
 6189WAT     H125462   3.186   6.824   6.237 -1.9077  3.9738  0.3019
 6189WAT     H225463   3.207   6.831   6.372  0.4325 -1.7079  0.4863
 6189WAT    EPW25464   3.234   6.831   6.299  0.1021  0.6512 -0.6423
 6190WAT      O25465   4.290   4.132   6.694  0.1782 -0.2462  0.3168
 6190WAT     H125466   4.285   4.067   6.753 -0.0560 -0.2756  0.2647
 6190WAT     H225467   4.209   4.137   6.663  0.7453 -1.7322 -1.6056
 6190WAT    EPW25468   4.277   4.123   6.698 -0.2219  0.0417 -0.8576
 6191WAT      O25469   2.380   3.795   5.798  0.1723  0.1357 -0.5401
 6191WAT     H125470   2.374   3.730   5.857  0.9742 -1.8493 -2.4805
 6191WAT     H225471   2.317   3.777   5.741  1.0434  0.4513 -1.6466
 6191WAT    EPW25472   2.370   3.782   5.798 -0.0670  0.3608  0.3330
 6192WAT      O25473   4.880   6.873   6.967 -0.2778  0.0450 -0.2807
 6192WAT     H125474   4.863   6.792   6.939  0.0204  0.0220 -0.3955
 6192WAT     H225475   4.957   6.892   6.930  1.2433 -0.7790  2.2218
 6192WAT    EPW25476   4.889   6.864   6.957 -0.2762  0.4249  1.1208
 6193WAT      O25477   2.896   6.807   5.614 -0.5166 -0.1936 -0.1762
 6193WAT     H125478   2.825   6.857   5.606  1.7507  3.0263 -2.4844
 6193WAT     H225479   2.945   6.850   5.671  0.7795 -0.7236 -0.8464
 6193WAT    EPW25480   2.893   6.821   5.621  0.3343  0.0013 -0.2359
 6194WAT      O25481   4.415   5.063   5.493 -0.1286 -0.1382  0.4629
 6194WAT     H125482   4.376   4.986   5.484  0.8800 -0.6645  0.5266
 6194WAT     H225483   4.476   5.063   5.431  1.5906 -0.4804  2.0688
 6194WAT    EPW25484   4.418   5.052   5.483 -0.6509 -0.0512 -0.1323
 6195WAT      O25485   4.134   0.214   6.039  0.6486  0.5093 -0.1484
 6195WAT     H125486   4.092   0.283   6.007  0.8429  0.7751  0.1607
 6195WAT     H225487   4.165   0.174   5.968 -1.1161 -0.3628 -0.4994
 6195WAT    EPW25488   4.132   0.218   6.024 -0.8472 -0.5656 -0.1947
 6196WAT      O25489   4.556   7.654   6.299  0.1974  0.1633  0.0529
 6196WAT     H125490   4.476   7.676   6.273 -0.6515 -0.6336  1.7766
 6196WAT     H225491   4.568   7.575   6.264 -0.5611 -0.5093  1.2392
 6196WAT    EPW25492   4.546   7.646   6.290 -0.8180  1.1636 -0.0951
 6197WAT      O25493   2.830   6.617   4.617  0.6381  0.3975  0.0587
 6197WAT     H125494   2.768   6.674   4.594  0.9782  0.8572  0.2840
 6197WAT     H225495   2.894   6.631   4.560  0.7081  0.2080  0.0890
 6197WAT    EPW25496   2.830   6.627   4.605  0.1356  0.6924 -0.6239
 6198WAT      O25497   3.863   5.786   5.505 -0.0849 -0.1813  0.0375
 6198WAT     H125498   3.926   5.843   5.484  0.1451 -0.3443  0.2749
 6198WAT     H225499   3.906   5.724   5.549 -0.4876 -0.0595  0.6172
 6198WAT    EPW25500   3.879   5.785   5.508 -0.5300 -0.8345 -0.9886
 6199WAT      O25501   3.840   7.221   7.063  0.1097  0.4146  0.2252
 6199WAT     H125502   3.853   7.300   7.098 -0.8460 -0.4420  2.6817
 6199WAT     H225503   3.753   7.211   7.065  0.2484 -0.9411  0.5634
 6199WAT    EPW25504   3.829   7.231   7.068 -0.3587 -0.3509 -0.1907
 6200WAT      O25505   4.208   5.956   5.741  0.0295 -0.4583  0.2693
 6200WAT     H125506   4.230   5.998   5.814 -0.3346  1.3815 -0.6177
 6200WAT     H225507   4.172   5.882   5.770 -0.1846  0.2562  1.9378
 6200WAT    EPW25508   4.206   5.951   5.756 -0.1889 -0.8556 -1.0667
 6201WAT      O25509   4.486   5.467   6.996 -0.6705 -0.4976  0.2188
 6201WAT     H125510   4.560   5.489   6.956 -0.6111 -1.1153 -0.0278
 6201WAT     H225511   4.460   5.396   6.953  0.0894 -1.9860  2.0774
 6201WAT    EPW25512   4.494   5.460   6.983 -0.8339 -1.0841 -0.2857
 6202WAT      O25513   3.668   6.465   6.628  0.1847 -0.0458  0.0320
 6202WAT     H125514   3.680   6.538   6.675  0.9151  0.0571 -0.3031
 6202WAT     H225515   3.646   6.495   6.549  0.2514 -0.1908 -0.0424
 6202WAT    EPW25516   3.667   6.480   6.623  0.5077 -1.0065 -0.1433
 6203WAT      O25517   4.372   6.560   7.448 -0.0254  0.3896  0.1273
 6203WAT     H125518   4.389   6.587   7.367  2.1223  0.3681  0.5264
 6203WAT     H225519   4.303   6.609   7.472 -0.2274  0.9197 -1.4132
 6203WAT    EPW25520   4.364   6.571   7.439  0.5649 -0.4017  0.5628
 6204WAT      O25521   4.983   4.144   6.161  0.0350 -0.1974  0.8585
 6204WAT     H125522   4.941   4.203   6.112 -0.1429  0.8283  2.1914
 6204WAT     H225523   5.007   4.083   6.103  0.8240  1.4982 -0.7089
 6204WAT    EPW25524   4.980   4.144   6.145 -0.5435  0.5640 -0.5629
 6205WAT      O25525   2.550   6.674   8.010  0.3001 -0.4012  0.0583
 6205WAT     H125526   2.494   6.726   8.052  0.2400 -1.2017  1.0156
 6205WAT     H225527   2.520   6.674   7.928 -2.0580 -1.9156  0.7750
 6205WAT    EPW25528   2.537   6.681   8.004 -0.3854 -0.5808 -0.1059
 6206WAT      O25529   5.051   4.882   6.076 -0.4152  0.2934 -0.5513
 6206WAT     H125530   5.125   4.858   6.117 -0.6786  1.1295  0.4697
 6206WAT     H225531   5.079   4.937   6.014 -0.2358  1.5113  0.5635
 6206WAT    EPW25532   5.066   4.887   6.073 -0.7275 -0.3717 -0.6365
 6207WAT      O25533   5.181   6.688   5.143  0.9586  0.1656  0.5110
 6207WAT     H125534   5.190   6.736   5.071  1.5418 -1.2643 -0.4240
 6207WAT     H225535   5.095   6.691   5.159  0.7440  0.0906 -0.5570
 6207WAT    EPW25536   5.170   6.696   5.135  0.3131  0.7112 -0.4904
 6208WAT      O25537   2.980   6.984   4.477 -0.0975  0.1856 -0.3536
 6208WAT     H125538   2.907   6.994   4.523  0.2405  0.4553  0.1431
 6208WAT     H225539   2.979   6.899   4.455  0.4170 -0.3234  1.3988
 6208WAT    EPW25540   2.969   6.973   4.481 -0.5509 -0.5849 -1.2699
 6209WAT      O25541   3.233   5.078   5.603  0.1088  0.7234 -0.4863
 6209WAT     H125542   3.287   5.118   5.547 -0.8453  1.8973 -0.6266
 6209WAT     H225543   3.188   5.145   5.638 -0.9889 -0.1790 -0.1235
 6209WAT    EPW25544   3.234   5.094   5.600 -0.1754  0.8051 -0.5181
 6210WAT      O25545   6.199   6.318   7.693  0.1031  0.4566  0.5831
 6210WAT     H125546   6.151   6.262   7.647 -0.4712  0.6420  0.9429
 6210WAT     H225547   6.222   6.378   7.634  1.8231 -0.7942 -0.1121
 6210WAT    EPW25548   6.195   6.319   7.678 -0.3741 -0.4986  0.5036
 6211WAT      O25549   4.225   5.543   5.239 -0.0349  0.4909  0.0212
 6211WAT     H125550   4.185   5.620   5.238 -1.0189  0.0084  0.3096
 6211WAT     H225551   4.165   5.489   5.273  0.8934 -0.2573  0.5425
 6211WAT    EPW25552   4.210   5.546   5.244  0.1107 -1.0129  0.9900
 6212WAT      O25553   3.318   5.631   4.609  0.0495  0.4887  0.0189
 6212WAT     H125554   3.397   5.596   4.622 -0.5897 -0.5838  1.1595
 6212WAT     H225555   3.286   5.640   4.689 -0.4825  2.1742 -0.3526
 6212WAT    EPW25556   3.325   5.627   4.623 -0.1996 -0.0198  0.2381
 6213WAT      O25557   2.222   4.004   6.274  0.6334  0.1341  0.1550
 6213WAT     H125558   2.199   4.074   6.227 -0.8963  0.3466  1.1376
 6213WAT     H225559   2.147   3.960   6.283  0.7736  0.2684  2.5897
 6213WAT    EPW25560   2.208   4.008   6.269  0.3291  0.4196  0.4396
 6214WAT      O25561   2.754   4.280   6.858 -0.2116  0.0062  0.1315
 6214WAT     H125562   2.837   4.303   6.844  0.0578 -1.0345 -0.0656
 6214WAT     H225563   2.719   4.281   6.778  0.7324 -3.6651 -0.5009
 6214WAT    EPW25564   2.761   4.283   6.844 -0.8785 -0.3390 -0.2707
 6215WAT      O25565   5.767   5.593   7.617  0.6586  0.3089  0.2907
 6215WAT     H125566   5.709   5.603   7.552  1.7872 -1.7878 -1.1423
 6215WAT     H225567   5.720   5.554   7.680  0.0153  0.5419 -0.0394
 6215WAT    EPW25568   5.751   5.589   7.617 -1.1784  0.1004  0.3447
 6216WAT      O25569   3.098   6.396   3.642  0.1966  0.5277 -0.6343
 6216WAT     H125570   3.103   6.346   3.571  0.8817  0.9177 -0.8705
 6216WAT     H225571   3.115   6.476   3.613  1.7092  0.5344  0.1358
 6216WAT    EPW25572   3.102   6.401   3.627 -0.4887 -0.6132 -0.2672
 6217WAT      O25573   3.988   4.033   6.497 -0.1896  0.0038 -0.2228
 6217WAT     H125574   3.987   4.090   6.431 -0.4576  0.9109  0.5323
 6217WAT     H225575   4.005   4.083   6.566  0.9807 -1.0510  0.2876
 6217WAT    EPW25576   3.990   4.049   6.498  0.4391  0.5485  0.1378
 6218WAT      O25577   3.782   5.912   4.865  0.1973 -0.6798  0.2720
 6218WAT     H125578   3.861   5.909   4.829  1.5990 -0.8713  3.0413
 6218WAT     H225579   3.799   5.928   4.949 -2.8848  2.7298  0.5090
 6218WAT    EPW25580   3.796   5.914   4.872 -0.8096 -0.6715 -1.1457
 6219WAT      O25581   2.271   5.812   4.772  0.1105  0.2652  0.2050
 6219WAT     H125582   2.226   5.815   4.698 -0.9108 -0.3466  0.7732
 6219WAT     H225583   2.346   5.852   4.752 -0.9218  1.9475 -0.6045
 6219WAT    EPW25584   2.275   5.818   4.758  0.0809 -0.9151 -1.0450
 6220WAT      O25585   3.362   6.474   6.489 -0.1308 -0.0568  0.5533
 6220WAT     H125586   3.375   6.505   6.569  1.0721 -0.8354  0.6927
 6220WAT     H225587   3.276   6.474   6.480 -0.2480  1.5676  1.2157
 6220WAT    EPW25588   3.351   6.479   6.499  0.5760 -1.0068  0.1681
 6221WAT      O25589   4.679   5.732   2.796 -0.0022 -0.0366  0.6243
 6221WAT     H125590   4.671   5.677   2.863 -0.9984  2.6365  2.8906
 6221WAT     H225591   4.600   5.731   2.759  0.5529 -1.5261 -0.6207
 6221WAT    EPW25592   4.666   5.724   2.801 -0.3030  0.4537 -0.1960
 6222WAT      O25593   3.211   6.314   4.772  0.2914  0.0504 -0.1340
 6222WAT     H125594   3.148   6.256   4.752  1.7356 -1.5347 -0.3565
 6222WAT     H225595   3.169   6.390   4.775 -1.6916 -0.9936  0.0888
 6222WAT    EPW25596   3.196   6.316   4.769  0.7904 -0.2654 -0.4102
 6223WAT      O25597   3.313   6.757   5.724 -0.0949 -0.4774  0.6069
 6223WAT     H125598   3.362   6.712   5.779 -0.1836 -1.0449  0.2284
 6223WAT     H225599   3.259   6.697   5.690  0.0450 -0.1649 -0.1903
 6223WAT    EPW25600   3.312   6.742   5.727  0.4121 -0.0592 -0.6596
 6224WAT      O25601   4.843   4.872   7.515  0.1573 -0.2602 -0.4653
 6224WAT     H125602   4.926   4.847   7.503  0.4285 -0.4225  1.3750
 6224WAT     H225603   4.811   4.809   7.567 -1.2690 -0.4335 -1.5167
 6224WAT    EPW25604   4.851   4.859   7.521 -0.8540  0.6062 -0.4481
 6225WAT      O25605   4.322   5.283   6.837 -0.3732 -0.7093 -0.6894
 6225WAT     H125606   4.313   5.203   6.803  1.8122 -0.8855 -0.9731
 6225WAT     H225607   4.301   5.336   6.771  0.2742 -1.0577 -1.1785
 6225WAT    EPW25608   4.318   5.279   6.822  0.2163  0.1344 -0.6800
 6226WAT      O25609   4.178   6.422   5.848  0.0340  0.6436 -0.2949
 6226WAT     H125610   4.109   6.403   5.799  1.1900 -0.3520 -1.6327
 6226WAT     H225611   4.190   6.351   5.897 -0.5330  1.2563  0.7677
 6226WAT    EPW25612   4.170   6.409   5.848  0.6987  0.0389 -0.9611
 6227WAT      O25613   4.123   5.552   6.985  0.2210  0.2319 -0.2361
 6227WAT     H125614   4.049   5.576   6.946 -0.2415 -0.1751  0.3717
 6227WAT     H225615   4.185   5.593   6.939 -0.4494  1.4281 -0.0838
 6227WAT    EPW25616   4.121   5.561   6.972 -0.2161 -0.2200 -0.7226
 6228WAT      O25617   4.762   4.531   5.908  0.1491 -0.4583 -0.4432
 6228WAT     H125618   4.771   4.573   5.832 -0.0433 -0.2241 -0.3381
 6228WAT     H225619   4.676   4.527   5.918  0.1645 -0.9449 -0.4869
 6228WAT    EPW25620   4.751   4.536   5.898  0.1381 -0.4511 -0.7937
 6229WAT      O25621   4.097   7.225   6.420  0.4281 -0.4402  0.0068
 6229WAT     H125622   4.077   7.306   6.397 -2.1905 -1.2368 -0.9360
 6229WAT     H225623   4.104   7.229   6.507  0.4744  0.8323 -0.0515
 6229WAT    EPW25624   4.095   7.237   6.429 -0.8046 -0.2340 -0.0129
 6230WAT      O25625   4.234   5.510   5.949  0.3964 -0.2786  0.5125
 6230WAT     H125626   4.304   5.524   5.898  0.9195 -0.1112  1.2485
 6230WAT     H225627   4.242   5.427   5.973  1.3195  0.1667  1.9529
 6230WAT    EPW25628   4.246   5.500   5.945  0.7079 -0.4858 -1.1200
 6231WAT      O25629   3.222   4.373   7.826 -0.2320 -0.4070 -0.0173
 6231WAT     H125630   3.210   4.287   7.817 -0.1963 -0.5534  1.2623
 6231WAT     H225631   3.146   4.406   7.798 -0.2890 -0.8531 -0.4118
 6231WAT    EPW25632   3.209   4.365   7.820  0.4560 -0.9517 -0.8197
 6232WAT      O25633   6.388   5.338   0.575 -0.3492 -0.3111 -0.0637
 6232WAT     H125634   6.334   5.276   0.548  1.1770 -2.2342  1.0146
 6232WAT     H225635   6.431   5.301   0.641  1.2250  1.6134  0.1111
 6232WAT    EPW25636   6.386   5.324   0.581  0.5716  0.0732  0.0553
 6233WAT      O25637   4.966   6.474   7.178  0.0778  0.1978  0.0951
 6233WAT     H125638   4.987   6.450   7.259 -0.1122 -0.0775  0.0624
 6233WAT     H225639   4.949   6.560   7.186  0.3015  0.2237  0.2980
 6233WAT    EPW25640   4.966   6.483   7.191  0.1345  1.0150  0.0629
 6234WAT      O25641   4.298   5.819   5.401  0.4917  0.3998  0.1222
 6234WAT     H125642   4.371   5.802   5.357  1.1603  1.1991  0.8928
 6234WAT     H225643   4.291   5.753   5.457  0.8938  0.5618  0.3702
 6234WAT    EPW25644   4.308   5.807   5.403 -0.4164 -0.6186 -0.0943
 6235WAT      O25645   5.048   5.807   5.519  0.1611 -0.4713  0.0048
 6235WAT     H125646   5.010   5.787   5.443  0.5388 -0.8197 -0.0939
 6235WAT     H225647   5.068   5.729   5.554  0.1502 -0.3102  0.3785
 6235WAT    EPW25648   5.046   5.792   5.513 -0.2043  0.3848 -0.2764
 6236WAT      O25649   5.706   6.215   5.313  0.5071 -0.5154  0.1321
 6236WAT     H125650   5.684   6.294   5.343  0.6210 -0.5195  0.2290
 6236WAT     H225651   5.752   6.180   5.379  0.4801 -0.6515  0.0798
 6236WAT    EPW25652   5.710   6.221   5.327 -0.7399  0.4590 -0.1232
 6237WAT      O25653   4.305   5.809   6.114  0.2653 -0.2458 -0.2004
 6237WAT     H125654   4.271   5.873   6.163  1.4063 -1.2259  2.0202
 6237WAT     H225655   4.238   5.754   6.105 -0.1599  0.2886 -0.3764
 6237WAT    EPW25656   4.290   5.810   6.120 -0.1382 -0.1591  0.0789
 6238WAT      O25657   3.535   5.614   5.449 -0.8003  0.4983 -0.2434
 6238WAT     H125658   3.598   5.596   5.505 -1.2600  2.1817  0.9102
 6238WAT     H225659   3.508   5.536   5.421  0.8397 -0.2886  0.2784
 6238WAT    EPW25660   3.540   5.600   5.453 -0.4541 -0.1826 -1.6622
 6239WAT      O25661   3.405   7.173   4.988 -0.4784  0.3678 -0.2993
 6239WAT     H125662   3.344   7.151   5.046 -0.4259 -0.6390 -0.6191
 6239WAT     H225663   3.433   7.097   4.956  1.4446  0.7519  0.3232
 6239WAT    EPW25664   3.400   7.159   4.992  0.0056 -1.0278 -0.4035
 6240WAT      O25665   5.338   6.437   0.347  0.0067  0.2890  0.2593
 6240WAT     H125666   5.420   6.413   0.332 -0.0436  0.2075  0.1167
 6240WAT     H225667   5.290   6.377   0.306 -0.1255  0.3181  0.3669
 6240WAT    EPW25668   5.343   6.425   0.339 -0.4322 -0.7619 -0.0248
 6241WAT      O25669   3.078   6.648   7.061  0.1230  0.2026  1.0542
 6241WAT     H125670   2.999   6.612   7.050  0.4651 -0.0425 -0.9578
 6241WAT     H225671   3.122   6.589   7.107 -0.9705  0.5576  2.6552
 6241WAT    EPW25672   3.073   6.634   7.067 -0.2912  0.0753 -0.0788
 6242WAT      O25673   4.431   5.044   7.389 -0.1599  0.1454  0.5413
 6242WAT     H125674   4.508   5.011   7.364 -0.8428 -0.9092 -0.2446
 6242WAT     H225675   4.452   5.124   7.418  1.3439 -0.4401  1.1881
 6242WAT    EPW25676   4.446   5.051   7.390 -0.0282  0.5222  0.8950
 6243WAT      O25677   2.597   4.695   4.229  0.0369 -1.6261  0.7784
 6243WAT     H125678   2.661   4.638   4.215  0.5709 -0.9613  0.4870
 6243WAT     H225679   2.616   4.729   4.307 -0.3335 -1.9028  0.9968
 6243WAT    EPW25680   2.609   4.692   4.239 -0.3415 -0.2718 -0.0002
 6244WAT      O25681   4.872   4.982   5.734 -0.6820 -0.1322 -0.1008
 6244WAT     H125682   4.957   5.001   5.737  0.2767 -3.2900 -1.9103
 6244WAT     H225683   4.840   5.042   5.678 -0.0321  1.8960  1.5651
 6244WAT    EPW25684   4.880   4.994   5.726 -0.4196 -0.3540  0.3126
 6245WAT      O25685   4.737   6.646   7.308 -0.2025 -0.0145  0.4362
 6245WAT     H125686   4.807   6.685   7.272 -1.2217  0.7443 -0.7802
 6245WAT     H225687   4.754   6.650   7.394  1.1862  0.2571  0.1833
 6245WAT    EPW25688   4.750   6.652   7.316  0.0527 -0.2139 -1.3261
 6246WAT      O25689   3.720   5.522   5.669 -0.5082  0.0822  0.2525
 6246WAT     H125690   3.696   5.548   5.749  1.2809  1.2180  0.4557
 6246WAT     H225691   3.807   5.529   5.670 -0.1887 -2.6123 -0.8767
 6246WAT    EPW25692   3.729   5.527   5.681  0.3521 -0.0230 -0.8725
 6247WAT      O25693   2.704   6.345   4.494  0.0345 -0.3257 -0.2465
 6247WAT     H125694   2.704   6.261   4.516  1.8986 -0.9082 -2.1918
 6247WAT     H225695   2.761   6.381   4.549 -0.1778 -0.4522  0.0627
 6247WAT    EPW25696   2.712   6.338   4.505  0.6345  0.2156 -0.2457
 6248WAT      O25697   3.511   4.145   5.822  0.0217 -0.8007  0.2007
 6248WAT     H125698   3.572   4.120   5.764  1.7992 -1.9796  2.4296
 6248WAT     H225699   3.553   4.204   5.871 -2.3407  2.5066 -1.3326
 6248WAT    EPW25700   3.527   4.150   5.821  0.2014 -0.1584  0.1601
 6249WAT      O25701   5.145   7.037   5.592 -0.1392 -0.0320 -0.3061
 6249WAT     H125702   5.223   7.032   5.630  0.7299 -1.3641 -2.1205
 6249WAT     H225703   5.141   7.119   5.562  0.3045  0.2174  0.3100
 6249WAT    EPW25704   5.156   7.048   5.593  0.1700 -0.0180  0.2919
 6250WAT      O25705   4.079   6.409   7.286 -0.1928 -0.3363  0.7148
 6250WAT     H125706   4.036   6.373   7.218  2.0046  1.1263 -1.6366
 6250WAT     H225707   4.072   6.495   7.270  0.9751  0.0138  1.9777
 6250WAT    EPW25708   4.071   6.417   7.274  1.2307 -0.7033  0.0921
 6251WAT      O25709   4.157   6.336   6.943 -0.4903  0.1570  1.1012
 6251WAT     H125710   4.205   6.327   6.871 -0.1094 -0.6939  1.4551
 6251WAT     H225711   4.083   6.293   6.923  0.1794 -1.3232  1.7276
 6251WAT    EPW25712   4.153   6.329   6.929  0.1618  0.6407  0.8906
 6252WAT      O25713   4.478   6.626   5.084 -0.3811  0.1942  0.8282
 6252WAT     H125714   4.487   6.639   4.998 -0.8996  0.2882  0.7811
 6252WAT     H225715   4.514   6.697   5.119 -0.7312  0.4622  0.6612
 6252WAT    EPW25716   4.485   6.638   5.076  0.5324 -0.4219  0.1262
 6253WAT      O25717   6.038   4.655   0.502  0.3783  1.0633  0.1513
 6253WAT     H125718   5.989   4.583   0.493 -1.2042  2.2006 -0.8234
 6253WAT     H225719   6.022   4.682   0.583 -1.4226  1.9477 -0.4614
 6253WAT    EPW25720   6.029   4.648   0.512  0.0632 -0.8282 -0.1756
 6254WAT      O25721   3.299   5.084   6.403  0.2603  0.2107 -0.0613
 6254WAT     H125722   3.317   5.064   6.320  0.9509  0.2393  0.0819
 6254WAT     H225723   3.337   5.021   6.449  1.1559  1.0000  0.3150
 6254WAT    EPW25724   3.307   5.072   6.398  0.3102  0.4525 -0.2689
 6255WAT      O25725   4.554   5.600   7.510  0.0198  0.1670  0.6580
 6255WAT     H125726   4.494   5.656   7.481 -0.8232 -0.6554  0.7878
 6255WAT     H225727   4.604   5.586   7.440 -1.1294 -0.6646 -0.0390
 6255WAT    EPW25728   4.553   5.606   7.495  0.6351 -0.2594  0.7241
 6256WAT      O25729   5.389   4.385   6.325 -0.2198 -0.3998  0.1035
 6256WAT     H125730   5.465   4.405   6.364 -0.2783 -1.3915  0.7712
 6256WAT     H225731   5.407   4.311   6.283 -1.5448 -2.3700  2.7591
 6256WAT    EPW25732   5.403   4.377   6.325  0.8021  0.3299  0.5216
 6257WAT      O25733   4.413   6.053   0.169  0.1749 -0.1595  0.1336
 6257WAT     H125734   4.344   6.005   0.191  0.8541 -0.8176  0.8981
 6257WAT     H225735   4.477   5.994   0.162  0.8906  0.5639  0.4545
 6257WAT    EPW25736   4.412   6.037   0.171  0.2600 -0.6910  0.3357
 6258WAT      O25737   4.685   6.172   5.351  0.0196  0.5926  0.7094
 6258WAT     H125738   4.725   6.247   5.368 -0.5776  0.8221  1.1501
 6258WAT     H225739   4.740   6.112   5.383  1.8457  0.6063 -2.0767
 6258WAT    EPW25740   4.699   6.174   5.358 -0.0155 -0.3365 -0.6304
 6259WAT      O25741   4.516   5.977   4.909  0.6017  0.3826  0.3540
 6259WAT     H125742   4.535   5.990   4.994 -0.9163 -0.1856  0.8110
 6259WAT     H225743   4.445   6.025   4.897 -0.9194 -1.7874  0.1987
 6259WAT    EPW25744   4.509   5.986   4.920  0.0633  0.3577  0.3419
 6260WAT      O25745   5.154   4.762   1.282  0.3031 -0.2213 -0.3900
 6260WAT     H125746   5.121   4.773   1.362  3.4467 -2.7451  1.5157
 6260WAT     H225747   5.198   4.836   1.268  0.0620  0.0994  0.4545
 6260WAT    EPW25748   5.156   4.775   1.292  0.5065  0.2984 -0.0297
 6261WAT      O25749   5.123   6.060   7.648  0.1358  0.3279  0.3733
 6261WAT     H125750   5.175   5.994   7.673  1.8748  2.3949  2.8361
 6261WAT     H225751   5.177   6.112   7.603 -0.9804  0.5659 -0.7636
 6261WAT    EPW25752   5.139   6.058   7.645  0.1169  0.5617 -0.0907
 6262WAT      O25753   3.615   6.388   4.829  0.4182  0.1410  0.4882
 6262WAT     H125754   3.564   6.446   4.789 -1.0571 -0.2662  1.6929
 6262WAT     H225755   3.560   6.325   4.852  1.9761 -1.8444 -0.8665
 6262WAT    EPW25756   3.599   6.387   4.827  0.3092  0.7299 -0.4188
 6263WAT      O25757   4.000   6.074   7.781 -0.2554 -0.5331 -0.1069
 6263WAT     H125758   4.009   6.115   7.857 -0.7463  0.5815 -0.6255
 6263WAT     H225759   3.943   6.011   7.798 -0.6455 -0.0630  0.3669
 6263WAT    EPW25760   3.993   6.071   7.795  0.2617 -0.3185 -0.8518
 6264WAT      O25761   3.763   5.211   7.208  0.0992  0.1799 -0.0333
 6264WAT     H125762   3.810   5.180   7.141 -0.5914 -2.8752  0.7148
 6264WAT     H225763   3.808   5.186   7.278 -0.1028  1.7279  0.6893
 6264WAT    EPW25764   3.776   5.202   7.209  0.5010  0.0529 -0.0311
 6265WAT      O25765   3.328   4.610   7.389 -0.7341 -0.4973  0.4461
 6265WAT     H125766   3.375   4.657   7.333 -1.2324  1.6114  1.7033
 6265WAT     H225767   3.268   4.572   7.338 -0.0035 -0.1817 -0.6806
 6265WAT    EPW25768   3.326   4.611   7.373 -0.3690 -0.5811  0.1674
 6266WAT      O25769   3.381   4.343   5.705  0.4331 -0.4157 -0.1104
 6266WAT     H125770   3.434   4.350   5.636  1.5307 -0.8948  0.6582
 6266WAT     H225771   3.418   4.281   5.754 -1.0669 -1.0723  0.2734
 6266WAT    EPW25772   3.394   4.335   5.702 -0.9858 -0.7897  0.9838
 6267WAT      O25773   3.412   7.102   4.431  0.1606 -0.7359  0.1691
 6267WAT     H125774   3.351   7.089   4.492 -0.6110 -2.4234 -0.9063
 6267WAT     H225775   3.370   7.090   4.356  1.3185  0.3390 -0.6963
 6267WAT    EPW25776   3.397   7.099   4.429  0.2697  0.3230 -0.5842
 6268WAT      O25777   6.328   5.412   8.016  0.1229 -0.0587  0.0840
 6268WAT     H125778   6.349   5.387   8.097  0.7942 -1.9156 -0.6075
 6268WAT     H225779   6.405   5.438   7.982 -0.3065  1.6173  0.2882
 6268WAT    EPW25780   6.343   5.412   8.023  0.2124  0.1712 -0.2253
 6269WAT      O25781   4.963   7.091   7.358 -0.4446  0.1376  0.1341
 6269WAT     H125782   4.908   7.024   7.357  0.5365 -0.7208 -1.6446
 6269WAT     H225783   4.931   7.145   7.297  1.3311 -1.0463 -2.0139
 6269WAT    EPW25784   4.951   7.089   7.349  0.6030 -0.6429  0.3900
 6270WAT      O25785   4.192   5.020   0.040  0.0688  0.1489  0.0291
 6270WAT     H125786   4.277   5.036   0.049  0.0366 -0.1821  1.0634
 6270WAT     H225787   4.189   4.958  -0.021  0.6446 -0.4634  0.5983
 6270WAT    EPW25788   4.204   5.013   0.032  0.7379 -0.4628 -0.6328
 6271WAT      O25789   5.166   7.533   7.139  0.0957  0.2080  0.0082
 6271WAT     H125790   5.139   7.531   7.222  3.4472  1.5207  1.3005
 6271WAT     H225791   5.117   7.596   7.103 -1.2801 -0.2439  1.0005
 6271WAT    EPW25792   5.155   7.542   7.146  0.4219  0.1968  0.1036
 6272WAT      O25793   3.102   5.945   4.972  0.1202 -0.1149  0.1042
 6272WAT     H125794   3.172   5.893   4.975  1.7674  1.9983  1.0713
 6272WAT     H225795   3.123   6.011   5.026 -1.9110  1.4508 -0.8753
 6272WAT    EPW25796   3.115   5.947   4.980  0.0322 -0.1254  0.1023
 6273WAT      O25797   4.187   6.117   5.218  0.3045 -0.1223 -0.0635
 6273WAT     H125798   4.252   6.060   5.208 -0.2578 -0.4465 -2.7254
 6273WAT     H225799   4.221   6.193   5.193  0.0796  0.0195  0.0532
 6273WAT    EPW25800   4.201   6.120   5.213  0.1510  0.0275 -1.1894
 6274WAT      O25801   6.044   4.893   6.690 -0.0131  0.0253 -0.3798
 6274WAT     H125802   6.060   4.978   6.698 -1.4978  0.3155 -0.2916
 6274WAT     H225803   6.117   4.855   6.721  1.0125  1.2421 -1.2071
 6274WAT    EPW25804   6.057   4.900   6.696 -0.0178 -0.2454 -0.0220
 6275WAT      O25805   5.185   5.300   5.713 -0.3788  0.2604  0.3282
 6275WAT     H125806   5.134   5.262   5.653 -0.9707  1.6569 -0.0766
 6275WAT     H225807   5.133   5.309   5.781 -0.1808  0.1939  0.4896
 6275WAT    EPW25808   5.170   5.296   5.714  1.3365 -0.2042 -1.2483
 6276WAT      O25809   4.029   7.329   5.684 -0.3425  0.0826  0.0970
 6276WAT     H125810   3.970   7.334   5.620 -2.5921  1.9606  2.1307
 6276WAT     H225811   4.002   7.260   5.731  0.3313 -0.2926 -0.0515
 6276WAT    EPW25812   4.016   7.319   5.682  0.0433 -0.5725 -0.5238
 6277WAT      O25813   4.381   5.337   5.391 -0.2717 -0.1113  0.3214
 6277WAT     H125814   4.330   5.394   5.433  1.0147  0.2235  1.4908
 6277WAT     H225815   4.373   5.263   5.437 -0.3571 -0.2993  0.0086
 6277WAT    EPW25816   4.372   5.335   5.404 -0.7197  0.1270 -0.9210
 6278WAT      O25817   3.323   3.529   6.953 -0.2613 -0.2013  0.7283
 6278WAT     H125818   3.293   3.556   7.030  0.1536  0.8354  0.5472
 6278WAT     H225819   3.329   3.443   6.962 -1.9982 -0.3121  1.2195
 6278WAT    EPW25820   3.320   3.520   6.965 -0.8766 -0.3172  0.6371
 6279WAT      O25821   4.985   6.085   6.475 -0.3906  0.0581 -0.1991
 6279WAT     H125822   4.922   6.129   6.434 -0.2367  1.1426  0.6629
 6279WAT     H225823   5.045   6.072   6.412 -1.0784 -0.2100 -0.8106
 6279WAT    EPW25824   4.985   6.090   6.460 -0.0733  0.5983 -0.5703
 6280WAT      O25825   3.748   6.621   6.843  0.2358 -0.1857 -0.1125
 6280WAT     H125826   3.833   6.605   6.855  0.7438  1.6040 -0.9146
 6280WAT     H225827   3.744   6.708   6.839 -1.8139 -0.1607  1.0484
 6280WAT    EPW25828   3.760   6.632   6.844  0.4350  0.0372 -1.0462
 6281WAT      O25829   2.733   4.784   6.789 -0.3410  0.1798 -1.6969
 6281WAT     H125830   2.760   4.761   6.869 -0.2130 -0.7467 -1.9935
 6281WAT     H225831   2.656   4.821   6.803 -0.8979 -1.0948 -1.2470
 6281WAT    EPW25832   2.726   4.786   6.803  0.0820  0.4715 -1.1741
 6282WAT      O25833   4.634   6.892   5.737 -0.5201 -0.2791  0.0365
 6282WAT     H125834   4.634   6.808   5.762  0.8865 -0.3446 -0.0985
 6282WAT     H225835   4.555   6.920   5.759 -0.1533 -0.9406  2.4420
 6282WAT    EPW25836   4.623   6.883   5.744  0.2355 -0.1825  0.1085
 6283WAT      O25837   4.259   6.166   5.972  0.0181 -0.3513  0.1799
 6283WAT     H125838   4.207   6.169   6.042  0.2955  0.4739  0.3562
 6283WAT     H225839   4.337   6.148   6.006 -0.2234 -2.2328 -0.1396
 6283WAT    EPW25840   4.263   6.164   5.987  0.1721 -0.5185 -0.8701
 6284WAT      O25841   3.131   6.248   5.737  0.3136 -0.3465 -0.4180
 6284WAT     H125842   3.047   6.267   5.721 -0.3551 -0.6308  2.2687
 6284WAT     H225843   3.136   6.163   5.718 -0.1584 -0.4508 -0.0978
 6284WAT    EPW25844   3.119   6.238   5.732  0.2268 -0.4110 -0.3621
 6285WAT      O25845   3.812   5.884   7.832  0.5496  0.5411  0.2251
 6285WAT     H125846   3.730   5.914   7.832  0.5085  0.4523 -0.8595
 6285WAT     H225847   3.811   5.823   7.894  0.3436  1.9670  1.6985
 6285WAT    EPW25848   3.799   5.880   7.842 -0.8049  0.0951 -0.3519
 6286WAT      O25849   4.793   6.681   7.574  0.6012  0.0263  0.2901
 6286WAT     H125850   4.840   6.607   7.567  1.2102  0.5524 -2.8252
 6286WAT     H225851   4.713   6.653   7.594  0.6699 -1.5914 -1.4608
 6286WAT    EPW25852   4.788   6.666   7.576 -1.2777 -0.4591 -0.4387
 6287WAT      O25853   6.282   4.849   7.244 -0.0427 -0.3569 -0.3457
 6287WAT     H125854   6.226   4.880   7.303  0.4533 -1.3298  0.6701
 6287WAT     H225855   6.278   4.762   7.255  1.1779 -0.4745 -0.6912
 6287WAT    EPW25856   6.273   4.841   7.254  0.1683  0.0104 -0.7739
 6288WAT      O25857   4.852   7.138   7.651 -0.5190  0.4306  0.4697
 6288WAT     H125858   4.837   7.188   7.582 -0.6000  1.7704  1.4186
 6288WAT     H225859   4.938   7.145   7.664 -0.6904  1.2697  1.2708
 6288WAT    EPW25860   4.862   7.146   7.643 -0.0479  0.4540 -0.8188
 6289WAT      O25861   4.764   5.417   7.858 -0.2069  0.6013  0.2841
 6289WAT     H125862   4.801   5.436   7.781  0.3122 -1.1599  0.0624
 6289WAT     H225863   4.681   5.400   7.837  0.0095 -0.2009  0.0410
 6289WAT    EPW25864   4.757   5.417   7.844  0.6277  0.2511 -0.1255
 6290WAT      O25865   3.759   6.539   5.776  0.2355 -0.2800 -0.0557
 6290WAT     H125866   3.741   6.589   5.707  2.9016 -0.3564 -0.9054
 6290WAT     H225867   3.844   6.521   5.767 -0.0294 -2.8825  1.5720
 6290WAT    EPW25868   3.769   6.544   5.764  0.1020  0.8295 -0.5068
 6291WAT      O25869   4.976   6.318   5.986  0.0534 -0.6395 -0.6390
 6291WAT     H125870   5.021   6.376   5.938  1.7351  0.0695  1.6025
 6291WAT     H225871   5.019   6.243   5.974  1.6132 -0.0874  1.0210
 6291WAT    EPW25872   4.989   6.316   5.977 -0.2737 -0.2603 -0.5596
 6292WAT      O25873   3.996   6.662   7.159 -0.1513 -0.1403  0.5337
 6292WAT     H125874   4.015   6.662   7.074  0.9107  1.6394  0.7229
 6292WAT     H225875   3.911   6.679   7.161  0.0598  1.1760 -0.1861
 6292WAT    EPW25876   3.986   6.665   7.147 -0.3631 -0.6280  0.2150
 6293WAT      O25877   1.627   4.746   6.792 -0.1766 -0.3975 -0.2518
 6293WAT     H125878   1.549   4.714   6.772 -0.6619  0.2481  0.5432
 6293WAT     H225879   1.637   4.727   6.876 -0.3515  1.2164  0.1730
 6293WAT    EPW25880   1.617   4.738   6.801 -0.5794  0.4050 -0.5088
 6294WAT      O25881   3.959   5.781   7.285  0.0937 -0.3721  0.6250
 6294WAT     H125882   3.876   5.770   7.306  0.2256 -2.5103  0.2458
 6294WAT     H225883   3.958   5.786   7.198  0.3524 -0.3055  0.6232
 6294WAT    EPW25884   3.947   5.780   7.275  0.5858 -0.9295 -0.0833
 6295WAT      O25885   5.603   3.459   5.191 -0.1836  0.5002  0.2666
 6295WAT     H125886   5.668   3.511   5.218  0.5390 -0.3004  0.0918
 6295WAT     H225887   5.602   3.470   5.104 -0.3871  0.6173  0.2809
 6295WAT    EPW25888   5.612   3.469   5.182  0.0410 -0.5518 -0.2875
 6296WAT      O25889   2.634   4.644   6.547 -0.0797  0.3292 -0.5979
 6296WAT     H125890   2.681   4.679   6.482 -0.4235  1.5616 -0.2174
 6296WAT     H225891   2.675   4.671   6.619 -0.5208  0.1702 -0.2799
 6296WAT    EPW25892   2.647   4.653   6.548  0.7160 -0.9881  0.4201
 6297WAT      O25893   4.373   6.279   5.672  0.8264 -0.3593 -0.5552
 6297WAT     H125894   4.353   6.361   5.650  2.1685 -0.3726 -1.9542
 6297WAT     H225895   4.328   6.266   5.745  1.6595  2.0954  0.4747
 6297WAT    EPW25896   4.363   6.289   5.679  0.7912 -0.4032  0.1468
 6298WAT      O25897   3.935   5.454   7.259  0.1923 -0.0755  0.6713
 6298WAT     H125898   3.928   5.495   7.336 -0.9935 -0.4785  0.7872
 6298WAT     H225899   3.884   5.384   7.268  3.2834 -2.4896  1.0195
 6298WAT    EPW25900   3.927   5.450   7.272  0.4546  0.1552  0.0635
 6299WAT      O25901   4.447   5.021   6.198  0.5526  0.2707  0.2701
 6299WAT     H125902   4.439   4.950   6.148  0.0386  0.7515 -0.3581
 6299WAT     H225903   4.370   5.061   6.188  0.3390  0.2338  1.6892
 6299WAT    EPW25904   4.435   5.016   6.189 -0.1331  0.3864 -0.1600
 6300WAT      O25905   3.064   6.100   5.455  0.3460  0.5238  0.0637
 6300WAT     H125906   3.016   6.170   5.478  0.6121  1.2111 -1.3794
 6300WAT     H225907   3.125   6.097   5.517 -0.2372  0.9805  0.6858
 6300WAT    EPW25908   3.066   6.110   5.468  0.3346  0.3861 -0.0942
 6301WAT      O25909   5.115   5.673   6.877  0.4400 -0.1339  0.1888
 6301WAT     H125910   5.164   5.638   6.939  0.2588  0.2511  0.5621
 6301WAT     H225911   5.101   5.608   6.822 -0.3211 -0.8037  1.1243
 6301WAT    EPW25912   5.120   5.658   6.878 -0.0336 -0.9777  0.2470
 6302WAT      O25913   4.329   6.134   7.094  0.0562  0.2879 -0.7795
 6302WAT     H125914   4.353   6.218   7.104  0.3027  0.3547 -1.7875
 6302WAT     H225915   4.255   6.140   7.050  0.4658 -0.0388 -1.5242
 6302WAT    EPW25916   4.322   6.147   7.089  0.7526 -0.2201 -0.3557
 6303WAT      O25917   4.016   5.204   6.667 -0.7441  0.6404 -0.3712
 6303WAT     H125918   4.055   5.264   6.618 -0.8041  2.5768  1.7644
 6303WAT     H225919   3.967   5.251   6.722 -1.3325 -1.4043  0.9735
 6303WAT    EPW25920   4.014   5.220   6.668 -0.0906  0.2050 -0.5721
 6304WAT      O25921   3.137   6.085   6.007 -0.0915 -0.2464  0.2235
 6304WAT     H125922   3.058   6.114   6.030  0.1202  0.0286  0.6091
 6304WAT     H225923   3.128   6.067   5.922  0.1546  2.3064 -0.4267
 6304WAT    EPW25924   3.124   6.086   5.998  0.5057  0.2187 -0.5703
 6305WAT      O25925   4.516   6.376   4.909  0.3646  0.2452 -0.0658
 6305WAT     H125926   4.481   6.353   4.985 -1.4962  1.4469 -0.4776
 6305WAT     H225927   4.589   6.329   4.904  0.5853  0.1976  2.4782
 6305WAT    EPW25928   4.521   6.366   4.919 -0.1615  0.0369 -0.0704
 6306WAT      O25929   3.194   5.972   5.748 -0.7921  0.4310  0.7810
 6306WAT     H125930   3.165   5.895   5.718 -2.0382  0.4524  1.8264
 6306WAT     H225931   3.275   5.954   5.776 -1.2763 -0.6817  1.5850
 6306WAT    EPW25932   3.202   5.958   5.748  0.2631 -0.3406 -0.3343
 6307WAT      O25933   2.582   5.206   0.201  0.0211 -0.2494  0.4779
 6307WAT     H125934   2.587   5.222   0.287 -2.2173  1.2304  0.4259
 6307WAT     H225935   2.542   5.276   0.170  0.9483 -0.6715 -1.8586
 6307WAT    EPW25936   2.577   5.219   0.209  0.2251  0.3033 -0.6343
 6308WAT      O25937   3.920   6.732   6.271 -0.4968 -0.1900  0.0526
 6308WAT     H125938   3.943   6.686   6.201  1.6955  1.3605 -0.3324
 6308WAT     H225939   3.965   6.806   6.263 -1.2133  0.5937  2.4227
 6308WAT    EPW25940   3.930   6.736   6.260  0.7879  0.0262  0.8332
 6309WAT      O25941   3.505   5.161   6.219  0.0445  0.5568  0.2912
 6309WAT     H125942   3.451   5.230   6.211 -0.8019 -0.1691 -0.4157
 6309WAT     H225943   3.526   5.142   6.137 -0.5580 -0.6624  0.4024
 6309WAT    EPW25944   3.500   5.169   6.206 -0.6177  0.2314  0.1809
 6310WAT      O25945   3.213   4.150   6.360 -0.4897  0.0860 -0.2868
 6310WAT     H125946   3.173   4.112   6.427 -0.2099 -1.9705 -1.2179
 6310WAT     H225947   3.237   4.228   6.392  0.0623 -0.9865  2.1574
 6310WAT    EPW25948   3.211   4.156   6.375 -0.0934  0.6452  0.6581
 6311WAT      O25949   4.101   6.567   6.518  0.2455 -0.2388  0.1105
 6311WAT     H125950   4.131   6.590   6.439 -0.8558  0.1271 -0.2156
 6311WAT     H225951   4.020   6.540   6.503 -0.4041  0.9409  1.2523
 6311WAT    EPW25952   4.094   6.567   6.504 -0.3888 -0.1739  0.4405
 6312WAT      O25953   3.440   7.032   7.932 -0.2943 -0.2919  0.1612
 6312WAT     H125954   3.483   6.960   7.955  0.5604  0.4109  0.8505
 6312WAT     H225955   3.425   7.072   8.008  1.6437  1.5699 -0.3405
 6312WAT    EPW25956   3.444   7.028   7.947 -0.0058  0.0423  0.6740
 6313WAT      O25957   4.043   6.532   6.076 -0.0126 -0.3498 -0.5238
 6313WAT     H125958   4.066   6.557   5.996  0.6115 -0.3810 -0.3622
 6313WAT     H225959   3.996   6.460   6.063  0.3999 -0.5654 -0.8430
 6313WAT    EPW25960   4.040   6.525   6.062 -0.2648  0.0976 -0.8363
 6314WAT      O25961   3.837   4.972   6.732 -0.2277  0.2054  0.5717
 6314WAT     H125962   3.846   4.886   6.726 -0.7902  0.1212  0.9192
 6314WAT     H225963   3.909   5.003   6.693 -0.6554 -0.3841 -0.7335
 6314WAT    EPW25964   3.849   4.964   6.725 -0.4757  0.0066 -0.0810
 6315WAT      O25965   3.692   5.749   7.586 -0.3316  0.2955 -0.0618
 6315WAT     H125966   3.742   5.681   7.564  0.9978  1.3070 -0.2797
 6315WAT     H225967   3.735   5.784   7.654 -1.0584  0.8537  0.1197
 6315WAT    EPW25968   3.706   5.744   7.593 -0.4734 -0.7924 -0.6986
 6316WAT      O25969   5.294   6.454   7.837  0.6730  0.3018 -0.0034
 6316WAT     H125970   5.209   6.463   7.855  0.4728  0.6761 -1.0618
 6316WAT     H225971   5.300   6.483   7.755  1.6979 -0.4183 -0.1936
 6316WAT    EPW25972   5.282   6.460   7.827  0.1737  0.4733  0.1970
 6317WAT      O25973   4.864   6.107   4.590 -0.7492 -0.6688 -0.5178
 6317WAT     H125974   4.942   6.145   4.582 -0.3343 -1.0857  1.0950
 6317WAT     H225975   4.881   6.034   4.634 -2.0041 -0.9641 -0.4704
 6317WAT    EPW25976   4.878   6.102   4.595  0.8101 -0.0907 -0.8063
 6318WAT      O25977   2.430   6.144   2.822 -0.0299  0.1336 -0.6207
 6318WAT     H125978   2.466   6.202   2.767 -3.1479  2.6304 -0.3303
 6318WAT     H225979   2.442   6.181   2.901  0.5544 -1.1989 -0.0646
 6318WAT    EPW25980   2.437   6.158   2.826 -0.0343 -0.7426 -0.7887
 6319WAT      O25981   5.421   0.801   4.189  0.3437 -0.2662  0.4010
 6319WAT     H125982   5.380   0.799   4.266 -0.9282 -0.7920 -0.2575
 6319WAT     H225983   5.380   0.866   4.147 -0.5878 -1.5019 -0.6607
 6319WAT    EPW25984   5.409   0.811   4.194 -0.1596  0.6323 -0.3743
 6320WAT      O25985   4.187   5.683   7.439  0.3507 -0.3550 -0.3847
 6320WAT     H125986   4.249   5.744   7.434  0.9799 -1.0020 -0.5629
 6320WAT     H225987   4.118   5.722   7.403  0.3426  0.7392  0.7461
 6320WAT    EPW25988   4.186   5.698   7.433  0.1222 -0.6948 -0.2251
 6321WAT      O25989   4.793   6.373   6.968 -0.1660  0.7276  0.0388
 6321WAT     H125990   4.717   6.387   7.010  0.2601  1.3541  0.6174
 6321WAT     H225991   4.853   6.404   7.023  0.5295  0.0913 -0.3515
 6321WAT    EPW25992   4.790   6.380   6.982 -0.0344 -0.7374  0.3475
 6322WAT      O25993   5.428   6.045   0.538  0.3339  0.4300  0.4062
 6322WAT     H125994   5.362   6.091   0.571  0.6295  1.8702 -0.9200
 6322WAT     H225995   5.453   6.091   0.468  0.9773 -1.4864 -0.7057
 6322WAT    EPW25996   5.422   6.058   0.533  0.3756 -0.5164 -0.4639
 6323WAT      O25997   4.569   6.624   7.917  0.4899  0.5460 -0.0184
 6323WAT     H125998   4.500   6.584   7.953  1.2845 -0.3837  0.5084
 6323WAT     H225999   4.555   6.616   7.831  1.3931 -2.3745  0.0050
 6323WAT    EPW26000   4.557   6.617   7.910  1.1620  0.3108 -0.1634
 6324WAT      O26001   4.629   6.354   7.223  0.3092  0.1068 -0.0515
 6324WAT     H126002   4.655   6.433   7.251  1.8239  1.0913 -3.7362
 6324WAT     H226003   4.549   6.369   7.192  0.6458  0.2403 -0.8653
 6324WAT    EPW26004   4.621   6.368   7.223 -0.5443 -0.1867 -0.3159
 6325WAT      O26005   6.060   5.730   0.821  0.2416  0.7620  0.6120
 6325WAT     H126006   6.073   5.663   0.875 -0.1304  0.6329  0.5431
 6325WAT     H226007   6.068   5.695   0.742  1.4278  1.0776  0.5724
 6325WAT    EPW26008   6.063   5.715   0.818  0.7806 -0.4594  0.4710
 6326WAT      O26009   2.864   6.188   5.677 -0.4248 -0.3018  0.2952
 6326WAT     H126010   2.822   6.112   5.677 -0.2094 -0.4560 -1.2499
 6326WAT     H226011   2.832   6.229   5.607 -1.7750  1.7688  1.9868
 6326WAT    EPW26012   2.853   6.183   5.667  0.7586  0.5986 -0.9189
 6327WAT      O26013   4.108   5.700   5.791  0.2323  0.0483 -0.3082
 6327WAT     H126014   4.156   5.654   5.846 -1.0278  0.3967  1.1561
 6327WAT     H226015   4.071   5.639   5.740  0.9649 -0.3158 -0.4174
 6327WAT    EPW26016   4.109   5.684   5.791  0.1542 -0.0293  0.4397
 6328WAT      O26017   2.650   6.926   5.669  0.5811 -0.3641  0.2502
 6328WAT     H126018   2.602   6.908   5.598  0.1856 -0.5210  0.5568
 6328WAT     H226019   2.649   6.852   5.714  0.7971 -0.2500  0.4457
 6328WAT    EPW26020   2.643   6.913   5.665 -1.0430  0.3812  0.7626
 6329WAT      O26021   3.173   5.503   2.091 -0.4225  0.1447 -0.0413
 6329WAT     H126022   3.195   5.489   2.008 -0.7606  0.7742 -0.2471
 6329WAT     H226023   3.210   5.580   2.109 -0.7245  0.2216  0.2553
 6329WAT    EPW26024   3.182   5.512   2.081  0.1188  0.7342  0.1571
 6330WAT      O26025   5.468   4.936   3.031  0.3428 -0.3484  0.0494
 6330WAT     H126026   5.414   4.976   3.087  0.1933  1.7629 -1.4547
 6330WAT     H226027   5.414   4.902   2.972  0.5741  0.9573 -0.9539
 6330WAT    EPW26028   5.452   4.937   3.030  0.9432 -0.0402 -0.2055
 6331WAT      O26029   2.666   5.170   3.734 -0.0235 -0.3944 -0.2942
 6331WAT     H126030   2.717   5.241   3.742 -0.2781 -0.0486 -1.5016
 6331WAT     H226031   2.639   5.155   3.816 -0.0986  1.0071 -0.0265
 6331WAT    EPW26032   2.670   5.179   3.747 -0.4825 -0.2699 -0.4942
 6332WAT      O26033   3.402   6.175   3.906  0.0116 -0.5157  0.5108
 6332WAT     H126034   3.398   6.242   3.851  2.6004 -0.0823  0.6840
 6332WAT     H226035   3.380   6.106   3.857 -0.7846  0.2156 -0.1849
 6332WAT    EPW26036   3.398   6.174   3.891 -0.1626  0.8725 -0.1208
 6333WAT      O26037   4.586   6.088   3.113 -0.2345  0.0409 -0.0546
 6333WAT     H126038   4.667   6.071   3.141 -0.8923 -2.7556  0.4411
 6333WAT     H226039   4.578   6.038   3.042 -0.9534  1.6982 -1.1969
 6333WAT    EPW26040   4.597   6.078   3.107  0.3992  0.3518  0.5911
 6334WAT      O26041   3.860   7.420   3.407 -0.1317 -0.1689  0.4811
 6334WAT     H126042   3.940   7.444   3.381 -0.7915 -0.3003 -1.9269
 6334WAT     H226043   3.866   7.334   3.416 -0.5749 -0.5985 -2.3984
 6334WAT    EPW26044   3.872   7.411   3.404  0.5716 -0.6520 -0.3453
 6335WAT      O26045   2.661   6.054   4.519 -0.0986  0.1456  0.0530
 6335WAT     H126046   2.655   6.013   4.596  0.3093 -1.8032 -0.8821
 6335WAT     H226047   2.601   6.014   4.470 -1.0739  2.0417 -0.4093
 6335WAT    EPW26048   2.651   6.042   4.523  0.6809 -0.1126 -0.7074
 6336WAT      O26049   3.949   6.330   5.690 -0.5204 -0.3238  0.4561
 6336WAT     H126050   3.943   6.247   5.716  1.0419 -0.3187  0.9567
 6336WAT     H226051   4.005   6.327   5.623 -3.0766 -0.0877 -1.8355
 6336WAT    EPW26052   3.957   6.318   5.684 -0.4083 -0.3020  0.4126
 6337WAT      O26053   3.031   6.169   3.870 -0.5115 -0.0924 -0.4358
 6337WAT     H126054   2.946   6.164   3.888 -0.3670  2.3318  1.3452
 6337WAT     H226055   3.041   6.249   3.837  0.8269 -1.0549 -2.6210
 6337WAT    EPW26056   3.020   6.180   3.868 -0.5670 -0.0861  0.1582
 6338WAT      O26057   4.108   6.300   5.466 -0.2926 -0.2212  0.0954
 6338WAT     H126058   4.078   6.367   5.420 -1.3820  0.1331  1.2714
 6338WAT     H226059   4.056   6.234   5.443  0.1878 -0.4470 -0.3660
 6338WAT    EPW26060   4.096   6.300   5.456  0.0305  0.4493  0.6264
 6339WAT      O26061   4.342   6.794   5.479  0.0066 -0.0087  0.6768
 6339WAT     H126062   4.342   6.731   5.539 -1.0572 -3.4379 -2.5348
 6339WAT     H226063   4.427   6.811   5.466  0.3221 -0.9408  1.4532
 6339WAT    EPW26064   4.354   6.787   5.486  0.2632 -0.2643  0.2482
 6340WAT      O26065   3.633   5.629   4.313 -0.1806 -0.3413  0.2760
 6340WAT     H126066   3.605   5.546   4.320  2.4265 -1.4460 -1.0954
 6340WAT     H226067   3.652   5.637   4.228 -0.0747  1.5761  0.4472
 6340WAT    EPW26068   3.632   5.618   4.301 -0.4091 -0.4859  0.2189
 6341WAT      O26069   4.473   4.950   3.029  0.0093  0.1160 -0.0022
 6341WAT     H126070   4.426   4.966   3.101 -0.8465 -2.1540  0.0329
 6341WAT     H226071   4.521   4.880   3.051  0.7196  0.1974 -1.2131
 6341WAT    EPW26072   4.473   4.942   3.043 -0.5473 -0.2361  0.0368
 6342WAT      O26073   3.416   7.365   2.903 -0.0412  0.3086 -0.5731
 6342WAT     H126074   3.484   7.310   2.907 -0.9235 -0.7187  2.0602
 6342WAT     H226075   3.351   7.320   2.938 -1.3182  2.3609 -0.1640
 6342WAT    EPW26076   3.417   7.350   2.908 -0.0666 -0.4771 -0.1990
 6343WAT      O26077   3.949   6.577   3.141 -0.5175  0.2975  0.6689
 6343WAT     H126078   4.023   6.577   3.187  0.5700 -0.9997 -0.9450
 6343WAT     H226079   3.975   6.552   3.061 -2.5652  0.7189 -0.1886
 6343WAT    EPW26080   3.964   6.573   3.136  0.8118  0.5144 -0.1190
 6344WAT      O26081   4.313   6.816   2.937 -0.1063 -0.0840  0.7002
 6344WAT     H126082   4.294   6.836   3.019  2.0558 -1.4157  1.6263
 6344WAT     H226083   4.275   6.738   2.925 -0.9742  0.4099  0.1966
 6344WAT    EPW26084   4.305   6.807   2.947  0.8496 -0.1363 -0.5898
 6345WAT      O26085   3.487   6.817   3.805 -0.2758 -0.2150 -0.2199
 6345WAT     H126086   3.478   6.739   3.843  1.2657 -0.6967 -0.7725
 6345WAT     H226087   3.535   6.862   3.862  0.3214 -0.2705 -0.6646
 6345WAT    EPW26088   3.493   6.812   3.819  0.0316  0.0843  0.7804
 6346WAT      O26089   3.850   7.777   2.600  0.4458 -0.0079  0.8987
 6346WAT     H126090   3.924   7.738   2.578 -0.1871 -1.1801  0.7772
 6346WAT     H226091   3.865   7.807   2.681  0.5924 -1.4829  1.4384
 6346WAT    EPW26092   3.863   7.776   2.609 -0.2216  0.7306  0.3470
 6347WAT      O26093   4.126   5.098   2.974  0.2562  0.5602  0.3331
 6347WAT     H126094   4.109   5.013   2.988  0.1553  0.6214  0.5760
 6347WAT     H226095   4.128   5.103   2.887  2.4524 -0.1318  0.2892
 6347WAT    EPW26096   4.124   5.086   2.963 -0.3124  0.4298 -0.0107
 6348WAT      O26097   4.613   5.659   3.751  0.5019  0.4767 -0.3920
 6348WAT     H126098   4.691   5.629   3.725  0.8050  1.5258 -0.7173
 6348WAT     H226099   4.558   5.627   3.691  0.5132 -1.0769  0.3689
 6348WAT    EPW26100   4.616   5.650   3.738  0.1526 -0.4916  0.2770
 6349WAT      O26101   2.268   6.004   2.282  0.2412 -0.0971 -0.1431
 6349WAT     H126102   2.304   5.990   2.360  0.5458  1.0882 -0.0585
 6349WAT     H226103   2.314   5.953   2.228  0.5100 -0.3535  0.3248
 6349WAT    EPW26104   2.280   5.994   2.285 -0.4711 -0.2621 -0.1117
 6350WAT      O26105   3.439   7.345   2.083 -0.1751 -0.3589  0.2545
 6350WAT     H126106   3.378   7.313   2.031  1.7005 -2.0885 -1.0387
 6350WAT     H226107   3.470   7.414   2.040 -0.4840 -0.1174  0.4149
 6350WAT    EPW26108   3.435   7.351   2.069  0.0937 -0.5936 -0.5036
 6351WAT      O26109   3.087   5.447   3.409  0.3370 -0.0558 -0.5907
 6351WAT     H126110   3.019   5.415   3.365 -0.3711  0.5260  0.0587
 6351WAT     H226111   3.146   5.463   3.347 -0.5389  0.5135 -1.3013
 6351WAT    EPW26112   3.086   5.444   3.394 -0.3448 -0.0506 -0.5014
 6352WAT      O26113   3.728   7.268   3.199  0.4952  0.2816 -0.3954
 6352WAT     H126114   3.801   7.291   3.156  1.0301  0.0355  0.3551
 6352WAT     H226115   3.717   7.333   3.256  1.9906 -1.1752  1.7065
 6352WAT    EPW26116   3.737   7.281   3.201  0.0313  0.2320 -0.2948
 6353WAT      O26117   3.985   7.080   4.017  0.6013 -0.0174 -0.2693
 6353WAT     H126118   3.901   7.060   4.004  0.4772  0.4519 -0.1969
 6353WAT     H226119   3.984   7.121   4.094  0.8530  0.2665 -0.4199
 6353WAT    EPW26120   3.972   7.083   4.026  0.3156 -0.3346 -0.2820
 6354WAT      O26121   4.421   5.319   3.692  0.5022 -0.0160 -0.4836
 6354WAT     H126122   4.496   5.275   3.700 -0.0384 -0.6088  2.7077
 6354WAT     H226123   4.360   5.259   3.709 -0.4903  1.1583  0.2431
 6354WAT    EPW26124   4.423   5.303   3.695  0.3930  0.1430 -0.2414
 6355WAT      O26125   3.562   6.595   4.202  0.0339 -0.1897 -0.1224
 6355WAT     H126126   3.638   6.636   4.196 -0.6212  1.1645  0.4304
 6355WAT     H226127   3.528   6.604   4.122 -0.6236  1.4680  0.3010
 6355WAT    EPW26128   3.568   6.602   4.189 -0.4070  0.2524 -0.5234
 6356WAT      O26129   5.455   7.366   2.619  0.0924 -0.3237  0.3982
 6356WAT     H126130   5.407   7.435   2.595  0.8436  0.1578  0.2484
 6356WAT     H226131   5.533   7.400   2.636  0.7565 -1.2657 -0.6289
 6356WAT    EPW26132   5.459   7.381   2.618 -0.6475  0.0424 -0.9285
 6357WAT      O26133   4.341   5.030   3.284 -0.3610 -0.0555 -0.2906
 6357WAT     H126134   4.402   5.001   3.339 -1.4158  1.1445  1.5868
 6357WAT     H226135   4.268   4.992   3.311 -1.3204  2.2646  0.6716
 6357WAT    EPW26136   4.340   5.020   3.296  0.2502 -1.0744  0.1918
 6358WAT      O26137   3.463   5.890   4.024  0.5786  0.3867 -0.3119
 6358WAT     H126138   3.500   5.915   4.099  0.5912 -0.1411 -0.1388
 6358WAT     H226139   3.531   5.874   3.972  0.6096 -0.5827  0.0059
 6358WAT    EPW26140   3.478   5.891   4.027  1.0939  0.2742  0.2393
 6359WAT      O26141   4.936   4.939   2.800 -0.8482  0.0746  0.0129
 6359WAT     H126142   4.934   4.867   2.752 -1.4377  0.3226 -0.3466
 6359WAT     H226143   4.948   5.003   2.742  2.8785  0.0757  0.5913
 6359WAT    EPW26144   4.937   4.938   2.785 -1.1872 -0.8592  0.1794
 6360WAT      O26145   4.722   6.188   4.832  0.3295  0.4954 -0.2697
 6360WAT     H126146   4.765   6.189   4.756  0.3262  1.2078 -0.2636
 6360WAT     H226147   4.659   6.129   4.819 -2.1651  3.2838 -2.2157
 6360WAT    EPW26148   4.719   6.179   4.819  0.4209 -0.7963 -0.4964
 6361WAT      O26149   6.398   7.631   3.188  0.6276  0.7002  0.3511
 6361WAT     H126150   6.374   7.686   3.251 -0.5886 -1.2697  1.7302
 6361WAT     H226151   6.484   7.647   3.179  1.0572  0.5012  3.1711
 6361WAT    EPW26152   6.407   7.641   3.196  0.1104 -0.4805  0.0286
 6362WAT      O26153   4.468   6.313   2.904 -0.3227 -0.1559 -0.4670
 6362WAT     H126154   4.402   6.260   2.880  0.4192 -0.8515 -1.0125
 6362WAT     H226155   4.501   6.274   2.975 -0.4263  0.1452 -0.2495
 6362WAT    EPW26156   4.463   6.299   2.911  0.6934 -0.5014 -0.8209
 6363WAT      O26157   3.506   4.367   3.722  0.2605 -0.6439  0.4577
 6363WAT     H126158   3.580   4.354   3.679  0.7214  0.2352  0.9504
 6363WAT     H226159   3.454   4.302   3.694  0.7711 -0.5161 -0.8662
 6363WAT    EPW26160   3.509   4.355   3.712  0.7367 -0.0829  0.7905
 6364WAT      O26161   3.753   5.733   4.559  0.2493 -0.3862  0.4559
 6364WAT     H126162   3.714   5.689   4.495  0.7369 -2.5740  1.5532
 6364WAT     H226163   3.691   5.785   4.590 -0.3016 -0.1208 -1.0368
 6364WAT    EPW26164   3.738   5.734   4.555 -0.3036  0.0315  0.5296
 6365WAT      O26165   3.055   5.851   4.118  0.8559 -0.0884  0.1306
 6365WAT     H126166   3.002   5.860   4.049  0.1122 -0.9573  0.5680
 6365WAT     H226167   3.119   5.800   4.088 -0.5178 -2.1829  0.5998
 6365WAT    EPW26168   3.057   5.845   4.104 -0.1410  0.6177  0.1088
 6366WAT      O26169   4.184   5.724   3.793 -0.6525  0.4934 -0.4847
 6366WAT     H126170   4.157   5.657   3.744 -1.5537  0.7360 -0.3395
 6366WAT     H226171   4.164   5.794   3.745 -3.2586  0.8421  0.9399
 6366WAT    EPW26172   4.177   5.724   3.779  0.1252 -0.7677  0.0298
 6367WAT      O26173   3.256   5.702   4.006  0.1234 -0.0449 -0.3491
 6367WAT     H126174   3.240   5.710   3.921 -0.6194 -0.5535 -0.2674
 6367WAT     H226175   3.310   5.768   4.023 -0.4766  0.6365 -1.0182
 6367WAT    EPW26176   3.262   5.713   3.996  0.2534  0.6720 -1.1172
 6368WAT      O26177   4.797   5.435   4.882  0.0080  0.1820 -0.1713
 6368WAT     H126178   4.882   5.425   4.868 -0.1611 -0.8011 -0.5648
 6368WAT     H226179   4.785   5.521   4.874  1.2613  0.6026  1.6566
 6368WAT    EPW26180   4.808   5.446   4.879  0.2904 -0.6414 -0.0834
 6369WAT      O26181   6.471   5.790   2.793  0.6147 -0.2463 -0.5161
 6369WAT     H126182   6.437   5.781   2.873  1.7151 -0.4738 -0.0542
 6369WAT     H226183   6.429   5.730   2.746  2.4273 -2.6649  0.7411
 6369WAT    EPW26184   6.460   5.780   2.798 -0.3799 -0.8728  0.0060
 6370WAT      O26185   3.534   6.422   3.083  0.3015  0.4726 -0.2690
 6370WAT     H126186   3.482   6.391   3.020  1.8873  1.0054 -1.9245
 6370WAT     H226187   3.557   6.501   3.054  1.4222  0.5664  0.8019
 6370WAT    EPW26188   3.529   6.429   3.069 -0.7075 -0.1855 -0.6931
 6371WAT      O26189   3.369   6.393   3.757 -0.0219 -0.1797  0.4923
 6371WAT     H126190   3.290   6.383   3.722  0.3204  1.5320 -0.8874
 6371WAT     H226191   3.423   6.365   3.694  0.5257  0.7145  0.5430
 6371WAT    EPW26192   3.366   6.387   3.742  0.1168  0.0136 -0.2190
 6372WAT      O26193   5.667   7.444   4.407 -0.4990  0.0835 -0.3719
 6372WAT     H126194   5.625   7.516   4.432 -0.4902 -0.1163  0.2342
 6372WAT     H226195   5.706   7.468   4.332 -1.9325  0.1759 -1.1262
 6372WAT    EPW26196   5.667   7.458   4.399  0.1680 -0.3502 -0.1833
 6373WAT      O26197   4.172   6.577   3.310  0.8182  0.2561 -0.2021
 6373WAT     H126198   4.215   6.652   3.303 -0.0042  0.6049 -2.9862
 6373WAT     H226199   4.117   6.590   3.376  2.1082  1.3048  0.7078
 6373WAT    EPW26200   4.170   6.590   3.319  0.3408  0.1187 -0.7048
 6374WAT      O26201   4.791   5.977   2.783  0.3946 -0.1838 -0.1778
 6374WAT     H126202   4.874   5.967   2.811 -0.2637 -1.1352  1.5843
 6374WAT     H226203   4.751   5.906   2.813 -1.0799  0.2712 -1.0152
 6374WAT    EPW26204   4.798   5.965   2.792  0.4203  0.2490 -0.1936
 6375WAT      O26205   3.697   5.838   3.784 -0.4366  0.1710  0.6169
 6375WAT     H126206   3.756   5.795   3.737  0.3228  1.5640  0.2737
 6375WAT     H226207   3.743   5.898   3.827 -1.5500  1.0973  0.5787
 6375WAT    EPW26208   3.712   5.840   3.784 -0.1914 -1.0941 -0.3335
 6376WAT      O26209   2.600   5.065   4.388 -0.3002 -0.2764  0.0853
 6376WAT     H126210   2.561   4.994   4.422  0.6504 -0.5523  0.6195
 6376WAT     H226211   2.589   5.125   4.450  1.8515 -0.9088  1.1821
 6376WAT    EPW26212   2.592   5.063   4.402 -0.0218  0.1236  0.0828
 6377WAT      O26213   3.442   5.602   3.015  0.5813 -0.4911  0.2281
 6377WAT     H126214   3.396   5.622   2.943 -0.9446  1.1814  1.5692
 6377WAT     H226215   3.387   5.551   3.060  1.0326 -0.5020  0.7665
 6377WAT    EPW26216   3.427   5.597   3.011 -0.3959  0.5563 -0.5353
 6378WAT      O26217   3.811   7.734   4.256  0.0977 -0.2235  0.1016
 6378WAT     H126218   3.749   7.715   4.314 -0.5492 -0.8701 -0.7611
 6378WAT     H226219   3.772   7.718   4.179  1.0062  0.3559 -0.4978
 6378WAT    EPW26220   3.796   7.729   4.253  0.5232 -0.4656  0.1307
 6379WAT      O26221   3.025   5.796   2.398  0.1827  0.0813  0.2309
 6379WAT     H126222   2.941   5.787   2.420 -0.1130 -0.3020 -1.0166
 6379WAT     H226223   3.023   5.844   2.325  1.0463  0.0328  0.1612
 6379WAT    EPW26224   3.012   5.802   2.391 -1.1888 -0.7957 -0.9806
 6380WAT      O26225   3.685   4.982   3.555 -0.3508 -0.2900  0.4087
 6380WAT     H126226   3.705   4.975   3.639 -1.4410 -3.4132  0.5397
 6380WAT     H226227   3.607   5.022   3.555 -0.6548 -0.8655  0.9562
 6380WAT    EPW26228   3.676   4.987   3.567 -0.5188 -0.0181 -0.1815
 6381WAT      O26229   2.379   6.804   3.078  0.0606  0.3284  0.5386
 6381WAT     H126230   2.405   6.834   3.000  1.1780  1.0823  1.1754
 6381WAT     H226231   2.360   6.877   3.123  0.5793 -0.0217  1.3545
 6381WAT    EPW26232   2.380   6.819   3.073 -0.4089 -0.8348 -0.6024
 6382WAT      O26233   2.846   5.584   2.829  0.8671  0.6914  0.4758
 6382WAT     H126234   2.911   5.556   2.880  0.9093  0.5287  0.3366
 6382WAT     H226235   2.855   5.536   2.756  0.8020  0.9126  0.3192
 6382WAT    EPW26236   2.857   5.573   2.826  0.8194  0.6218 -0.0904
 6383WAT      O26237   4.144   5.509   3.594  0.1339  0.1542  0.3028
 6383WAT     H126238   4.093   5.486   3.527 -1.8273  1.5157  1.2353
 6383WAT     H226239   4.109   5.465   3.661 -1.9423  3.3956  1.5661
 6383WAT    EPW26240   4.131   5.499   3.594  1.1608 -0.4868 -0.1622
 6384WAT      O26241   3.955   7.809   4.665 -0.2915 -0.2982 -0.4346
 6384WAT     H126242   3.962   7.889   4.632 -1.0880  0.4801  1.2009
 6384WAT     H226243   4.032   7.797   4.705 -0.2042 -0.3317 -0.6095
 6384WAT    EPW26244   3.968   7.819   4.666  0.1066  0.1194  0.5919
 6385WAT      O26245   3.962   5.429   3.395  0.1890 -0.5232  0.4180
 6385WAT     H126246   3.921   5.353   3.410  0.3318 -0.6537  0.1440
 6385WAT     H226247   3.977   5.428   3.309 -0.4005  0.1157  0.3017
 6385WAT    EPW26248   3.958   5.418   3.385 -0.0406  0.5946 -0.1046
 6386WAT      O26249   3.780   5.016   3.803  0.1923  0.4593 -0.5369
 6386WAT     H126250   3.823   4.942   3.820 -0.2016  0.6199  1.3558
 6386WAT     H226251   3.842   5.078   3.812  0.1642  0.4835 -0.5088
 6386WAT    EPW26252   3.796   5.014   3.807  0.5153  0.5078 -0.5521
 6387WAT      O26253   4.679   7.027   4.458  0.1802  0.6059 -0.4085
 6387WAT     H126254   4.751   7.056   4.497 -0.3869  0.0052  1.1434
 6387WAT     H226255   4.643   6.975   4.517 -0.5670 -0.6072 -1.8633
 6387WAT    EPW26256   4.684   7.023   4.473 -0.1050 -0.4682 -0.6673
 6388WAT      O26257   4.502   5.488   3.165  0.3808  0.0285  0.0860
 6388WAT     H126258   4.487   5.574   3.163 -0.6730 -0.0601  1.8908
 6388WAT     H226259   4.556   5.478   3.233 -1.0843 -0.8831  1.1913
 6388WAT    EPW26260   4.508   5.499   3.175 -0.6472 -0.2998 -0.7475
 6389WAT      O26261   3.475   5.864   4.626 -0.5094 -0.1455  0.0250
 6389WAT     H126262   3.473   5.941   4.585  0.4701 -0.2836 -0.3032
 6389WAT     H226263   3.407   5.821   4.591 -0.4876  0.2231 -0.4871
 6389WAT    EPW26264   3.464   5.869   4.615  0.7580 -0.5948  0.4499
 6390WAT      O26265   3.261   5.788   5.384 -0.1883 -0.3824  0.2821
 6390WAT     H126266   3.281   5.785   5.299 -0.9216  2.5790 -0.1073
 6390WAT     H226267   3.320   5.735   5.420  2.7306  1.2050 -1.7036
 6390WAT    EPW26268   3.273   5.780   5.377  0.6815 -0.6464 -0.9475
 6391WAT      O26269   3.807   5.949   5.166  0.0368  0.0639  0.2900
 6391WAT     H126270   3.748   5.924   5.225  0.4904  0.6263  1.0005
 6391WAT     H226271   3.879   5.905   5.189  0.3153  0.5588  0.3826
 6391WAT    EPW26272   3.809   5.939   5.178 -0.2611 -0.3237 -0.5239
 6392WAT      O26273   3.790   5.033   3.303 -0.6045 -0.1819  0.5670
 6392WAT     H126274   3.750   5.006   3.375  0.1698 -2.6683  0.1922
 6392WAT     H226275   3.725   5.041   3.245 -0.8364 -4.2057 -0.0519
 6392WAT    EPW26276   3.775   5.030   3.305 -0.1432  0.2377 -0.4566
 6393WAT      O26277   4.880   6.066   3.480  0.2656 -0.3789 -0.1152
 6393WAT     H126278   4.862   6.150   3.466  1.9710  0.2105  0.8245
 6393WAT     H226279   4.824   6.043   3.543 -0.4486 -0.0460 -0.6284
 6393WAT    EPW26280   4.869   6.075   3.487 -0.4722 -0.7301 -0.7520
 6394WAT      O26281   4.441   6.093   3.770 -0.4431  0.5500 -0.2235
 6394WAT     H126282   4.385   6.141   3.816 -0.4207  1.0639 -0.7279
 6394WAT     H226283   4.391   6.028   3.738 -0.4756  0.2379  0.4354
 6394WAT    EPW26284   4.425   6.090   3.772 -0.3814 -0.0008 -0.1469
 6395WAT      O26285   4.691   8.018   5.764 -0.0185  0.3203  0.4096
 6395WAT     H126286   4.733   8.091   5.740 -0.2990  0.4064  0.1755
 6395WAT     H226287   4.698   7.967   5.694  0.7343 -0.1323  0.7984
 6395WAT    EPW26288   4.698   8.021   5.750  0.6253 -0.6242 -0.2632
 6396WAT      O26289   3.581   6.761   3.559  0.0352  0.6308  0.3778
 6396WAT     H126290   3.559   6.792   3.637  1.4520  1.0656  0.6266
 6396WAT     H226291   3.644   6.703   3.576  0.9591  1.3441 -0.4729
 6396WAT    EPW26292   3.587   6.757   3.573  0.4731 -0.0208 -0.0961
 6397WAT      O26293   3.889   6.424   2.584 -0.0421 -0.0106  0.0994
 6397WAT     H126294   3.914   6.345   2.611  0.6035  0.0611 -0.2814
 6397WAT     H226295   3.846   6.408   2.510 -1.1831 -0.1349  0.7610
 6397WAT    EPW26296   3.886   6.410   2.577 -0.9192  0.0467  0.0581
 6398WAT      O26297   4.989   6.557   5.451  0.0636  0.1366  0.6048
 6398WAT     H126298   4.949   6.588   5.379  0.3559 -0.3456  0.2244
 6398WAT     H226299   5.062   6.521   5.419 -0.1889 -0.7977  1.0346
 6398WAT    EPW26300   4.994   6.556   5.435  0.0837  0.3559 -0.1638
 6399WAT      O26301   4.677   4.346   4.439 -0.9285 -0.6533  0.1695
 6399WAT     H126302   4.706   4.380   4.514 -0.5533 -0.2271 -0.1631
 6399WAT     H226303   4.643   4.269   4.463 -0.3957 -0.7272  0.7070
 6399WAT    EPW26304   4.676   4.340   4.454  0.6669  0.0072 -0.1232
 6400WAT      O26305   4.595   6.512   2.174  0.2205 -0.3760  0.2165
 6400WAT     H126306   4.524   6.516   2.225 -0.2358 -0.1437 -0.4296
 6400WAT     H226307   4.564   6.522   2.094  0.8965 -1.1216 -0.1547
 6400WAT    EPW26308   4.580   6.514   2.170 -0.1461  0.6803 -0.6126
 6401WAT      O26309   3.697   6.415   5.501 -0.4366  0.6262  0.3901
 6401WAT     H126310   3.727   6.485   5.458  0.2967 -1.0102 -1.9664
 6401WAT     H226311   3.760   6.399   5.560  2.0000 -0.8252 -2.3338
 6401WAT    EPW26312   3.711   6.423   5.504  0.7813  0.5465 -0.2943
 6402WAT      O26313   3.299   6.017   3.717  0.1163  0.3003  0.3860
 6402WAT     H126314   3.219   5.992   3.742  0.3784 -0.2884  0.6477
 6402WAT     H226315   3.340   5.942   3.701  0.6269  0.5983  0.2803
 6402WAT    EPW26316   3.293   6.002   3.718  0.4830 -0.0884  0.2012
 6403WAT      O26317   3.413   7.033   2.640 -0.1522  0.6660 -0.0117
 6403WAT     H126318   3.382   7.114   2.640 -0.7995  0.4284 -0.7995
 6403WAT     H226319   3.463   7.030   2.568 -0.4696  0.2483 -0.2201
 6403WAT    EPW26320   3.416   7.045   2.629  0.5125 -0.2801  0.0722
 6404WAT      O26321   5.527   7.200   4.415 -0.0474 -0.1240 -0.5939
 6404WAT     H126322   5.572   7.275   4.411  0.1253 -0.2580 -1.3805
 6404WAT     H226323   5.589   7.140   4.401 -0.1714 -0.4253  0.1119
 6404WAT    EPW26324   5.543   7.202   4.413 -0.3900  0.3169 -1.1555
 6405WAT      O26325   2.192   5.017   2.431  0.4165  0.3082  0.4433
 6405WAT     H126326   2.161   5.063   2.364 -0.1720 -2.0644 -0.9988
 6405WAT     H226327   2.127   4.963   2.452  0.0941  1.7790  3.8426
 6405WAT    EPW26328   2.178   5.016   2.424  0.0232  1.2051  0.1525
 6406WAT      O26329   4.384   5.551   4.200  0.4869  0.6824 -0.3130
 6406WAT     H126330   4.353   5.469   4.194  0.3640  0.6658  0.5214
 6406WAT     H226331   4.365   5.574   4.281  4.7745 -0.1926  1.1938
 6406WAT    EPW26332   4.377   5.542   4.211  0.3405 -0.1868  0.2740
 6407WAT      O26333   3.069   7.048   3.260 -0.3605 -0.2994 -0.8843
 6407WAT     H126334   3.052   7.024   3.178 -0.3061 -0.6744 -0.7848
 6407WAT     H226335   3.148   7.015   3.274  0.4153  1.2538 -1.2822
 6407WAT    EPW26336   3.078   7.040   3.250 -0.4357  0.1846 -0.0204
 6408WAT      O26337   2.320   7.002   3.273 -0.3741  0.4639 -0.4507
 6408WAT     H126338   2.282   7.045   3.208  0.4598 -0.0878 -1.3226
 6408WAT     H226339   2.400   7.035   3.276 -0.1002 -0.1927 -0.3474
 6408WAT    EPW26340   2.326   7.013   3.264 -0.0026 -0.4637  0.2010
 6409WAT      O26341   3.705   7.136   3.704  0.0329 -0.5228  0.3352
 6409WAT     H126342   3.689   7.070   3.758 -0.6254 -1.9422 -1.4744
 6409WAT     H226343   3.738   7.198   3.756 -0.7656 -1.6986  2.3568
 6409WAT    EPW26344   3.707   7.135   3.719 -0.3901  0.2427 -0.1487
 6410WAT      O26345   4.160   5.554   4.824  0.1912  0.0333 -0.1119
 6410WAT     H126346   4.219   5.582   4.881  1.1976 -2.0551 -0.0376
 6410WAT     H226347   4.084   5.570   4.864  0.6697  2.2766  0.0190
 6410WAT    EPW26348   4.157   5.560   4.838 -0.2021 -0.3458  0.6053
 6411WAT      O26349   4.373   6.365   3.310  0.0396 -0.2451 -0.2879
 6411WAT     H126350   4.327   6.435   3.287  0.6272  0.9914  1.9338
 6411WAT     H226351   4.452   6.380   3.276  0.5196  0.8868  1.1878
 6411WAT    EPW26352   4.378   6.378   3.302 -0.1819 -0.8677 -0.2738
 6412WAT      O26353   3.839   6.727   3.937 -0.3463 -0.1584  0.0484
 6412WAT     H126354   3.892   6.713   4.005  0.4526  0.9220 -0.3236
 6412WAT     H226355   3.884   6.695   3.869 -0.1486  0.7599 -0.2681
 6412WAT    EPW26356   3.853   6.721   3.937  0.5396  0.1583  0.1243
 6413WAT      O26357   5.384   6.447   4.391 -0.2593  0.4902 -0.1971
 6413WAT     H126358   5.466   6.478   4.396 -0.5534  1.1757  0.4721
 6413WAT     H226359   5.356   6.476   4.315  0.2781 -0.1586 -0.6589
 6413WAT    EPW26360   5.392   6.456   4.381 -0.3992 -0.6618 -0.3472
 6414WAT      O26361   3.475   5.510   1.954  0.4884  0.4617  0.1797
 6414WAT     H126362   3.467   5.466   2.029  0.9867 -0.6987 -0.4101
 6414WAT     H226363   3.393   5.515   1.924  0.2154  1.4328  1.0585
 6414WAT    EPW26364   3.462   5.504   1.960  0.6766  0.2722  0.1535
 6415WAT      O26365   4.569   4.973   4.840  0.1561  0.1649 -0.1946
 6415WAT     H126366   4.596   5.053   4.818  0.8821 -0.0501 -0.1060
 6415WAT     H226367   4.520   4.949   4.772 -0.8565  1.0461  0.1880
 6415WAT    EPW26368   4.566   4.981   4.827  0.5715 -0.3712 -0.2682
 6416WAT      O26369   3.563   6.036   3.212 -0.3408  0.3326  0.4064
 6416WAT     H126370   3.557   5.949   3.203  0.5210  0.3238 -0.2141
 6416WAT     H226371   3.508   6.066   3.152  0.7844  0.2153 -0.7191
 6416WAT    EPW26372   3.554   6.027   3.202  0.0275  0.1199 -0.9296
 6417WAT      O26373   5.039   5.699   4.524 -0.2024 -0.0503 -0.7639
 6417WAT     H126374   4.987   5.629   4.513 -0.4904  0.0884 -0.3172
 6417WAT     H226375   5.006   5.757   4.468  0.4873 -0.5142 -1.6621
 6417WAT    EPW26376   5.026   5.697   4.514  0.2182  0.3175 -0.0356
 6418WAT      O26377   4.629   5.347   5.748 -0.2451 -0.5393  0.5534
 6418WAT     H126378   4.689   5.386   5.799  2.5578 -1.0549 -2.0071
 6418WAT     H226379   4.565   5.406   5.742  1.1275  1.1372  1.5444
 6418WAT    EPW26380   4.629   5.362   5.755  0.8167 -0.3878  0.2107
 6419WAT      O26381   4.316   7.614   2.883 -0.2571 -0.0003 -0.2089
 6419WAT     H126382   4.306   7.531   2.859 -1.3591  0.0831 -0.0782
 6419WAT     H226383   4.376   7.609   2.946 -0.1664 -0.6767 -0.3402
 6419WAT    EPW26384   4.323   7.601   2.889 -0.7594 -0.4455  0.0042
 6420WAT      O26385   4.176   5.061   2.688  0.0081  0.0387  0.1200
 6420WAT     H126386   4.169   4.976   2.670  0.5092  0.3495 -1.7236
 6420WAT     H226387   4.135   5.099   2.621 -1.5229  1.2447  1.6728
 6420WAT    EPW26388   4.169   5.054   2.675  1.0627  0.3142  0.2426
 6421WAT      O26389   3.590   6.250   4.096  0.0376 -0.5510  0.2470
 6421WAT     H126390   3.634   6.318   4.066 -1.7280  0.5749  0.0694
 6421WAT     H226391   3.531   6.234   4.034  0.4615 -2.3195  0.2433
 6421WAT    EPW26392   3.588   6.257   4.082 -0.0590  0.1870  0.5750
 6422WAT      O26393   3.648   5.273   3.039  0.2933  0.4528 -0.3037
 6422WAT     H126394   3.620   5.267   3.121  1.1764 -0.9317 -0.0666
 6422WAT     H226395   3.594   5.221   2.994  1.3230 -0.8148 -0.1398
 6422WAT    EPW26396   3.636   5.264   3.044 -0.2856  0.8156  0.7167
 6423WAT      O26397   3.546   5.778   2.238  0.6067 -0.4416 -0.5981
 6423WAT     H126398   3.569   5.835   2.176  0.9966  1.2968  1.0582
 6423WAT     H226399   3.604   5.714   2.230  2.4571  1.0984 -0.2634
 6423WAT    EPW26400   3.558   5.777   2.227  0.1565  0.4080  0.0713
 6424WAT      O26401   3.760   6.783   3.124 -0.5742  0.2822 -0.0582
 6424WAT     H126402   3.712   6.734   3.070  1.1773  0.3805 -1.8419
 6424WAT     H226403   3.826   6.731   3.145  0.5439  1.3281 -0.8113
 6424WAT    EPW26404   3.762   6.768   3.119 -0.0084 -0.7660 -0.2046
 6425WAT      O26405   3.130   6.235   3.430  0.1724 -0.0681  0.0940
 6425WAT     H126406   3.195   6.176   3.432  0.7008  0.4201 -1.2490
 6425WAT     H226407   3.060   6.187   3.413  0.5461 -0.3756 -0.6549
 6425WAT    EPW26408   3.130   6.219   3.428 -0.3210 -0.4378  0.0085
 6426WAT      O26409   4.062   7.168   4.261  0.2983 -0.3480 -0.4604
 6426WAT     H126410   4.127   7.174   4.319 -0.2140  1.4284 -0.0338
 6426WAT     H226411   4.014   7.239   4.276 -1.1709 -1.0732 -1.4878
 6426WAT    EPW26412   4.065   7.179   4.272 -0.1953  0.0829  0.1403
 6427WAT      O26413   4.410   6.918   2.703  0.0584 -0.6201 -0.5768
 6427WAT     H126414   4.381   6.904   2.784  1.2829  0.4198  0.0845
 6427WAT     H226415   4.339   6.910   2.654 -0.9167 -0.2353  0.7235
 6427WAT    EPW26416   4.395   6.915   2.708 -0.3246  0.2098 -0.0596
 6428WAT      O26417   4.214   5.145   3.748 -0.0028 -0.5948 -0.8284
 6428WAT     H126418   4.219   5.065   3.781  0.3636 -0.9644 -1.7689
 6428WAT     H226419   4.130   5.167   3.762  0.8389  0.7313  3.6048
 6428WAT    EPW26420   4.202   5.137   3.755 -0.3907  0.4115  0.8014
 6429WAT      O26421   4.129   6.827   3.658  0.2927 -0.4379  0.1339
 6429WAT     H126422   4.209   6.848   3.684  0.5549 -1.9779  0.6226
 6429WAT     H226423   4.084   6.902   3.668  0.8493 -0.4053  3.0922
 6429WAT    EPW26424   4.134   6.841   3.663 -0.1672 -0.2624 -0.6692
 6430WAT      O26425   2.591   6.193   3.973  0.3591 -0.0466  0.3110
 6430WAT     H126426   2.582   6.277   3.998 -0.5445  0.1210 -0.5344
 6430WAT     H226427   2.545   6.150   4.033 -2.2632  0.4031 -1.2245
 6430WAT    EPW26428   2.583   6.199   3.986  0.0677 -0.2601 -0.4720
 6431WAT      O26429   4.841   6.121   4.052 -0.0790 -0.5453  0.3726
 6431WAT     H126430   4.879   6.126   3.974 -0.2106  2.0803  0.4021
 6431WAT     H226431   4.890   6.063   4.095  0.5193 -1.3737 -1.3407
 6431WAT    EPW26432   4.854   6.113   4.047 -0.5389  0.2848 -0.3338
 6432WAT      O26433   5.728   5.688   2.653  0.2494 -0.4512  0.1579
 6432WAT     H126434   5.745   5.723   2.575  1.1122 -0.4555  0.3366
 6432WAT     H226435   5.647   5.657   2.644 -0.5729  1.5749 -0.0118
 6432WAT    EPW26436   5.718   5.689   2.640  0.1604  0.3922 -0.4683
 6433WAT      O26437   3.381   6.072   5.437  0.0538  0.0675  0.3213
 6433WAT     H126438   3.441   6.083   5.375 -0.0577  2.1580  0.5118
 6433WAT     H226439   3.367   5.986   5.437 -0.5755  0.0326 -3.1347
 6433WAT    EPW26440   3.388   6.061   5.428 -0.0152 -0.1540 -0.5849
 6434WAT      O26441   3.781   6.239   5.091  0.1121  0.2001 -0.7328
 6434WAT     H126442   3.712   6.252   5.040 -1.1344 -0.7219  0.6294
 6434WAT     H226443   3.787   6.153   5.098  1.0524  0.2781 -0.3774
 6434WAT    EPW26444   3.772   6.228   5.085 -0.4353  0.1084 -0.2326
 6435WAT      O26445   4.400   7.206   3.746  0.7296 -0.0186  0.2896
 6435WAT     H126446   4.319   7.239   3.750  1.3732  1.5494  1.9684
 6435WAT     H226447   4.424   7.220   3.663 -0.2873  0.5476  0.0736
 6435WAT    EPW26448   4.392   7.213   3.734  0.3278 -0.3629  0.5581
 6436WAT      O26449   3.405   6.429   3.340 -0.2990 -0.0970 -0.3306
 6436WAT     H126450   3.325   6.395   3.331 -0.8896  0.9979  0.5734
 6436WAT     H226451   3.440   6.420   3.260 -0.9349 -1.4870 -0.4911
 6436WAT    EPW26452   3.399   6.422   3.327  0.3465 -0.4781  0.0415
 6437WAT      O26453   4.519   5.980   5.621  0.3524 -0.2611  0.2294
 6437WAT     H126454   4.603   6.000   5.637  0.5490  0.7838 -1.7569
 6437WAT     H226455   4.489   5.956   5.699  2.7418 -1.6327  0.8457
 6437WAT    EPW26456   4.527   5.980   5.635  0.0969  0.2961 -0.2837
 6438WAT      O26457   1.848   6.047   2.698  0.4072  0.3879  0.3924
 6438WAT     H126458   1.923   6.058   2.655  1.1958 -2.9182  0.6578
 6438WAT     H226459   1.856   6.099   2.768  1.6630  1.3704 -0.4428
 6438WAT    EPW26460   1.860   6.057   2.702  0.7452  0.0145  1.0175
 6439WAT      O26461   3.952   6.785   4.728  0.1923  0.1688 -0.2691
 6439WAT     H126462   3.889   6.813   4.782 -0.3666 -1.8757  0.2265
 6439WAT     H226463   4.006   6.853   4.723 -0.8526  1.1708  1.1707
 6439WAT    EPW26464   3.951   6.799   4.735  0.0500  0.1816  0.8171
 6440WAT      O26465   4.835   5.591   3.229  0.1779 -0.6439  0.4046
 6440WAT     H126466   4.772   5.580   3.288 -0.2567  2.8125  0.7871
 6440WAT     H226467   4.902   5.621   3.276  0.7674 -0.4940 -0.4993
 6440WAT    EPW26468   4.836   5.594   3.244  0.6542  0.6689 -0.6951
 6441WAT      O26469   4.331   5.364   3.410 -0.0291 -0.4456  0.7781
 6441WAT     H126470   4.302   5.347   3.490  0.2655  1.0430  1.2261
 6441WAT     H226471   4.415   5.340   3.413 -0.1864 -1.0299  0.6882
 6441WAT    EPW26472   4.339   5.358   3.422 -0.1383 -0.0982 -0.6088
 6442WAT      O26473   4.983   5.028   3.893 -0.1001  0.3311 -0.4179
 6442WAT     H126474   5.037   5.096   3.883  0.3603  0.0873  0.2710
 6442WAT     H226475   4.920   5.059   3.945 -0.1033  0.3528 -0.4347
 6442WAT    EPW26476   4.982   5.042   3.899  0.1281  0.3758 -0.2380
 6443WAT      O26477   4.542   5.740   4.774  0.4516 -0.2460 -0.1083
 6443WAT     H126478   4.625   5.738   4.801  0.1739  0.2554  0.8271
 6443WAT     H226479   4.517   5.822   4.793 -0.3999 -0.5453  0.0761
 6443WAT    EPW26480   4.551   5.752   4.781  0.4705  0.3785 -0.0737
 6444WAT      O26481   3.596   7.150   3.437 -0.4421  0.5796 -0.1291
 6444WAT     H126482   3.616   7.123   3.518  0.2761  0.2493 -0.4009
 6444WAT     H226483   3.656   7.109   3.387  0.6350  2.5671 -0.5782
 6444WAT    EPW26484   3.608   7.140   3.442 -0.4185 -0.1055 -1.0402
 6445WAT      O26485   3.569   5.921   4.270  0.5893 -0.1385 -0.0042
 6445WAT     H126486   3.573   5.989   4.325  1.5485 -0.0903 -0.1099
 6445WAT     H226487   3.577   5.852   4.323 -1.2958 -0.2338  0.2031
 6445WAT    EPW26488   3.571   5.921   4.286  0.1352  0.5082 -0.3511
 6446WAT      O26489   4.366   7.507   4.077  0.0429  0.5340  0.4746
 6446WAT     H126490   4.320   7.441   4.044  0.2652  0.6220 -0.0177
 6446WAT     H226491   4.409   7.540   4.008 -0.6117  1.6486  0.5636
 6446WAT    EPW26492   4.365   7.502   4.062  0.1162 -0.1044 -0.0959
 6447WAT      O26493   4.085   5.941   4.874  0.2648  0.8497  0.0596
 6447WAT     H126494   4.096   5.905   4.795 -1.1860  0.8804 -0.1773
 6447WAT     H226495   4.138   6.010   4.872 -0.1255  1.1466 -1.0933
 6447WAT    EPW26496   4.094   5.946   4.862  0.0441 -0.4656 -0.1464
 6448WAT      O26497   4.634   6.667   5.921 -0.4017 -0.0595 -0.1593
 6448WAT     H126498   4.689   6.664   5.988 -1.1202 -0.6282  0.4203
 6448WAT     H226499   4.558   6.689   5.957 -0.3410  1.9733 -1.1229
 6448WAT    EPW26500   4.631   6.669   5.936 -0.0272  0.6205  0.0294
 6449WAT      O26501   4.247   7.014   3.966  0.0830 -0.5836  0.1057
 6449WAT     H126502   4.280   6.949   4.013  1.3104  0.1589  0.3201
 6449WAT     H226503   4.162   7.013   3.986 -0.2567 -3.0634 -1.0678
 6449WAT    EPW26504   4.239   7.004   3.976 -0.5079 -0.2196 -0.1303
 6450WAT      O26505   4.363   6.312   3.585  0.3538  0.1352 -0.6089
 6450WAT     H126506   4.385   6.301   3.501  0.5498 -1.8188 -0.3295
 6450WAT     H226507   4.426   6.272   3.629  0.0251  0.7688  0.4866
 6450WAT    EPW26508   4.375   6.305   3.579 -0.0124 -0.5154  0.5273
 6451WAT      O26509   5.155   5.632   5.060 -0.3410  0.4167 -0.2836
 6451WAT     H126510   5.241   5.641   5.044 -0.5951  0.4719 -1.6633
 6451WAT     H226511   5.129   5.571   5.003 -0.7903 -1.3702  1.6986
 6451WAT    EPW26512   5.164   5.625   5.049  0.3239  0.0426  0.3411
 6452WAT      O26513   4.017   7.352   4.702 -0.2327  0.5276  0.1871
 6452WAT     H126514   3.992   7.419   4.651  3.3149  0.4675 -2.0132
 6452WAT     H226515   3.955   7.292   4.689 -0.6844  1.4107 -2.3072
 6452WAT    EPW26516   4.004   7.353   4.692  0.1568 -0.2922 -0.1456
 6453WAT      O26517   2.969   4.950   2.940  0.1035  0.2847 -0.3201
 6453WAT     H126518   3.025   4.951   2.873  0.3229  0.7482 -0.1411
 6453WAT     H226519   2.976   5.031   2.973 -0.3724  0.2190 -0.0466
 6453WAT    EPW26520   2.978   4.962   2.935  0.5375 -0.0613 -0.5249
 6454WAT      O26521   4.386   6.934   3.719 -0.1461  0.1710 -0.4365
 6454WAT     H126522   4.383   7.021   3.729  2.7548  0.4149 -0.7716
 6454WAT     H226523   4.424   6.906   3.793  0.2121 -0.6406 -0.9132
 6454WAT    EPW26524   4.392   6.943   3.732 -0.1788  0.0453 -1.2376
 6455WAT      O26525   4.349   5.398   3.932 -0.6234 -0.2373 -0.1578
 6455WAT     H126526   4.266   5.420   3.914 -0.6352 -0.9484 -1.0528
 6455WAT     H226527   4.382   5.377   3.854 -0.4216 -2.6767  0.5077
 6455WAT    EPW26528   4.342   5.398   3.917  0.5876 -0.5261 -0.4378
 6456WAT      O26529   4.180   5.617   3.260 -0.1092  0.2114 -0.3719
 6456WAT     H126530   4.205   5.551   3.311  0.4091  1.2438  0.7749
 6456WAT     H226531   4.255   5.654   3.236 -0.4017  1.4162  0.4576
 6456WAT    EPW26532   4.195   5.613   3.264  0.7669 -0.1659 -0.0227
 6457WAT      O26533   3.390   6.082   3.413 -0.0166 -0.8309  0.3686
 6457WAT     H126534   3.461   6.088   3.362 -0.4968  0.4515 -0.2017
 6457WAT     H226535   3.421   6.088   3.494  0.4821  0.4501  0.0992
 6457WAT    EPW26536   3.405   6.084   3.417  0.1765  0.4664  0.2006
 6458WAT      O26537   4.318   5.428   2.695 -0.4477  0.7185  0.0121
 6458WAT     H126538   4.274   5.407   2.623  1.3117  0.5432 -1.0691
 6458WAT     H226539   4.387   5.375   2.694 -0.6780  0.2598  2.1925
 6458WAT    EPW26540   4.322   5.417   2.684 -0.3022  0.7583  0.9045
 6459WAT      O26541   3.811   6.279   2.889 -0.4837 -0.0810  0.2047
 6459WAT     H126542   3.830   6.235   2.962  0.2270  1.5700  1.0877
 6459WAT     H226543   3.741   6.239   2.857 -0.3515 -1.3018  1.3948
 6459WAT    EPW26544   3.803   6.267   2.895  0.9774 -0.2916  0.3637
 6460WAT      O26545   4.376   6.838   3.433  0.0944  0.1319  0.2545
 6460WAT     H126546   4.366   6.880   3.509  1.0853 -0.5851  0.8076
 6460WAT     H226547   4.455   6.861   3.406 -0.6425  1.2115 -1.1367
 6460WAT    EPW26548   4.386   6.847   3.440  0.4334  0.8410 -0.2504
 6461WAT      O26549   5.266   6.880   4.387  0.2947  0.3160  0.1382
 6461WAT     H126550   5.244   6.964   4.376 -0.5870 -0.0581 -1.1522
 6461WAT     H226551   5.294   6.856   4.308  0.8429 -0.5200  0.5793
 6461WAT    EPW26552   5.267   6.889   4.373 -0.4734 -0.7189  0.1418
 6462WAT      O26553   4.014   6.375   5.012 -0.0335  0.5669  0.2735
 6462WAT     H126554   3.943   6.333   5.041 -0.6676  1.5099  0.1292
 6462WAT     H226555   3.988   6.409   4.937  0.8432  0.2362 -0.1908
 6462WAT    EPW26556   4.000   6.373   5.005 -0.5826  0.4818 -0.8898
 6463WAT      O26557   4.906   6.356   4.216 -0.3614  0.0716  0.0631
 6463WAT     H126558   4.884   6.303   4.151  1.9795  0.6830 -1.3586
 6463WAT     H226559   4.981   6.322   4.245  1.1086  2.3854 -0.7566
 6463WAT    EPW26560   4.914   6.343   4.211 -0.2680  0.6902  0.2369
 6464WAT      O26561   3.881   5.980   3.510  0.2048 -0.2723  0.6036
 6464WAT     H126562   3.872   6.050   3.459  0.2637 -0.7227 -0.0327
 6464WAT     H226563   3.906   5.917   3.455  0.1981 -0.7835  1.1747
 6464WAT    EPW26564   3.883   5.981   3.494 -0.3526 -1.0593  0.5988
 6465WAT      O26565   1.380   7.243   4.068 -0.1398  0.0867 -0.4003
 6465WAT     H126566   1.341   7.170   4.096 -0.6621  0.2899 -0.5872
 6465WAT     H226567   1.432   7.265   4.135 -0.5434 -0.0440 -0.0364
 6465WAT    EPW26568   1.382   7.235   4.082  0.5798 -0.5285  0.1424
 6466WAT      O26569   3.993   6.672   4.448  0.3089 -0.2230 -0.1652
 6466WAT     H126570   3.992   6.585   4.453  0.3139 -0.1821  0.6658
 6466WAT     H226571   3.968   6.697   4.527  1.6541  0.5265  0.0583
 6466WAT    EPW26572   3.989   6.663   4.460  0.5006 -0.8027  0.2862
 6467WAT      O26573   5.328   5.365   3.114 -0.2131 -0.4488 -0.0630
 6467WAT     H126574   5.356   5.379   3.033 -1.7897  0.9880 -0.4432
 6467WAT     H226575   5.313   5.280   3.116 -0.8823 -0.4094 -1.5815
 6467WAT    EPW26576   5.330   5.355   3.102 -0.3897 -0.2144  0.0569
 6468WAT      O26577   3.783   6.366   3.229  0.2533  0.3841  0.1482
 6468WAT     H126578   3.823   6.443   3.222 -0.2728  0.6973  0.5271
 6468WAT     H226579   3.721   6.369   3.168  0.2359  0.2626  0.1595
 6468WAT    EPW26580   3.780   6.377   3.219 -0.2675 -0.8577 -0.1603
 6469WAT      O26581   3.591   5.110   2.379 -0.3903  0.5091 -0.7352
 6469WAT     H126582   3.512   5.095   2.344 -1.0031  0.9336  0.4114
 6469WAT     H226583   3.577   5.177   2.432  1.3481  2.4942 -2.5785
 6469WAT    EPW26584   3.577   5.118   2.381  0.0533  0.4955  0.0786
 6470WAT      O26585   5.116   7.456   2.628  0.0725 -0.1622 -0.0280
 6470WAT     H126586   5.036   7.467   2.595 -0.4474 -0.5413  1.0673
 6470WAT     H226587   5.157   7.410   2.567 -0.6956 -0.3706 -0.3968
 6470WAT    EPW26588   5.110   7.451   2.614  0.8332 -0.6765  0.6510
 6471WAT      O26589   4.983   6.076   5.165  0.2729  1.0235  0.4913
 6471WAT     H126590   5.026   6.029   5.106  0.0280  1.2079  0.1617
 6471WAT     H226591   4.919   6.023   5.191 -0.2384  1.3088 -0.1664
 6471WAT    EPW26592   4.980   6.061   5.160  0.3972  0.6281 -0.2939
 6472WAT      O26593   4.514   6.507   4.062 -0.2666  0.3225 -0.1300
 6472WAT     H126594   4.450   6.524   4.005 -0.8687  0.4460  0.5664
 6472WAT     H226595   4.551   6.435   4.031 -0.6394  0.3450 -0.6319
 6472WAT    EPW26596   4.510   6.499   4.049 -0.9274 -0.2683 -0.1847
 6473WAT      O26597   5.144   7.118   4.341  1.3145  0.4641  0.4312
 6473WAT     H126598   5.097   7.190   4.357  0.6748 -0.2838  2.1360
 6473WAT     H226599   5.103   7.082   4.273 -0.4985 -0.0411  1.7297
 6473WAT    EPW26600   5.131   7.123   4.333 -0.2448  0.3646 -0.3934
 6474WAT      O26601   4.053   5.134   3.312  0.1171  0.2589 -0.7197
 6474WAT     H126602   3.972   5.113   3.287 -0.8368  3.1321 -0.4132
 6474WAT     H226603   4.042   5.163   3.393  1.9960 -1.9146  0.4418
 6474WAT    EPW26604   4.039   5.135   3.320  0.7660 -0.1202 -0.5090
 6475WAT      O26605   5.111   6.478   5.818  0.0507  0.0965  0.4612
 6475WAT     H126606   5.084   6.537   5.760 -0.3600 -0.1712  0.3746
 6475WAT     H226607   5.148   6.417   5.768  0.5583  0.3270  0.5586
 6475WAT    EPW26608   5.112   6.478   5.802 -0.3430 -0.2785 -0.1468
 6476WAT      O26609   3.357   6.114   3.041  0.4238 -0.2954 -0.3892
 6476WAT     H126610   3.332   6.193   3.014  0.9134  0.2105  0.6131
 6476WAT     H226611   3.284   6.081   3.077 -0.2109 -0.9391 -2.1430
 6476WAT    EPW26612   3.343   6.121   3.043  0.0607 -0.3654 -1.1107
 6477WAT      O26613   3.087   6.997   2.573  0.7246  0.4390 -0.6481
 6477WAT     H126614   3.170   6.973   2.563  0.7612 -0.6929  1.6658
 6477WAT     H226615   3.057   6.943   2.635 -1.1014  2.2793  0.1996
 6477WAT    EPW26616   3.095   6.985   2.581 -0.2394 -0.3750 -0.5073
 6478WAT      O26617   3.461   7.630   2.782  0.4539 -0.2616 -0.1265
 6478WAT     H126618   3.455   7.557   2.830 -1.0240  0.3954  0.7643
 6478WAT     H226619   3.418   7.689   2.830  0.9551  1.0088 -1.1972
 6478WAT    EPW26620   3.454   7.628   2.796  0.2390 -0.5963 -0.6860
 6479WAT      O26621   4.405   4.661   0.650  0.5420  0.1867  0.1600
 6479WAT     H126622   4.370   4.638   0.726  0.3684  0.6023  0.2124
 6479WAT     H226623   4.410   4.748   0.656  0.5898  0.2162 -0.2772
 6479WAT    EPW26624   4.401   4.671   0.662  0.3480 -0.9152 -0.3516
 6480WAT      O26625   3.517   5.895   2.471 -0.4073  0.1669 -0.1118
 6480WAT     H126626   3.505   5.980   2.456  0.4122  0.2786 -0.1998
 6480WAT     H226627   3.506   5.858   2.393 -0.6799  0.2047 -0.0903
 6480WAT    EPW26628   3.514   5.902   2.457 -0.3718  0.2672  0.4641
 6481WAT      O26629   2.826   5.875   1.935 -0.3135  0.1709  0.0703
 6481WAT     H126630   2.837   5.952   1.974  1.6790  0.3470 -0.7410
 6481WAT     H226631   2.860   5.818   1.991 -1.4529 -0.1117  0.5055
 6481WAT    EPW26632   2.832   5.878   1.949 -0.2185 -0.6301 -0.0061
 6482WAT      O26633   4.656   6.488   1.196 -0.2584  0.1993  0.3706
 6482WAT     H126634   4.740   6.503   1.178 -0.0509 -0.4616  0.7675
 6482WAT     H226635   4.614   6.538   1.138  0.4019  0.8895  0.4656
 6482WAT    EPW26636   4.662   6.498   1.185 -0.3462  0.4205 -0.5975
 6483WAT      O26637   3.047   4.533   1.583 -0.8012  0.2364 -0.0407
 6483WAT     H126638   2.990   4.586   1.623 -0.8174  0.4997 -0.4064
 6483WAT     H226639   3.007   4.455   1.585 -0.8735  0.2802  0.3062
 6483WAT    EPW26640   3.032   4.529   1.589  0.3395  0.1277 -0.3304
 6484WAT      O26641   2.971   6.045   1.584 -0.2757  0.0431 -0.0138
 6484WAT     H126642   2.959   5.959   1.571  0.0204  0.0398 -0.3001
 6484WAT     H226643   2.890   6.078   1.578 -0.3421 -0.1661 -0.3089
 6484WAT    EPW26644   2.957   6.037   1.581  0.5751  0.0673 -0.1223
 6485WAT      O26645   4.398   5.994   3.292  0.7216 -0.3125 -0.4305
 6485WAT     H126646   4.330   6.048   3.281  0.4610 -0.1474  1.5072
 6485WAT     H226647   4.461   6.028   3.243  0.1873  1.0561 -0.1962
 6485WAT    EPW26648   4.397   6.007   3.283  0.5440 -0.3328  0.6416
 6486WAT      O26649   4.752   6.097   0.524 -0.0580 -0.3761  0.1071
 6486WAT     H126650   4.838   6.087   0.537  0.7164  1.9628 -2.2442
 6486WAT     H226651   4.726   6.018   0.500  1.6196 -0.9814  0.1309
 6486WAT    EPW26652   4.761   6.084   0.523  0.6060 -0.2618 -0.3448
 6487WAT      O26653   3.302   5.590   2.757 -0.0961  0.1850  0.3585
 6487WAT     H126654   3.261   5.644   2.702 -1.6382 -0.9380  0.3526
 6487WAT     H226655   3.332   5.527   2.706 -1.1518 -0.6388  0.7305
 6487WAT    EPW26656   3.301   5.589   2.742 -1.1362 -0.2889 -0.7046
 6488WAT      O26657   2.798   6.603   1.489  0.1844  0.0518 -0.1808
 6488WAT     H126658   2.805   6.541   1.551  1.0809 -0.4279 -0.7471
 6488WAT     H226659   2.783   6.557   1.416  1.4618  0.4397 -0.7108
 6488WAT    EPW26660   2.797   6.587   1.488  0.1105  0.7698  0.6132
 6489WAT      O26661   2.067   7.298   1.369 -0.8742 -0.4050  0.2101
 6489WAT     H126662   2.118   7.365   1.346 -1.5927  0.1727  0.2668
 6489WAT     H226663   1.992   7.315   1.329 -1.3342 -0.7254  0.9202
 6489WAT    EPW26664   2.064   7.311   1.360 -0.0868 -0.2798 -0.2166
 6490WAT      O26665   2.948   6.661   1.994 -0.0607  0.3827  0.2485
 6490WAT     H126666   3.034   6.646   1.988  0.1824  1.3463  0.9056
 6490WAT     H226667   2.931   6.708   1.922  0.2879  1.4545  0.8421
 6490WAT    EPW26668   2.959   6.666   1.982  0.2870 -0.7396  0.5481
 6491WAT      O26669   3.931   6.513   0.992  0.4609  0.3681 -0.0074
 6491WAT     H126670   3.942   6.476   0.913 -0.0035 -0.8690  0.4766
 6491WAT     H226671   4.002   6.486   1.036 -0.0091 -0.1979  0.4273
 6491WAT    EPW26672   3.943   6.503   0.987 -0.2377  1.1863 -0.1078
 6492WAT      O26673   4.247   6.003   2.412  0.0168 -0.4516 -0.5212
 6492WAT     H126674   4.191   5.989   2.477  1.3654  0.1129  0.8387
 6492WAT     H226675   4.234   6.086   2.390  1.4532  0.2588  1.0448
 6492WAT    EPW26676   4.237   6.013   2.418  0.0886 -0.5290  0.1375
 6493WAT      O26677   3.673   4.844   1.778 -0.2717 -0.6866  0.4578
 6493WAT     H126678   3.596   4.854   1.817 -1.2975  0.2525 -1.6533
 6493WAT     H226679   3.654   4.849   1.693  2.2318  0.5300 -0.1243
 6493WAT    EPW26680   3.659   4.846   1.771 -0.6815 -0.2062  0.3885
 6494WAT      O26681   2.622   5.230   0.500 -0.1900 -0.4004  0.5577
 6494WAT     H126682   2.640   5.159   0.548  1.1140 -0.9736 -0.7004
 6494WAT     H226683   2.691   5.282   0.514 -0.5374  0.0742  0.5049
 6494WAT    EPW26684   2.635   5.227   0.509 -0.4978  0.7300  0.3661
 6495WAT      O26685   4.368   6.761   1.776  0.5731 -0.0181  0.2007
 6495WAT     H126686   4.408   6.696   1.818 -0.5267 -1.4832 -0.8950
 6495WAT     H226687   4.342   6.725   1.702 -0.8907  1.4287 -0.0587
 6495WAT    EPW26688   4.370   6.746   1.771  0.8511  0.7208 -0.4481
 6496WAT      O26689   4.593   6.241   2.285  0.3795 -0.9488  0.0138
 6496WAT     H126690   4.674   6.209   2.273  0.4752 -1.1967  1.1978
 6496WAT     H226691   4.603   6.326   2.269  0.7248 -1.0780 -0.4999
 6496WAT    EPW26692   4.607   6.249   2.281  0.8134  0.1113 -0.7908
 6497WAT      O26693   4.259   5.431   2.963 -0.0709  0.2333 -0.0067
 6497WAT     H126694   4.263   5.517   2.978  1.3463  0.1632  0.1207
 6497WAT     H226695   4.265   5.425   2.876 -1.3296  0.3002 -0.1159
 6497WAT    EPW26696   4.260   5.443   2.952  1.0326 -0.1854 -0.0195
 6498WAT      O26697   5.348   6.244   2.302 -0.1747 -0.2271 -0.1345
 6498WAT     H126698   5.414   6.232   2.247 -0.3188 -0.1924 -0.3165
 6498WAT     H226699   5.280   6.258   2.250  0.1296  2.3076  0.0241
 6498WAT    EPW26700   5.348   6.244   2.286  0.0308  0.3075 -0.8318
 6499WAT      O26701   6.261   4.840   3.187 -0.4675  0.3590 -0.0169
 6499WAT     H126702   6.191   4.872   3.146 -1.3614  0.1197  1.2634
 6499WAT     H226703   6.274   4.763   3.148 -1.4255  0.0429  0.2517
 6499WAT    EPW26704   6.253   4.833   3.176  0.2311  0.0568 -0.4615
 6500WAT      O26705   4.474   5.185   2.069 -0.4660 -0.1857 -0.0879
 6500WAT     H126706   4.449   5.260   2.033 -1.0029 -1.1148 -1.7781
 6500WAT     H226707   4.505   5.208   2.147  0.9403  1.9878 -1.2179
 6500WAT    EPW26708   4.475   5.199   2.075 -0.1013 -0.5684 -0.3561
 6501WAT      O26709   4.651   3.706   1.072 -0.4114  0.3469  0.4509
 6501WAT     H126710   4.624   3.623   1.071  0.7189 -0.0908  2.1958
 6501WAT     H226711   4.691   3.714   1.149 -0.9210  2.6717  0.5590
 6501WAT    EPW26712   4.653   3.695   1.083  0.2085  0.3382 -0.4649
 6502WAT      O26713   4.679   6.028   1.326  0.1877 -0.5060 -0.5580
 6502WAT     H126714   4.740   5.974   1.295  0.0311 -1.6688  1.0507
 6502WAT     H226715   4.680   6.095   1.270  3.2458 -0.2629 -0.3633
 6502WAT    EPW26716   4.688   6.030   1.313  0.3440  0.7084 -0.4727
 6503WAT      O26717   3.464   6.595   1.337  0.0813  0.2906 -0.0462
 6503WAT     H126718   3.514   6.666   1.339 -0.9031  1.0405 -0.7268
 6503WAT     H226719   3.386   6.625   1.361 -0.2478 -0.6543  0.0887
 6503WAT    EPW26720   3.460   6.610   1.341 -0.6714 -0.2319  0.3062
 6504WAT      O26721   3.990   5.604   2.371  0.3178 -0.2795 -0.1517
 6504WAT     H126722   3.991   5.523   2.405  0.1554  0.3806  1.5112
 6504WAT     H226723   4.048   5.599   2.305  0.7387 -1.5973  0.2863
 6504WAT    EPW26724   3.999   5.591   2.366 -0.2118 -0.2284 -0.3458
 6505WAT      O26725   6.466   6.289   1.859 -0.1290 -0.5506  0.3893
 6505WAT     H126726   6.455   6.216   1.811  0.3679 -0.8840  0.7657
 6505WAT     H226727   6.500   6.346   1.803 -2.6444  0.1739 -0.5316
 6505WAT    EPW26728   6.469   6.286   1.844 -1.1130  0.1422 -0.5573
 6506WAT      O26729   2.864   5.424   2.588 -0.3216 -0.0295  0.1173
 6506WAT     H126730   2.937   5.429   2.541 -0.3508 -2.3428 -0.3093
 6506WAT     H226731   2.801   5.438   2.528 -0.3583 -2.9745 -0.6966
 6506WAT    EPW26732   2.865   5.427   2.572  0.1333 -0.2132 -0.7722
 6507WAT      O26733   3.855   5.132   2.881 -0.6603 -0.2319 -0.0598
 6507WAT     H126734   3.930   5.122   2.923 -0.3410 -0.3478 -0.6424
 6507WAT     H226735   3.810   5.189   2.930 -1.6311 -2.7273  2.2170
 6507WAT    EPW26736   3.859   5.139   2.894 -0.0739  0.7205  0.3843
 6508WAT      O26737   5.069   5.422   2.388  0.3149 -0.0061 -0.4378
 6508WAT     H126738   5.000   5.393   2.344  1.9344 -1.4252 -2.2409
 6508WAT     H226739   5.090   5.357   2.442 -0.4511  0.9260  1.0505
 6508WAT    EPW26740   5.062   5.408   2.389  0.2157  0.1179 -0.2347
 6509WAT      O26741   3.070   5.926   2.152 -0.5357 -0.3141 -1.0390
 6509WAT     H126742   3.150   5.892   2.144 -0.4309 -0.3848  0.0791
 6509WAT     H226743   3.084   6.005   2.186 -1.0019 -1.3498  1.8641
 6509WAT    EPW26744   3.083   5.933   2.156  0.1646  0.0856 -0.5362
 6510WAT      O26745   5.458   6.574   1.471  0.5321  0.2768 -0.2953
 6510WAT     H126746   5.445   6.634   1.533 -0.8140 -0.0895 -0.2057
 6510WAT     H226747   5.499   6.510   1.513  0.4423  0.4124 -0.0010
 6510WAT    EPW26748   5.462   6.574   1.486  0.5245 -0.4367 -0.3112
 6511WAT      O26749   4.105   0.141   1.318 -0.1092  0.1172 -0.1639
 6511WAT     H126750   4.076   0.213   1.279  1.6917  1.1942  0.4122
 6511WAT     H226751   4.157   0.171   1.381 -1.6083 -1.5941  2.0539
 6511WAT    EPW26752   4.108   0.156   1.322  1.3120  0.3559  0.2561
 6512WAT      O26753   3.297   5.828   3.397 -0.1909 -0.4834  0.4895
 6512WAT     H126754   3.342   5.790   3.462  0.4590 -0.0157  0.3241
 6512WAT     H226755   3.339   5.903   3.385  0.5761 -1.1419 -1.3850
 6512WAT    EPW26756   3.310   5.833   3.405  0.7852 -0.4310 -0.7013
 6513WAT      O26757   2.021   4.729   0.900  0.0887  0.0898 -0.3588
 6513WAT     H126758   2.107   4.711   0.905  0.0464  0.1423  1.2059
 6513WAT     H226759   2.016   4.811   0.929 -0.2730  0.9436 -2.6516
 6513WAT    EPW26760   2.033   4.739   0.905  0.5573 -0.3488 -1.1142
 6514WAT      O26761   3.609   6.435   1.755 -0.1177 -0.6370 -0.2477
 6514WAT     H126762   3.602   6.359   1.798 -0.6077 -2.0095 -2.5787
 6514WAT     H226763   3.658   6.415   1.686  0.2514  1.3515 -0.6207
 6514WAT    EPW26764   3.615   6.421   1.751  0.6266 -0.5682 -0.2495
 6515WAT      O26765   3.102   5.741   1.674 -0.7798 -0.4729  0.0963
 6515WAT     H126766   3.100   5.808   1.730 -2.2093  0.1728 -0.6872
 6515WAT     H226767   3.158   5.768   1.613 -1.7438  0.2408 -0.4827
 6515WAT    EPW26768   3.110   5.755   1.674  0.5385 -0.3307 -0.1103
 6516WAT      O26769   4.431   5.701   2.684  0.0444  0.0109  0.1332
 6516WAT     H126770   4.437   5.691   2.598  0.2756  0.7388  0.0571
 6516WAT     H226771   4.403   5.623   2.712 -2.8486  0.5958 -0.8866
 6516WAT    EPW26772   4.428   5.688   2.676 -0.5149  0.7792  0.0164
 6517WAT      O26773   4.416   7.059   1.398  0.1806 -0.0010  0.1901
 6517WAT     H126774   4.390   6.976   1.391  0.6827 -0.3498  1.9646
 6517WAT     H226775   4.348   7.098   1.437 -0.3130  0.6033 -1.2042
 6517WAT    EPW26776   4.402   7.053   1.403 -0.3672 -0.0585 -0.1593
 6518WAT      O26777   3.781   7.969   3.061 -0.5575 -0.2632 -0.2258
 6518WAT     H126778   3.836   8.037   3.063  0.8479 -1.2414 -1.6914
 6518WAT     H226779   3.753   7.961   3.143  1.5503  0.3017  0.6135
 6518WAT    EPW26780   3.785   7.978   3.073 -0.5192 -0.2091 -0.7582
 6519WAT      O26781   4.386   5.651   1.061 -0.5241 -0.0651 -0.0008
 6519WAT     H126782   4.440   5.710   1.095  0.5415 -0.2286 -1.3335
 6519WAT     H226783   4.406   5.578   1.103 -0.6793  0.1520  0.4637
 6519WAT    EPW26784   4.397   5.649   1.072 -0.5340  0.7322 -0.5948
 6520WAT      O26785   4.310   5.975   2.699  0.2343  0.2553 -0.0073
 6520WAT     H126786   4.352   6.020   2.636  0.2811  2.7066  1.6014
 6520WAT     H226787   4.355   5.901   2.705  0.4396  0.1058 -2.5784
 6520WAT    EPW26788   4.323   5.971   2.691  1.0535 -0.0538  0.0298
 6521WAT      O26789   1.867   6.902   2.198  0.2150 -0.1637  0.3861
 6521WAT     H126790   1.861   6.837   2.255  0.6671  0.0931  0.7257
 6521WAT     H226791   1.884   6.862   2.122 -0.2961 -0.4954  0.4367
 6521WAT    EPW26792   1.868   6.887   2.195  0.4479 -0.3696 -0.0585
 6522WAT      O26793   3.294   5.343   1.361  0.1454 -0.8412  0.1155
 6522WAT     H126794   3.258   5.409   1.405  0.4517 -0.4123 -0.2597
 6522WAT     H226795   3.280   5.365   1.277 -0.6722 -1.7779 -0.0008
 6522WAT    EPW26796   3.287   5.356   1.355  0.1293  0.4526 -0.5041
 6523WAT      O26797   6.302   5.639   2.109 -0.3762  0.2538 -0.3692
 6523WAT     H126798   6.273   5.692   2.046  0.8466 -1.0410 -2.1061
 6523WAT     H226799   6.304   5.561   2.070  0.4040 -0.6024  1.3050
 6523WAT    EPW26800   6.298   5.635   2.094 -0.4037  0.3850 -0.4287
 6524WAT      O26801   2.432   4.872   1.832 -0.0616 -0.3658 -0.6091
 6524WAT     H126802   2.352   4.890   1.803  0.0422  0.5477 -0.3608
 6524WAT     H226803   2.445   4.932   1.894  0.4854 -1.0378 -0.0567
 6524WAT    EPW26804   2.422   4.883   1.837  1.1447 -0.5288  0.3464
 6525WAT      O26805   2.669   7.311   0.548 -0.0928  0.5743  0.2880
 6525WAT     H126806   2.631   7.299   0.470  0.5392 -0.3655  0.1060
 6525WAT     H226807   2.745   7.349   0.528 -0.2777  1.0744  0.5222
 6525WAT    EPW26808   2.675   7.315   0.533  0.1154  0.7396 -0.9934
 6526WAT      O26809   3.982   5.524   1.719 -0.6487 -0.4486  0.0297
 6526WAT     H126810   3.944   5.508   1.796  1.2334  0.9305  1.3222
 6526WAT     H226811   3.993   5.444   1.685 -0.2119 -1.2449  1.8708
 6526WAT    EPW26812   3.978   5.510   1.726  1.2005 -0.3147  0.2463
 6527WAT      O26813   4.473   0.278   1.475  0.1447 -0.7735 -0.5826
 6527WAT     H126814   4.550   0.266   1.436  1.0514  0.4670  0.7299
 6527WAT     H226815   4.492   0.331   1.542 -2.3024  2.1765 -1.9544
 6527WAT    EPW26816   4.487   0.284   1.479 -0.1836 -0.0599 -0.0168
 6528WAT      O26817   3.805   5.291   0.544 -0.6074 -0.5517 -0.0877
 6528WAT     H126818   3.884   5.326   0.557 -0.6596  0.0703 -1.2552
 6528WAT     H226819   3.752   5.361   0.546 -0.9737 -0.8167 -0.4554
 6528WAT    EPW26820   3.809   5.307   0.546  0.0732 -0.3465 -0.1663
 6529WAT      O26821   4.449   7.269   0.677 -0.0585 -0.3627 -1.1424
 6529WAT     H126822   4.395   7.322   0.633  2.2156  3.3594  0.0616
 6529WAT     H226823   4.408   7.257   0.753 -0.4064  0.1751 -1.2337
 6529WAT    EPW26824   4.435   7.275   0.681 -0.1211  0.6579 -0.4440
 6530WAT      O26825   4.344   7.180   2.089 -0.0223 -0.3828  0.2577
 6530WAT     H126826   4.428   7.162   2.073 -0.4387 -1.6881 -0.5396
 6530WAT     H226827   4.347   7.262   2.120  1.5052 -0.2904 -0.0423
 6530WAT    EPW26828   4.357   7.190   2.091 -0.2826 -0.5227  0.1104
 6531WAT      O26829   4.140   5.200   1.920 -0.1872 -0.3470  0.3107
 6531WAT     H126830   4.077   5.203   1.980 -1.0786 -1.5506 -0.4933
 6531WAT     H226831   4.185   5.129   1.941  0.2606 -0.0760  0.2736
 6531WAT    EPW26832   4.137   5.190   1.932  1.0440  1.0470 -0.0873
 6532WAT      O26833   3.637   6.661   2.452 -0.1250 -0.9222  0.5128
 6532WAT     H126834   3.648   6.640   2.536 -0.8981 -0.6750  0.6828
 6532WAT     H226835   3.558   6.698   2.450  0.5056  0.4965 -0.0574
 6532WAT    EPW26836   3.627   6.663   2.464 -0.3922  0.5847 -0.6089
 6533WAT      O26837   3.745   4.650   2.114  0.2685 -0.6209 -0.5376
 6533WAT     H126838   3.664   4.651   2.082  0.0432 -1.8680 -0.0902
 6533WAT     H226839   3.770   4.567   2.104  0.7997 -0.6800  0.9727
 6533WAT    EPW26840   3.737   4.638   2.108  0.2081 -0.4651  0.3063
 6534WAT      O26841   4.040   6.456   1.922  0.3440  0.4862  0.0279
 6534WAT     H126842   3.987   6.454   1.991  0.9930  0.0031  0.5289
 6534WAT     H226843   4.086   6.528   1.933  2.0719 -0.7438  1.3865
 6534WAT    EPW26844   4.039   6.466   1.934  0.6590 -0.0768  0.1654
 6535WAT      O26845   3.591   6.143   2.765 -0.0352  0.0223 -0.3096
 6535WAT     H126846   3.641   6.101   2.708  0.2245 -2.0814  1.3551
 6535WAT     H226847   3.528   6.085   2.784 -0.3748  0.8212  1.1699
 6535WAT    EPW26848   3.589   6.129   2.759  0.3266 -0.6215 -0.1636
 6536WAT      O26849   4.873   6.418   2.094 -0.1021 -0.9040  0.1345
 6536WAT     H126850   4.924   6.424   2.164 -1.5387 -1.2415  1.2574
 6536WAT     H226851   4.797   6.450   2.121 -0.7221 -1.1147 -1.2516
 6536WAT    EPW26852   4.870   6.424   2.108  0.4673  0.9484 -0.5423
 6537WAT      O26853   5.976   6.395   1.450 -0.5653  0.0746 -0.4522
 6537WAT     H126854   5.925   6.466   1.451 -0.7534 -0.0601  0.0124
 6537WAT     H226855   6.015   6.397   1.528  0.9638  0.7513 -1.2026
 6537WAT    EPW26856   5.974   6.406   1.462  0.2428  0.3658 -0.9956
 6538WAT      O26857   4.245   4.829   1.593 -0.6104 -0.0934 -0.0902
 6538WAT     H126858   4.229   4.752   1.630 -1.2601 -0.5448 -1.2413
 6538WAT     H226859   4.167   4.868   1.592 -0.4720  0.1810 -0.3647
 6538WAT    EPW26860   4.231   4.824   1.598 -0.3705  0.0448  0.6244
 6539WAT      O26861   1.781   5.788   2.331  0.7015 -0.1837  0.3640
 6539WAT     H126862   1.830   5.723   2.301 -0.1320  0.1695 -1.9222
 6539WAT     H226863   1.828   5.860   2.314  0.5119 -0.0103  0.5566
 6539WAT    EPW26864   1.795   5.789   2.324 -0.7555  0.1074 -0.8428
 6540WAT      O26865   4.930   6.423   2.642 -0.6800 -0.1304  0.0309
 6540WAT     H126866   4.874   6.366   2.677 -1.5192  1.3054  1.1031
 6540WAT     H226867   4.974   6.453   2.711 -1.1817  1.5074 -0.3321
 6540WAT    EPW26868   4.928   6.419   2.658  0.4516 -0.7182  0.3756
 6541WAT      O26869   3.123   5.984   1.830 -0.0368 -0.2997  0.1293
 6541WAT     H126870   3.095   6.005   1.910 -0.4681  1.8446 -0.5162
 6541WAT     H226871   3.058   6.011   1.778  0.4520 -1.1995 -0.9903
 6541WAT    EPW26872   3.110   5.991   1.834  0.0049 -0.3263 -0.2178
 6542WAT      O26873   4.252   6.975   2.355  0.9234  0.2886 -0.5301
 6542WAT     H126874   4.328   7.017   2.349  0.3886  1.4791  0.5658
 6542WAT     H226875   4.210   7.018   2.418 -0.5370 -0.5534 -0.8905
 6542WAT    EPW26876   4.257   6.988   2.363  0.0189  1.4417  0.3158
 6543WAT      O26877   3.229   6.453   0.709  0.0535  0.1716 -0.3074
 6543WAT     H126878   3.281   6.491   0.769 -2.9788  1.2127  1.9193
 6543WAT     H226879   3.166   6.511   0.697 -0.8408 -1.1469 -2.6582
 6543WAT    EPW26880   3.228   6.467   0.716 -0.1941  1.4162  0.2215
 6544WAT      O26881   4.050   6.728   2.698  0.5188 -0.7415  0.3379
 6544WAT     H126882   4.000   6.704   2.631  0.4436 -0.1508  0.1795
 6544WAT     H226883   4.129   6.738   2.662  0.1802  1.0824 -0.0055
 6544WAT    EPW26884   4.054   6.726   2.683  1.0245  0.3073 -0.0729
 6545WAT      O26885   3.120   4.805   1.433 -0.1711  0.1705  0.0693
 6545WAT     H126886   3.180   4.780   1.491  0.6193  0.3615 -0.6431
 6545WAT     H226887   3.053   4.752   1.450  0.0722  0.1683  1.0921
 6545WAT    EPW26888   3.119   4.793   1.444  0.4920  0.5819 -0.0735
 6546WAT      O26889   4.340   6.165   1.739  0.0242  0.4192 -0.7876
 6546WAT     H126890   4.350   6.214   1.667  0.4784  0.1496 -0.9142
 6546WAT     H226891   4.345   6.222   1.804  2.7919  0.3025 -0.8112
 6546WAT    EPW26892   4.342   6.181   1.738 -0.4430 -0.5254 -0.2400
 6547WAT      O26893   5.233   6.193   2.749  0.2193  0.0117 -0.7071
 6547WAT     H126894   5.237   6.156   2.670  0.4643  1.4155 -1.3802
 6547WAT     H226895   5.294   6.150   2.794  1.2517  0.2968 -1.7761
 6547WAT    EPW26896   5.243   6.181   2.744 -0.5295 -0.9986  0.8847
 6548WAT      O26897   3.526   5.730   1.682  0.2360  0.1388 -0.1997
 6548WAT     H126898   3.608   5.717   1.655  0.5169  0.9579  0.2062
 6548WAT     H226899   3.481   5.664   1.647  0.9946 -0.0766 -0.7766
 6548WAT    EPW26900   3.531   5.719   1.673  0.3237 -0.8768  0.4157
 6549WAT      O26901   6.079   5.710   2.248  0.1917 -1.0134  0.4538
 6549WAT     H126902   6.165   5.703   2.237  0.3787 -0.2693  1.2780
 6549WAT     H226903   6.067   5.682   2.330 -0.2654 -0.5283  0.5562
 6549WAT    EPW26904   6.090   5.705   2.259 -0.5720 -0.6924 -0.3505
 6550WAT      O26905   2.053   6.205   1.274  0.1601  0.6018 -0.3580
 6550WAT     H126906   2.127   6.172   1.242 -0.3343  0.5492 -1.4696
 6550WAT     H226907   2.027   6.146   1.333  0.5870  0.2427 -0.5318
 6550WAT    EPW26908   2.060   6.192   1.278  0.2948  0.3482 -1.1322
 6551WAT      O26909   4.395   5.754   3.132  0.1666 -0.2310 -0.5748
 6551WAT     H126910   4.336   5.768   3.069 -1.1245 -0.5078  0.5162
 6551WAT     H226911   4.393   5.828   3.179 -0.2605 -0.7107  0.1872
 6551WAT    EPW26912   4.386   5.767   3.130 -0.2241  0.4777 -0.3676
 6552WAT      O26913   5.632   7.906   2.190  0.1649 -0.1715  0.3495
 6552WAT     H126914   5.595   7.827   2.190  1.5708 -0.8837 -0.3146
 6552WAT     H226915   5.699   7.897   2.135 -0.1857  1.7714 -0.4743
 6552WAT    EPW26916   5.637   7.893   2.182 -0.5573 -0.3475 -1.3002
 6553WAT      O26917   2.808   5.015   0.580  0.0849 -0.0672 -0.0223
 6553WAT     H126918   2.741   4.976   0.541  0.4883 -0.4778 -0.3083
 6553WAT     H226919   2.875   4.961   0.566  0.4763  0.3308  0.2716
 6553WAT    EPW26920   2.808   5.001   0.572  0.2748 -0.2603 -0.6027
 6554WAT      O26921   5.056   3.830   1.940  0.0955  0.1711 -0.1991
 6554WAT     H126922   4.981   3.812   1.982  1.5261 -1.0130  2.0388
 6554WAT     H226923   5.067   3.761   1.888  0.0041 -0.0183  0.0300
 6554WAT    EPW26924   5.046   3.817   1.939 -0.3506  0.3767 -0.4834
 6555WAT      O26925   2.511   6.279   1.674 -0.0802  0.0757  0.0977
 6555WAT     H126926   2.502   6.234   1.748  1.1192 -0.8796 -0.2898
 6555WAT     H226927   2.548   6.354   1.699  1.6790 -0.8189  0.3654
 6555WAT    EPW26928   2.515   6.283   1.689 -0.1201 -0.1026 -0.7159
 6556WAT      O26929   3.034   5.523   0.798 -0.1695  0.0647 -0.5738
 6556WAT     H126930   2.995   5.597   0.773 -2.0630 -1.1398 -1.4062
 6556WAT     H226931   3.004   5.510   0.879  0.4210  0.3670 -0.3040
 6556WAT    EPW26932   3.024   5.532   0.806  0.6001  0.8121 -0.8154
 6557WAT      O26933   3.082   5.489   2.417  0.3697  0.3699 -0.2563
 6557WAT     H126934   3.084   5.572   2.393 -0.0455  0.5850  0.4151
 6557WAT     H226935   3.078   5.445   2.341  1.9828  0.8815 -0.6622
 6557WAT    EPW26936   3.081   5.495   2.402  0.3028  0.2825  0.8124
 6558WAT      O26937   4.342   6.356   1.543  0.1457 -0.0219 -1.0272
 6558WAT     H126938   4.313   6.435   1.565  1.4498 -0.0174  0.9251
 6558WAT     H226939   4.417   6.372   1.503  2.4835 -0.2310  2.8191
 6558WAT    EPW26940   4.349   6.370   1.540  1.2354 -0.4817  0.1975
 6559WAT      O26941   3.526   4.808   1.492  0.4061 -0.1206  0.1599
 6559WAT     H126942   3.573   4.738   1.470  0.6930  0.3346 -0.7391
 6559WAT     H226943   3.480   4.826   1.421 -0.1376  0.2306  0.5921
 6559WAT    EPW26944   3.526   4.801   1.478  0.8417  0.3052  0.0033
 6560WAT      O26945   2.450   6.750   1.977  0.3293 -0.7618  0.3850
 6560WAT     H126946   2.496   6.750   1.903  1.2855 -0.7415  0.9584
 6560WAT     H226947   2.490   6.690   2.026  0.1213 -0.3169  1.1196
 6560WAT    EPW26948   2.462   6.741   1.973 -0.5526  0.6620 -1.0597
 6561WAT      O26949   4.264   4.644   2.056  0.1487  0.4959 -0.1057
 6561WAT     H126950   4.256   4.659   1.970 -2.0658 -0.4357 -0.1550
 6561WAT     H226951   4.255   4.557   2.062  1.0906  0.4579  1.0163
 6561WAT    EPW26952   4.261   4.633   2.044 -0.0193  0.3090 -0.0042
 6562WAT      O26953   3.609   7.458   3.589 -0.2078 -0.6611  0.0963
 6562WAT     H126954   3.525   7.468   3.568  0.1965 -0.1972 -1.4198
 6562WAT     H226955   3.626   7.375   3.567  0.0685 -0.3401 -0.9933
 6562WAT    EPW26956   3.599   7.447   3.582  0.6654  0.7234 -0.9522
 6563WAT      O26957   4.922   6.371   1.189  0.0212 -0.0303  0.2364
 6563WAT     H126958   4.932   6.289   1.160  0.6590 -0.1764  0.8244
 6563WAT     H226959   5.002   6.405   1.178 -0.4858  0.8461 -0.9556
 6563WAT    EPW26960   4.935   6.364   1.183  0.9949 -0.2422  0.1144
 6564WAT      O26961   2.120   4.855   2.852  0.2126  0.0703  0.0729
 6564WAT     H126962   2.057   4.915   2.847  0.8549  0.7554 -0.0225
 6564WAT     H226963   2.126   4.825   2.770  1.9184  2.0532 -0.6245
 6564WAT    EPW26964   2.112   4.860   2.839 -0.5588  0.1863  0.5097
 6565WAT      O26965   3.419   5.128   1.696 -0.0249 -0.0247 -0.2414
 6565WAT     H126966   3.442   5.126   1.612 -0.1724  2.3002 -0.4126
 6565WAT     H226967   3.341   5.167   1.695 -0.1310 -0.1707  0.9681
 6565WAT    EPW26968   3.411   5.133   1.683  0.4673  0.6582 -0.3865
 6566WAT      O26969   2.577   5.244   2.732  0.4213 -0.0196 -0.0321
 6566WAT     H126970   2.531   5.234   2.659 -0.7753  2.8236  0.1932
 6566WAT     H226971   2.542   5.186   2.787 -1.9786  1.0078 -0.3414
 6566WAT    EPW26972   2.565   5.234   2.729 -0.2984  1.1611 -0.3092
 6567WAT      O26973   3.842   5.895   2.301  0.3534  0.2383 -0.0506
 6567WAT     H126974   3.874   5.815   2.309 -0.0768  0.1265  0.6422
 6567WAT     H226975   3.755   5.884   2.309  0.2748  0.7388 -0.1627
 6567WAT    EPW26976   3.834   5.882   2.303  0.1892 -0.0082 -0.2408
 6568WAT      O26977   4.335   5.389   1.220 -0.0437 -0.3879 -0.2972
 6568WAT     H126978   4.394   5.354   1.275  0.9470 -0.1304 -1.1624
 6568WAT     H226979   4.343   5.340   1.148  0.4611  0.8067 -1.0804
 6568WAT    EPW26980   4.345   5.377   1.218 -0.2414 -0.5545 -0.6378
 6569WAT      O26981   4.433   7.772   2.100 -0.0954  0.1723  0.1699
 6569WAT     H126982   4.518   7.773   2.078  0.0829  0.7758  0.8317
 6569WAT     H226983   4.392   7.758   2.024  0.5613  0.7424 -0.3086
 6569WAT    EPW26984   4.440   7.770   2.085 -0.2415 -0.3575 -0.1601
 6570WAT      O26985   4.198   5.282   2.448  0.2759  0.0587 -0.4954
 6570WAT     H126986   4.245   5.221   2.407  0.3090  0.5737 -1.2556
 6570WAT     H226987   4.222   5.356   2.408 -0.0871  0.5098  0.1135
 6570WAT    EPW26988   4.208   5.284   2.436 -0.6716 -0.3221 -0.2381
 6571WAT      O26989   4.724   5.058   0.683 -0.2742 -0.3862  0.0830
 6571WAT     H126990   4.704   5.042   0.599  0.2808 -0.6398 -0.0066
 6571WAT     H226991   4.679   4.998   0.726 -3.0056  1.6106  0.2398
 6571WAT    EPW26992   4.715   5.046   0.677  0.3294 -0.6701  0.1522
 6572WAT      O26993   2.774   5.381   4.000 -0.1666 -0.3564  0.4551
 6572WAT     H126994   2.814   5.432   4.058  1.7076  0.9636 -1.8160
 6572WAT     H226995   2.828   5.312   3.993  0.3255  0.1084 -0.5919
 6572WAT    EPW26996   2.788   5.378   4.008 -0.0128 -0.5959 -0.2011
 6573WAT      O26997   4.793   5.588   2.553  0.0911 -0.2797 -0.2412
 6573WAT     H126998   4.866   5.625   2.522 -0.4223 -0.8100 -2.1561
 6573WAT     H226999   4.764   5.647   2.611  0.6946  1.1063 -1.2982
 6573WAT    EPW27000   4.799   5.602   2.557 -0.0260 -0.2240 -0.5702
 6574WAT      O27001   4.406   6.613   3.614  0.8551 -0.2616  0.0916
 6574WAT     H127002   4.396   6.532   3.581 -1.5270  0.4932 -1.3476
 6574WAT     H227003   4.386   6.664   3.546 -0.3336  1.4765  1.6580
 6574WAT    EPW27004   4.402   6.608   3.599 -0.0758 -0.5326 -0.1861
 6575WAT      O27005   4.967   6.131   1.042  0.4226 -0.4173 -0.1794
 6575WAT     H127006   5.033   6.138   0.985 -1.2787 -0.2452 -2.2717
 6575WAT     H227007   4.901   6.100   0.993 -1.2377  0.0384  1.6357
 6575WAT    EPW27008   4.967   6.128   1.026  0.2343  0.8298 -0.3965
 6576WAT      O27009   5.555   4.520   2.234  0.0695 -0.7382  0.0605
 6576WAT     H127010   5.577   4.602   2.211  0.6335 -0.9438 -0.1656
 6576WAT     H227011   5.524   4.529   2.315 -0.5383 -0.2030 -0.2226
 6576WAT    EPW27012   5.554   4.533   2.243  0.6370  0.8372 -0.3355
 6577WAT      O27013   4.911   5.950   2.061 -0.2286  0.2060  0.1791
 6577WAT     H127014   4.869   6.005   2.008  0.5691 -0.0947 -0.7986
 6577WAT     H227015   4.922   5.996   2.134  1.2337  1.7399 -0.9237
 6577WAT    EPW27016   4.907   5.965   2.064 -0.1650 -0.6951 -0.7032
 6578WAT      O27017   3.044   6.028   2.807  0.0645  0.6180 -0.1708
 6578WAT     H127018   2.985   5.973   2.774  1.4643  0.6666 -3.0814
 6578WAT     H227019   3.011   6.107   2.791 -0.1822  0.6492  0.4683
 6578WAT    EPW27020   3.031   6.031   2.800 -0.0998 -0.4834 -0.6142
 6579WAT      O27021   4.671   5.443   0.397  0.3079 -0.1579 -0.4612
 6579WAT     H127022   4.596   5.480   0.372  0.3694  0.3714  0.1146
 6579WAT     H227023   4.726   5.511   0.406  0.6035 -0.4497 -0.0040
 6579WAT    EPW27024   4.668   5.459   0.395 -0.2382  0.0237  0.1981
 6580WAT      O27025   4.451   6.267   2.538 -0.0836  0.0553 -0.2520
 6580WAT     H127026   4.474   6.235   2.460 -0.5737  1.6245 -1.0862
 6580WAT     H227027   4.527   6.271   2.581  0.5284  0.8815 -1.3397
 6580WAT    EPW27028   4.466   6.263   2.533  0.0667 -0.2588 -0.0222
 6581WAT      O27029   4.574   6.208   0.331  0.2851 -0.1006  0.1451
 6581WAT     H127030   4.533   6.133   0.311  0.8555 -0.6167  0.8139
 6581WAT     H227031   4.635   6.182   0.388  1.8369  0.5676 -1.1352
 6581WAT    EPW27032   4.577   6.193   0.337  0.0501  0.0578 -0.2172
 6582WAT      O27033   2.389   6.293   0.682 -0.6512 -0.0904  0.1133
 6582WAT     H127034   2.408   6.211   0.660 -0.0602  0.3543 -1.1607
 6582WAT     H227035   2.461   6.320   0.724 -1.1450 -0.4481  1.2020
 6582WAT    EPW27036   2.403   6.285   0.685  0.3512  0.4247 -0.1990
 6583WAT      O27037   4.098   5.622   2.128  0.2315  0.3776  0.3683
 6583WAT     H127038   4.036   5.593   2.074  0.3161 -0.4562  0.7170
 6583WAT     H227039   4.111   5.704   2.101 -0.5982  0.3662 -0.0884
 6583WAT    EPW27040   4.091   5.630   2.116 -0.4767 -0.2307 -0.2569
 6584WAT      O27041   3.155   5.571   4.381 -0.1656  0.6674  0.0425
 6584WAT     H127042   3.100   5.637   4.394 -0.7720  0.1203  0.3560
 6584WAT     H227043   3.208   5.574   4.450  0.0876  1.0867 -0.1681
 6584WAT    EPW27044   3.155   5.581   4.393  0.1542 -0.2692 -0.6489
 6585WAT      O27045   3.620   5.266   1.870  0.0756 -0.0356 -0.5699
 6585WAT     H127046   3.556   5.237   1.818  0.3972 -2.1178  0.1316
 6585WAT     H227047   3.586   5.339   1.904 -1.0194  0.1424 -1.9421
 6585WAT    EPW27048   3.605   5.273   1.867  0.1144 -0.0998 -0.6118
 6586WAT      O27049   4.182   5.739   2.921  0.1900 -0.0019  0.6526
 6586WAT     H127050   4.196   5.704   2.842  0.3018  0.6712  0.3657
 6586WAT     H227051   4.103   5.776   2.914  1.0538  1.8991  0.1413
 6586WAT    EPW27052   4.173   5.739   2.908 -0.6340 -0.4095 -0.0226
 6587WAT      O27053   4.162   4.849   1.222 -0.5270 -0.0207 -0.1911
 6587WAT     H127054   4.234   4.876   1.263 -0.6452  1.5425 -0.9626
 6587WAT     H227055   4.130   4.921   1.185 -1.9706 -0.8579 -0.6848
 6587WAT    EPW27056   4.168   4.864   1.223 -1.0006 -0.1415 -0.6308
 6588WAT      O27057   4.917   6.334   1.468 -0.4666  0.3881  0.1847
 6588WAT     H127058   4.847   6.300   1.507  0.3529 -0.9874  0.5146
 6588WAT     H227059   4.887   6.360   1.390 -1.4004  0.1321  0.4443
 6588WAT    EPW27060   4.902   6.333   1.462 -0.6234  0.4376  0.2674
 6589WAT      O27061   5.975   6.671   1.109  0.1796 -0.3844 -0.0655
 6589WAT     H127062   6.003   6.609   1.163  0.7753  0.0526  0.1419
 6589WAT     H227063   5.907   6.635   1.068 -0.6942 -0.4977  1.4470
 6589WAT    EPW27064   5.969   6.657   1.111 -0.1423  0.1282  0.2282
 6590WAT      O27065   5.182   4.900   2.057 -0.2716 -0.1960 -0.0810
 6590WAT     H127066   5.134   4.968   2.032 -0.7128 -0.1932  0.7389
 6590WAT     H227067   5.256   4.937   2.086 -0.6364 -0.0271  0.6627
 6590WAT    EPW27068   5.186   4.915   2.057 -0.1848 -0.5311  0.0151
 6591WAT      O27069   3.109   5.545   2.963 -0.1779  0.0058  0.3560
 6591WAT     H127070   3.113   5.618   3.010  0.8145 -0.7039  1.4213
 6591WAT     H227071   3.153   5.565   2.890  2.1712 -0.1805  1.6223
 6591WAT    EPW27072   3.116   5.559   2.959  0.7979 -0.6925 -0.0698
 6592WAT      O27073   3.400   5.529   1.528 -0.7986 -0.3922 -0.8234
 6592WAT     H127074   3.360   5.598   1.494  1.8885  2.1821  0.7547
 6592WAT     H227075   3.454   5.504   1.465 -0.2684  0.3603 -0.6824
 6592WAT    EPW27076   3.402   5.536   1.513  0.3659  0.5978 -0.5210
 6593WAT      O27077   2.147   6.694   1.332 -0.3356 -0.4721  0.3125
 6593WAT     H127078   2.122   6.614   1.310 -2.3173  0.4024 -0.8915
 6593WAT     H227079   2.232   6.685   1.351 -0.4499 -2.7723 -0.0437
 6593WAT    EPW27080   2.156   6.681   1.332  0.4965 -0.8362  0.4523
 6594WAT      O27081   4.227   6.191   2.885 -0.1438  0.0716 -0.3324
 6594WAT     H127082   4.235   6.113   2.846  0.2734  0.2345 -0.5817
 6594WAT     H227083   4.179   6.237   2.829 -2.1039 -0.6058  0.7189
 6594WAT    EPW27084   4.221   6.186   2.871  0.5232  0.1259  0.2573
 6595WAT      O27085   4.711   7.678   1.494  0.0293 -0.0008 -0.0561
 6595WAT     H127086   4.682   7.757   1.469  1.0012  0.3706 -0.0515
 6595WAT     H227087   4.640   7.628   1.488 -0.9219  1.1145  1.0959
 6595WAT    EPW27088   4.696   7.682   1.489 -0.4093 -0.0402 -0.1979
 6596WAT      O27089   3.894   6.766   2.420  0.3571 -0.1092 -0.0072
 6596WAT     H127090   3.811   6.741   2.423  0.0261  0.9640  0.3244
 6596WAT     H227091   3.913   6.762   2.335 -0.7373  1.7234 -0.3999
 6596WAT    EPW27092   3.884   6.762   2.408  0.6896 -0.3963  0.1357
 6597WAT      O27093   4.143   6.993   1.668  0.6237  0.3695 -0.0273
 6597WAT     H127094   4.157   7.042   1.739  0.7397  2.1255 -1.1995
 6597WAT     H227095   4.218   6.950   1.657  0.5087 -0.1319  1.0440
 6597WAT    EPW27096   4.156   6.994   1.677 -0.1306  1.3335 -0.0385
 6598WAT      O27097   3.511   5.387   0.552 -0.3282 -0.2058 -0.0737
 6598WAT     H127098   3.439   5.385   0.503  0.2479 -0.0066 -0.9548
 6598WAT     H227099   3.518   5.471   0.574  0.2902 -0.0009 -1.0089
 6598WAT    EPW27100   3.501   5.399   0.548 -0.4663  0.0843  0.0201
 6599WAT      O27101   3.173   6.220   1.101 -0.2773 -0.5878  0.4449
 6599WAT     H127102   3.110   6.210   1.161  0.1936 -1.8593  0.7556
 6599WAT     H227103   3.209   6.297   1.123 -3.4510  1.6773 -1.4556
 6599WAT    EPW27104   3.169   6.230   1.113  0.6424 -0.0546 -0.6548
 6600WAT      O27105   4.015   5.949   2.629  0.0227  0.1470  0.1929
 6600WAT     H127106   4.053   5.871   2.616  0.1068  0.1641  0.3279
 6600WAT     H227107   4.081   6.000   2.654 -0.1338  0.1099  0.6862
 6600WAT    EPW27108   4.030   5.945   2.631  0.4793  0.3984 -0.2195
 6601WAT      O27109   4.012   4.390   1.700 -0.0830 -0.2431  0.8671
 6601WAT     H127110   4.016   4.306   1.676 -1.2142 -0.0773  0.0314
 6601WAT     H227111   4.018   4.433   1.624  2.9417  0.5757  1.4334
 6601WAT    EPW27112   4.014   4.384   1.685 -0.0308 -0.4725 -1.3425
 6602WAT      O27113   5.380   5.344   2.241  0.5269  0.0736 -0.2477
 6602WAT     H127114   5.392   5.408   2.298  1.4834  0.1835 -0.5649
 6602WAT     H227115   5.431   5.366   2.174  0.6056 -0.8399 -0.5007
 6602WAT    EPW27116   5.389   5.356   2.240 -0.4175 -0.3988 -0.1554
 6603WAT      O27117   4.564   4.716   2.158  0.1982 -1.0430  0.3512
 6603WAT     H127118   4.581   4.801   2.173  0.1989 -1.0407  0.3377
 6603WAT     H227119   4.499   4.719   2.100  0.4414 -1.0499  0.0765
 6603WAT    EPW27120   4.557   4.729   2.151 -0.1425  0.6854 -0.2420
 6604WAT      O27121   4.328   4.957   2.048  0.3654 -0.7512  0.0650
 6604WAT     H127122   4.369   4.920   1.981  0.0536  0.9609 -1.1291
 6604WAT     H227123   4.376   5.028   2.066 -0.0105 -0.7426  1.1128
 6604WAT    EPW27124   4.341   4.962   2.041 -0.3730  1.0909 -0.1117
 6605WAT      O27125   4.682   5.324   2.544 -0.0389  0.3016 -0.0461
 6605WAT     H127126   4.725   5.400   2.546 -0.8615  0.8098 -1.2132
 6605WAT     H227127   4.746   5.265   2.551  0.7442  1.0602 -0.5929
 6605WAT    EPW27128   4.698   5.326   2.546 -1.0418  0.3637 -0.7411
 6606WAT      O27129   2.722   5.308   2.303  0.1850 -0.0598 -0.3497
 6606WAT     H127130   2.740   5.227   2.278 -0.4673 -0.0006 -1.0679
 6606WAT     H227131   2.754   5.357   2.238 -1.7506  0.0865 -1.2639
 6606WAT    EPW27132   2.729   5.304   2.290  0.3738 -0.6064  0.2402
 6607WAT      O27133   4.288   5.514   2.310 -0.0436  0.4077 -0.1614
 6607WAT     H127134   4.328   5.582   2.347 -0.3116  0.4536  0.0475
 6607WAT     H227135   4.250   5.548   2.239  1.2177  0.1504 -1.0039
 6607WAT    EPW27136   4.288   5.529   2.305  0.3997  0.1624 -0.0626
 6608WAT      O27137   4.485   5.481   2.132  0.0137  0.1063  0.3904
 6608WAT     H127138   4.560   5.494   2.175 -0.3480  0.9928  0.7749
 6608WAT     H227139   4.428   5.464   2.195 -0.2274 -0.0189  0.1413
 6608WAT    EPW27140   4.488   5.480   2.147  0.1106 -0.5521  0.0623
 6609WAT      O27141   5.080   6.214   1.898 -0.5577 -0.1220  0.3095
 6609WAT     H127142   4.998   6.185   1.889  0.0933 -1.3996 -2.0838
 6609WAT     H227143   5.129   6.143   1.885  0.9846  0.8526  0.5689
 6609WAT    EPW27144   5.075   6.199   1.895  0.1440  0.3068  1.3316
 6610WAT      O27145   4.044   7.004   2.791 -0.4708  0.2017  0.2337
 6610WAT     H127146   4.065   7.039   2.714 -1.5187 -1.4295 -0.8454
 6610WAT     H227147   4.048   6.918   2.777 -1.4784 -0.1414  1.7791
 6610WAT    EPW27148   4.048   6.997   2.778  0.8393 -0.2076 -0.6878
 6611WAT      O27149   4.156   5.994   0.919  0.2372  0.3686  0.3055
 6611WAT     H127150   4.124   6.045   0.983 -0.3315  1.8238 -1.0525
 6611WAT     H227151   4.106   5.923   0.922 -2.1472  1.8602 -0.6405
 6611WAT    EPW27152   4.144   5.991   0.929  0.9896 -0.3844  0.1541
 6612WAT      O27153   3.239   6.086   2.566 -0.2682 -0.5659 -0.1117
 6612WAT     H127154   3.237   5.999   2.561  0.1933 -0.6798  1.1910
 6612WAT     H227155   3.307   6.108   2.517 -0.7242 -0.8883 -0.9004
 6612WAT    EPW27156   3.248   6.076   2.558  0.4911 -0.6153  0.3386
 6613WAT      O27157   2.500   5.984   1.348 -0.1610  0.0571 -0.3549
 6613WAT     H127158   2.453   5.992   1.421  0.6306  2.6672 -0.0274
 6613WAT     H227159   2.443   6.002   1.285 -0.2246  0.5050 -0.1703
 6613WAT    EPW27160   2.485   5.987   1.350 -0.6742 -0.1973  0.3697
 6614WAT      O27161   4.767   4.523   2.141 -0.2518 -0.6248  0.0319
 6614WAT     H127162   4.845   4.560   2.150 -0.1853 -0.0071 -2.3278
 6614WAT     H227163   4.711   4.589   2.153 -0.6589 -1.4144  3.6623
 6614WAT    EPW27164   4.770   4.538   2.144 -0.4149 -0.4790  0.5322
 6615WAT      O27165   2.644   5.761   2.516 -0.6719 -0.4530 -0.3750
 6615WAT     H127166   2.701   5.769   2.582 -0.4931  0.0531 -0.5835
 6615WAT     H227167   2.616   5.679   2.523 -1.2400 -0.1763  0.8107
 6615WAT    EPW27168   2.648   5.750   2.527 -0.7468  0.3248  0.1879
 6616WAT      O27169   3.940   5.900   2.894 -0.8305  0.6249 -0.1431
 6616WAT     H127170   3.969   5.937   2.967 -0.6791 -0.5525  0.4036
 6616WAT     H227171   3.955   5.961   2.833  0.9876  0.8135  0.4438
 6616WAT    EPW27172   3.947   5.915   2.896  0.7671  0.1358 -0.4268
 6617WAT      O27173   3.895   5.513   1.980 -0.2914 -0.2835 -0.3572
 6617WAT     H127174   3.834   5.575   1.987 -1.4759 -1.3028 -1.2239
 6617WAT     H227175   3.867   5.450   2.034  2.2305  0.8447  2.5646
 6617WAT    EPW27176   3.882   5.513   1.989  0.3123 -0.4282  0.4124
 6618WAT      O27177   3.889   5.380   2.488  0.3561 -0.0752  0.2490
 6618WAT     H127178   3.934   5.306   2.497  0.9286  0.3085  0.5598
 6618WAT     H227179   3.810   5.360   2.520  0.2257 -0.8046 -0.4836
 6618WAT    EPW27180   3.884   5.366   2.494  0.2597 -0.0303  0.5008
 6619WAT      O27181   4.570   5.191   2.332  0.4575 -0.0938  0.2611
 6619WAT     H127182   4.612   5.247   2.384 -0.0588  0.9594 -0.4252
 6619WAT     H227183   4.509   5.157   2.384 -0.0880  0.9791  0.3413
 6619WAT    EPW27184   4.567   5.195   2.347  0.5851 -0.3734  0.2337
 6620WAT      O27185   3.554   7.404   1.538 -0.1025 -0.4481 -0.2460
 6620WAT     H127186   3.615   7.392   1.476 -0.1457 -2.2155  0.0102
 6620WAT     H227187   3.479   7.404   1.494 -0.0019  1.3972 -0.5198
 6620WAT    EPW27188   3.552   7.402   1.523 -0.7526 -0.1428  0.3057
 6621WAT      O27189   3.381   5.919   2.830 -0.1100  0.1484 -0.2462
 6621WAT     H127190   3.302   5.932   2.796  0.2117  1.8591 -0.4231
 6621WAT     H227191   3.379   5.963   2.906  0.3268 -0.6897  0.2713
 6621WAT    EPW27192   3.369   5.927   2.837  0.2192  0.1827  0.0429
 6622WAT      O27193   3.499   6.369   2.646 -0.3253 -0.4732 -0.3734
 6622WAT     H127194   3.534   6.299   2.684  1.0898  0.2025 -0.3568
 6622WAT     H227195   3.513   6.356   2.561 -1.8250 -1.1077 -0.5496
 6622WAT    EPW27196   3.507   6.357   2.639 -0.2153  0.5810 -0.3027
 6623WAT      O27197   4.922   4.896   1.057  0.0409 -0.2850  0.3858
 6623WAT     H127198   4.949   4.897   1.140 -1.4073 -0.0828  0.8860
 6623WAT     H227199   4.889   4.816   1.047 -0.8367  0.0709  0.3757
 6623WAT    EPW27200   4.921   4.884   1.068  0.1083  0.7357 -0.0952
 6624WAT      O27201   3.741   6.013   2.588 -0.1588 -0.1126  0.1075
 6624WAT     H127202   3.708   5.977   2.515 -3.0938 -1.6827  2.0054
 6624WAT     H227203   3.823   5.981   2.591 -0.3690 -1.0148 -1.8303
 6624WAT    EPW27204   3.748   6.003   2.578 -0.0723  0.0889  0.2341
 6625WAT      O27205   3.547   5.572   2.492 -0.1367  0.1228 -0.5262
 6625WAT     H127206   3.590   5.569   2.416  0.4693  0.9317 -0.2290
 6625WAT     H227207   3.483   5.513   2.482  0.4522 -0.3905 -1.3375
 6625WAT    EPW27208   3.544   5.563   2.479  0.2629  0.3899 -0.8139
 6626WAT      O27209   4.850   6.135   2.284 -0.6945 -0.4857 -0.0090
 6626WAT     H127210   4.839   6.095   2.361  1.5972 -0.5437  0.3760
 6626WAT     H227211   4.888   6.211   2.307  2.5173 -1.5741 -1.0824
 6626WAT    EPW27212   4.854   6.141   2.299 -0.0561  0.2332 -0.2305
 6627WAT      O27213   4.078   5.680   2.641  0.2269  0.3849  0.6641
 6627WAT     H127214   4.049   5.677   2.559  1.7465  2.2940 -0.0192
 6627WAT     H227215   4.006   5.696   2.688 -0.2750  2.3641 -0.6617
 6627WAT    EPW27216   4.063   5.682   2.636  0.1340  0.0288  0.6309
 6628WAT      O27217   3.065   7.032   2.969 -0.6576 -0.5078 -0.0620
 6628WAT     H127218   2.981   7.008   2.973 -0.3753 -1.4014  1.0621
 6628WAT     H227219   3.104   6.961   2.936  0.0484 -1.2717  2.2688
 6628WAT    EPW27220   3.058   7.018   2.964  0.9840  0.4170 -0.1181
 6629WAT      O27221   4.838   5.457   0.905 -0.1664  0.4284  0.8812
 6629WAT     H127222   4.796   5.432   0.833  1.6852  0.2400 -0.1978
 6629WAT     H227223   4.823   5.543   0.909 -0.8824  0.3173  0.7117
 6629WAT    EPW27224   4.830   5.466   0.895 -0.2381 -1.5371  0.6882
 6630WAT      O27225   4.205   5.017   2.333  0.6196 -0.2213  0.1855
 6630WAT     H127226   4.255   4.988   2.267  2.3103  2.2241  0.2892
 6630WAT     H227227   4.209   4.951   2.391  1.9997 -0.9730 -0.6909
 6630WAT    EPW27228   4.213   5.003   2.332  0.5612  0.3693 -0.2849
 6631WAT      O27229   4.291   6.523   2.863 -0.3905  0.3902  0.1485
 6631WAT     H127230   4.222   6.475   2.886 -1.2462  2.3121  1.8947
 6631WAT     H227231   4.356   6.465   2.861 -1.8326 -1.3012 -0.6100
 6631WAT    EPW27232   4.290   6.507   2.866 -1.1001 -0.4729 -0.2974
 6632WAT      O27233   5.573   6.332   1.555  0.3174  0.0503 -0.4984
 6632WAT     H127234   5.508   6.276   1.537 -1.0258 -0.4970  4.5491
 6632WAT     H227235   5.644   6.287   1.533 -0.8701 -1.1632 -2.1218
 6632WAT    EPW27236   5.574   6.317   1.549  0.7473  0.2075  0.6032
 6633WAT      O27237   4.643   6.976   2.313 -0.3781 -0.2729  0.0835
 6633WAT     H127238   4.671   6.961   2.394  3.1058  0.3504 -0.8411
 6633WAT     H227239   4.671   6.907   2.268 -0.4018  0.3598 -0.9440
 6633WAT    EPW27240   4.651   6.964   2.319  0.1921 -0.0740  0.3464
 6634WAT      O27241   3.367   5.365   2.587 -0.1690  0.3357  0.4284
 6634WAT     H127242   3.285   5.353   2.559 -1.3847  4.1730  1.7157
 6634WAT     H227243   3.377   5.301   2.647 -2.3019 -0.0952  0.4082
 6634WAT    EPW27244   3.356   5.354   2.592  0.2563 -0.1324 -0.3692
 6635WAT      O27245   4.252   5.632   1.664  0.5463  0.1460  0.1727
 6635WAT     H127246   4.213   5.555   1.667 -0.0286  0.4174 -0.1689
 6635WAT     H227247   4.201   5.679   1.611  0.7630  0.8249  0.5479
 6635WAT    EPW27248   4.239   5.628   1.657  0.0054  0.4464  0.9218
 6636WAT      O27249   2.735   6.114   1.315 -0.2421  0.6960 -0.5561
 6636WAT     H127250   2.745   6.159   1.388 -1.8714  1.0101 -0.4963
 6636WAT     H227251   2.657   6.076   1.325  0.0706 -0.2797 -1.5936
 6636WAT    EPW27252   2.725   6.115   1.327  0.5003 -0.3045  0.3899
 6637WAT      O27253   5.362   4.602   1.509 -0.2144  0.0051  0.5243
 6637WAT     H127254   5.385   4.595   1.593 -0.8309  0.7287  0.7613
 6637WAT     H227255   5.277   4.582   1.510 -0.2978  0.3316  0.1216
 6637WAT    EPW27256   5.353   4.598   1.522 -0.2452  0.1206  0.2936
 6638WAT      O27257   3.857   6.756   0.911  0.3406 -0.0604  0.1000
 6638WAT     H127258   3.884   6.683   0.949  1.1443  0.2254  0.0934
 6638WAT     H227259   3.909   6.818   0.946  0.5995  0.3068 -0.9113
 6638WAT    EPW27260   3.869   6.754   0.922  1.0837 -0.3188 -1.0730
 6639WAT      O27261   4.621   6.476   1.467 -0.6428 -0.0722  0.2760
 6639WAT     H127262   4.616   6.485   1.381 -1.4045 -1.6571  0.1025
 6639WAT     H227263   4.646   6.554   1.495 -1.3627  0.7685 -1.2950
 6639WAT    EPW27264   4.624   6.489   1.458  0.0090 -0.9459  0.9170
 6640WAT      O27265   4.971   6.371   2.369  0.6395  0.5121  0.4891
 6640WAT     H127266   5.045   6.331   2.346 -0.8593 -1.7577 -0.8073
 6640WAT     H227267   4.977   6.378   2.456  2.1299 -0.1134  0.4565
 6640WAT    EPW27268   4.983   6.366   2.379 -0.3176 -0.1865 -0.7006
 6641WAT      O27269   5.015   5.680   2.418 -0.0871  0.3702  0.2376
 6641WAT     H127270   5.048   5.600   2.427 -0.7084  0.0240 -0.4366
 6641WAT     H227271   5.079   5.725   2.379  0.1083  0.0972  0.2415
 6641WAT    EPW27272   5.029   5.675   2.414  0.0700 -0.5246 -0.8272
 6642WAT      O27273   1.305   7.551   1.156 -0.6041 -0.2748  0.1871
 6642WAT     H127274   1.325   7.483   1.106  0.6609 -1.1427  1.7800
 6642WAT     H227275   1.370   7.554   1.214  0.1832  3.1755 -0.6524
 6642WAT    EPW27276   1.317   7.542   1.157 -0.0463 -0.6368 -0.1441
 6643WAT      O27277   4.431   5.616   3.573 -0.0537  0.2334 -0.2107
 6643WAT     H127278   4.407   5.700   3.575 -1.1824 -0.0821  1.7006
 6643WAT     H227279   4.358   5.573   3.593  0.5236 -1.2313 -1.0664
 6643WAT    EPW27280   4.416   5.622   3.576 -0.4941 -0.4390  0.1252
 6644WAT      O27281   4.795   6.165   1.891 -0.5013 -0.7818 -0.0092
 6644WAT     H127282   4.717   6.126   1.884 -0.7794 -0.2828  0.2177
 6644WAT     H227283   4.775   6.250   1.889 -0.0354 -0.6427  0.7555
 6644WAT    EPW27284   4.781   6.172   1.890 -0.6916 -0.8592 -0.2730
 6645WAT      O27285   4.129   6.521   2.442  0.2449 -0.5835  0.2353
 6645WAT     H127286   4.045   6.523   2.466  0.3983  1.3693  0.7204
 6645WAT     H227287   4.164   6.590   2.482  1.5880 -0.0083 -1.8033
 6645WAT    EPW27288   4.122   6.531   2.452 -0.4914 -1.2707  0.0284
 6646WAT      O27289   4.509   7.254   4.451 -0.2708  0.6005 -0.1301
 6646WAT     H127290   4.586   7.215   4.463  0.2121  1.8076  0.9146
 6646WAT     H227291   4.466   7.199   4.399  1.8328  0.6005 -2.0130
 6646WAT    EPW27292   4.514   7.240   4.445  0.8599  0.5950 -0.3947
 6647WAT      O27293   2.957   5.037   2.055  0.5744 -0.5925  0.3448
 6647WAT     H127294   2.990   5.071   2.128  1.1874 -1.9380  0.7268
 6647WAT     H227295   2.972   5.099   1.995  2.3401 -0.4882  0.8388
 6647WAT    EPW27296   2.964   5.051   2.057 -0.4547  0.2492 -1.4781
 6648WAT      O27297   2.873   5.363   3.257  0.5284 -0.4203 -0.0098
 6648WAT     H127298   2.923   5.308   3.211  0.0716 -2.1684  1.4860
 6648WAT     H227299   2.864   5.431   3.203  1.2574 -1.7170 -1.8874
 6648WAT    EPW27300   2.879   5.365   3.242  0.5717 -0.3288 -0.5219
 6649WAT      O27301   5.233   6.074   3.171  0.3217 -0.0216  0.0275
 6649WAT     H127302   5.295   6.087   3.111  0.1205  0.1888 -0.1367
 6649WAT     H227303   5.192   6.002   3.143  1.5570 -1.1818  1.0394
 6649WAT    EPW27304   5.236   6.065   3.158 -0.1544 -0.6588 -0.3489
 6650WAT      O27305   3.724   5.534   3.002 -0.5561  0.6911  0.1661
 6650WAT     H127306   3.685   5.456   3.003 -0.7368  0.7366 -1.3491
 6650WAT     H227307   3.661   5.590   3.026 -0.0869  0.3003  2.6357
 6650WAT    EPW27308   3.709   5.531   3.006 -0.5440 -0.6240 -0.4852
 6651WAT      O27309   3.981   7.608   1.078  0.5743  0.7401  0.6882
 6651WAT     H127310   3.995   7.660   1.146  2.7388  1.4530 -0.2263
 6651WAT     H227311   4.048   7.552   1.080  0.8134  0.9179 -0.9454
 6651WAT    EPW27312   3.993   7.607   1.088  0.2624 -1.1066  0.3199
 6652WAT      O27313   5.146   6.333   2.157 -0.2164 -0.3584 -0.5293
 6652WAT     H127314   5.118   6.319   2.076 -1.4542  2.5561 -0.7471
 6652WAT     H227315   5.176   6.415   2.154  2.2785 -1.0903  1.3588
 6652WAT    EPW27316   5.146   6.343   2.145 -0.1666 -0.5146 -0.0808
 6653WAT      O27317   2.413   6.644   1.400  0.5284  0.2856  0.1822
 6653WAT     H127318   2.453   6.674   1.472  1.2873  0.5183 -0.3322
 6653WAT     H227319   2.442   6.562   1.393  0.2689  0.1841  0.2661
 6653WAT    EPW27320   2.423   6.636   1.410  0.4165  0.0457 -0.2863
 6654WAT      O27321   4.454   4.532   1.263 -0.6382  0.1579  0.6997
 6654WAT     H127322   4.472   4.617   1.272  0.0812 -0.0220  1.0291
 6654WAT     H227323   4.377   4.532   1.221 -1.2164  0.9792  1.7011
 6654WAT    EPW27324   4.445   4.545   1.258 -0.8867  0.6964 -0.3311
 6655WAT      O27325   4.605   5.186   3.092 -0.1954  0.2046  0.2056
 6655WAT     H127326   4.597   5.195   3.005  0.6237 -0.3949  0.0614
 6655WAT     H227327   4.593   5.100   3.105  0.5237  0.1521  0.5810
 6655WAT    EPW27328   4.602   5.175   3.081 -1.0326  0.4287  0.2184
 6656WAT      O27329   4.566   7.302   1.721  0.1428  0.2663  0.4590
 6656WAT     H127330   4.479   7.296   1.721  0.1500 -0.3155  2.5648
 6656WAT     H227331   4.584   7.343   1.795  1.6836  0.6715 -0.1008
 6656WAT    EPW27332   4.556   7.307   1.732  0.4718  0.1095  0.1493
 6657WAT      O27333   3.980   5.787   0.857 -0.2705  0.2065 -0.0772
 6657WAT     H127334   3.897   5.800   0.882 -0.7730 -0.6794 -1.2036
 6657WAT     H227335   3.995   5.704   0.877 -0.5829 -0.4449 -2.2526
 6657WAT    EPW27336   3.970   5.777   0.863  0.8640  0.0437  0.4591
 6658WAT      O27337   4.988   6.729   2.539 -0.6635 -0.4429  0.0277
 6658WAT     H127338   4.909   6.695   2.544 -1.0833  0.6730  2.9418
 6658WAT     H227339   4.980   6.791   2.478 -0.8469 -2.8283 -2.5847
 6658WAT    EPW27340   4.975   6.733   2.531  0.1611 -0.2967  0.7370
 6659WAT      O27341   3.938   5.162   1.492 -0.2896 -0.1427  0.4889
 6659WAT     H127342   3.883   5.140   1.428 -0.9688  0.2718  0.9159
 6659WAT     H227343   3.885   5.184   1.558  0.3848  0.4329  0.8540
 6659WAT    EPW27344   3.922   5.162   1.493 -0.5860  0.7266 -0.0105
 6660WAT      O27345   5.169   4.805   1.779 -0.6414  0.5024  0.2340
 6660WAT     H127346   5.108   4.855   1.742 -0.2890  1.2252  0.6026
 6660WAT     H227347   5.172   4.833   1.861 -1.2696 -0.9508  0.7747
 6660WAT    EPW27348   5.161   4.817   1.785  0.4900 -0.4277 -0.2143
 6661WAT      O27349   4.165   7.648   2.228 -0.1984 -0.6280  0.0387
 6661WAT     H127350   4.227   7.707   2.212 -0.2310 -0.5760  0.1065
 6661WAT     H227351   4.204   7.572   2.208 -1.0147 -0.4127 -2.7401
 6661WAT    EPW27352   4.180   7.645   2.223  0.4710  0.7990 -0.5339
 6662WAT      O27353   3.357   6.740   2.426  0.0141 -0.7005 -0.3820
 6662WAT     H127354   3.305   6.789   2.376 -0.9392  0.0101  1.2086
 6662WAT     H227355   3.373   6.669   2.377  0.5986  0.7150 -2.3366
 6662WAT    EPW27356   3.352   6.737   2.412  1.3576 -0.3331 -0.5275
 6663WAT      O27357   4.429   4.904   0.499 -0.1973 -0.2322  0.1458
 6663WAT     H127358   4.480   4.886   0.430  0.0510 -3.4665  1.0010
 6663WAT     H227359   4.435   4.991   0.506  2.9687 -0.1467 -1.5052
 6663WAT    EPW27360   4.438   4.914   0.490  0.2419 -0.3773  1.2520
 6664WAT      O27361   3.603   6.064   3.599 -0.2688  0.0852 -0.4274
 6664WAT     H127362   3.637   6.026   3.670 -0.7009  2.6271  1.2773
 6664WAT     H227363   3.653   6.034   3.534  0.4728 -1.9672  0.9687
 6664WAT    EPW27364   3.615   6.054   3.600 -0.0251 -1.0710 -1.1236
 6665WAT      O27365   4.513   4.583   2.395  0.0376  0.0362  0.0121
 6665WAT     H127366   4.467   4.509   2.383 -0.4348  0.3226  0.0286
 6665WAT     H227367   4.515   4.619   2.316  1.3413 -0.5975 -0.2675
 6665WAT    EPW27368   4.507   4.577   2.382  0.4688 -0.6201  0.1019
 6666WAT      O27369   4.669   4.958   2.213  0.3062  0.2148  0.1997
 6666WAT     H127370   4.717   4.978   2.143  0.2546 -0.0034  0.1019
 6666WAT     H227371   4.641   5.036   2.242  2.0452  0.5093  1.2268
 6666WAT    EPW27372   4.672   4.973   2.207  0.1437 -0.3517 -0.1415
 6667WAT      O27373   4.767   6.746   2.244  0.1129 -0.6357  0.5695
 6667WAT     H127374   4.746   6.670   2.282  1.3421 -1.1502  0.2650
 6667WAT     H227375   4.843   6.729   2.205  0.5716  0.8371  0.7521
 6667WAT    EPW27376   4.775   6.732   2.244  0.0418  0.5627 -0.2053
 6668WAT      O27377   2.923   7.877   1.793 -0.1192  0.0632  0.4546
 6668WAT     H127378   2.977   7.812   1.772 -1.3464 -0.4053 -1.5087
 6668WAT     H227379   2.963   7.916   1.860  0.9301 -2.3413  1.3523
 6668WAT    EPW27380   2.937   7.873   1.800 -0.2033 -0.3690  0.1546
 6669WAT      O27381   4.205   6.186   3.184 -0.6442 -0.0109  0.0059
 6669WAT     H127382   4.210   6.197   3.098  0.1608  1.0437  0.1612
 6669WAT     H227383   4.271   6.234   3.215 -1.2215  0.0408  1.2409
 6669WAT    EPW27384   4.216   6.195   3.176 -0.3736  0.0041 -0.8286
 6670WAT      O27385   5.436   4.881   1.732 -0.1161 -0.3319  0.0880
 6670WAT     H127386   5.438   4.880   1.645  0.4034 -0.2926  0.0978
 6670WAT     H227387   5.361   4.839   1.751 -0.2086 -0.3802 -0.3718
 6670WAT    EPW27388   5.425   4.874   1.722 -0.0144  0.4505  0.6818
 6671WAT      O27389   3.795   6.611   1.382 -0.1611 -0.0825 -0.3390
 6671WAT     H127390   3.776   6.658   1.453 -0.3065 -0.5480 -0.0621
 6671WAT     H227391   3.873   6.641   1.357 -0.8203  1.1941 -0.9283
 6671WAT    EPW27392   3.803   6.622   1.389  0.7004 -0.5467 -0.0964
 6672WAT      O27393   3.636   7.160   2.756  0.3939  0.2961 -0.4483
 6672WAT     H127394   3.681   7.102   2.803 -0.1896  0.6163  0.5399
 6672WAT     H227395   3.562   7.119   2.737  0.7403  0.0693 -1.3497
 6672WAT    EPW27396   3.632   7.146   2.760  0.8384  0.0791 -0.6857
 6673WAT      O27397   3.920   6.211   1.833 -0.3369 -0.6630  0.1585
 6673WAT     H127398   3.984   6.152   1.825  1.6444  1.1238  1.6263
 6673WAT     H227399   3.962   6.283   1.860 -2.5433  1.6094 -1.9634
 6673WAT    EPW27400   3.936   6.213   1.836 -0.4231  0.3826 -0.5923
 6674WAT      O27401   3.664   5.278   2.629  0.7905 -0.7057 -0.2026
 6674WAT     H127402   3.601   5.332   2.654  1.2868  0.0197 -0.4509
 6674WAT     H227403   3.667   5.217   2.691  1.8185  0.8859  1.4055
 6674WAT    EPW27404   3.655   5.277   2.642  0.1939  0.2572 -0.3430
 6675WAT      O27405   3.669   6.034   2.091 -0.6338 -0.2681 -0.1026
 6675WAT     H127406   3.651   6.072   2.014 -0.5724  0.4084  0.2125
 6675WAT     H227407   3.603   6.060   2.142 -0.3272 -0.1866  0.2517
 6675WAT    EPW27408   3.657   6.043   2.087 -0.4410 -0.4529 -0.6262
 6676WAT      O27409   2.988   7.781   2.935 -0.1610  0.4353 -0.2605
 6676WAT     H127410   2.987   7.695   2.951 -0.2916  0.5404  0.3062
 6676WAT     H227411   3.060   7.792   2.887  0.8659  0.2730  1.1838
 6676WAT    EPW27412   2.999   7.770   2.930 -0.2613 -0.0205 -0.2059
 6677WAT      O27413   4.320   6.343   1.944 -0.0410 -0.2896 -0.1591
 6677WAT     H127414   4.236   6.365   1.943 -0.0069 -0.1642 -0.3555
 6677WAT     H227415   4.328   6.296   2.017 -0.3316 -0.5020 -0.2580
 6677WAT    EPW27416   4.309   6.339   1.954  0.6330 -0.1961 -0.5344
 6678WAT      O27417   2.114   6.976   0.391 -0.1144  0.0421 -0.4344
 6678WAT     H127418   2.105   6.935   0.315 -0.3076  1.3800 -1.1809
 6678WAT     H227419   2.075   6.924   0.448 -0.3604 -0.7778 -1.3358
 6678WAT    EPW27420   2.107   6.962   0.388 -0.3959 -0.4065  0.7057
 6679WAT      O27421   3.118   6.460   2.297  0.0356  0.0721  0.5633
 6679WAT     H127422   3.173   6.498   2.241  2.1929 -2.3399  0.8599
 6679WAT     H227423   3.149   6.483   2.375 -0.5165  0.1538  0.7663
 6679WAT    EPW27424   3.131   6.469   2.300  0.0259 -0.3469 -0.1684
 6680WAT      O27425   4.916   5.906   1.232 -0.1788  0.0490 -0.2995
 6680WAT     H127426   4.960   5.969   1.192  0.9765  0.2294  1.1815
 6680WAT     H227427   4.955   5.899   1.310 -1.9769 -0.6547  0.6070
 6680WAT    EPW27428   4.928   5.914   1.238  0.5515  0.3799 -0.0815
 6681WAT      O27429   1.416   6.385   0.997  0.6253  0.6230  0.3441
 6681WAT     H127430   1.379   6.375   1.076 -0.5893 -0.2361 -0.2964
 6681WAT     H227431   1.377   6.457   0.966 -0.9341 -0.5292 -0.5096
 6681WAT    EPW27432   1.405   6.394   1.004 -0.1103 -0.0950 -0.4947
 6682WAT      O27433   4.505   5.872   1.173  0.0921 -0.2018 -0.4979
 6682WAT     H127434   4.487   5.915   1.099  0.0380 -1.0100 -0.9579
 6682WAT     H227435   4.568   5.920   1.210 -2.1789  2.1977  0.6671
 6682WAT    EPW27436   4.511   5.886   1.168 -0.0044  0.0357 -0.7420
 6683WAT      O27437   5.127   6.527   1.495  0.1658 -0.1904 -0.4309
 6683WAT     H127438   5.058   6.475   1.508  0.2149 -0.5780 -1.5493
 6683WAT     H227439   5.189   6.472   1.468  0.6426  0.2725 -0.2893
 6683WAT    EPW27440   5.126   6.511   1.493  0.0118 -0.2604 -0.5892
 6684WAT      O27441   4.611   7.273   2.390  0.0384 -0.1655  0.2420
 6684WAT     H127442   4.651   7.196   2.389  2.6117  0.9416  2.9059
 6684WAT     H227443   4.558   7.267   2.459  1.3942  0.8461  1.4382
 6684WAT    EPW27444   4.609   7.260   2.400  0.1944 -0.2938 -0.2029
 6685WAT      O27445   4.597   5.853   0.124 -0.1302  0.1679  0.0993
 6685WAT     H127446   4.556   5.778   0.107 -0.9437  0.8840 -1.2836
 6685WAT     H227447   4.649   5.864   0.055  0.5404  0.5132  0.6470
 6685WAT    EPW27448   4.599   5.844   0.111  0.6301  0.0114 -0.0818
 6686WAT      O27449   4.594   5.934   3.960  0.3806  0.2725 -0.8246
 6686WAT     H127450   4.546   5.985   3.909 -0.8362  0.0875  0.1025
 6686WAT     H227451   4.657   5.987   3.990  1.2809  0.3251 -2.6709
 6686WAT    EPW27452   4.597   5.949   3.957 -0.2810 -0.3948 -0.1261
 6687WAT      O27453   5.792   6.003   2.017  0.2874 -0.1061  0.0616
 6687WAT     H127454   5.732   5.958   2.062 -1.7241  2.2373 -0.0073
 6687WAT     H227455   5.845   6.035   2.079 -0.6967  0.6655  0.5420
 6687WAT    EPW27456   5.791   6.001   2.033  0.5695 -0.2779  0.7245
 6688WAT      O27457   4.796   4.974   3.169  0.3220  0.3324  0.4484
 6688WAT     H127458   4.877   4.999   3.149  1.6481 -2.1728  1.9982
 6688WAT     H227459   4.799   4.967   3.256 -1.0509 -1.2348  0.4147
 6688WAT    EPW27460   4.809   4.976   3.179 -0.3832  0.5491 -0.5632
 6689WAT      O27461   6.218   5.546   2.929  0.5529 -0.3851 -0.1280
 6689WAT     H127462   6.266   5.475   2.947  2.2694  1.1235  1.6723
 6689WAT     H227463   6.156   5.545   2.991  0.6075 -0.3054 -0.0717
 6689WAT    EPW27464   6.216   5.535   2.941  0.5785  0.5287  0.2930
 6690WAT      O27465   3.792   6.905   3.387 -0.3554 -0.6009 -0.3991
 6690WAT     H127466   3.782   6.884   3.303 -1.1855  0.3105 -0.5354
 6690WAT     H227467   3.727   6.864   3.427 -0.4750 -0.3325 -0.3172
 6690WAT    EPW27468   3.781   6.896   3.380 -0.5192 -1.1051 -0.1392
 6691WAT      O27469   4.219   5.804   1.273  0.4978 -0.1367 -0.6477
 6691WAT     H127470   4.231   5.723   1.301 -0.0336 -0.0475 -0.1325
 6691WAT     H227471   4.298   5.829   1.246  1.2898  0.0903  1.6587
 6691WAT    EPW27472   4.232   5.796   1.273 -0.0140 -0.9915  0.3771
 6692WAT      O27473   4.190   6.682   1.992  0.2088 -0.2829 -0.4332
 6692WAT     H127474   4.217   6.739   1.932 -0.3322 -0.2584 -0.6605
 6692WAT     H227475   4.149   6.733   2.051 -1.8049 -0.5858 -1.5040
 6692WAT    EPW27476   4.188   6.698   1.992 -0.1344  0.5266  0.6230
 6693WAT      O27477   4.039   5.356   0.646 -0.0803  0.1665  0.3176
 6693WAT     H127478   4.063   5.272   0.645 -0.2806  0.1007  0.7716
 6693WAT     H227479   4.015   5.370   0.729 -2.0413  0.1054 -0.1816
 6693WAT    EPW27480   4.039   5.346   0.658  0.3541  0.5705 -0.0427
 6694WAT      O27481   1.912   5.840   1.208 -0.3156 -0.1395 -0.4938
 6694WAT     H127482   1.942   5.812   1.131 -0.0599  0.8442 -0.7565
 6694WAT     H227483   1.826   5.832   1.201 -0.2966  0.0619 -0.9169
 6694WAT    EPW27484   1.904   5.835   1.196  0.2064 -0.3445 -0.0556
 6695WAT      O27485   4.085   6.434   1.220  0.0731  0.4465 -0.4638
 6695WAT     H127486   4.165   6.449   1.189  0.3150  0.0207 -0.0606
 6695WAT     H227487   4.059   6.512   1.250  0.6985  0.4059  0.2193
 6695WAT    EPW27488   4.093   6.447   1.220 -0.3720 -0.2773 -0.3365
 6696WAT      O27489   3.992   5.308   0.938  0.2140 -0.0409 -0.1725
 6696WAT     H127490   3.907   5.303   0.958  0.0885  0.2010 -0.6357
 6696WAT     H227491   4.017   5.383   0.976  0.0751  0.2039 -0.5629
 6696WAT    EPW27492   3.983   5.318   0.947  0.0919  0.7315  0.2917
 6697WAT      O27493   2.872   5.369   0.128 -0.6187 -0.2533  0.0965
 6697WAT     H127494   2.800   5.324   0.150  0.4848 -2.4224 -0.4395
 6697WAT     H227495   2.929   5.307   0.107  1.6860  1.3578  1.2045
 6697WAT    EPW27496   2.870   5.353   0.128 -0.2009  0.1071 -0.8732
 6698WAT      O27497   4.179   5.544   1.363 -0.2881 -0.3862 -0.7894
 6698WAT     H127498   4.160   5.492   1.431  1.2681 -0.6455 -0.5060
 6698WAT     H227499   4.234   5.496   1.316  0.5090  0.6768 -0.9771
 6698WAT    EPW27500   4.184   5.529   1.366  0.2980  0.1871  0.5221
 6699WAT      O27501   4.588   4.452   0.573 -0.0323 -0.2871  0.7009
 6699WAT     H127502   4.541   4.443   0.501  0.5397 -1.0386  0.4070
 6699WAT     H227503   4.538   4.501   0.625 -0.2262  0.6982 -0.3935
 6699WAT    EPW27504   4.574   4.458   0.570 -0.3219 -0.3274 -0.9619
 6700WAT      O27505   3.741   5.020   0.623 -0.4127  0.3712  0.1363
 6700WAT     H127506   3.790   4.986   0.686  0.4242 -1.5637 -1.4186
 6700WAT     H227507   3.778   5.097   0.607  1.4982 -0.5689 -0.2432
 6700WAT    EPW27508   3.754   5.026   0.630 -0.4870 -0.3898  0.0839
 6701WAT      O27509   2.853   5.851   1.368  0.4446 -0.0367 -0.1394
 6701WAT     H127510   2.790   5.814   1.416  1.5182 -2.0956 -0.2267
 6701WAT     H227511   2.818   5.928   1.345 -1.6433 -0.6887  0.6160
 6701WAT    EPW27512   2.838   5.857   1.372 -0.1945  0.2088  0.1564
 6702WAT      O27513   3.673   5.691   1.961  0.2285 -0.0457 -0.2127
 6702WAT     H127514   3.600   5.643   1.965 -0.6905  1.3454  0.4865
 6702WAT     H227515   3.685   5.701   1.875  1.8566 -3.4792 -0.5586
 6702WAT    EPW27516   3.664   5.685   1.949  0.7531 -0.5742 -1.4637
 6703WAT      O27517   2.649   7.658   7.948  0.1812  0.8187 -0.4361
 6703WAT     H127518   2.663   7.641   8.032  0.6836 -0.7533 -0.7998
 6703WAT     H227519   2.698   7.729   7.933  2.4933 -0.5803 -0.0423
 6703WAT    EPW27520   2.658   7.666   7.958 -0.0490 -0.7377  0.0078
 6704WAT      O27521   2.968   5.016   1.319 -0.0474 -0.3213 -0.3319
 6704WAT     H127522   3.051   4.989   1.328  0.0165 -0.4421 -1.2232
 6704WAT     H227523   2.976   5.103   1.310  0.1509 -0.4778 -2.0847
 6704WAT    EPW27524   2.982   5.025   1.319  0.2011 -0.3661  0.1639
 6705WAT      O27525   3.314   4.732   1.644  0.1447  0.0306  0.0834
 6705WAT     H127526   3.381   4.760   1.596  0.3277 -1.7180 -0.7305
 6705WAT     H227527   3.320   4.780   1.717  0.8471  1.5674 -0.9192
 6705WAT    EPW27528   3.325   4.743   1.648  0.5276 -0.6438 -0.2384
 6706WAT      O27529   3.328   5.264   1.087 -0.4220 -0.7847  0.7062
 6706WAT     H127530   3.276   5.208   1.044 -0.2833 -0.2005 -0.2653
 6706WAT     H227531   3.399   5.217   1.104  0.1564 -0.6547 -1.0873
 6706WAT    EPW27532   3.331   5.249   1.083 -0.2396 -0.1825 -0.1361
 6707WAT      O27533   5.730   4.751   1.038 -0.0820  0.7470 -0.4495
 6707WAT     H127534   5.764   4.814   0.988 -0.3118  1.6017  0.4383
 6707WAT     H227535   5.800   4.719   1.080 -0.0708  0.9912 -0.2774
 6707WAT    EPW27536   5.745   4.755   1.037  0.3655  0.0079 -0.8549
 6708WAT      O27537   4.378   4.985   1.403  0.0681 -0.2935 -0.0769
 6708WAT     H127538   4.373   5.069   1.424 -1.3770 -0.1236 -0.9672
 6708WAT     H227539   4.330   4.945   1.464 -0.3535 -0.3161 -0.4204
 6708WAT    EPW27540   4.370   4.991   1.415 -0.3543  0.8850 -0.8995
 6709WAT      O27541   4.569   6.026   1.772 -0.8399  0.1122  0.3482
 6709WAT     H127542   4.542   5.944   1.783  1.1505 -0.4776  1.2619
 6709WAT     H227543   4.495   6.071   1.765 -1.9771 -1.8070 -0.6737
 6709WAT    EPW27544   4.554   6.020   1.773 -0.1681  0.1269 -0.2479
 6710WAT      O27545   5.092   5.885   1.877 -0.6421  0.1137  0.0224
 6710WAT     H127546   5.039   5.926   1.933 -0.2607  1.3685 -0.5043
 6710WAT     H227547   5.054   5.899   1.799  0.4887  1.1497 -0.3800
 6710WAT    EPW27548   5.079   5.893   1.874  0.5640  0.2051  0.0492
 6711WAT      O27549   3.532   5.982   1.607  0.7834 -0.3510 -0.0659
 6711WAT     H127550   3.563   5.992   1.526  0.5601 -1.2633 -0.2720
 6711WAT     H227551   3.533   5.896   1.620  0.0522 -0.2788  0.5936
 6711WAT    EPW27552   3.537   5.971   1.597 -0.2553 -0.2019  0.4968
 6712WAT      O27553   3.846   6.739   0.176  0.5015 -0.1569  0.4055
 6712WAT     H127554   3.861   6.653   0.182  0.3675 -0.1310  1.2566
 6712WAT     H227555   3.878   6.760   0.097 -1.8303 -1.4612 -0.9782
 6712WAT    EPW27556   3.853   6.729   0.165  0.0876  0.1097 -0.4423
 6713WAT      O27557   2.690   4.535   0.790 -0.0704  0.0902 -0.7245
 6713WAT     H127558   2.662   4.617   0.784  0.1880  0.3659  1.1643
 6713WAT     H227559   2.723   4.530   0.871  1.8539 -1.2777 -1.4989
 6713WAT    EPW27560   2.691   4.546   0.801  0.5876  0.4219  0.1275
 6714WAT      O27561   4.746   3.769   1.867  0.0712 -0.1077  0.1675
 6714WAT     H127562   4.711   3.720   1.804 -0.4269  1.5877 -0.9419
 6714WAT     H227563   4.712   3.848   1.853  0.2597  0.4125  2.3454
 6714WAT    EPW27564   4.736   3.773   1.855 -0.2702  0.1127  0.4058
 6715WAT      O27565   2.601   6.413   0.812 -0.2596 -0.3926  0.4902
 6715WAT     H127566   2.583   6.460   0.741 -1.0141 -0.7274  0.4508
 6715WAT     H227567   2.560   6.457   0.876  0.3026 -0.1666  0.7013
 6715WAT    EPW27568   2.592   6.427   0.811 -0.5292 -0.5065  0.5876
 6716WAT      O27569   3.936   5.924   0.385  0.0988 -0.1678 -0.2883
 6716WAT     H127570   3.912   5.942   0.467  0.3027 -1.4011  0.0668
 6716WAT     H227571   3.869   5.954   0.337 -0.7535 -0.8240  0.4516
 6716WAT    EPW27572   3.922   5.931   0.390  0.5469  0.6035 -0.4296
 6717WAT      O27573   2.576   6.932   0.933  0.1858  0.4577  0.1418
 6717WAT     H127574   2.637   6.874   0.914  0.2858  0.9218 -1.0199
 6717WAT     H227575   2.532   6.895   0.999  1.6385  0.0822  0.9343
 6717WAT    EPW27576   2.578   6.918   0.940  0.5352  0.6242  0.5572
 6718WAT      O27577   6.090   4.464   1.129  0.3755 -0.2316  0.1992
 6718WAT     H127578   6.101   4.430   1.049  2.3276 -0.2241  0.4139
 6718WAT     H227579   6.083   4.393   1.180  0.2636 -0.2512  0.1573
 6718WAT    EPW27580   6.091   4.448   1.124 -0.0779 -0.1322 -0.7877
 6719WAT      O27581   3.385   4.964   0.508 -0.3521 -0.5958  0.0589
 6719WAT     H127582   3.320   4.960   0.449  0.9529 -0.9263 -1.4415
 6719WAT     H227583   3.409   5.048   0.506 -0.9856 -0.3847  0.9245
 6719WAT    EPW27584   3.379   4.976   0.499 -0.0116  0.3660  0.0887
 6720WAT      O27585   4.816   6.785   7.945  0.0151 -0.2777 -0.3337
 6720WAT     H127586   4.821   6.871   7.939  0.7948 -0.1934  1.1592
 6720WAT     H227587   4.730   6.770   7.958 -0.1975  0.2126 -1.1444
 6720WAT    EPW27588   4.804   6.795   7.946 -0.8656 -0.3773  0.2411
 6721WAT      O27589   3.787   5.781   1.355  0.0284  0.0369  0.2248
 6721WAT     H127590   3.805   5.783   1.441 -0.2430 -1.8915  0.3541
 6721WAT     H227591   3.845   5.724   1.323 -1.7749 -1.5544 -0.3589
 6721WAT    EPW27592   3.798   5.773   1.363  0.0702  0.4875 -0.2224
 6722WAT      O27593   5.473   7.271   0.748  0.0241  0.4123 -0.3082
 6722WAT     H127594   5.486   7.194   0.709 -0.1138  0.6161 -0.7675
 6722WAT     H227595   5.396   7.262   0.787  1.3431 -0.7471  2.2964
 6722WAT    EPW27596   5.464   7.259   0.748  0.2662  0.2588  0.2466
 6723WAT      O27597   4.769   4.616   0.745 -0.1011 -0.3405 -0.1879
 6723WAT     H127598   4.725   4.551   0.707  1.6142 -2.1133  0.7179
 6723WAT     H227599   4.840   4.626   0.695  1.6442 -1.9720  1.7688
 6723WAT    EPW27600   4.773   4.608   0.732  0.4448 -0.5097 -0.1300
 6724WAT      O27601   3.409   6.635   0.814 -0.4057  0.2353  0.4677
 6724WAT     H127602   3.487   6.652   0.780 -0.4465  0.0855  0.2974
 6724WAT     H227603   3.354   6.676   0.761 -0.5427 -0.8652 -0.2617
 6724WAT    EPW27604   3.412   6.644   0.801 -0.8555 -0.0654  0.1478
 6725WAT      O27605   4.219   4.820   2.552  0.2119 -0.2917  0.1349
 6725WAT     H127606   4.179   4.752   2.515 -0.3602  0.8690 -1.5097
 6725WAT     H227607   4.304   4.801   2.545  0.1212 -2.4005  2.9211
 6725WAT    EPW27608   4.226   4.807   2.546 -0.4345 -0.3828  0.5559
 6726WAT      O27609   2.382   5.093   7.987 -0.1112  0.1945 -0.0911
 6726WAT     H127610   2.422   5.158   7.946  0.8240 -0.2919  0.0245
 6726WAT     H227611   2.382   5.028   7.929 -1.0251  0.2753 -0.2029
 6726WAT    EPW27612   2.388   5.093   7.973  1.4502 -1.5929  0.1576
 6727WAT      O27613   5.139   4.208   0.402 -0.0494 -0.0106 -0.4044
 6727WAT     H127614   5.077   4.269   0.399 -0.6372 -0.5573  0.1068
 6727WAT     H227615   5.183   4.220   0.328 -2.0102 -0.8576 -1.8151
 6727WAT    EPW27616   5.136   4.218   0.391 -0.4094 -0.3818  0.3018
 6728WAT      O27617   3.417   5.729   7.549  0.0394 -0.5492  0.0081
 6728WAT     H127618   3.418   5.729   7.462  0.2390 -0.3716  0.0079
 6728WAT     H227619   3.500   5.711   7.570  0.6253  1.8838  0.1441
 6728WAT    EPW27620   3.430   5.727   7.539 -0.2826 -0.3361 -0.0213
 6729WAT      O27621   3.745   5.097   1.306 -0.2781 -0.2654 -0.2769
 6729WAT     H127622   3.728   5.044   1.238 -0.6472  1.1330 -1.3206
 6729WAT     H227623   3.674   5.089   1.356  0.4883 -2.2029  0.6098
 6729WAT    EPW27624   3.732   5.088   1.303  0.3631 -0.5963  0.2498
 6730WAT      O27625   4.502   4.809   1.236 -0.3651 -0.7837  0.1502
 6730WAT     H127626   4.520   4.856   1.164  2.8621  0.0210  1.3018
 6730WAT     H227627   4.473   4.869   1.292 -4.1804 -1.6018 -0.6827
 6730WAT    EPW27628   4.501   4.825   1.234  0.5880 -0.0528  0.7307
 6731WAT      O27629   4.357   6.238   1.058  0.0373 -0.2425 -0.1748
 6731WAT     H127630   4.287   6.187   1.070 -1.6482  1.8765 -0.2895
 6731WAT     H227631   4.368   6.237   0.972 -0.5084  0.1682 -0.2599
 6731WAT    EPW27632   4.348   6.231   1.047  0.8693 -0.0131 -0.1945
 6732WAT      O27633   3.851   4.344   1.314  0.3662  1.0424 -0.6454
 6732WAT     H127634   3.921   4.390   1.338  0.9028  0.7843 -1.6735
 6732WAT     H227635   3.821   4.388   1.245  0.7853 -0.0240 -1.5401
 6732WAT    EPW27636   3.857   4.357   1.308  0.5649 -0.0568 -0.1973
 6733WAT      O27637   4.082   4.810   7.946 -0.1008 -0.3061  0.0484
 6733WAT     H127638   4.064   4.729   7.973 -1.7453  0.2563  0.7621
 6733WAT     H227639   4.003   4.847   7.937  0.6164  1.5439  0.7954
 6733WAT    EPW27640   4.068   4.804   7.948 -0.5512 -0.1800  0.1670
 6734WAT      O27641   4.364   6.386   0.217 -0.4283 -0.4979  0.0967
 6734WAT     H127642   4.433   6.333   0.225 -0.6194 -0.7627  0.0121
 6734WAT     H227643   4.382   6.452   0.271 -0.1389 -0.5978  0.1248
 6734WAT    EPW27644   4.377   6.388   0.226  0.2338  0.4720  0.3427
 6735WAT      O27645   5.468   7.773   7.138 -0.0031 -0.0475 -0.5327
 6735WAT     H127646   5.470   7.705   7.193 -0.3322  0.9820  0.8084
 6735WAT     H227647   5.444   7.737   7.063  3.1398 -1.9637 -0.7962
 6735WAT    EPW27648   5.464   7.757   7.135 -0.5020 -0.6958 -0.0947
 6736WAT      O27649   3.945   6.226   8.051  0.0060  0.2753 -0.0659
 6736WAT     H127650   3.888   6.292   8.062  1.9352  2.4054 -1.8527
 6736WAT     H227651   4.009   6.244   8.107  0.2803 -0.4512 -0.1355
 6736WAT    EPW27652   3.946   6.239   8.061  0.8078 -0.7254  0.0784
 6737WAT      O27653   4.883   6.780   1.201 -0.1936 -0.4698 -0.6200
 6737WAT     H127654   4.813   6.832   1.205  1.0718  1.2134  0.9284
 6737WAT     H227655   4.924   6.808   1.129 -0.3327 -0.4675 -0.7007
 6737WAT    EPW27656   4.879   6.791   1.191  0.4515 -0.0505  0.4899
 6738WAT      O27657   5.589   3.786   0.684  0.3071  0.8258 -0.0972
 6738WAT     H127658   5.647   3.721   0.691 -1.0049 -0.4082 -0.2296
 6738WAT     H227659   5.551   3.788   0.762  0.1056  1.2370 -0.2025
 6738WAT    EPW27660   5.592   3.777   0.697 -0.6820  0.6500  0.6674
 6739WAT      O27661   5.043   5.988   2.863  0.2745  0.6674  0.3580
 6739WAT     H127662   5.089   5.938   2.808  0.5164 -0.4778  1.5539
 6739WAT     H227663   5.072   6.069   2.846  0.1741  0.3835 -1.3377
 6739WAT    EPW27664   5.054   5.993   2.852  0.4552  0.8168 -0.0007
 6740WAT      O27665   4.364   5.163   0.586  0.1974  0.1326 -0.2059
 6740WAT     H127666   4.303   5.127   0.638  0.5795  0.4323  0.4612
 6740WAT     H227667   4.406   5.217   0.639  0.7663  0.2549 -0.7761
 6740WAT    EPW27668   4.361   5.165   0.602  0.8315 -0.1086 -0.4157
 6741WAT      O27669   3.964   4.670   7.132 -0.0258  0.7901 -0.0436
 6741WAT     H127670   4.002   4.746   7.151  0.3784  0.8138 -0.8955
 6741WAT     H227671   3.973   4.623   7.205  1.3923  0.9034 -0.1149
 6741WAT    EPW27672   3.971   4.674   7.145  0.2310 -0.4360 -1.0023
 6742WAT      O27673   3.513   6.048   1.045 -0.1799 -0.2066  0.1730
 6742WAT     H127674   3.449   5.991   1.031  0.0168 -0.1894 -0.9165
 6742WAT     H227675   3.586   6.002   1.031 -0.0350  0.4712 -1.5494
 6742WAT    EPW27676   3.515   6.033   1.041 -0.3327 -0.8545  0.7642
 6743WAT      O27677   5.308   4.846   0.093  0.1268  0.3588 -0.5271
 6743WAT     H127678   5.279   4.852   0.011 -0.5527 -1.0795 -0.4223
 6743WAT     H227679   5.237   4.860   0.141 -0.1083 -1.5364 -0.2462
 6743WAT    EPW27680   5.293   4.849   0.088 -0.2117 -0.1294 -0.0712
 6744WAT      O27681   3.832   6.330   1.590 -0.0910 -0.0388  0.4079
 6744WAT     H127682   3.846   6.295   1.669  1.4405 -0.9482 -0.2262
 6744WAT     H227683   3.907   6.316   1.548 -0.9240  0.2936 -1.2663
 6744WAT    EPW27684   3.845   6.322   1.596  0.5236 -0.5855  0.2441
 6745WAT      O27685   4.962   7.454   7.756 -0.1409  0.5364 -0.2168
 6745WAT     H127686   4.949   7.383   7.805 -0.9542 -0.2972 -1.5768
 6745WAT     H227687   4.980   7.517   7.815 -0.6198 -0.5082  1.0980
 6745WAT    EPW27688   4.963   7.453   7.772 -0.2833  0.1240  0.7205
 6746WAT      O27689   5.301   6.176   1.591 -0.2926  0.2184  0.2092
 6746WAT     H127690   5.288   6.229   1.659 -0.2487 -0.3694  0.6923
 6746WAT     H227691   5.220   6.153   1.568 -0.2814 -0.7813  1.0580
 6746WAT    EPW27692   5.287   6.180   1.598 -0.6849  0.1086 -0.2510
 6747WAT      O27693   5.373   0.248   7.757  0.0578 -0.2376  0.4954
 6747WAT     H127694   5.411   0.246   7.678 -0.2414 -0.6206  0.3573
 6747WAT     H227695   5.415   0.186   7.801 -1.1508 -1.4793 -0.0154
 6747WAT    EPW27696   5.385   0.239   7.752  0.3248 -0.0762 -0.7047
 6748WAT      O27697   6.051   6.225   1.908  0.4584  0.9369  0.2471
 6748WAT     H127698   6.051   6.166   1.843 -0.7538 -0.4820  1.4784
 6748WAT     H227699   6.023   6.298   1.869 -4.7964 -0.8821 -0.1364
 6748WAT    EPW27700   6.047   6.227   1.892 -0.5164 -0.3688 -0.1438
 6749WAT      O27701   4.715   5.362   0.663 -0.1150 -0.2245  0.1498
 6749WAT     H127702   4.708   5.277   0.649 -0.6938  0.0086 -1.2450
 6749WAT     H227703   4.702   5.397   0.584 -2.5008  1.2619  1.0693
 6749WAT    EPW27704   4.712   5.355   0.649  0.2123 -0.0990 -1.0954
 6750WAT      O27705   4.732   5.543   2.267 -0.8174  0.0486  0.5025
 6750WAT     H127706   4.721   5.629   2.256  1.4780  0.4427  0.7622
 6750WAT     H227707   4.746   5.535   2.353  0.2999 -0.3665  0.3068
 6750WAT    EPW27708   4.733   5.554   2.278  0.0518 -0.9743 -1.0708
 6751WAT      O27709   4.078   4.087   7.596  0.4681 -0.2153 -0.2521
 6751WAT     H127710   4.020   4.046   7.647  0.4991  0.1545  0.0819
 6751WAT     H227711   4.144   4.105   7.650  0.4586  0.2643 -0.3961
 6751WAT    EPW27712   4.079   4.083   7.611  0.3753 -0.3458  0.4722
 6752WAT      O27713   3.813   4.892   7.923  0.2856 -0.0769 -0.0269
 6752WAT     H127714   3.752   4.945   7.955  0.7509  0.6303 -0.2969
 6752WAT     H227715   3.771   4.816   7.913  0.0533 -0.2940  2.0430
 6752WAT    EPW27716   3.798   4.888   7.927 -0.5901  0.2035 -1.1592
 6753WAT      O27717   3.336   4.567   0.453 -0.3949  0.2612 -0.0186
 6753WAT     H127718   3.322   4.608   0.377 -0.6556 -0.2020 -0.2287
 6753WAT     H227719   3.401   4.613   0.490 -0.4334  0.6369 -0.4097
 6753WAT    EPW27720   3.344   4.580   0.447  0.1865 -0.0902 -0.5307
 6754WAT      O27721   5.447   6.240   1.961 -0.4190 -0.7401  0.6466
 6754WAT     H127722   5.464   6.163   1.923 -0.9687  0.0791 -1.4339
 6754WAT     H227723   5.525   6.266   1.990  0.6414 -0.3601 -2.1802
 6754WAT    EPW27724   5.461   6.232   1.959 -0.1502  0.6428  0.0099
 6755WAT      O27725   4.493   5.373   7.816  0.2935  0.3782  0.3114
 6755WAT     H127726   4.445   5.347   7.885 -0.1625  1.0854  0.2648
 6755WAT     H227727   4.435   5.376   7.751  0.1217  2.4075  0.5186
 6755WAT    EPW27728   4.478   5.369   7.817  0.4484 -0.6036  0.2448
 6756WAT      O27729   4.144   5.716   0.075 -0.1023 -0.3941  0.6334
 6756WAT     H127730   4.187   5.778   0.118 -0.8114  0.8118 -0.3657
 6756WAT     H227731   4.205   5.655   0.061  0.2115 -0.8169  3.1958
 6756WAT    EPW27732   4.159   5.716   0.080  1.0346 -0.1082 -0.2026
 6757WAT      O27733   5.675   4.849   1.871 -0.3221 -0.0777 -0.2658
 6757WAT     H127734   5.607   4.858   1.817  0.1099 -0.0782 -0.8178
 6757WAT     H227735   5.714   4.927   1.870 -1.5315  0.6296  1.7572
 6757WAT    EPW27736   5.671   4.862   1.863  0.0353  1.4780  0.2213
 6758WAT      O27737   4.748   4.738   1.335  0.1733 -0.5385 -0.1678
 6758WAT     H127738   4.683   4.769   1.287  0.6940 -0.9075 -1.1411
 6758WAT     H227739   4.708   4.687   1.393 -0.3978 -1.0312 -0.9640
 6758WAT    EPW27740   4.733   4.735   1.336  0.6017 -0.6400 -0.7846
 6759WAT      O27741   3.324   5.264   7.530  0.4212 -0.6219 -0.2804
 6759WAT     H127742   3.311   5.332   7.584 -0.7278 -0.6057 -0.5527
 6759WAT     H227743   3.339   5.302   7.453 -0.3691 -0.6675 -0.4630
 6759WAT    EPW27744   3.325   5.280   7.527  0.4595 -0.1714 -0.3530
 6760WAT      O27745   3.966   4.747   1.368 -0.0689  0.4094 -0.1635
 6760WAT     H127746   4.033   4.758   1.313 -0.0561 -0.6760 -0.3911
 6760WAT     H227747   3.988   4.795   1.437 -0.0086  1.6770 -1.0279
 6760WAT    EPW27748   3.980   4.756   1.370  0.3265  0.7028  0.4280
 6761WAT      O27749   4.154   5.042   0.687  0.3470  0.2979 -0.6647
 6761WAT     H127750   4.131   5.016   0.607  2.0301 -0.7392 -0.8694
 6761WAT     H227751   4.110   4.988   0.740 -0.1055  0.4141 -0.9206
 6761WAT    EPW27752   4.144   5.030   0.683 -0.6563 -0.0818 -0.0179
 6762WAT      O27753   3.060   5.307   0.618 -0.0844  0.1910  0.0965
 6762WAT     H127754   3.056   5.362   0.686  2.2698 -0.5814  0.9702
 6762WAT     H227755   3.020   5.235   0.647  1.1834 -0.2447  0.8269
 6762WAT    EPW27756   3.054   5.305   0.633  0.2182 -1.6172 -0.3588
 6763WAT      O27757   4.921   5.500   1.791 -0.1563 -0.2424 -0.9053
 6763WAT     H127758   4.937   5.544   1.717 -1.4209  0.7013 -0.6417
 6763WAT     H227759   4.853   5.542   1.826  0.6777 -0.3938  1.0251
 6763WAT    EPW27760   4.913   5.512   1.785  0.0247  0.1997 -1.1145
 6764WAT      O27761   4.129   5.552   1.032  0.2582  0.1386 -0.2649
 6764WAT     H127762   4.076   5.592   1.088 -0.4563  1.2043 -1.6262
 6764WAT     H227763   4.207   5.588   1.047 -0.0882  0.9995 -0.4911
 6764WAT    EPW27764   4.133   5.563   1.042 -0.3795  0.3470 -0.6560
 6765WAT      O27765   3.701   5.317   7.916 -0.0849  0.0336 -0.1693
 6765WAT     H127766   3.773   5.332   7.869 -1.3591 -1.2273 -2.7440
 6765WAT     H227767   3.718   5.356   7.992  2.0195  2.5459 -1.7359
 6765WAT    EPW27768   3.714   5.325   7.920  0.4240  0.3306 -0.1051
 6766WAT      O27769   4.688   4.143   0.336  0.2397  0.4552 -0.5317
 6766WAT     H127770   4.671   4.059   0.322 -0.6998  0.3790  0.8637
 6766WAT     H227771   4.627   4.184   0.290 -0.7509  0.2864  0.5719
 6766WAT    EPW27772   4.676   4.137   0.327  0.9840 -0.1232 -0.5834
 6767WAT      O27773   5.516   5.990   0.919 -0.0028 -0.7092  0.5807
 6767WAT     H127774   5.542   5.951   0.992  1.1917  1.5002  1.4308
 6767WAT     H227775   5.538   5.934   0.856  1.1129 -1.6247  1.7471
 6767WAT    EPW27776   5.523   5.976   0.920  0.4548 -0.8498 -0.2135
 6768WAT      O27777   2.798   3.658   1.722  0.1165 -0.4033  0.0366
 6768WAT     H127778   2.841   3.708   1.779 -1.3204  0.5046  0.3767
 6768WAT     H227779   2.789   3.582   1.765 -1.9057  0.5984  1.5603
 6768WAT    EPW27780   2.803   3.654   1.737  0.0087 -0.4891 -0.5119
 6769WAT      O27781   2.552   5.753   7.995 -0.3126 -0.2626  0.4992
 6769WAT     H127782   2.565   5.667   7.995  1.5137 -0.0414 -0.3886
 6769WAT     H227783   2.620   5.785   8.040  1.7310  0.9193 -3.0017
 6769WAT    EPW27784   2.564   5.745   8.001  1.2467  0.1068 -0.0534
 6770WAT      O27785   3.893   6.436   0.282 -0.0260  0.3903 -0.4135
 6770WAT     H127786   3.922   6.479   0.352 -0.5712 -2.4331  1.7234
 6770WAT     H227787   3.950   6.371   0.274 -2.0457 -1.5087 -0.1658
 6770WAT    EPW27788   3.906   6.433   0.291  0.4348  0.0092 -0.4597
 6771WAT      O27789   4.860   5.432   0.076  0.2674  0.0601  0.5263
 6771WAT     H127790   4.848   5.444  -0.009 -2.0513  1.9137  1.0057
 6771WAT     H227791   4.940   5.463   0.091  0.1036  1.1516 -0.7303
 6771WAT    EPW27792   4.870   5.438   0.066  0.2442 -0.4342 -1.0307
 6772WAT      O27793   3.730   4.768   0.278  0.2897  0.0970  0.2153
 6772WAT     H127794   3.693   4.769   0.358  1.3149 -0.9237  0.7262
 6772WAT     H227795   3.813   4.790   0.294  0.5682 -0.3878 -0.5290
 6772WAT    EPW27796   3.737   4.771   0.292  0.5840  0.2304 -1.1079
 6773WAT      O27797   1.977   7.385   7.905  0.4627 -0.0105 -0.2287
 6773WAT     H127798   1.980   7.468   7.930 -1.6527  0.1760 -0.3558
 6773WAT     H227799   1.986   7.341   7.980  0.8723  0.3574 -0.0589
 6773WAT    EPW27800   1.979   7.391   7.920  0.0416 -0.2910 -0.5868
 6774WAT      O27801   3.122   6.324   2.673  0.7457  0.0468 -0.1896
 6774WAT     H127802   3.165   6.259   2.633  1.2378  0.2539 -0.0096
 6774WAT     H227803   3.156   6.396   2.637  0.8229  0.2233  0.2282
 6774WAT    EPW27804   3.133   6.325   2.662 -0.4239 -0.7604 -0.8250
 6775WAT      O27805   3.582   6.698   0.452  0.7969 -0.1289 -0.3264
 6775WAT     H127806   3.638   6.675   0.515 -0.1198 -0.2086  0.4734
 6775WAT     H227807   3.515   6.644   0.463  0.6416 -0.1772 -1.4145
 6775WAT    EPW27808   3.581   6.687   0.463 -0.6123 -0.0459 -0.2435
 6776WAT      O27809   4.887   6.297   0.337 -0.0735 -0.0892  0.2106
 6776WAT     H127810   4.961   6.257   0.357 -0.4616 -0.0984  1.7516
 6776WAT     H227811   4.848   6.242   0.281  0.8660 -0.2901 -0.2557
 6776WAT    EPW27812   4.892   6.283   0.331  0.2501 -0.0135 -0.6197
 6777WAT      O27813   4.845   6.984   0.571 -0.0588  0.4052 -0.6601
 6777WAT     H127814   4.915   6.975   0.622  0.3106 -0.9533 -1.3715
 6777WAT     H227815   4.829   6.903   0.542 -3.9208 -0.0769  2.0032
 6777WAT    EPW27816   4.853   6.971   0.574 -0.4798  0.1947  0.5305
 6778WAT      O27817   4.915   4.380   0.411  0.2838  0.2035  0.1599
 6778WAT     H127818   4.919   4.463   0.438 -0.3113  0.1855  0.3225
 6778WAT     H227819   4.877   4.339   0.478  2.8827 -0.7159  1.2114
 6778WAT    EPW27820   4.910   4.387   0.425 -0.8686 -0.4983 -0.4742
 6779WAT      O27821   3.479   6.429   7.645 -0.3548  0.6859  0.3728
 6779WAT     H127822   3.488   6.362   7.701  0.5169  1.5073  1.2525
 6779WAT     H227823   3.562   6.452   7.628 -0.5703  0.1114 -1.7109
 6779WAT    EPW27824   3.493   6.422   7.650  0.0647  0.1303 -0.0823
 6780WAT      O27825   2.988   5.048   0.919  0.2833 -0.3756 -0.2821
 6780WAT     H127826   2.975   4.963   0.905  2.0706 -0.5894 -1.0498
 6780WAT     H227827   3.075   5.054   0.928  0.0431  1.0871  1.9910
 6780WAT    EPW27828   2.999   5.036   0.918  0.3636 -0.5150  0.4401
 6781WAT      O27829   4.993   4.172   1.001  0.2784  0.1603  0.1483
 6781WAT     H127830   4.971   4.113   1.060 -0.8097  0.5953  0.1998
 6781WAT     H227831   4.959   4.141   0.927 -1.6086  1.3871  0.4288
 6781WAT    EPW27832   4.985   4.159   0.999 -0.3241  0.0773 -0.4840
 6782WAT      O27833   3.569   4.757   0.518 -0.5119  0.1964  0.7491
 6782WAT     H127834   3.505   4.816   0.521 -1.2900 -0.5071 -0.7924
 6782WAT     H227835   3.635   4.796   0.559 -1.2913  1.7583  0.5912
 6782WAT    EPW27836   3.570   4.771   0.525  0.6510 -0.1978  0.8579
 6783WAT      O27837   4.186   5.317   1.587  0.2849  0.2648 -0.4787
 6783WAT     H127838   4.198   5.302   1.672  0.6318 -0.6374 -0.6761
 6783WAT     H227839   4.110   5.277   1.570 -0.8515  2.1562 -0.1894
 6783WAT    EPW27840   4.177   5.309   1.597 -0.1590 -0.3802  0.4113
 6784WAT      O27841   5.763   3.936   1.008 -0.6791  0.2902 -0.3231
 6784WAT     H127842   5.774   3.984   1.080 -0.5312  1.3917 -1.0555
 6784WAT     H227843   5.677   3.923   1.004 -0.5876 -0.8326  0.6895
 6784WAT    EPW27844   5.752   3.941   1.018  0.0460  0.4969  0.5619
 6785WAT      O27845   2.162   6.632   1.028  0.3910  0.2861 -0.8352
 6785WAT     H127846   2.127   6.657   1.105 -1.3533  2.0765 -2.0983
 6785WAT     H227847   2.140   6.548   1.022  1.4948 -0.1939  1.0655
 6785WAT    EPW27848   2.153   6.623   1.039  0.8569  0.8401 -0.1747
 6786WAT      O27849   4.382   5.230   0.319  0.8700 -0.1225  0.1674
 6786WAT     H127850   4.300   5.227   0.291  0.7984  0.7898  0.2499
 6786WAT     H227851   4.376   5.208   0.403  0.8616 -1.1370 -0.0860
 6786WAT    EPW27852   4.369   5.226   0.327  0.0438  0.1233  0.2342
 6787WAT      O27853   5.635   5.061   1.246 -0.8672  0.4682  0.2668
 6787WAT     H127854   5.658   4.987   1.286 -0.9217  0.8660  1.0435
 6787WAT     H227855   5.590   5.104   1.307  0.5174  1.8568  0.3817
 6787WAT    EPW27856   5.632   5.056   1.261  0.1150  0.4307  0.2782
 6788WAT      O27857   3.170   5.248   1.677 -0.2773 -0.2981  0.9925
 6788WAT     H127858   3.138   5.292   1.608 -0.3831 -0.6134  0.8397
 6788WAT     H227859   3.100   5.233   1.726 -0.5218 -1.7651  0.2299
 6788WAT    EPW27860   3.155   5.252   1.674  0.1470  0.1454 -0.2645
 6789WAT      O27861   4.474   5.344   0.792  0.0022 -0.7671  0.3428
 6789WAT     H127862   4.443   5.426   0.789 -1.4468 -1.2873  0.5101
 6789WAT     H227863   4.557   5.353   0.768  0.8991  1.2369  3.5154
 6789WAT    EPW27864   4.482   5.358   0.788  0.8469 -0.0729 -0.1273
 6790WAT      O27865   3.232   6.592   1.608 -0.2525 -0.1317  0.5598
 6790WAT     H127866   3.211   6.673   1.635  0.2798 -0.1301  0.9755
 6790WAT     H227867   3.193   6.586   1.530  0.5480  0.8965  0.0670
 6790WAT    EPW27868   3.223   6.603   1.600 -0.4748 -0.6445  0.1434
 6791WAT      O27869   4.632   5.499   1.184 -0.0412  0.2202 -0.0717
 6791WAT     H127870   4.653   5.424   1.143 -1.1882  0.7327 -1.7334
 6791WAT     H227871   4.653   5.484   1.267  1.7005 -1.1846 -0.7029
 6791WAT    EPW27872   4.638   5.486   1.190  0.3410  0.0697 -0.1901
 6792WAT      O27873   5.204   7.057   0.476 -0.2521 -0.1105  0.0158
 6792WAT     H127874   5.181   7.022   0.400 -0.3117 -2.8165  1.1701
 6792WAT     H227875   5.275   7.012   0.499  0.8221  1.8377  0.7948
 6792WAT    EPW27876   5.211   7.045   0.469 -0.8279  0.0045  0.2161
 6793WAT      O27877   4.914   5.973   1.657  0.1048  0.5000 -0.5155
 6793WAT     H127878   4.964   6.004   1.592  0.1172  0.6002 -0.4588
 6793WAT     H227879   4.845   6.026   1.657 -0.2559  0.0334 -0.9390
 6793WAT    EPW27880   4.911   5.986   1.647  0.5875 -0.1483  0.3851
 6794WAT      O27881   5.013   7.170   1.088  0.0351  0.2699 -0.1785
 6794WAT     H127882   4.962   7.195   1.023  0.6032 -0.2247 -0.8285
 6794WAT     H227883   4.974   7.204   1.159 -0.6418  0.7225 -0.7528
 6794WAT    EPW27884   5.000   7.179   1.089 -0.3404 -0.3663 -0.1116
 6795WAT      O27885   3.139   4.805   1.125  0.2735 -0.2748  0.1300
 6795WAT     H127886   3.093   4.772   1.058  0.8351 -0.1443 -0.3231
 6795WAT     H227887   3.078   4.819   1.186 -0.5330  1.1946 -0.9357
 6795WAT    EPW27888   3.123   4.802   1.124  0.3272 -0.4276 -0.6720
 6796WAT      O27889   3.069   3.999   7.878 -0.3377 -0.4046 -0.7062
 6796WAT     H127890   3.118   3.936   7.913 -0.0389  0.1040 -0.1938
 6796WAT     H227891   3.126   4.043   7.828 -0.7266 -1.0359 -1.7387
 6796WAT    EPW27892   3.085   3.996   7.875 -0.2250  0.4436  0.2680
 6797WAT      O27893   1.973   6.559   7.731 -0.5436 -0.0644 -0.0113
 6797WAT     H127894   2.032   6.501   7.704 -0.1918 -0.1907  0.9641
 6797WAT     H227895   2.017   6.607   7.789 -1.2459  0.1931  0.3192
 6797WAT    EPW27896   1.988   6.557   7.736 -0.1632  0.0089  0.0087
 6798WAT      O27897   2.590   5.867   1.001  0.2252 -0.6031 -0.0399
 6798WAT     H127898   2.630   5.943   1.017 -0.5314 -0.2076  0.0230
 6798WAT     H227899   2.525   5.889   0.947  0.3155 -1.2900 -0.4278
 6798WAT    EPW27900   2.586   5.882   0.995 -0.2960  0.4274 -0.8562
 6799WAT      O27901   5.336   6.684   0.894  0.0335  0.4650  0.1119
 6799WAT     H127902   5.322   6.632   0.963 -1.3011  0.9503  0.2422
 6799WAT     H227903   5.378   6.633   0.837 -2.2437 -1.1829 -0.2275
 6799WAT    EPW27904   5.340   6.669   0.895 -0.0217  0.2596  0.0124
 6800WAT      O27905   5.994   5.386   1.168 -0.2151  0.6940  0.7596
 6800WAT     H127906   6.043   5.370   1.239 -0.7977  0.6967  1.1691
 6800WAT     H227907   6.044   5.439   1.121  0.7574 -0.3972  0.5119
 6800WAT    EPW27908   6.008   5.391   1.172  0.9316  0.4378 -0.1761
 6801WAT      O27909   4.824   6.736   0.418  0.3666 -0.2188  0.2455
 6801WAT     H127910   4.760   6.744   0.359 -0.0084  0.7203  0.7604
 6801WAT     H227911   4.809   6.658   0.454 -1.0094  0.3324  0.9394
 6801WAT    EPW27912   4.812   6.725   0.415  0.2864  0.1423  0.2776
 6802WAT      O27913   3.788   4.513   1.086 -0.7479  0.4013  0.6346
 6802WAT     H127914   3.771   4.494   1.002 -0.7376 -1.7721  1.0697
 6802WAT     H227915   3.858   4.565   1.081 -0.7315  0.2960 -0.6965
 6802WAT    EPW27916   3.796   4.518   1.073 -0.9619 -0.2032 -0.5861
 6803WAT      O27917   4.084   6.168   1.112 -0.4770 -0.0275 -0.0957
 6803WAT     H127918   4.039   6.111   1.160 -1.9398  0.8204 -0.3981
 6803WAT     H227919   4.075   6.243   1.155 -0.2101  0.3682 -0.7113
 6803WAT    EPW27920   4.076   6.170   1.125  0.1913 -0.1620  0.6134
 6804WAT      O27921   2.815   0.305   7.943  0.0062  0.2966 -0.2023
 6804WAT     H127922   2.744   0.346   7.913 -0.1657  0.1222 -0.0327
 6804WAT     H227923   2.794   0.282   8.024  0.2335  0.1895 -0.1710
 6804WAT    EPW27924   2.801   0.308   7.950  0.9318  0.0093  0.6446
 6805WAT      O27925   2.253   6.205   0.295 -0.2721 -0.0604  0.1424
 6805WAT     H127926   2.173   6.170   0.294  0.6940 -2.4794 -0.1802
 6805WAT     H227927   2.259   6.247   0.219 -0.7335 -1.1657 -0.5169
 6805WAT    EPW27928   2.242   6.206   0.284  0.5336 -0.3519 -0.5754
 6806WAT      O27929   4.000   3.378   6.841 -0.3823  0.6322 -0.0179
 6806WAT     H127930   3.962   3.401   6.766  3.5046 -1.0676 -2.8926
 6806WAT     H227931   4.011   3.292   6.832  0.7459  0.4718  2.2529
 6806WAT    EPW27932   3.996   3.369   6.829  0.0233 -0.2982 -0.8941
 6807WAT      O27933   4.428   5.515   0.288  0.3061 -0.5373  0.0987
 6807WAT     H127934   4.400   5.575   0.344 -1.6574  0.3089 -1.6801
 6807WAT     H227935   4.383   5.444   0.310 -1.7820  0.2340 -1.3307
 6807WAT    EPW27936   4.418   5.513   0.300  0.8573  0.1460  0.5485
 6808WAT      O27937   5.307   5.765   0.077 -0.7632 -0.1585 -0.6653
 6808WAT     H127938   5.356   5.819   0.125 -0.4682 -1.7972  0.9977
 6808WAT     H227939   5.244   5.817   0.046  0.4319  1.4459 -0.5397
 6808WAT    EPW27940   5.305   5.781   0.080 -0.2607 -0.3217  0.5049
 6809WAT      O27941   4.594   1.981   7.529 -0.4769  0.0339 -0.3913
 6809WAT     H127942   4.668   2.020   7.505 -0.3386  0.0516  0.0571
 6809WAT     H227943   4.618   1.899   7.545 -0.7504 -0.2187 -1.2411
 6809WAT    EPW27944   4.609   1.975   7.528  0.2131  0.4813 -0.2532
 6810WAT      O27945   3.263   3.826   7.047 -0.2953 -0.3101  0.7353
 6810WAT     H127946   3.222   3.823   7.124  1.1229 -3.9403  1.5454
 6810WAT     H227947   3.213   3.778   6.995  0.2582 -0.3499  0.2331
 6810WAT    EPW27948   3.250   3.818   7.051  1.0912 -0.6440  0.0706
 6811WAT      O27949   4.147   3.807   7.408  0.0018  0.2402  0.0370
 6811WAT     H127950   4.155   3.744   7.348 -2.8574  0.9902 -1.3048
 6811WAT     H227951   4.146   3.880   7.360 -1.1183  0.9564  1.1308
 6811WAT    EPW27952   4.148   3.809   7.392  1.1249 -0.5686  0.3404
 6812WAT      O27953   3.273   5.137   6.734  0.6575  0.3043  0.6901
 6812WAT     H127954   3.348   5.128   6.777  0.6116  2.1369  1.2345
 6812WAT     H227955   3.292   5.196   6.672  0.9315 -2.7252 -2.4398
 6812WAT    EPW27956   3.287   5.145   6.731 -0.1092 -0.6944  0.2312
 6813WAT      O27957   3.885   3.590   0.644 -0.1958  0.8866 -0.4934
 6813WAT     H127958   3.942   3.565   0.583 -0.3487  1.1958 -0.7642
 6813WAT     H227959   3.833   3.647   0.603  0.4103  2.0074  0.2206
 6813WAT    EPW27960   3.886   3.595   0.629  0.5721 -0.0245 -0.2909
 6814WAT      O27961   2.949   5.647   7.420  0.2742 -0.4174 -0.0016
 6814WAT     H127962   3.018   5.699   7.408  1.3844 -1.3541  1.9496
 6814WAT     H227963   2.958   5.587   7.356  1.4062 -0.6470  0.3515
 6814WAT    EPW27964   2.960   5.646   7.409  1.5268 -0.2240 -0.1927
 6815WAT      O27965   3.829   4.277   7.187  0.4525  0.3464  0.1091
 6815WAT     H127966   3.797   4.332   7.246  1.8343 -0.3111  1.5289
 6815WAT     H227967   3.768   4.215   7.181  0.2376  0.4957  0.7521
 6815WAT    EPW27968   3.815   4.276   7.195  0.8759  0.3523  0.0879
 6816WAT      O27969   4.700   4.250   7.847  0.1925 -0.2986 -0.0482
 6816WAT     H127970   4.696   4.336   7.835  0.7020 -0.1670  0.6619
 6816WAT     H227971   4.780   4.229   7.818  0.3302 -0.4172  0.4016
 6816WAT    EPW27972   4.711   4.259   7.841  0.6192  0.6187  0.4871
 6817WAT      O27973   3.477   5.554   7.912  0.1008 -0.1468  0.3180
 6817WAT     H127974   3.426   5.531   7.845  0.1895 -3.8314  1.3534
 6817WAT     H227975   3.554   5.520   7.892  0.9978  1.4280  0.9106
 6817WAT    EPW27976   3.481   5.546   7.899 -0.0210 -0.1735 -0.3652
 6818WAT      O27977   4.279   4.659   7.782 -0.3241 -0.1444  0.5286
 6818WAT     H127978   4.356   4.672   7.743 -1.0427  0.9732 -0.5869
 6818WAT     H227979   4.262   4.736   7.819 -0.8597 -0.4127  0.8533
 6818WAT    EPW27980   4.288   4.672   7.782 -0.7601 -0.2720 -0.0341
 6819WAT      O27981   3.136   1.909   0.636  0.1365  0.0196 -0.2489
 6819WAT     H127982   3.210   1.908   0.589  0.4596 -1.0173  0.2435
 6819WAT     H227983   3.157   1.957   0.706  1.2513 -2.3636  1.1955
 6819WAT    EPW27984   3.150   1.916   0.639  0.4373  0.1702 -0.6761
 6820WAT      O27985   5.147   4.126   8.008 -0.7469 -0.1613  0.2455
 6820WAT     H127986   5.157   4.040   7.997 -2.0812 -0.4521  1.0814
 6820WAT     H227987   5.202   4.145   8.074 -1.3328 -0.6130  0.8755
 6820WAT    EPW27988   5.157   4.116   8.016  0.4634  0.3412  0.4697
 6821WAT      O27989   4.508   4.710   7.654  0.3146 -0.1942 -0.3321
 6821WAT     H127990   4.562   4.757   7.705 -1.0169  0.5990  0.3863
 6821WAT     H227991   4.560   4.647   7.624  1.5372  0.2382  0.7373
 6821WAT    EPW27992   4.524   4.708   7.657 -0.2755 -0.2657 -0.8003
 6822WAT      O27993   3.574   2.111   0.589 -0.2521 -0.2090 -0.1960
 6822WAT     H127994   3.537   2.128   0.667  2.3294  0.1885  1.0528
 6822WAT     H227995   3.574   2.024   0.585  0.6215 -0.2833  0.8411
 6822WAT    EPW27996   3.568   2.101   0.600  0.3581 -0.3000 -0.0700
 6823WAT      O27997   3.722   4.629   7.892  0.0713 -0.4072  0.4371
 6823WAT     H127998   3.710   4.594   7.971  0.8068 -1.1917  0.2161
 6823WAT     H227999   3.646   4.613   7.851 -0.0638 -0.6187  0.7644
 6823WAT    EPW28000   3.709   4.621   7.897 -0.0988 -0.0419 -0.0564
 6824WAT      O28001   2.429   5.416   0.098 -0.3764 -0.3298 -0.2060
 6824WAT     H128002   2.343   5.428   0.096 -0.2932  0.3621 -0.1417
 6824WAT     H228003   2.451   5.410   0.014 -0.7426 -2.7000 -0.1860
 6824WAT    EPW28004   2.420   5.417   0.085  0.1177  0.3641 -0.6068
 6825WAT      O28005   4.368   5.870   7.480  0.8571 -0.1015  0.5543
 6825WAT     H128006   4.449   5.901   7.467  0.5713  1.0755  1.3672
 6825WAT     H228007   4.338   5.919   7.546 -0.5644 -0.4405  0.1935
 6825WAT    EPW28008   4.376   5.882   7.488  0.6284  0.9635 -0.4761
 6826WAT      O28009   2.810   3.767   0.264 -0.1007 -0.6743  0.6342
 6826WAT     H128010   2.857   3.694   0.273 -3.6877 -3.4789 -0.6205
 6826WAT     H228011   2.772   3.777   0.342  2.0658  1.4390  1.5669
 6826WAT    EPW28012   2.811   3.758   0.277  0.0807  0.0707  0.6218
 6827WAT      O28013   2.131   3.492   0.833  0.0524  0.5017 -0.0088
 6827WAT     H128014   2.080   3.534   0.889 -1.1704 -2.3554  1.2206
 6827WAT     H228015   2.075   3.452   0.779  0.9796 -1.1204  0.1378
 6827WAT    EPW28016   2.115   3.492   0.833 -0.2532  0.0638 -0.0176
 6828WAT      O28017   5.340   2.591   0.451  0.0415  0.2822 -0.1246
 6828WAT     H128018   5.362   2.623   0.373 -1.9240 -0.6052 -1.0980
 6828WAT     H228019   5.293   2.656   0.487  0.5137  0.4881  0.1404
 6828WAT    EPW28020   5.336   2.606   0.445 -0.0042 -1.1702  0.1131
 6829WAT      O28021   2.409   5.031   6.955  0.2355  0.0121 -0.0958
 6829WAT     H128022   2.488   5.066   6.961  0.5206 -0.4189 -1.1489
 6829WAT     H228023   2.415   4.977   6.887 -1.0848  0.2931 -0.4656
 6829WAT    EPW28024   2.422   5.028   6.946 -0.7910 -0.1701 -0.1747
 6830WAT      O28025   4.332   5.556   8.021  0.8107  0.0327  0.0139
 6830WAT     H128026   4.409   5.525   8.050  1.4726 -0.9914 -2.5377
 6830WAT     H228027   4.295   5.487   7.984 -0.3205  1.0182 -0.7691
 6830WAT    EPW28028   4.338   5.541   8.020  0.5157 -0.1943 -0.6451
 6831WAT      O28029   4.143   4.061   7.338  0.1822 -0.3888  0.1280
 6831WAT     H128030   4.208   4.119   7.329 -0.4781  0.1960 -0.9878
 6831WAT     H228031   4.113   4.077   7.419 -1.3905  2.3785 -0.8477
 6831WAT    EPW28032   4.148   4.072   7.349  0.0792  0.5786  0.2612
 6832WAT      O28033   4.142   3.823   5.776  0.2129  0.6571  0.3791
 6832WAT     H128034   4.097   3.888   5.812 -0.4106 -0.1077  1.0200
 6832WAT     H228035   4.128   3.833   5.690  0.0049  1.2701  0.4835
 6832WAT    EPW28036   4.134   3.834   5.769  0.2687  0.2780 -0.8208
 6833WAT      O28037   5.140   4.848   7.113  0.1663 -0.1204 -0.0020
 6833WAT     H128038   5.101   4.922   7.139  0.8146 -0.1017  0.9935
 6833WAT     H228039   5.078   4.806   7.068 -0.4649  0.6569  0.1202
 6833WAT    EPW28040   5.125   4.853   7.110  0.2488  0.1148  0.2727
 6834WAT      O28041   4.219   3.727   0.079  0.3710 -0.1275 -0.6611
 6834WAT     H128042   4.273   3.721   0.010  1.7587 -1.6609  0.4940
 6834WAT     H228043   4.177   3.802   0.064  0.7830 -0.2684 -3.0504
 6834WAT    EPW28044   4.221   3.737   0.066 -0.4820 -0.6314  0.1036
 6835WAT      O28045   4.400   4.204   7.346 -0.5452  0.4106 -0.5725
 6835WAT     H128046   4.391   4.273   7.398  2.0329 -0.3548  1.0493
 6835WAT     H228047   4.404   4.239   7.266  1.3371  2.2378  0.2528
 6835WAT    EPW28048   4.399   4.219   7.342  0.6291  0.1644 -0.0630
 6836WAT      O28049   3.271   3.074   0.292 -0.0842  0.0757 -0.2914
 6836WAT     H128050   3.230   3.000   0.314 -2.3131  0.9012 -1.2705
 6836WAT     H228051   3.327   3.049   0.230  0.8180 -1.0838  0.9539
 6836WAT    EPW28052   3.273   3.059   0.286  0.3492  0.2635  0.5555
 6837WAT      O28053   4.262   2.876   7.808  0.6905 -0.0696  0.6434
 6837WAT     H128054   4.235   2.796   7.829 -0.2107  0.0660  0.0704
 6837WAT     H228055   4.188   2.917   7.786  1.1506  0.8995  0.8631
 6837WAT    EPW28056   4.247   2.870   7.807 -0.9340 -0.4507  0.2250
 6838WAT      O28057   4.451   3.578   7.024 -0.0802  0.2416  0.2672
 6838WAT     H128058   4.390   3.575   6.962 -0.9446  1.0290  1.0405
 6838WAT     H228059   4.439   3.503   7.067  1.2568 -0.8367 -1.1368
 6838WAT    EPW28060   4.440   3.566   7.021  0.4767  0.9901 -0.8012
 6839WAT      O28061   4.663   4.307   0.049  0.1727 -0.1170 -0.8129
 6839WAT     H128062   4.578   4.326   0.051  0.4927  1.3751 -0.1123
 6839WAT     H228063   4.677   4.288  -0.035 -0.7957 -0.1461 -0.9832
 6839WAT    EPW28064   4.653   4.307   0.037  0.7548  0.0059 -0.0506
 6840WAT      O28065   4.569   3.836   7.669  0.4299  0.5681 -0.4664
 6840WAT     H128066   4.550   3.896   7.729  0.2305  0.2870 -0.2433
 6840WAT     H228067   4.512   3.852   7.605 -0.7573 -0.4126  0.2937
 6840WAT    EPW28068   4.558   3.847   7.668  0.3623  0.8961  0.0760
 6841WAT      O28069   5.370   4.242   0.623  0.3865 -0.0741  0.2581
 6841WAT     H128070   5.324   4.271   0.555  2.2253  1.5026 -0.4045
 6841WAT     H228071   5.453   4.259   0.601  1.1755 -0.9329  2.2463
 6841WAT    EPW28072   5.375   4.249   0.610 -0.4866 -0.1729 -0.3934
 6842WAT      O28073   4.451   3.843   1.173 -0.1411 -0.1351  0.0837
 6842WAT     H128074   4.509   3.908   1.174  0.3123 -0.5304 -0.2343
 6842WAT     H228075   4.495   3.776   1.140 -1.3198  0.0776 -2.1552
 6842WAT    EPW28076   4.466   3.843   1.168  0.6932  0.3056 -0.4193
 6843WAT      O28077   3.576   1.769   7.587  0.4315  0.0018 -0.3142
 6843WAT     H128078   3.547   1.801   7.663 -0.4524  1.9081 -1.3715
 6843WAT     H228079   3.611   1.693   7.609 -2.1952 -0.7956  1.6390
 6843WAT    EPW28080   3.577   1.763   7.601 -0.4073  0.0717 -0.5803
 6844WAT      O28081   2.650   3.199   7.580 -0.3492  0.2007  0.2444
 6844WAT     H128082   2.725   3.188   7.623 -1.2475 -0.3835  1.7342
 6844WAT     H228083   2.656   3.280   7.549  0.2288  0.7438  1.6995
 6844WAT    EPW28084   2.662   3.209   7.582  0.3145 -0.1214  0.2808
 6845WAT      O28085   3.939   4.086   1.371  0.5271  0.3436 -0.5026
 6845WAT     H128086   3.861   4.047   1.379  1.7553 -2.5934 -1.3868
 6845WAT     H228087   3.920   4.163   1.335 -1.9355 -0.3220 -0.8373
 6845WAT    EPW28088   3.925   4.091   1.367 -0.0680  0.0708 -0.1782
 6846WAT      O28089   3.302   5.062   0.005  0.2661 -0.0366  0.0565
 6846WAT     H128090   3.270   5.130   0.050  0.0808  0.4688 -0.8181
 6846WAT     H228091   3.261   5.068  -0.072 -0.0176 -1.3480  0.0826
 6846WAT    EPW28092   3.291   5.073   0.001 -0.2202 -0.5806 -0.8264
 6847WAT      O28093   3.293   4.681   0.214  0.4219 -0.0121  0.4505
 6847WAT     H128094   3.261   4.609   0.177 -0.5481  0.4532  0.3426
 6847WAT     H228095   3.350   4.711   0.155 -1.3797  0.9345 -0.9399
 6847WAT    EPW28096   3.297   4.675   0.200  0.6933 -0.2871 -0.1633
 6848WAT      O28097   4.748   3.580   8.020 -0.7073  0.0337 -0.9611
 6848WAT     H128098   4.759   3.588   8.106  0.2432 -0.8977 -0.9624
 6848WAT     H228099   4.769   3.659   7.989 -1.2048  0.4156 -0.3256
 6848WAT    EPW28100   4.753   3.593   8.028  0.7950 -0.5757 -0.0582
 6849WAT      O28101   3.333   4.682   7.908 -0.0421  0.2956 -0.6332
 6849WAT     H128102   3.390   4.722   7.961 -1.6977  0.6969  0.9904
 6849WAT     H228103   3.380   4.618   7.871  1.1614 -0.2821  1.6714
 6849WAT    EPW28104   3.348   4.679   7.911 -0.1059  0.4329  0.0131
 6850WAT      O28105   4.837   3.747   6.560  0.0768  0.5158 -0.3480
 6850WAT     H128106   4.782   3.813   6.577 -1.2613 -0.2610 -1.4389
 6850WAT     H228107   4.859   3.718   6.639 -1.4263  0.5995  0.1350
 6850WAT    EPW28108   4.832   3.753   6.574 -0.1002 -1.1777 -0.2379
 6851WAT      O28109   3.711   4.613   1.421  0.4771 -0.8341  0.0505
 6851WAT     H128110   3.791   4.639   1.396  0.2904 -0.7972 -0.5158
 6851WAT     H228111   3.728   4.552   1.481  0.9296 -0.5688  0.1962
 6851WAT    EPW28112   3.726   4.608   1.426 -0.5261  0.2725 -0.1378
 6852WAT      O28113   3.533   5.346   6.454  0.2826  0.0916  0.1830
 6852WAT     H128114   3.616   5.374   6.458  0.1629  0.3574  1.0298
 6852WAT     H228115   3.536   5.284   6.393  1.0777  0.1951  0.0970
 6852WAT    EPW28116   3.546   5.341   6.446  0.6859 -0.3755 -0.3580
 6853WAT      O28117   4.067   1.931   8.033 -0.6240  0.1218  0.1266
 6853WAT     H128118   4.053   1.970   8.110  0.7957  0.7283  0.1116
 6853WAT     H228119   4.071   1.846   8.053  0.1138  0.3007  0.7930
 6853WAT    EPW28120   4.065   1.924   8.047  0.4950 -0.8741  0.0967
 6854WAT      O28121   3.788   3.038   1.443  0.5172  0.3156 -0.0311
 6854WAT     H128122   3.741   3.037   1.516 -1.0044 -2.1678 -0.8943
 6854WAT     H228123   3.831   2.962   1.445  0.1332  0.0050 -1.8459
 6854WAT    EPW28124   3.787   3.027   1.454  0.0580 -0.6746 -0.9645
 6855WAT      O28125   2.965   4.367   7.733 -0.0645 -0.1639  0.5695
 6855WAT     H128126   2.913   4.350   7.801  1.2024  0.1989  1.6705
 6855WAT     H228127   2.970   4.290   7.692 -0.7206 -0.4307  0.9682
 6855WAT    EPW28128   2.958   4.353   7.737 -1.1669 -0.8113  0.1446
 6856WAT      O28129   5.352   3.639   7.419 -0.2579 -0.0546 -0.8264
 6856WAT     H128130   5.309   3.706   7.384  1.2599  0.6434 -1.4371
 6856WAT     H228131   5.404   3.612   7.354 -3.2529 -4.1986 -1.9356
 6856WAT    EPW28132   5.353   3.645   7.404 -0.4391  0.3090  0.7960
 6857WAT      O28133   3.764   3.630   6.347 -0.6059  0.5672  0.5532
 6857WAT     H128134   3.792   3.703   6.310 -0.8351 -0.0690 -0.9466
 6857WAT     H228135   3.816   3.569   6.314 -4.6225 -1.0373 -4.0844
 6857WAT    EPW28136   3.776   3.632   6.337 -0.0804  0.3740 -0.2429
 6858WAT      O28137   1.967   4.854   7.903  0.1344  0.8219 -0.1867
 6858WAT     H128138   2.037   4.804   7.917  1.0712  1.9378 -0.6409
 6858WAT     H228139   1.940   4.875   7.984  0.2871  0.3307 -0.0081
 6858WAT    EPW28140   1.974   4.850   7.917 -0.1756  0.8886 -0.3935
 6859WAT      O28141   3.205   1.740   8.005  0.2763  0.0303  0.5179
 6859WAT     H128142   3.221   1.798   8.069 -1.2497  1.3913 -0.2516
 6859WAT     H228143   3.161   1.676   8.045  0.8666  0.0165  1.1521
 6859WAT    EPW28144   3.201   1.739   8.021  0.3624 -0.2437  0.0597
 6860WAT      O28145   4.216   5.319   7.957 -0.4643  0.2095  0.6157
 6860WAT     H128146   4.238   5.247   8.001 -0.0725  0.4014  0.7319
 6860WAT     H228147   4.216   5.292   7.873  0.4585  0.2678  0.5904
 6860WAT    EPW28148   4.219   5.304   7.951 -0.8102 -0.0702 -0.3787
 6861WAT      O28149   4.131   3.827   0.867 -0.7425 -1.0458  0.0250
 6861WAT     H128150   4.099   3.871   0.800  0.3237  0.3776  0.3841
 6861WAT     H228151   4.209   3.799   0.838  0.6078  1.1888  1.1359
 6861WAT    EPW28152   4.138   3.829   0.853  0.2042  0.9380  0.2847
 6862WAT      O28153   3.855   3.846   0.218 -0.0475 -0.2689  0.4235
 6862WAT     H128154   3.779   3.809   0.195 -0.5151  0.1968  1.1451
 6862WAT     H228155   3.844   3.862   0.304  1.3526 -1.3366  0.8331
 6862WAT    EPW28156   3.842   3.843   0.228 -0.5719 -0.3982 -0.7853
 6863WAT      O28157   4.952   2.502   0.938 -0.0666 -0.7625  0.0840
 6863WAT     H128158   4.919   2.443   0.994 -0.6840 -0.2995  0.2136
 6863WAT     H228159   4.908   2.575   0.956  1.4418  0.0590  0.6827
 6863WAT    EPW28160   4.941   2.504   0.949 -0.1003  0.1332 -0.0215
 6864WAT      O28161   2.989   2.659   1.032 -0.2661  0.2072 -0.3126
 6864WAT     H128162   3.005   2.593   0.977  0.9358  0.0358  0.2109
 6864WAT     H228163   3.009   2.626   1.110 -1.9087  0.4644  0.2460
 6864WAT    EPW28164   2.994   2.645   1.035 -0.2530 -0.1645  0.0073
 6865WAT      O28165   5.457   4.432   0.275 -0.3802  0.0621 -0.0524
 6865WAT     H128166   5.424   4.463   0.200 -1.6200 -0.6042  0.1905
 6865WAT     H228167   5.397   4.454   0.334  0.6198  0.6335  0.7708
 6865WAT    EPW28168   5.443   4.440   0.273 -0.9950  0.0489 -0.1812
 6866WAT      O28169   2.999   3.554   0.311  0.6345  0.0445  0.1352
 6866WAT     H128170   2.955   3.481   0.331 -0.0962 -0.5840 -3.1948
 6866WAT     H228171   3.081   3.534   0.331  0.0108 -0.1802  2.8658
 6866WAT    EPW28172   3.004   3.540   0.317 -0.3574  0.2235  0.2676
 6867WAT      O28173   2.462   4.422   7.439 -0.1150 -0.5441  0.4541
 6867WAT     H128174   2.488   4.457   7.515  0.1358  0.0349  0.1050
 6867WAT     H228175   2.420   4.349   7.464 -1.4565  0.4474  1.2695
 6867WAT    EPW28176   2.459   4.416   7.454  0.7995  0.3347 -0.4184
 6868WAT      O28177   3.928   4.150   6.246 -0.0097 -0.0585 -0.1337
 6868WAT     H128178   3.937   4.194   6.171 -1.3922  0.3629 -0.0859
 6868WAT     H228179   3.845   4.165   6.268  0.0610 -1.0895  0.9136
 6868WAT    EPW28180   3.917   4.158   6.238 -0.3116  0.2370 -0.6437
 6869WAT      O28181   4.590   4.925   6.920 -0.6005  0.6470  0.1265
 6869WAT     H128182   4.517   4.908   6.966  0.3684 -1.7704  0.9466
 6869WAT     H228183   4.638   4.973   6.975  0.4334 -1.9914  1.7392
 6869WAT    EPW28184   4.586   4.930   6.935  0.4149  0.0489 -0.4949
 6870WAT      O28185   2.543   3.821   7.960  0.4529 -0.1452 -0.1562
 6870WAT     H128186   2.527   3.901   7.991 -0.5453 -0.6659  0.7491
 6870WAT     H228187   2.629   3.811   7.970  0.4014  0.3509  0.9025
 6870WAT    EPW28188   2.553   3.831   7.966  0.2273  0.6982 -0.2810
 6871WAT      O28189   3.455   2.132   5.601 -0.3561  0.0985  0.4883
 6871WAT     H128190   3.384   2.149   5.553 -0.1813  0.4807  0.3636
 6871WAT     H228191   3.454   2.045   5.609 -0.9870  0.1152  0.7089
 6871WAT    EPW28192   3.444   2.122   5.595  0.1116 -0.0332  0.5248
 6872WAT      O28193   3.032   2.728   0.128 -0.0680 -0.0829 -0.6385
 6872WAT     H128194   2.992   2.794   0.169 -1.9650 -1.4261 -0.2002
 6872WAT     H228195   2.967   2.673   0.109  1.2503 -1.1804 -2.2695
 6872WAT    EPW28196   3.017   2.730   0.131  0.8160 -0.1963  0.0800
 6873WAT      O28197   3.874   3.812   7.529 -0.1988  0.0165 -0.1961
 6873WAT     H128198   3.955   3.838   7.508 -0.5222  0.3351 -1.1368
 6873WAT     H228199   3.827   3.884   7.520 -0.3881  0.1755  1.7358
 6873WAT    EPW28200   3.879   3.826   7.524 -0.2578  0.1930 -0.2045
 6874WAT      O28201   5.068   3.792   6.393  0.0514  0.2069  0.5785
 6874WAT     H128202   5.098   3.872   6.411  0.0601 -0.2392  2.9443
 6874WAT     H228203   5.008   3.779   6.455 -1.6757 -0.7482 -1.1946
 6874WAT    EPW28204   5.064   3.802   6.405  0.1666  0.5912 -0.2234
 6875WAT      O28205   3.149   4.408   7.250 -0.1056  0.3756  0.2295
 6875WAT     H128206   3.149   4.321   7.252 -0.1691  0.3831  0.9510
 6875WAT     H228207   3.185   4.427   7.173 -2.8299 -0.2962 -1.3225
 6875WAT    EPW28208   3.154   4.398   7.239 -0.2119  0.9707 -1.0864
 6876WAT      O28209   2.874   4.080   7.667 -0.4201  0.4164  0.0677
 6876WAT     H128210   2.908   4.028   7.728  0.0303 -0.4361 -0.8701
 6876WAT     H228211   2.789   4.060   7.669 -0.1027 -1.3120 -1.0842
 6876WAT    EPW28212   2.866   4.069   7.676  0.4819  0.2509  0.4404
 6877WAT      O28213   4.367   4.408   7.526 -0.4534 -0.3668 -0.3541
 6877WAT     H128214   4.450   4.416   7.552  0.3617 -2.6900 -1.9226
 6877WAT     H228215   4.337   4.490   7.528  2.1263  0.6881 -0.5299
 6877WAT    EPW28216   4.375   4.421   7.530 -0.1752 -0.3753 -0.7571
 6878WAT      O28217   3.808   4.678   6.691 -0.7623  0.1818 -0.3100
 6878WAT     H128218   3.852   4.696   6.617  0.6134  2.0593  0.8560
 6878WAT     H228219   3.872   4.663   6.748 -1.7389  0.3714  0.8597
 6878WAT    EPW28220   3.824   4.679   6.688 -0.0063 -0.8384 -0.0346
 6879WAT      O28221   3.332   4.382   6.071  0.5462 -0.2513 -0.9746
 6879WAT     H128222   3.318   4.431   6.141  0.0281  2.0151 -2.5541
 6879WAT     H228223   3.376   4.313   6.102 -1.0210 -0.1279  1.7639
 6879WAT    EPW28224   3.336   4.379   6.086 -0.3727  0.0512  0.7820
 6880WAT      O28225   5.051   3.094   1.634  0.6288  0.2554  0.4013
 6880WAT     H128226   5.003   3.103   1.562  4.7069  0.4831 -2.6729
 6880WAT     H228227   5.075   3.176   1.653  1.7004 -0.0289  0.3322
 6880WAT    EPW28228   5.048   3.108   1.626 -0.1830  0.3147 -0.7327
 6881WAT      O28229   3.578   3.031   5.881 -0.0374 -0.1375  0.0959
 6881WAT     H128230   3.646   3.003   5.928 -1.0163 -0.6000  1.2861
 6881WAT     H228231   3.580   2.978   5.811  0.8263 -0.1280  0.0975
 6881WAT    EPW28232   3.589   3.019   5.877  0.6776 -0.5099 -0.2281
 6882WAT      O28233   2.281   1.795   0.149 -0.1840 -0.4539  0.7735
 6882WAT     H128234   2.255   1.712   0.148  1.8890 -1.1832  1.9568
 6882WAT     H228235   2.243   1.827   0.220 -1.8205 -0.0325 -0.2332
 6882WAT    EPW28236   2.271   1.787   0.159  0.4928  0.3145  0.4317
 6883WAT      O28237   4.583   6.526   0.719 -0.1454  0.4602 -0.2304
 6883WAT     H128238   4.550   6.452   0.752  0.9166 -0.0043 -0.1621
 6883WAT     H228239   4.624   6.499   0.647  1.4008  0.7493  0.5083
 6883WAT    EPW28240   4.584   6.511   0.713 -0.8292 -0.8114 -0.4008
 6884WAT      O28241   4.753   5.809   7.953  0.3922  0.8627  0.4588
 6884WAT     H128242   4.696   5.760   7.909  0.5137  2.3906 -1.5806
 6884WAT     H228243   4.829   5.769   7.940  0.0489 -0.3643  1.9406
 6884WAT    EPW28244   4.756   5.796   7.944 -0.0013 -0.8703  0.4425
 6885WAT      O28245   3.534   3.570   1.038  0.0821  0.2519  0.3563
 6885WAT     H128246   3.527   3.498   1.087 -1.0131 -0.3517 -0.6251
 6885WAT     H228247   3.453   3.601   1.036  0.7494  2.2200  1.7233
 6885WAT    EPW28248   3.521   3.564   1.045 -0.3429  0.4284  0.8079
 6886WAT      O28249   4.088   4.928   7.148 -0.0620 -0.0788 -0.5648
 6886WAT     H128250   4.099   4.944   7.233 -0.8589  0.4727 -0.5530
 6886WAT     H228251   4.082   5.008   7.113  1.9295 -0.2278 -1.3998
 6886WAT    EPW28252   4.089   4.943   7.155  0.5157  0.4397 -0.3491
 6887WAT      O28253   3.919   5.458   7.789 -0.5956  0.1362 -0.2221
 6887WAT     H128254   3.920   5.513   7.856 -0.0455 -0.2352  0.0806
 6887WAT     H228255   4.003   5.440   7.775 -0.7532 -0.4826 -0.4350
 6887WAT    EPW28256   3.931   5.463   7.797 -0.3163  0.0696 -0.2954
 6888WAT      O28257   2.953   3.483   0.703 -0.5783 -0.0245  0.5026
 6888WAT     H128258   2.940   3.566   0.680 -2.1089  0.1545  1.8497
 6888WAT     H228259   2.880   3.443   0.675 -0.3067 -0.7300  0.7785
 6888WAT    EPW28260   2.940   3.489   0.695  0.1214 -0.3546 -0.0625
 6889WAT      O28261   2.658   3.595   5.110 -0.3054  0.3804 -0.2639
 6889WAT     H128262   2.719   3.546   5.148 -1.1332  1.4219  2.7170
 6889WAT     H228263   2.700   3.669   5.091 -0.2715  0.5338  0.3869
 6889WAT    EPW28264   2.673   3.599   5.113  0.4436  0.3615  0.0258
 6890WAT      O28265   3.650   4.155   6.306  0.4199  0.2996  0.3171
 6890WAT     H128266   3.650   4.078   6.347  2.2986 -1.6455 -2.9050
 6890WAT     H228267   3.579   4.150   6.255  0.3623  0.8924  0.3374
 6890WAT    EPW28268   3.639   4.143   6.305  0.8199  0.0221 -0.4568
 6891WAT      O28269   4.819   3.585   0.226  0.2303  1.2086 -0.4129
 6891WAT     H128270   4.874   3.650   0.206  1.4970 -0.4291 -2.8127
 6891WAT     H228271   4.837   3.568   0.310  1.5268  2.4293 -0.4004
 6891WAT    EPW28272   4.830   3.592   0.236  0.2663 -0.7977 -0.4780
 6892WAT      O28273   5.290   5.015   7.418 -0.3937 -0.0649 -0.4054
 6892WAT     H128274   5.245   4.941   7.426 -0.6037  0.2079  1.4013
 6892WAT     H228275   5.266   5.061   7.488  0.7368  1.1687 -0.7891
 6892WAT    EPW28276   5.280   5.011   7.429  0.6625  0.2878 -0.5856
 6893WAT      O28277   3.476   3.893   1.488 -0.1622  0.4203 -0.6341
 6893WAT     H128278   3.525   3.830   1.525 -0.1122  0.4809 -0.5969
 6893WAT     H228279   3.408   3.849   1.456  0.3587  0.2195 -1.4814
 6893WAT    EPW28280   3.473   3.877   1.489 -0.0716 -0.0086 -0.0820
 6894WAT      O28281   3.758   4.299   7.869  0.0090  0.2782 -0.4021
 6894WAT     H128282   3.816   4.272   7.928  0.3403 -1.2905 -1.3939
 6894WAT     H228283   3.696   4.338   7.916 -0.3256 -1.9394  1.1274
 6894WAT    EPW28284   3.757   4.301   7.884  0.6984  0.1375  0.4453
 6895WAT      O28285   3.381   4.092   7.052  0.1537  0.1846  0.4398
 6895WAT     H128286   3.359   4.010   7.029  2.9247  0.0070 -2.2176
 6895WAT     H228287   3.394   4.132   6.976  0.1072  2.8037  1.6917
 6895WAT    EPW28288   3.380   4.086   7.038 -0.2070  0.7597  0.8178
 6896WAT      O28289   5.660   4.854   6.986  0.0335  0.2400 -0.1185
 6896WAT     H128290   5.714   4.832   6.922 -0.0927 -0.4120 -0.0060
 6896WAT     H228291   5.713   4.891   7.046  0.4074 -0.6715  0.1243
 6896WAT    EPW28292   5.676   4.856   6.986 -0.5852  0.0922 -0.3119
 6897WAT      O28293   4.280   4.203   7.765 -1.1793  0.2609 -0.5476
 6897WAT     H128294   4.260   4.249   7.837  2.0475 -0.9325  1.3414
 6897WAT     H228295   4.307   4.265   7.709 -0.1078  1.0027  0.7183
 6897WAT    EPW28296   4.281   4.219   7.767 -0.2785  0.5423  0.0087
 6898WAT      O28297   3.487   3.664  -0.003 -0.2511 -0.2205  0.5443
 6898WAT     H128298   3.571   3.640  -0.003 -0.5460 -1.2891  0.4665
 6898WAT     H228299   3.457   3.630   0.072 -0.6513  0.0205  0.4924
 6898WAT    EPW28300   3.495   3.655   0.008 -0.1384 -0.2839  0.7057
 6899WAT      O28301   3.805   3.231   6.535  0.4358 -0.0202  0.3446
 6899WAT     H128302   3.746   3.202   6.593 -0.5487 -0.4437 -0.8424
 6899WAT     H228303   3.838   3.159   6.500  0.5006  0.2442 -0.1495
 6899WAT    EPW28304   3.801   3.216   6.539 -0.4288  0.5269 -1.0372
 6900WAT      O28305   4.165   4.219   1.001  0.2775  0.2938 -0.1027
 6900WAT     H128306   4.197   4.147   1.039  0.0980  0.2317 -0.0715
 6900WAT     H228307   4.191   4.212   0.918  0.6076  0.3924 -0.0107
 6900WAT    EPW28308   4.174   4.207   0.994 -0.6555  0.5505 -0.4201
 6901WAT      O28309   3.667   4.388   6.921 -0.1277  0.5092 -0.2873
 6901WAT     H128310   3.605   4.360   6.866  0.3331  0.2553 -0.6881
 6901WAT     H228311   3.698   4.314   6.956  0.6456  0.5563 -0.8591
 6901WAT    EPW28312   3.662   4.373   6.918  0.1403  0.6142 -0.3066
 6902WAT      O28313   2.783   3.194   7.130 -0.1250 -0.0800 -0.4505
 6902WAT     H128314   2.710   3.211   7.084 -0.1555  0.1966 -0.3003
 6902WAT     H228315   2.765   3.118   7.168 -0.3022 -0.0566 -0.4853
 6902WAT    EPW28316   2.769   3.185   7.129 -0.5575  0.4319  0.6572
 6903WAT      O28317   4.904   4.421   0.130  0.6833  0.0626 -0.1038
 6903WAT     H128318   4.899   4.398   0.214  0.3172  0.6865  0.0566
 6903WAT     H228319   4.851   4.365   0.089  0.5671 -0.0051  0.1401
 6903WAT    EPW28320   4.896   4.410   0.136 -0.7561 -0.5708 -0.6459
 6904WAT      O28321   2.325   4.750   0.095  0.4171 -0.0952 -0.4248
 6904WAT     H128322   2.311   4.744   0.009  0.3305 -0.0996 -0.4109
 6904WAT     H228323   2.409   4.770   0.101  0.5048 -0.4229 -0.5031
 6904WAT    EPW28324   2.335   4.752   0.083  0.4166  0.8483 -0.9741
 6905WAT      O28325   3.783   3.614   8.021  0.2363  0.4514  0.1746
 6905WAT     H128326   3.864   3.622   8.052  0.6759  3.0063 -1.4003
 6905WAT     H228327   3.791   3.554   7.957  0.8182  0.4719  0.2294
 6905WAT    EPW28328   3.796   3.606   8.016  0.6859 -0.9517  0.6483
 6906WAT      O28329   4.779   1.812   6.419 -0.0850  0.0870  0.1538
 6906WAT     H128330   4.749   1.842   6.495  0.1598  0.2149  0.2001
 6906WAT     H228331   4.793   1.727   6.434  0.4873  0.2210  0.4194
 6906WAT    EPW28332   4.777   1.804   6.432  0.5968  0.1836  0.5600
 6907WAT      O28333   3.764   3.827   0.500  0.0755 -0.5248 -0.5240
 6907WAT     H128334   3.713   3.882   0.546 -1.2471 -1.7615 -0.4466
 6907WAT     H228335   3.708   3.790   0.444  1.1240 -1.1474 -1.1818
 6907WAT    EPW28336   3.748   3.830   0.499 -0.3794 -0.5114  0.3187
 6908WAT      O28337   2.696   3.806   0.523 -0.4587 -0.1843 -0.0143
 6908WAT     H128338   2.630   3.751   0.541  0.2537 -0.8851  0.5086
 6908WAT     H228339   2.656   3.881   0.507 -1.4894 -0.8999 -0.9753
 6908WAT    EPW28340   2.680   3.809   0.523 -0.5993  0.1023  0.1701
 6909WAT      O28341   4.204   3.741   7.687  0.4140 -0.2673  0.1957
 6909WAT     H128342   4.208   3.737   7.600 -0.0641  0.6601  0.1170
 6909WAT     H228343   4.186   3.659   7.711 -0.8995 -0.2681 -0.6783
 6909WAT    EPW28344   4.202   3.728   7.678 -0.0705  0.0377  0.1676
 6910WAT      O28345   2.828   3.843   6.782  0.4670 -0.1983 -0.1660
 6910WAT     H128346   2.802   3.760   6.785  0.8682 -0.3000  1.7491
 6910WAT     H228347   2.799   3.871   6.704 -1.1170 -1.6405 -0.1511
 6910WAT    EPW28348   2.820   3.835   6.771 -0.0772  0.1476 -0.0362
 6911WAT      O28349   4.642   4.526   7.854  0.4034 -0.4029  0.2902
 6911WAT     H128350   4.687   4.575   7.797  3.4995 -1.9171  1.2412
 6911WAT     H228351   4.617   4.583   7.915  0.2994  0.6249 -0.6859
 6911WAT    EPW28352   4.645   4.542   7.855 -0.1381 -0.6899 -0.1484
 6912WAT      O28353   3.287   3.836   7.992  0.0460  0.5799  0.2468
 6912WAT     H128354   3.257   3.826   8.073 -1.2853 -1.7501 -0.4321
 6912WAT     H228355   3.352   3.778   7.987 -2.2488 -2.0817 -1.3240
 6912WAT    EPW28356   3.292   3.826   8.003  0.1901 -0.2167  0.7005
 6913WAT      O28357   4.104   6.118   0.482  0.2318 -0.4442  0.0892
 6913WAT     H128358   4.075   6.112   0.564 -0.3147  0.7144  0.0052
 6913WAT     H228359   4.056   6.059   0.439  0.8142 -1.3611  0.6534
 6913WAT    EPW28360   4.092   6.108   0.488 -0.1721 -0.2599 -0.6955
 6914WAT      O28361   3.294   3.761   0.282 -0.3526 -0.0823  0.2267
 6914WAT     H128362   3.271   3.677   0.285 -1.5019  0.1430 -1.1787
 6914WAT     H228363   3.259   3.795   0.354 -0.6687 -0.6374  0.3371
 6914WAT    EPW28364   3.285   3.754   0.293 -0.2603 -1.1449 -1.2475
 6915WAT      O28365   3.680   3.296   5.883  0.3368  0.3489  0.4368
 6915WAT     H128366   3.629   3.230   5.858  0.5982  0.4611 -0.3966
 6915WAT     H228367   3.644   3.366   5.846  0.5912  0.5540  0.5709
 6915WAT    EPW28368   3.667   3.297   5.874  0.4412 -0.4697  0.2208
 6916WAT      O28369   5.149   4.942   5.336  0.8270  0.1762 -0.1037
 6916WAT     H128370   5.107   4.987   5.398  0.3412  0.8288 -0.8967
 6916WAT     H228371   5.089   4.889   5.304 -0.1369  2.6141 -2.7489
 6916WAT    EPW28372   5.134   4.941   5.341 -0.3326 -0.2568  0.4327
 6917WAT      O28373   3.751   3.994   5.086  0.0209  0.1842  0.0586
 6917WAT     H128374   3.696   4.054   5.055  0.5963  0.5119 -0.3462
 6917WAT     H228375   3.802   4.038   5.141  0.7022  0.1732 -0.5367
 6917WAT    EPW28376   3.751   4.010   5.089 -0.2314 -0.2257 -0.5581
 6918WAT      O28377   4.136   4.978   6.425  0.3864  0.2830 -0.3642
 6918WAT     H128378   4.218   4.993   6.450  1.5321 -1.2445 -2.8785
 6918WAT     H228379   4.120   5.042   6.368 -0.6106  1.1917  0.8814
 6918WAT    EPW28380   4.146   4.990   6.420 -0.2147  0.0608 -0.8500
 6919WAT      O28381   4.258   1.928   6.675  0.0189  0.3953 -0.3829
 6919WAT     H128382   4.232   1.906   6.755 -2.2668  0.0743 -1.1288
 6919WAT     H228383   4.244   1.855   6.629  0.9715  0.6853 -1.1634
 6919WAT    EPW28384   4.252   1.914   6.680  0.2066  0.3394 -0.2038
 6920WAT      O28385   3.351   3.278   5.716  0.2716  0.9726 -0.0056
 6920WAT     H128386   3.315   3.199   5.714 -0.4585  1.3067 -2.2476
 6920WAT     H228387   3.423   3.269   5.668  0.4259  1.5771  0.1048
 6920WAT    EPW28388   3.356   3.265   5.709 -0.4896  0.4860  0.1787
 6921WAT      O28389   3.825   4.501   5.714 -0.0752 -0.2039 -0.2228
 6921WAT     H128390   3.751   4.499   5.667 -0.1900 -2.2682 -0.0801
 6921WAT     H228391   3.881   4.544   5.663 -0.8260 -0.4054 -1.2632
 6921WAT    EPW28392   3.822   4.507   5.699 -0.0570  0.1771 -0.2197
 6922WAT      O28393   4.937   3.330   0.315  0.7541 -0.8087 -0.2490
 6922WAT     H128394   4.937   3.352   0.231  0.5365 -2.9269 -0.8658
 6922WAT     H228395   4.855   3.347   0.341  1.0685  0.7549 -0.1376
 6922WAT    EPW28396   4.925   3.336   0.307  0.0722 -0.2429 -0.4557
 6923WAT      O28397   5.013   4.554   7.353 -0.2215 -0.8168  0.9213
 6923WAT     H128398   4.989   4.581   7.274  0.0955 -0.8306  0.8220
 6923WAT     H228399   4.943   4.511   7.382 -1.6249  1.9197  1.9539
 6923WAT    EPW28400   4.999   4.552   7.346  0.6266 -1.2617 -0.0539
 6924WAT      O28401   2.705   4.267   5.896  0.4976 -0.0886 -0.1780
 6924WAT     H128402   2.688   4.293   5.814 -1.3408  0.1368  0.2350
 6924WAT     H228403   2.666   4.190   5.902 -1.4118  0.9090  1.1440
 6924WAT    EPW28404   2.697   4.260   5.885 -0.5646 -0.2321  1.1038
 6925WAT      O28405   3.251   4.064   5.880  0.4083 -0.0650 -0.5007
 6925WAT     H128406   3.333   4.085   5.860  0.2791 -0.6928 -1.8153
 6925WAT     H228407   3.243   4.089   5.963  1.9417 -0.0269 -0.3317
 6925WAT    EPW28408   3.262   4.071   5.889 -0.7235 -0.2615  0.0606
 6926WAT      O28409   4.082   4.591   4.979 -0.0521  0.5729  0.0667
 6926WAT     H128410   4.055   4.564   4.900 -0.3943 -1.0701  0.6934
 6926WAT     H228411   4.051   4.529   5.033  2.1838  0.3654  1.2209
 6926WAT    EPW28412   4.073   4.578   4.975 -0.1000 -0.5226  0.7053
 6927WAT      O28413   1.742   1.876   6.746 -0.4574  0.2649 -0.0534
 6927WAT     H128414   1.827   1.880   6.767 -0.5802 -0.8797  0.6941
 6927WAT     H228415   1.704   1.929   6.803 -0.1606  1.6167 -1.0479
 6927WAT    EPW28416   1.749   1.885   6.757  0.8917  0.3662  0.1396
 6928WAT      O28417   5.449   3.182   0.817  0.8217 -0.0153 -0.4919
 6928WAT     H128418   5.368   3.171   0.847  0.8642  0.8481  0.0142
 6928WAT     H228419   5.445   3.156   0.735 -0.3718  1.4010 -0.9394
 6928WAT    EPW28420   5.436   3.177   0.810  0.1989 -0.7025  0.2564
 6929WAT      O28421   4.804   4.492   4.645  0.1812 -0.2987 -0.0362
 6929WAT     H128422   4.748   4.557   4.627 -0.1685 -0.8212 -0.8993
 6929WAT     H228423   4.878   4.518   4.607  0.5332  0.3793  1.0805
 6929WAT    EPW28424   4.807   4.505   4.637  0.7366 -0.1372  0.1166
 6930WAT      O28425   4.162   5.566   6.239 -0.3175  0.1412  0.4508
 6930WAT     H128426   4.160   5.527   6.161 -0.4083  0.2884  0.3797
 6930WAT     H228427   4.182   5.502   6.294 -0.3053  0.0273  0.3124
 6930WAT    EPW28428   4.165   5.551   6.235 -0.6183  0.6094  0.4316
 6931WAT      O28429   4.343   2.076   7.158 -0.6106  0.7514  0.3431
 6931WAT     H128430   4.296   2.124   7.214 -0.5716  0.0169  1.0206
 6931WAT     H228431   4.424   2.104   7.169 -0.3646 -0.3964  1.7739
 6931WAT    EPW28432   4.348   2.087   7.168  0.8163 -0.0229 -0.3119
 6932WAT      O28433   3.376   4.461   5.380  0.3600 -0.3332  0.4193
 6932WAT     H128434   3.328   4.527   5.410 -1.1772 -0.9379 -0.5418
 6932WAT     H228435   3.391   4.482   5.297  0.4580 -0.8477  0.2997
 6932WAT    EPW28436   3.371   4.474   5.372 -0.1762  0.5259 -0.8642
 6933WAT      O28437   3.857   1.862   7.826  0.1149 -0.2964  0.2188
 6933WAT     H128438   3.925   1.874   7.880  1.0011 -1.7266 -0.5372
 6933WAT     H228439   3.874   1.786   7.788 -1.0852  0.1164 -1.2274
 6933WAT    EPW28440   3.870   1.853   7.828  0.0263  0.5274  0.4308
 6934WAT      O28441   3.620   4.181   4.942 -0.1579  0.1831 -0.0567
 6934WAT     H128442   3.594   4.217   4.867 -2.8684  1.8086  1.5163
 6934WAT     H228443   3.692   4.226   4.962 -0.4550  1.0094 -0.7870
 6934WAT    EPW28444   3.627   4.193   4.934  0.2523 -0.0262 -0.2310
 6935WAT      O28445   4.324   4.770   5.252  0.1710 -0.0439  0.8887
 6935WAT     H128446   4.279   4.800   5.321  0.6343  0.9527  0.7755
 6935WAT     H228447   4.381   4.714   5.286 -0.6130 -0.7117  1.1280
 6935WAT    EPW28448   4.325   4.767   5.267  0.0936  0.8838  0.0484
 6936WAT      O28449   3.885   4.727   5.873 -0.0465  0.4529 -0.5353
 6936WAT     H128450   3.884   4.649   5.834 -1.8986 -0.3606  0.9303
 6936WAT     H228451   3.903   4.783   5.809  0.8958 -1.1456 -1.7060
 6936WAT    EPW28452   3.887   4.724   5.858  0.2729  0.0196 -0.8469
 6937WAT      O28453   4.037   2.535   7.488 -0.4348  0.1099 -0.4778
 6937WAT     H128454   3.999   2.489   7.425 -0.5576 -0.3722 -0.0581
 6937WAT     H228455   4.048   2.614   7.452 -3.4610  0.8512 -0.0896
 6937WAT    EPW28456   4.033   2.540   7.473 -0.4755  0.2859 -0.4381
 6938WAT      O28457   2.540   3.475   7.769  0.4313 -0.0161  0.3994
 6938WAT     H128458   2.571   3.400   7.738  0.4425 -0.0271  0.4390
 6938WAT     H228459   2.470   3.452   7.815  1.0567 -0.1136  1.3277
 6938WAT    EPW28460   2.534   3.461   7.771 -0.1265  0.4968 -0.1279
 6939WAT      O28461   4.278   6.026   7.716 -0.2261 -0.1184 -0.4097
 6939WAT     H128462   4.306   5.960   7.766 -0.5638  0.4877  0.5884
 6939WAT     H228463   4.193   6.031   7.734 -0.3466  0.1485 -1.0168
 6939WAT    EPW28464   4.270   6.017   7.726 -0.3336  0.0769 -0.1924
 6940WAT      O28465   3.827   3.986   4.772  0.2321 -0.7210  0.4695
 6940WAT     H128466   3.779   4.046   4.813 -2.4088 -0.1488 -2.9732
 6940WAT     H228467   3.890   4.033   4.733 -0.4375 -0.4650 -0.3324
 6940WAT    EPW28468   3.830   4.002   4.772  0.4041 -0.0437 -0.0771
 6941WAT      O28469   3.271   3.308   6.709 -0.2736 -0.7115 -0.3260
 6941WAT     H128470   3.279   3.388   6.673 -0.1642 -0.1605  0.8875
 6941WAT     H228471   3.204   3.272   6.664 -2.0928  1.0416  0.8042
 6941WAT    EPW28472   3.262   3.315   6.697  0.1402  0.2855 -1.1059
 6942WAT      O28473   4.237   4.079   6.088  0.4053  0.4350 -0.0381
 6942WAT     H128474   4.163   4.057   6.047  0.7222 -1.3296  0.2310
 6942WAT     H228475   4.298   4.032   6.048  1.2289  1.0932  0.4033
 6942WAT    EPW28476   4.235   4.069   6.076  0.0405 -0.9177  0.1589
 6943WAT      O28477   4.320   4.269   5.433 -0.1906 -0.9043  0.0624
 6943WAT     H128478   4.274   4.323   5.383 -0.7204  0.5085  1.9834
 6943WAT     H228479   4.402   4.296   5.423 -0.5153  0.8399  1.5516
 6943WAT    EPW28480   4.325   4.281   5.424 -0.7993 -0.5132  0.9630
 6944WAT      O28481   4.194   4.470   5.300  0.2594 -0.0729 -0.3897
 6944WAT     H128482   4.172   4.550   5.325 -1.9200 -0.8669  0.5299
 6944WAT     H228483   4.127   4.446   5.249  0.7690 -1.3793 -0.4888
 6944WAT    EPW28484   4.181   4.478   5.296 -0.6157  0.1049  0.2608
 6945WAT      O28485   3.720   4.463   7.366  0.3987  0.5201 -0.1322
 6945WAT     H128486   3.690   4.516   7.303 -1.9281 -0.5652 -0.0326
 6945WAT     H228487   3.780   4.512   7.407 -2.0386  3.3599  0.3593
 6945WAT    EPW28488   3.725   4.478   7.363  0.5114 -0.0005  0.0881
 6946WAT      O28489   3.032   2.063   6.075  0.6245  0.2720 -0.0474
 6946WAT     H128490   3.027   2.142   6.110  1.9133  1.0734 -1.5761
 6946WAT     H228491   2.950   2.046   6.049  0.2634  0.9034  0.6672
 6946WAT    EPW28492   3.019   2.072   6.076 -0.0690 -0.1830  0.3142
 6947WAT      O28493   3.525   1.407   4.774 -0.0342  0.3231 -0.2605
 6947WAT     H128494   3.457   1.443   4.732  0.2679  0.8587 -0.2996
 6947WAT     H228495   3.567   1.476   4.808  0.4830 -0.0069 -0.2217
 6947WAT    EPW28496   3.521   1.422   4.773 -0.6425  0.5570  0.4609
 6948WAT      O28497   3.480   2.550   5.523 -0.3593 -0.2089 -0.5497
 6948WAT     H128498   3.458   2.512   5.598  0.3095 -0.9813 -0.7307
 6948WAT     H228499   3.515   2.626   5.548 -1.5890  0.2633 -0.1832
 6948WAT    EPW28500   3.482   2.556   5.538 -0.5814 -0.4703  0.2491
 6949WAT      O28501   3.689   3.960   6.538 -0.1634  0.0315 -0.6398
 6949WAT     H128502   3.660   3.995   6.613 -0.8085  0.2238 -0.9686
 6949WAT     H228503   3.766   3.998   6.527 -0.3348  0.4713 -0.3795
 6949WAT    EPW28504   3.696   3.971   6.548  0.0035  0.1133 -0.1400
 6950WAT      O28505   4.469   3.337   5.869 -0.1762  0.3112  0.4102
 6950WAT     H128506   4.553   3.359   5.875  0.6738 -2.7013  0.8675
 6950WAT     H228507   4.459   3.317   5.785  0.1697 -1.2581  0.7083
 6950WAT    EPW28508   4.480   3.337   5.858  0.0916 -0.0262  0.0974
 6951WAT      O28509   2.745   3.496   6.477  0.1633  0.3798 -0.1289
 6951WAT     H128510   2.664   3.500   6.442  0.2692  2.1680 -0.2867
 6951WAT     H228511   2.792   3.457   6.414 -0.3125  0.5975 -0.6360
 6951WAT    EPW28512   2.740   3.491   6.462 -0.0586 -0.6031 -0.4245
 6952WAT      O28513   4.933   4.670   7.039 -0.4724 -0.3218  0.2771
 6952WAT     H128514   4.963   4.648   6.961  0.3182  1.1018  0.1428
 6952WAT     H228515   4.847   4.678   7.027 -0.1289  2.2550 -1.1259
 6952WAT    EPW28516   4.924   4.668   7.026 -0.1476 -0.2034  0.6043
 6953WAT      O28517   4.357   4.170   5.049  0.4307 -0.0288  0.0032
 6953WAT     H128518   4.294   4.160   5.110 -1.0007 -0.2832 -1.4521
 6953WAT     H228519   4.393   4.246   5.070 -1.7151  1.1425 -0.2168
 6953WAT    EPW28520   4.353   4.180   5.061  0.6457 -0.4335  0.0621
 6954WAT      O28521   2.919   4.640   5.995  0.3031  0.1440 -0.2577
 6954WAT     H128522   2.942   4.669   5.916  0.8218 -0.5889 -0.3877
 6954WAT     H228523   2.970   4.570   6.007 -0.1646 -0.0853  0.4881
 6954WAT    EPW28524   2.930   4.634   5.985 -0.2323  0.4065  0.0090
 6955WAT      O28525   2.285   2.964   6.189 -0.2415 -0.1788  0.2478
 6955WAT     H128526   2.313   2.987   6.268 -0.4142 -0.1753  0.3078
 6955WAT     H228527   2.280   2.877   6.193 -0.8153 -0.1438  0.4334
 6955WAT    EPW28528   2.288   2.954   6.201 -0.2075 -0.1007 -0.1091
 6956WAT      O28529   6.319   4.690   7.801 -0.3935 -0.1163 -0.2817
 6956WAT     H128530   6.288   4.766   7.830 -1.0210 -0.6293  0.4198
 6956WAT     H228531   6.265   4.669   7.736 -0.3575 -0.0755 -0.3254
 6956WAT    EPW28532   6.307   4.698   7.796  0.0894  0.9105  0.4151
 6957WAT      O28533   4.264   3.710   5.389  0.6741 -0.1608  0.4702
 6957WAT     H128534   4.285   3.730   5.307  1.0323 -0.6178  0.4505
 6957WAT     H228535   4.212   3.776   5.413  0.3778 -0.1478 -0.1988
 6957WAT    EPW28536   4.259   3.723   5.381 -0.4109 -0.1207 -0.3600
 6958WAT      O28537   5.808   3.572   6.506 -0.5122  0.2270  0.0065
 6958WAT     H128538   5.850   3.578   6.582 -1.9526 -2.3833  1.1264
 6958WAT     H228539   5.857   3.516   6.460 -0.3238  0.8207 -0.5335
 6958WAT    EPW28540   5.822   3.565   6.510  0.2490 -0.1230 -0.0478
 6959WAT      O28541   3.148   4.288   5.439 -0.1596 -0.3696  0.3286
 6959WAT     H128542   3.228   4.310   5.414  0.8509 -3.6189  0.2192
 6959WAT     H228543   3.099   4.355   5.414  2.5510  2.0773  1.0281
 6959WAT    EPW28544   3.152   4.301   5.432  0.2424 -0.0197  0.6190
 6960WAT      O28545   3.865   3.529   7.568 -0.1163  0.6436  0.2051
 6960WAT     H128546   3.794   3.522   7.517 -0.8354 -0.1591  1.2691
 6960WAT     H228547   3.889   3.612   7.558 -1.4505  1.0429  0.1093
 6960WAT    EPW28548   3.858   3.540   7.559 -0.0554 -0.7795 -0.0582
 6961WAT      O28549   4.620   5.410   6.714 -0.9880  0.3639  0.0297
 6961WAT     H128550   4.609   5.324   6.727  1.2733  0.1021  0.7020
 6961WAT     H228551   4.680   5.431   6.774  1.7356  1.5049 -2.8495
 6961WAT    EPW28552   4.627   5.400   6.725 -0.2553 -0.3597 -0.6130
 6962WAT      O28553   2.310   4.211   7.530 -0.5281 -0.8986 -0.0059
 6962WAT     H128554   2.374   4.161   7.561  1.0046  0.3692 -0.9648
 6962WAT     H228555   2.286   4.260   7.598  0.4130 -0.5069  0.0460
 6962WAT    EPW28556   2.316   4.210   7.545  0.4740 -0.5855  0.8836
 6963WAT      O28557   4.499   3.693   5.526  0.2876 -0.1388 -0.4875
 6963WAT     H128558   4.502   3.636   5.460 -0.2878 -0.5554 -0.1540
 6963WAT     H228559   4.419   3.727   5.521 -0.1836 -1.0219  0.6982
 6963WAT    EPW28560   4.488   3.689   5.515 -0.0843 -0.2545  0.1941
 6964WAT      O28561   2.905   3.061   5.698 -0.1558  0.1313  0.1139
 6964WAT     H128562   2.907   3.143   5.726 -0.3918 -0.0758  0.7589
 6964WAT     H228563   2.854   3.064   5.627 -1.1584  0.3398  0.8283
 6964WAT    EPW28564   2.898   3.073   5.691  1.2324 -0.0131 -0.0819
 6965WAT      O28565   6.790   3.871   4.720 -0.4542  0.0604 -0.3823
 6965WAT     H128566   6.755   3.815   4.776 -1.3095  0.5198 -0.4364
 6965WAT     H228567   6.769   3.949   4.753  1.8855  0.4284  0.4428
 6965WAT    EPW28568   6.782   3.874   4.733 -0.8332  0.5434 -1.1709
 6966WAT      O28569   4.711   1.865   6.095 -0.2262  0.2662 -0.1067
 6966WAT     H128570   4.786   1.820   6.094 -1.5121 -2.1125  0.7616
 6966WAT     H228571   4.699   1.887   6.011  0.3385 -1.3726 -0.6632
 6966WAT    EPW28572   4.720   1.862   6.082 -0.4786 -0.5047 -0.8698
 6967WAT      O28573   4.499   2.532   6.687 -0.1933 -0.1396  0.6554
 6967WAT     H128574   4.479   2.496   6.764 -2.5334 -1.3645 -0.4373
 6967WAT     H228575   4.548   2.472   6.648 -0.4662 -0.2487  0.4888
 6967WAT    EPW28576   4.504   2.518   6.693  0.6344 -0.8138 -0.3214
 6968WAT      O28577   5.245   3.620   6.641 -0.4002  0.0224  0.7364
 6968WAT     H128578   5.214   3.583   6.714  0.2775  0.6129  1.3442
 6968WAT     H228579   5.309   3.672   6.670  0.2630 -0.1551 -0.3409
 6968WAT    EPW28580   5.250   3.622   6.656  0.0784 -0.9999  0.0543
 6969WAT      O28581   3.926   2.517   5.792  0.0544 -0.0439 -0.2265
 6969WAT     H128582   3.879   2.547   5.725 -1.1492 -1.6268 -0.1654
 6969WAT     H228583   3.867   2.502   5.854  1.2805  2.5021  1.7217
 6969WAT    EPW28584   3.910   2.519   5.791 -0.0346  0.5536 -0.0663
 6970WAT      O28585   4.258   3.426   5.383  0.3448  0.1716 -0.3580
 6970WAT     H128586   4.264   3.511   5.368  1.9143  0.2154  0.3579
 6970WAT     H228587   4.174   3.408   5.367 -0.5110  2.2270  1.3835
 6970WAT    EPW28588   4.246   3.436   5.379  0.0725 -0.4388 -0.5374
 6971WAT      O28589   3.636   2.745   5.279  0.3440  0.4967  0.3691
 6971WAT     H128590   3.648   2.743   5.193 -0.1816 -0.9828  0.2998
 6971WAT     H228591   3.703   2.792   5.308  1.5015 -0.4357 -0.7071
 6971WAT    EPW28592   3.648   2.751   5.271  0.4684 -0.4149 -0.4117
 6972WAT      O28593   3.777   2.512   6.474  0.4303  0.1220  0.0364
 6972WAT     H128594   3.721   2.445   6.475  1.3592 -0.6809  1.2192
 6972WAT     H228595   3.805   2.516   6.557  1.2626  1.2311 -0.2775
 6972WAT    EPW28596   3.773   2.503   6.487  0.1981  0.2155 -0.5202
 6973WAT      O28597   4.266   4.349   6.875 -0.0407 -0.3864  1.0874
 6973WAT     H128598   4.325   4.411   6.855 -1.4374  1.0004  1.1089
 6973WAT     H228599   4.275   4.291   6.810  2.8721 -1.4157  2.2287
 6973WAT    EPW28600   4.276   4.350   6.862  0.0123 -0.3214  0.1391
 6974WAT      O28601   3.475   3.792   6.439 -0.1320 -0.0995 -0.1581
 6974WAT     H128602   3.543   3.845   6.452 -0.5228  0.2659  0.4515
 6974WAT     H228603   3.493   3.753   6.363  1.6960 -1.4899  0.9303
 6974WAT    EPW28604   3.488   3.794   6.430 -0.0984 -0.8218  0.4372
 6975WAT      O28605   3.984   4.057   5.794  0.0877 -0.2477 -0.7401
 6975WAT     H128606   4.008   4.096   5.720  0.3277 -0.1001 -0.5870
 6975WAT     H228607   3.978   4.124   5.850 -1.3816 -0.1805 -0.9482
 6975WAT    EPW28608   3.987   4.073   5.791 -0.4719 -0.1005  0.0399
 6976WAT      O28609   4.290   3.187   6.044  0.6754  0.0431 -0.0396
 6976WAT     H128610   4.358   3.232   6.013  0.4603  0.3592 -0.0549
 6976WAT     H228611   4.249   3.244   6.095  1.4182 -0.6775  1.4398
 6976WAT    EPW28612   4.294   3.202   6.047  1.6486 -0.3992 -0.1407
 6977WAT      O28613   5.047   4.437   6.571 -0.2218  0.0383  0.1928
 6977WAT     H128614   5.094   4.387   6.517  0.4202  0.3584  0.4493
 6977WAT     H228615   4.968   4.400   6.570 -0.2311  0.0645 -1.0035
 6977WAT    EPW28616   5.042   4.425   6.563  0.5748 -0.6643 -0.5496
 6978WAT      O28617   5.589   5.294   7.307  0.0909  0.1841  0.2246
 6978WAT     H128618   5.570   5.330   7.384 -0.4639 -2.6995  1.5620
 6978WAT     H228619   5.673   5.315   7.295 -0.0487  1.3826  1.1877
 6978WAT    EPW28620   5.599   5.302   7.317 -1.1083  0.5483 -0.2571
 6979WAT      O28621   3.141   3.849   7.314  0.2291 -0.0549 -0.0801
 6979WAT     H128622   3.056   3.832   7.317  0.1452  0.3918  0.2584
 6979WAT     H228623   3.169   3.831   7.395  0.1651  1.2213  0.2433
 6979WAT    EPW28624   3.133   3.844   7.327 -0.5545 -0.3208  0.0987
 6980WAT      O28625   1.691   2.808   4.500 -0.1607  0.4514 -0.1766
 6980WAT     H128626   1.658   2.869   4.553  0.4580  0.2704  0.4405
 6980WAT     H228627   1.719   2.747   4.556 -0.9095 -0.4669 -0.7971
 6980WAT    EPW28628   1.690   2.808   4.516  0.3521 -0.4723  0.1920
 6981WAT      O28629   4.481   4.502   5.946 -0.0390 -0.3018 -0.1018
 6981WAT     H128630   4.423   4.564   5.925  0.1972  0.4245  1.2523
 6981WAT     H228631   4.481   4.449   5.877 -1.9139 -0.0268 -0.3613
 6981WAT    EPW28632   4.472   4.503   5.933  0.3624 -0.8681  0.8135
 6982WAT      O28633   2.924   3.024   6.275  0.3430  0.4068 -0.3526
 6982WAT     H128634   2.855   3.003   6.323 -0.1165  1.3854 -0.5540
 6982WAT     H228635   2.890   3.075   6.212  1.3906  1.8140  0.1815
 6982WAT    EPW28636   2.909   3.029   6.273 -1.0231 -0.3050  0.2979
 6983WAT      O28637   3.572   3.567   5.838 -0.4873  0.1927  0.4856
 6983WAT     H128638   3.653   3.581   5.866  0.3757 -2.5160 -0.3064
 6983WAT     H228639   3.553   3.640   5.793  1.9124  0.5259 -0.1539
 6983WAT    EPW28640   3.581   3.580   5.835 -0.1239  0.1842 -0.1148
 6984WAT      O28641   4.481   5.887   5.918  0.4444 -0.1717  0.4030
 6984WAT     H128642   4.417   5.845   5.960 -1.3907  1.5510 -0.4871
 6984WAT     H228643   4.499   5.954   5.971  2.0839 -1.0215  0.9811
 6984WAT    EPW28644   4.474   5.891   5.932 -0.5843 -1.4218 -0.3231
 6985WAT      O28645   3.960   4.265   5.984 -0.0619 -0.0630 -0.4774
 6985WAT     H128646   4.018   4.330   5.993 -0.3076 -0.0606  1.5223
 6985WAT     H228647   3.885   4.306   5.969 -0.1750  0.1264  0.5555
 6985WAT    EPW28648   3.957   4.281   5.983 -0.7758 -0.5845 -0.1959
 6986WAT      O28649   2.510   3.426   6.653 -0.2702 -0.1590  0.3084
 6986WAT     H128650   2.497   3.406   6.737  0.8992 -2.8343 -0.0594
 6986WAT     H228651   2.430   3.430   6.620 -0.6797 -2.0144  0.9886
 6986WAT    EPW28652   2.496   3.424   6.661 -0.3621 -0.5694 -0.5669
 6987WAT      O28653   4.761   4.126   5.687 -0.8571 -0.1593  0.2160
 6987WAT     H128654   4.748   4.045   5.717  0.9839 -0.4754  0.3375
 6987WAT     H228655   4.803   4.165   5.753 -1.4984  0.8311  0.0544
 6987WAT    EPW28656   4.766   4.120   5.701  0.9744  1.0879  0.1127
 6988WAT      O28657   4.708   4.608   6.697  0.6052 -0.1077 -0.2388
 6988WAT     H128658   4.646   4.610   6.759  0.4931  1.2826 -0.3626
 6988WAT     H228659   4.761   4.674   6.718  1.1509 -0.2700 -1.0392
 6988WAT    EPW28660   4.707   4.618   6.709 -1.0938 -0.9235  0.7483
 6989WAT      O28661   2.788   3.841   5.348 -0.3538  0.0036 -0.3418
 6989WAT     H128662   2.709   3.806   5.363 -0.1235 -0.3958 -0.0542
 6989WAT     H228663   2.839   3.772   5.334  0.3686  0.1247  1.4831
 6989WAT    EPW28664   2.784   3.826   5.348  0.2891 -0.5536 -0.0141
 6990WAT      O28665   5.258   6.053   5.536 -0.3929  0.0900 -0.1054
 6990WAT     H128666   5.182   6.012   5.535 -0.4020  0.1177 -0.6199
 6990WAT     H228667   5.315   5.993   5.509 -0.1285 -0.1151  0.8521
 6990WAT    EPW28668   5.255   6.038   5.532 -0.3497 -0.3195  0.2119
 6991WAT      O28669   4.656   3.948   6.605 -0.0289 -0.0815  0.0316
 6991WAT     H128670   4.601   3.992   6.554 -0.6105 -2.0279 -1.1293
 6991WAT     H228671   4.605   3.917   6.669  0.1645 -0.0021  0.2269
 6991WAT    EPW28672   4.641   3.950   6.607  0.6232  0.3800  0.1218
 6992WAT      O28673   4.498   3.330   6.227 -0.2726 -0.2124 -0.1072
 6992WAT     H128674   4.476   3.338   6.311 -0.3542 -0.2186 -0.1282
 6992WAT     H228675   4.482   3.409   6.194 -0.5043 -0.2900 -0.1793
 6992WAT    EPW28676   4.493   3.343   6.235  0.3189 -0.4259 -0.5033
 6993WAT      O28677   4.921   4.402   4.965  0.5315 -0.3262  0.2450
 6993WAT     H128678   4.965   4.362   5.029 -0.8157  1.3037  2.3254
 6993WAT     H228679   4.855   4.348   4.947  0.5980 -0.5387  0.6399
 6993WAT    EPW28680   4.918   4.388   4.972 -0.4801  0.2004 -0.3189
 6994WAT      O28681   3.465   3.857   6.028 -0.0730 -0.3390 -0.4802
 6994WAT     H128682   3.479   3.782   6.070  0.3846 -1.3571 -2.3409
 6994WAT     H228683   3.463   3.833   5.944  0.5267  1.7974 -1.1629
 6994WAT    EPW28684   3.467   3.842   6.022  0.0028  0.1106 -0.3593
 6995WAT      O28685   4.343   2.979   6.236 -0.3827 -0.4653 -0.6856
 6995WAT     H128686   4.321   3.005   6.317 -1.0561 -0.8066 -0.7598
 6995WAT     H228687   4.319   3.046   6.186  1.4981  0.4534 -0.4508
 6995WAT    EPW28688   4.336   2.993   6.241  0.5039  0.6321 -0.0305
 6996WAT      O28689   4.715   4.951   6.239 -0.4558 -0.1997  0.3314
 6996WAT     H128690   4.635   4.978   6.217 -0.4187 -1.4491 -1.5715
 6996WAT     H228691   4.735   4.894   6.176  2.0605  0.2986  0.5932
 6996WAT    EPW28692   4.706   4.946   6.226 -0.4797 -0.0659 -0.4870
 6997WAT      O28693   3.828   3.561   5.959  0.1759  0.4355 -0.1405
 6997WAT     H128694   3.911   3.551   5.933  0.3364  1.3338 -0.0169
 6997WAT     H228695   3.819   3.647   5.963 -0.5454  0.3347  0.5711
 6997WAT    EPW28696   3.839   3.572   5.955 -0.4087  0.7433 -0.0064
 6998WAT      O28697   3.444   4.895   6.595 -0.2056 -0.0947  0.2880
 6998WAT     H128698   3.373   4.885   6.645  1.8007 -0.2754  3.3851
 6998WAT     H228699   3.493   4.951   6.640  1.6877  0.0138 -1.7257
 6998WAT    EPW28700   3.440   4.902   6.609 -0.0926 -0.5659 -0.9435
 6999WAT      O28701   5.092   3.868   5.388  0.0551  0.2437 -0.1942
 6999WAT     H128702   5.016   3.828   5.368  0.6130 -1.8370  1.4534
 6999WAT     H228703   5.151   3.823   5.341  0.4243  1.0602 -0.5309
 6999WAT    EPW28704   5.089   3.855   5.378  0.1797  0.6129 -0.3068
 7000WAT      O28705   3.088   4.342   5.703  0.6753  0.4016 -0.1335
 7000WAT     H128706   3.169   4.339   5.736  0.5970 -1.4268  0.0210
 7000WAT     H228707   3.099   4.315   5.620  0.2065 -0.1671 -0.0188
 7000WAT    EPW28708   3.101   4.337   5.695 -0.1558 -0.4515 -0.5615
 7001WAT      O28709   4.051   3.042   6.038 -0.5028 -0.2996  0.2923
 7001WAT     H128710   4.125   3.082   6.016 -0.2594  0.4009  2.2252
 7001WAT     H228711   4.072   2.958   6.039 -0.2610 -0.2752 -1.0033
 7001WAT    EPW28712   4.065   3.036   6.035 -0.4656  0.5347 -0.8834
 7002WAT      O28713   3.620   2.722   7.091  0.2200 -0.8131 -0.0706
 7002WAT     H128714   3.688   2.778   7.089 -0.4002 -0.0686 -0.8549
 7002WAT     H228715   3.557   2.768   7.130 -0.4176 -0.8155 -1.0688
 7002WAT    EPW28716   3.621   2.737   7.097  0.1556  0.5451  1.0780
 7003WAT      O28717   5.233   2.168   7.013  0.3503  0.0995 -0.3509
 7003WAT     H128718   5.273   2.112   6.959  3.6544  1.8884 -0.0503
 7003WAT     H228719   5.262   2.144   7.091  1.1569  1.6538 -0.1420
 7003WAT    EPW28720   5.243   2.156   7.016 -0.0207  0.0127 -0.2911
 7004WAT      O28721   3.098   4.058   6.127  0.3127 -0.3035 -0.3627
 7004WAT     H128722   3.081   3.978   6.156 -1.9428  0.6207  1.2094
 7004WAT     H228723   3.123   4.101   6.199 -1.0340  0.9797 -0.6149
 7004WAT    EPW28724   3.099   4.053   6.142 -0.8787 -0.2420  0.6855
 7005WAT      O28725   2.807   3.983   6.540  0.0596 -0.1525  0.5932
 7005WAT     H128726   2.838   4.061   6.519  1.0032 -0.3318  1.2505
 7005WAT     H228727   2.821   3.935   6.468  0.4239  0.0277  0.5408
 7005WAT    EPW28728   2.814   3.987   6.526  0.6443  0.3203  0.1123
 7006WAT      O28729   3.676   4.346   5.942 -0.0120 -0.3021 -0.2209
 7006WAT     H128730   3.671   4.412   5.885 -0.1419 -1.8793 -2.1874
 7006WAT     H228731   3.675   4.385   6.020  3.2347  2.2255 -1.2360
 7006WAT    EPW28732   3.675   4.361   5.945  0.5832 -0.1805 -1.1002
 7007WAT      O28733   4.391   4.091   5.766 -0.1294  0.6307  0.3355
 7007WAT     H128734   4.319   4.141   5.759 -1.4304 -1.1727  0.2401
 7007WAT     H228735   4.387   4.040   5.695  2.3267  1.7419 -0.7157
 7007WAT    EPW28736   4.380   4.091   5.754  0.1547  0.5511 -0.8136
 7008WAT      O28737   4.096   4.498   6.060 -0.2047 -0.3345  0.2803
 7008WAT     H128738   4.053   4.553   6.112 -1.4659 -0.1818 -0.8790
 7008WAT     H228739   4.163   4.472   6.110  0.4318  2.1753  0.9096
 7008WAT    EPW28740   4.100   4.502   6.075 -1.1507  0.1610 -0.3024
 7009WAT      O28741   3.520   2.618   5.904  0.5876 -0.2121  0.2822
 7009WAT     H128742   3.469   2.548   5.915  2.1402 -1.2271  1.2868
 7009WAT     H228743   3.530   2.649   5.984 -0.6310  1.6355 -0.2126
 7009WAT    EPW28744   3.514   2.612   5.917 -0.0167 -0.5627  0.1178
 7010WAT      O28745   4.326   3.007   6.522 -0.2541 -0.5932  0.2607
 7010WAT     H128746   4.320   2.934   6.568 -0.5390  0.1184  1.3880
 7010WAT     H228747   4.391   3.051   6.561 -1.5238  0.7032  1.0197
 7010WAT    EPW28748   4.335   3.003   6.535 -0.8494 -0.0787  0.0431
 7011WAT      O28749   4.285   4.319   6.231 -0.6913  0.2004 -0.0194
 7011WAT     H128750   4.223   4.303   6.290 -1.8633 -0.2012 -1.3108
 7011WAT     H228751   4.284   4.249   6.180  0.5771  0.3662 -0.3159
 7011WAT    EPW28752   4.276   4.307   6.233  0.4404  0.4015  0.6307
 7012WAT      O28753   4.012   3.601   4.831 -0.3968  1.2001  0.0299
 7012WAT     H128754   4.044   3.612   4.751 -0.3117  0.2261 -0.0734
 7012WAT     H228755   3.967   3.527   4.826  1.8672 -0.3915  1.5735
 7012WAT    EPW28756   4.010   3.592   4.818 -0.2320  0.5654 -1.5251
 7013WAT      O28757   4.851   3.288   6.592 -0.5458  0.3185  0.3712
 7013WAT     H128758   4.929   3.324   6.583 -0.1771 -0.6405 -0.5220
 7013WAT     H228759   4.849   3.264   6.676 -0.6814  2.0639  0.9041
 7013WAT    EPW28760   4.862   3.290   6.603  0.1727  0.3533  0.0185
 7014WAT      O28761   4.880   3.364   5.527  0.4916 -0.3015  0.0408
 7014WAT     H128762   4.874   3.340   5.443 -0.0504  1.5677 -0.4912
 7014WAT     H228763   4.817   3.318   5.566  0.5835 -0.9978 -0.6125
 7014WAT    EPW28764   4.870   3.353   5.521  0.0185 -0.2172 -0.1445
 7015WAT      O28765   4.270   3.817   5.132 -0.1586 -0.1498  0.4699
 7015WAT     H128766   4.340   3.862   5.105  0.4546 -1.4095 -0.1629
 7015WAT     H228767   4.203   3.859   5.096  0.1066  1.8400  2.1191
 7015WAT    EPW28768   4.270   3.830   5.123  0.0391 -0.0388 -0.9494
 7016WAT      O28769   4.282   3.889   0.514  0.1390 -0.0150 -0.0324
 7016WAT     H128770   4.196   3.892   0.524 -0.0889  1.8885 -1.7637
 7016WAT     H228771   4.310   3.842   0.581 -2.2622 -0.8648  0.4389
 7016WAT    EPW28772   4.274   3.883   0.525 -0.4250 -0.2234  0.2851
 7017WAT      O28773   3.151   3.351   5.529  0.4406  0.3682  0.0058
 7017WAT     H128774   3.221   3.379   5.485  0.2394  1.3472  0.2823
 7017WAT     H228775   3.185   3.316   5.602  0.7403 -0.8036 -0.6623
 7017WAT    EPW28776   3.166   3.350   5.534  0.4852  0.4458  1.2642
 7018WAT      O28777   4.079   3.954   4.992 -0.4287  0.1374 -0.6482
 7018WAT     H128778   4.097   4.027   4.948  4.8239 -0.3327  0.0902
 7018WAT     H228779   4.073   3.981   5.075 -0.8607 -0.0088 -0.6324
 7018WAT    EPW28780   4.081   3.969   4.998 -0.3920 -0.2727 -0.0805
 7019WAT      O28781   3.367   3.190   5.349  0.0859 -0.1935  0.7188
 7019WAT     H128782   3.435   3.168   5.398 -0.4055  0.7728  1.8787
 7019WAT     H228783   3.370   3.278   5.346 -0.0576 -0.2101 -0.7518
 7019WAT    EPW28784   3.377   3.200   5.356 -0.2510  0.3536 -0.7649
 7020WAT      O28785   3.448   3.810   6.783 -0.0117  0.3901  0.3672
 7020WAT     H128786   3.478   3.769   6.854 -2.0545  0.3102  1.2575
 7020WAT     H228787   3.459   3.895   6.803 -1.6995  0.4184  1.3903
 7020WAT    EPW28788   3.454   3.817   6.796 -0.6385  1.1197 -0.9643
 7021WAT      O28789   2.969   3.337   6.354 -0.3402  0.2325  0.0055
 7021WAT     H128790   2.959   3.289   6.282 -0.3619  0.0071  0.1585
 7021WAT     H228791   3.004   3.281   6.411  0.0803  0.5196  0.0402
 7021WAT    EPW28792   2.973   3.322   6.352 -0.5276 -0.8715 -0.5186
 7022WAT      O28793   2.538   3.970   7.021 -0.4026 -0.0043 -0.5228
 7022WAT     H128794   2.529   3.885   7.003  1.9483 -0.2341 -0.9323
 7022WAT     H228795   2.524   4.009   6.944  2.0081 -0.3695 -1.2221
 7022WAT    EPW28796   2.535   3.964   7.007 -0.4474  0.4160 -0.6092
 7023WAT      O28797   4.950   4.197   7.751  0.0255  0.0561  0.4601
 7023WAT     H128798   4.924   4.196   7.668  1.6110 -1.2631 -0.0822
 7023WAT     H228799   4.958   4.112   7.771  0.8316  0.3682  1.5692
 7023WAT    EPW28800   4.947   4.184   7.742  0.0305 -0.4209 -0.5963
 7024WAT      O28801   3.262   4.094   7.685 -0.1600 -0.3921  0.5125
 7024WAT     H128802   3.336   4.077   7.728 -0.6878 -1.1631  1.1532
 7024WAT     H228803   3.289   4.133   7.612  0.8672 -0.5203  0.8094
 7024WAT    EPW28804   3.277   4.097   7.681 -0.1694 -0.0170  0.0393
 7025WAT      O28805   4.349   4.871   7.043  0.0358  0.0530 -0.2968
 7025WAT     H128806   4.348   4.790   7.075 -1.2468 -0.4852 -1.5701
 7025WAT     H228807   4.267   4.898   7.053  0.3895  1.1163 -0.1253
 7025WAT    EPW28808   4.337   4.863   7.049  0.4704 -0.4345 -0.0857
 7026WAT      O28809   3.627   4.916   6.362  0.1148  0.6438  0.0763
 7026WAT     H128810   3.590   4.990   6.334 -2.5309 -0.5356  0.1079
 7026WAT     H228811   3.588   4.902   6.439  0.9367 -0.5392  0.3082
 7026WAT    EPW28812   3.616   4.925   6.369 -0.7203 -0.3852 -0.1141
 7027WAT      O28813   4.692   3.467   6.916 -0.2755 -0.6205  0.5104
 7027WAT     H128814   4.636   3.521   6.956 -1.0851 -0.7661 -0.3956
 7027WAT     H228815   4.748   3.521   6.876 -0.4589 -0.4575  0.4708
 7027WAT    EPW28816   4.692   3.483   6.916  0.4302  0.0760 -0.3179
 7028WAT      O28817   3.568   3.044   5.486 -0.5949  0.3566  0.6519
 7028WAT     H128818   3.524   2.972   5.509 -1.3224  0.8191  0.7633
 7028WAT     H228819   3.619   3.060   5.555  1.2413 -1.2889 -0.2544
 7028WAT    EPW28820   3.569   3.036   5.500 -0.4451 -0.5255 -0.0813
 7029WAT      O28821   4.376   3.886   6.246 -0.3833  0.4090 -0.3420
 7029WAT     H128822   4.392   3.875   6.161  0.2512 -0.0433 -0.1712
 7029WAT     H228823   4.305   3.838   6.260 -1.7923  2.1558 -1.0369
 7029WAT    EPW28824   4.368   3.877   6.236 -0.6750  0.0169 -0.2663
 7030WAT      O28825   2.298   3.427   6.153  0.5492  0.5614 -0.2692
 7030WAT     H128826   2.324   3.496   6.199 -0.5435  1.0315 -0.3028
 7030WAT     H228827   2.312   3.451   6.070  0.7072  0.5089 -0.2573
 7030WAT    EPW28828   2.304   3.441   6.148 -1.0731 -0.7323 -0.3922
 7031WAT      O28829   3.521   3.868   7.568 -0.3335  0.5596  0.2499
 7031WAT     H128830   3.567   3.853   7.640  1.0232 -0.6806 -0.8091
 7031WAT     H228831   3.564   3.934   7.530  0.9192 -0.8659 -0.9423
 7031WAT    EPW28832   3.535   3.876   7.573  0.1206 -0.4482 -0.6274
 7032WAT      O28833   2.910   2.956   7.322  0.3058  0.3748  0.1588
 7032WAT     H128834   2.959   3.028   7.321  0.9140 -0.0403 -0.4985
 7032WAT     H228835   2.959   2.897   7.282 -0.7297 -0.0511 -0.5290
 7032WAT    EPW28836   2.924   2.958   7.316  0.4696 -0.3170 -0.3667
 7033WAT      O28837   4.940   3.359   0.028  0.0337 -0.8115  0.2329
 7033WAT     H128838   4.876   3.415   0.008 -0.5365 -1.9794 -1.5022
 7033WAT     H228839   4.904   3.281   0.015  1.3044 -1.5481  0.9033
 7033WAT    EPW28840   4.925   3.356   0.023  0.2257 -0.8100  0.2653
 7034WAT      O28841   4.981   3.726   7.038  0.0470 -0.2423 -0.5537
 7034WAT     H128842   5.023   3.652   7.057  0.1769  0.1488  0.7762
 7034WAT     H228843   5.030   3.788   7.076 -0.8365  0.3866 -0.4134
 7034WAT    EPW28844   4.995   3.724   7.046 -0.0818  0.0837 -0.3035
 7035WAT      O28845   4.619   2.285   6.631  0.2641  0.3185 -0.5177
 7035WAT     H128846   4.693   2.258   6.668 -0.7175  0.5123  1.7454
 7035WAT     H228847   4.625   2.256   6.549  2.2537 -0.7743 -0.0415
 7035WAT    EPW28848   4.631   2.277   6.624  0.6496  0.1328  0.0169
 7036WAT      O28849   4.279   3.933   6.900 -0.2285  0.3102 -0.4288
 7036WAT     H128850   4.292   3.922   6.985 -0.3280 -0.4455 -0.5010
 7036WAT     H228851   4.198   3.903   6.887  0.6181 -1.8465 -1.1624
 7036WAT    EPW28852   4.269   3.927   6.910 -0.2505 -0.4248 -0.3904
 7037WAT      O28853   4.184   4.247   5.665 -0.0426  0.7757  1.2505
 7037WAT     H128854   4.228   4.260   5.591  0.7707 -0.1211  1.5486
 7037WAT     H228855   4.171   4.328   5.696  0.4336  1.1108  0.5992
 7037WAT    EPW28856   4.189   4.261   5.659 -0.8155  0.4526 -0.7417
 7038WAT      O28857   4.376   4.816   6.023  0.0548 -0.4296  0.1443
 7038WAT     H128858   4.407   4.815   5.942  1.9676 -0.6159  0.8272
 7038WAT     H228859   4.293   4.789   6.014 -0.0057  0.2795 -1.7981
 7038WAT    EPW28860   4.368   4.811   6.010 -0.3005  1.0710 -0.1845
 7039WAT      O28861   3.495   2.113   6.040  0.4860  0.2852 -0.1003
 7039WAT     H128862   3.533   2.125   5.962  1.1258 -0.0557  0.1484
 7039WAT     H228863   3.521   2.032   6.063  0.9803  0.6847  0.8282
 7039WAT    EPW28864   3.505   2.103   6.032 -0.2578  0.2877  1.2558
 7040WAT      O28865   4.806   3.157   7.773  0.4455  0.0511 -1.0921
 7040WAT     H128866   4.874   3.200   7.739  0.7645  0.3291 -0.1562
 7040WAT     H228867   4.751   3.221   7.795  0.0138 -0.1550 -1.5653
 7040WAT    EPW28868   4.808   3.173   7.771  0.7244 -0.5315  0.4318
 7041WAT      O28869   5.143   2.830   6.151 -0.1115 -0.5501 -0.2486
 7041WAT     H128870   5.184   2.864   6.220 -0.1706 -0.4036 -0.2859
 7041WAT     H228871   5.073   2.881   6.141 -0.4487 -0.9552 -0.0235
 7041WAT    EPW28872   5.138   2.843   6.160  0.6077  0.2323 -0.6877
 7042WAT      O28873   3.226   4.401   6.952  0.2770  0.3371 -0.1789
 7042WAT     H128874   3.294   4.347   6.948  0.6066  0.7334 -0.0609
 7042WAT     H228875   3.262   4.480   6.940 -0.1999  0.5247 -0.4109
 7042WAT    EPW28876   3.242   4.405   6.950  0.7136  0.2995 -0.5574
 7043WAT      O28877   4.504   6.679   7.183  0.4757  0.2591  0.4298
 7043WAT     H128878   4.520   6.742   7.125  0.8137  0.5935  0.8787
 7043WAT     H228879   4.582   6.664   7.219  0.3277 -0.1582  0.5830
 7043WAT    EPW28880   4.518   6.686   7.180 -0.0982 -0.7463  0.0690
 7044WAT      O28881   3.144   5.196   7.089 -0.4113  0.1816 -0.1966
 7044WAT     H128882   3.119   5.202   7.172 -0.0546  0.4890 -0.1097
 7044WAT     H228883   3.208   5.137   7.090 -0.0769  0.5455 -0.1783
 7044WAT    EPW28884   3.149   5.188   7.102 -0.8365  0.0083  0.7139
 7045WAT      O28885   3.975   4.575   6.326 -0.2904 -0.2810 -0.5358
 7045WAT     H128886   3.934   4.643   6.362 -1.0638 -1.6642  1.3780
 7045WAT     H228887   3.912   4.515   6.316  0.5115 -1.0225 -1.3757
 7045WAT    EPW28888   3.960   4.576   6.330 -0.3733 -0.1920 -0.0397
 7046WAT      O28889   2.167   3.208   5.796  0.2391 -0.5589  0.2342
 7046WAT     H128890   2.223   3.194   5.730 -0.6108 -3.0907 -0.0814
 7046WAT     H228891   2.169   3.294   5.807  0.8440 -0.0834 -2.7453
 7046WAT    EPW28892   2.176   3.219   5.788 -0.1787  0.0615 -0.6087
 7047WAT      O28893   3.294   4.858   7.671  0.1429  0.2973 -0.3651
 7047WAT     H128894   3.233   4.818   7.623 -0.2319 -0.6885  0.8935
 7047WAT     H228895   3.303   4.807   7.741  0.6799  1.6863  0.6275
 7047WAT    EPW28896   3.286   4.845   7.674  0.1232 -0.3928 -0.2473
 7048WAT      O28897   3.892   3.845   6.227  0.1952  0.2167  0.7487
 7048WAT     H128898   3.871   3.850   6.143  1.1962  0.4148  0.4887
 7048WAT     H228899   3.933   3.920   6.242  2.2657 -0.8308  0.7198
 7048WAT    EPW28900   3.895   3.857   6.217  0.0137 -0.2939 -0.0164
 7049WAT      O28901   4.297   2.453   7.477  0.3581  0.1335 -0.4095
 7049WAT     H128902   4.356   2.467   7.540  1.7900  2.7526 -2.1253
 7049WAT     H228903   4.224   2.487   7.509  1.0580  1.4072 -0.0582
 7049WAT    EPW28904   4.295   2.460   7.491 -0.0655 -0.3623  0.3643
 7050WAT      O28905   3.315   3.454   5.937 -0.2851  0.3070 -0.5899
 7050WAT     H128906   3.318   3.384   5.885  1.7476 -0.1927  0.0960
 7050WAT     H228907   3.395   3.488   5.931  0.3674 -0.2254  2.7205
 7050WAT    EPW28908   3.327   3.449   5.929 -0.2398 -0.2997 -0.1167
 7051WAT      O28909   4.152   3.794   6.395 -0.4609  0.0192  0.2549
 7051WAT     H128910   4.106   3.785   6.321 -0.2642  1.1105 -0.0196
 7051WAT     H228911   4.105   3.852   6.440 -1.0904 -1.3505  1.4215
 7051WAT    EPW28912   4.138   3.801   6.391  0.8223  0.3545 -0.3473
 7052WAT      O28913   3.314   3.496   6.503  0.1919  0.0104 -0.8324
 7052WAT     H128914   3.279   3.502   6.424 -0.0211  0.3737 -0.7138
 7052WAT     H228915   3.395   3.467   6.488 -0.7154 -2.6722 -0.9811
 7052WAT    EPW28916   3.321   3.493   6.489 -0.3186 -0.3407 -0.1288
 7053WAT      O28917   3.944   3.632   5.167 -0.8359  0.5227 -0.2913
 7053WAT     H128918   3.967   3.679   5.237 -1.0760  0.4796 -0.1824
 7053WAT     H228919   3.978   3.553   5.183  0.5017  0.9292 -0.9729
 7053WAT    EPW28920   3.953   3.627   5.180  0.7204  0.1127  0.1564
 7054WAT      O28921   4.701   5.521   6.187  0.2199 -0.5504 -0.0356
 7054WAT     H128922   4.620   5.553   6.191  0.4025 -0.2004  0.9737
 7054WAT     H228923   4.723   5.509   6.271  0.9698 -1.2633 -0.3202
 7054WAT    EPW28924   4.692   5.524   6.200 -0.5773  0.3557  0.3745
 7055WAT      O28925   4.312   4.642   7.213 -0.0633  1.2604 -0.4372
 7055WAT     H128926   4.269   4.654   7.288  0.3494  1.4460 -0.2294
 7055WAT     H228927   4.269   4.575   7.175 -0.4687  1.3763 -0.1878
 7055WAT    EPW28928   4.299   4.633   7.218  0.0983 -0.1605 -0.5393
 7056WAT      O28929   4.118   4.135   5.212  0.6212  0.0476  0.5110
 7056WAT     H128930   4.067   4.207   5.207  2.4053  1.2992 -3.1860
 7056WAT     H228931   4.067   4.077   5.253 -2.4375  2.2349  0.1660
 7056WAT    EPW28932   4.103   4.137   5.217  0.5361 -0.3115 -0.5858
 7057WAT      O28933   4.226   3.960   1.067  0.6543  0.3353  0.1027
 7057WAT     H128934   4.203   3.918   0.993 -0.6184 -0.5323  0.9456
 7057WAT     H228935   4.303   3.924   1.088  0.9326  0.4515 -0.6835
 7057WAT    EPW28936   4.234   3.948   1.059  0.3068 -0.1253  0.1478
 7058WAT      O28937   4.289   4.672   7.498  0.2172 -0.8422 -0.6452
 7058WAT     H128938   4.234   4.667   7.566 -0.6584  0.1285 -1.2536
 7058WAT     H228939   4.358   4.713   7.530  0.3261 -1.4602 -0.0451
 7058WAT    EPW28940   4.291   4.677   7.513  1.3751 -0.4470 -0.1633
 7059WAT      O28941   3.585   4.974   5.519 -0.3314 -0.5749 -0.3903
 7059WAT     H128942   3.529   4.911   5.540 -0.9359 -1.3258 -3.6415
 7059WAT     H228943   3.534   5.041   5.495  0.1450 -0.5840 -1.5347
 7059WAT    EPW28944   3.569   4.975   5.518  0.6918 -0.6816  0.1274
 7060WAT      O28945   2.070   4.839   6.216 -0.3732 -0.1741 -0.3860
 7060WAT     H128946   2.157   4.837   6.210 -0.0357 -1.3483  2.8966
 7060WAT     H228947   2.046   4.762   6.184  0.4328 -2.1776  3.2637
 7060WAT    EPW28948   2.080   4.827   6.210 -0.4906 -0.1973  0.2719
 7061WAT      O28949   3.969   4.722   2.767  0.1233 -0.3520  0.3070
 7061WAT     H128950   3.964   4.735   2.853 -2.1932 -2.0173  0.5102
 7061WAT     H228951   3.941   4.797   2.733 -1.3529 -0.4876  1.1239
 7061WAT    EPW28952   3.964   4.735   2.774  0.3567  0.0248  0.0286
 7062WAT      O28953   3.921   4.357   3.893  0.1303  0.1678 -0.3740
 7062WAT     H128954   3.923   4.331   3.976  0.2755  0.1511 -0.3815
 7062WAT     H228955   4.005   4.376   3.875  0.0997  0.1776 -0.5139
 7062WAT    EPW28956   3.934   4.356   3.902 -0.3225 -0.3333  0.4353
 7063WAT      O28957   3.160   4.423   3.611  0.0457  0.1543 -0.6083
 7063WAT     H128958   3.183   4.346   3.646  2.0472  0.9275 -0.0527
 7063WAT     H228959   3.080   4.409   3.580 -0.5255 -1.5176  1.4194
 7063WAT    EPW28960   3.152   4.409   3.612  0.5461  0.5742 -0.1609
 7064WAT      O28961   3.858   5.227   3.538  0.4760 -0.1728  0.4489
 7064WAT     H128962   3.899   5.223   3.615  0.4377 -2.7806  0.4213
 7064WAT     H228963   3.792   5.171   3.548 -0.1815  0.2615 -1.1625
 7064WAT    EPW28964   3.854   5.218   3.551  1.0408  0.4655  0.0074
 7065WAT      O28965   4.589   3.525   4.168 -0.1402 -0.2761 -0.2393
 7065WAT     H128966   4.587   3.601   4.126 -0.8276  0.1292  0.4872
 7065WAT     H228967   4.537   3.538   4.237 -0.0869 -1.3310  0.0288
 7065WAT    EPW28968   4.581   3.538   4.172 -0.3821 -0.0066  0.0691
 7066WAT      O28969   4.771   3.982   4.478  0.0915 -0.7326  0.5936
 7066WAT     H128970   4.704   4.037   4.488  0.9451  0.3551  0.4834
 7066WAT     H228971   4.747   3.933   4.410 -0.4132 -0.0975  0.3034
 7066WAT    EPW28972   4.757   3.983   4.470  0.5873  0.3298 -0.8915
 7067WAT      O28973   3.609   4.733   3.687  0.4808 -0.1105  0.2781
 7067WAT     H128974   3.637   4.808   3.651  1.4146 -0.6134 -0.0648
 7067WAT     H228975   3.586   4.757   3.767  2.0151  0.3355  0.6294
 7067WAT    EPW28976   3.610   4.748   3.693  0.0992 -0.0681 -0.0221
 7068WAT      O28977   4.774   3.623   4.424  0.8479 -0.8484  0.0224
 7068WAT     H128978   4.742   3.685   4.371  0.6672  0.2675  1.3664
 7068WAT     H228979   4.702   3.589   4.461  0.9234 -2.1461 -0.9613
 7068WAT    EPW28980   4.758   3.627   4.422  1.9376 -0.5459  0.5964
 7069WAT      O28981   4.664   3.276   4.397 -0.2820  0.2284 -0.1354
 7069WAT     H128982   4.662   3.328   4.468 -0.4184  0.9525 -0.6564
 7069WAT     H228983   4.617   3.207   4.421 -1.2238  0.9339  0.1320
 7069WAT    EPW28984   4.657   3.274   4.411  0.0383  0.2151  0.3675
 7070WAT      O28985   4.235   4.843   3.923 -0.3670 -0.1819  0.4126
 7070WAT     H128986   4.252   4.767   3.963  0.0995  0.3496  1.2660
 7070WAT     H228987   4.190   4.887   3.983 -0.2746  0.3741  0.0741
 7070WAT    EPW28988   4.231   4.838   3.938  0.5629 -0.6948  0.4116
 7071WAT      O28989   4.460   4.478   4.333 -0.0208  0.1944  0.2852
 7071WAT     H128990   4.513   4.430   4.383  2.7577  2.2935 -0.4318
 7071WAT     H228991   4.449   4.551   4.380 -1.9788  0.0180  0.1887
 7071WAT    EPW28992   4.466   4.481   4.348  0.2798  0.0299 -0.3717
 7072WAT      O28993   4.449   3.983   3.908 -0.1778 -0.3439  0.0316
 7072WAT     H128994   4.392   4.045   3.933  1.2853  1.0946 -0.0657
 7072WAT     H228995   4.460   3.999   3.823  0.6082 -0.4244  0.1178
 7072WAT    EPW28996   4.442   3.994   3.899 -0.5690  0.2915 -1.0295
 7073WAT      O28997   3.922   4.766   3.849  0.1136 -0.5557 -0.0169
 7073WAT     H128998   3.995   4.752   3.805  0.7723  2.0742  0.0508
 7073WAT     H228999   3.950   4.783   3.930 -0.5670  0.2334  0.0701
 7073WAT    EPW29000   3.937   4.766   3.855 -0.3512  0.4537 -0.4164
 7074WAT      O29001   5.223   3.981   5.065  0.1670  0.3149 -0.0014
 7074WAT     H129002   5.263   3.938   5.130  0.9893  0.9829 -0.0408
 7074WAT     H229003   5.145   3.943   5.060  1.0660 -1.6068 -0.4680
 7074WAT    EPW29004   5.218   3.969   5.074 -0.0349  0.7562 -0.0190
 7075WAT      O29005   4.769   4.501   4.226 -0.0606 -0.2269 -1.0422
 7075WAT     H129006   4.748   4.452   4.296  0.0776 -0.1193 -0.9245
 7075WAT     H229007   4.808   4.571   4.261 -1.0215  0.3820 -1.1620
 7075WAT    EPW29008   4.771   4.504   4.242 -0.5991  0.5035 -0.1033
 7076WAT      O29009   5.493   4.155   4.816 -0.0231  0.0856  0.1808
 7076WAT     H129010   5.557   4.203   4.782 -1.0412  1.3456 -0.0414
 7076WAT     H229011   5.475   4.097   4.752  1.5761 -0.9978  0.6656
 7076WAT    EPW29012   5.500   4.154   4.801  0.2276 -0.1394 -0.7300
 7077WAT      O29013   4.044   5.015   4.032  0.6293 -0.2128 -0.8276
 7077WAT     H129014   4.109   5.042   4.083 -0.8223 -0.7717  1.4820
 7077WAT     H229015   4.012   5.090   4.000  1.2033  0.2251 -0.4173
 7077WAT    EPW29016   4.049   5.030   4.035  0.1561  0.3474 -0.2967
 7078WAT      O29017   4.405   3.829   4.270 -0.2029 -0.0180 -0.2491
 7078WAT     H129018   4.426   3.751   4.303  3.0354  0.0788 -1.7009
 7078WAT     H229019   4.363   3.811   4.197 -0.1146 -0.4006 -0.2043
 7078WAT    EPW29020   4.402   3.815   4.264 -0.2908  0.1689 -0.3651
 7079WAT      O29021   4.260   3.757   4.020 -0.1706  0.2603 -0.0539
 7079WAT     H129022   4.317   3.702   3.983  0.5472  0.9637 -0.0140
 7079WAT     H229023   4.229   3.803   3.953 -1.9204 -1.1630 -0.3114
 7079WAT    EPW29024   4.264   3.756   4.005 -0.6261  0.0170  0.0638
 7080WAT      O29025   4.667   3.036   4.190  0.3357  0.4271 -0.3769
 7080WAT     H129026   4.674   2.953   4.163  0.9356  0.1260  0.6494
 7080WAT     H229027   4.622   3.030   4.264  1.9648  0.7931  0.6927
 7080WAT    EPW29028   4.661   3.023   4.197  0.5878 -0.4846 -0.2159
 7081WAT      O29029   4.285   4.600   4.052 -0.0101  0.0441  0.1156
 7081WAT     H129030   4.216   4.615   4.102 -0.2468 -0.2709 -0.1061
 7081WAT     H229031   4.254   4.547   3.989  0.4525 -0.1913  0.0741
 7081WAT    EPW29032   4.270   4.594   4.050 -0.3336  0.3646 -0.1652
 7082WAT      O29033   4.415   4.853   4.206  0.6387  0.8485  0.1424
 7082WAT     H129034   4.377   4.813   4.274 -0.9256 -1.0566 -1.7010
 7082WAT     H229035   4.367   4.925   4.195 -0.3514  0.1879 -0.0557
 7082WAT    EPW29036   4.402   4.857   4.214  0.4929 -0.2573 -0.7760
 7083WAT      O29037   3.588   4.721   3.373 -0.4881 -0.1348  0.0504
 7083WAT     H129038   3.550   4.715   3.451  0.4220  0.2896  0.5328
 7083WAT     H229039   3.652   4.662   3.377  0.4260  0.8425  0.1355
 7083WAT    EPW29040   3.592   4.711   3.385 -0.2601  0.1130 -0.5652
 7084WAT      O29041   4.510   3.952   5.045 -0.0682  0.3503 -0.3146
 7084WAT     H129042   4.463   4.025   5.035  0.0129  0.2804 -1.3182
 7084WAT     H229043   4.558   3.949   4.972  1.3282  0.2972  0.5851
 7084WAT    EPW29044   4.510   3.963   5.033  0.2508  0.5311  0.4130
 7085WAT      O29045   3.965   2.438   1.843  1.0868 -0.1760 -0.0258
 7085WAT     H129046   3.901   2.421   1.786 -0.4757 -1.1331  1.8843
 7085WAT     H229047   4.009   2.503   1.805 -0.6809  0.1419 -1.7127
 7085WAT    EPW29048   3.962   2.445   1.829  0.1383  0.0927  0.1435
 7086WAT      O29049   3.141   3.885   1.839 -0.3135 -0.6242  0.3459
 7086WAT     H129050   3.182   3.814   1.809 -0.9356 -1.1623  0.7354
 7086WAT     H229051   3.200   3.922   1.892 -0.1879 -1.1778  0.5980
 7086WAT    EPW29052   3.156   3.880   1.843  0.6330 -0.5856  0.4777
 7087WAT      O29053   3.926   3.694   1.455 -0.4278 -0.0444  0.0151
 7087WAT     H129054   3.852   3.733   1.432 -1.0768 -1.2559 -0.0151
 7087WAT     H229055   3.974   3.697   1.382 -0.8202 -0.0951 -0.2466
 7087WAT    EPW29056   3.922   3.700   1.441 -0.0311  0.0014 -0.0397
 7088WAT      O29057   4.020   3.586   0.902 -0.0068 -0.1063 -0.0893
 7088WAT     H129058   3.972   3.581   0.830  0.0257 -2.1132 -0.0337
 7088WAT     H229059   4.055   3.666   0.899  0.2559 -0.2511 -2.4457
 7088WAT    EPW29060   4.018   3.597   0.891 -0.1194  0.4723 -0.1983
 7089WAT      O29061   2.795   4.204   0.408 -0.3271 -0.4004  0.0178
 7089WAT     H129062   2.807   4.170   0.328  0.8542  2.2341 -1.0359
 7089WAT     H229063   2.861   4.172   0.454 -1.9071 -3.2482  0.5426
 7089WAT    EPW29064   2.806   4.194   0.403  0.2799  0.6136  0.0604
 7090WAT      O29065   4.433   4.403   1.790 -0.4466  0.1915  0.1260
 7090WAT     H129066   4.487   4.372   1.851 -0.3157 -0.2774 -0.2148
 7090WAT     H229067   4.432   4.339   1.730 -0.8775  0.4737 -0.1737
 7090WAT    EPW29068   4.441   4.389   1.790  1.0639  0.0943 -0.1972
 7091WAT      O29069   3.893   3.973   2.222  0.2577 -0.4051  0.2578
 7091WAT     H129070   3.911   4.003   2.142  1.5599  0.0279  0.6914
 7091WAT     H229071   3.964   3.927   2.243 -0.7331 -1.8608  0.5502
 7091WAT    EPW29072   3.906   3.971   2.214 -0.0047  0.1751  0.0195
 7092WAT      O29073   3.338   3.569   1.951  0.6427 -0.7141  0.6450
 7092WAT     H129074   3.319   3.645   1.988 -0.4192 -0.1367 -0.9981
 7092WAT     H229075   3.323   3.583   1.867  0.5515 -2.7226  0.2894
 7092WAT    EPW29076   3.333   3.582   1.944 -0.8842 -0.0180 -0.7894
 7093WAT      O29077   2.961   4.513   2.800 -0.1717 -0.6706 -0.0018
 7093WAT     H129078   3.014   4.510   2.869 -1.2964 -1.0116  0.8603
 7093WAT     H229079   2.901   4.573   2.822 -2.0280 -2.5664  0.4409
 7093WAT    EPW29080   2.960   4.522   2.813  0.3292  0.4860  0.1132
 7094WAT      O29081   2.236   4.302   1.634 -0.1535 -0.7800  0.0184
 7094WAT     H129082   2.265   4.219   1.638 -0.7338 -1.0142 -0.4898
 7094WAT     H229083   2.214   4.320   1.717 -0.2221 -1.2086  0.0957
 7094WAT    EPW29084   2.237   4.292   1.647 -0.4151  0.5774  0.5129
 7095WAT      O29085   3.920   3.433   2.305 -0.3813  0.1237  0.4323
 7095WAT     H129086   3.983   3.372   2.311 -0.0357  0.5950  2.2582
 7095WAT     H229087   3.897   3.430   2.221  1.5369 -0.6090 -0.1293
 7095WAT    EPW29088   3.926   3.423   2.294  0.1711 -0.5916  0.0811
 7096WAT      O29089   3.990   4.908   1.581 -0.3670 -0.7962 -0.3192
 7096WAT     H129090   3.982   4.992   1.559  0.7259 -0.6224 -0.0954
 7096WAT     H229091   3.968   4.907   1.666  2.6795 -0.1220  0.6067
 7096WAT    EPW29092   3.985   4.920   1.590 -0.1105 -0.9002 -0.7891
 7097WAT      O29093   4.335   3.963   2.504  0.1396  0.2149 -0.4024
 7097WAT     H129094   4.295   3.972   2.427 -0.0121 -2.2836 -0.6863
 7097WAT     H229095   4.269   3.945   2.559  0.4971 -0.6493 -0.2372
 7097WAT    EPW29096   4.319   3.962   2.501 -0.6046  0.4349  0.4782
 7098WAT      O29097   4.799   4.630   2.423 -0.0235 -0.3252 -0.6489
 7098WAT     H129098   4.849   4.578   2.373 -0.0494  0.2471 -1.2930
 7098WAT     H229099   4.719   4.597   2.414 -0.0560 -0.1233 -1.1400
 7098WAT    EPW29100   4.795   4.618   2.414  0.3022  0.4502 -0.2736
 7099WAT      O29101   4.224   3.935   2.246  0.6953 -0.1304 -0.3851
 7099WAT     H129102   4.273   3.992   2.202 -1.5338  0.1573 -2.6933
 7099WAT     H229103   4.183   3.889   2.184 -2.0895 -0.1987  1.3088
 7099WAT    EPW29104   4.225   3.937   2.231  0.6974  0.1246 -0.5642
 7100WAT      O29105   4.035   3.788   3.033 -0.3698  0.1493  0.3737
 7100WAT     H129106   4.096   3.839   3.068 -0.6240  0.2217  0.7196
 7100WAT     H229107   4.068   3.765   2.956 -0.9003  2.0865 -0.4872
 7100WAT    EPW29108   4.049   3.792   3.027  0.7064 -0.0713 -0.7308
 7101WAT      O29109   4.399   3.666   1.782 -0.5791 -0.1288  0.1015
 7101WAT     H129110   4.440   3.624   1.847 -2.5014 -0.0739  1.4127
 7101WAT     H229111   4.326   3.620   1.770 -1.9451  1.8269  0.4322
 7101WAT    EPW29112   4.395   3.653   1.790  0.8799 -0.8051 -0.6410
 7102WAT      O29113   4.203   3.224   2.012  0.3353 -0.5085  0.2283
 7102WAT     H129114   4.179   3.248   2.093  1.1622 -0.9752  0.6253
 7102WAT     H229115   4.288   3.246   2.009 -0.0542  0.9698 -1.0813
 7102WAT    EPW29116   4.212   3.231   2.024  0.2143  0.2939  0.2743
 7103WAT      O29117   4.017   3.905   0.602  0.1379  0.4260 -0.2399
 7103WAT     H129118   3.950   3.870   0.558  0.2792 -0.5277  0.2915
 7103WAT     H229119   4.020   3.987   0.572 -0.0976 -0.0428 -1.6331
 7103WAT    EPW29120   4.008   3.912   0.591 -0.2006 -0.3579  0.6247
 7104WAT      O29121   3.095   5.023   2.404  0.4496 -0.1753  0.4275
 7104WAT     H129122   3.173   5.025   2.366  0.8449 -1.2493  1.1205
 7104WAT     H229123   3.111   5.048   2.486  0.2309 -1.1415  0.7865
 7104WAT    EPW29124   3.109   5.027   2.410 -1.3497  0.2360 -0.1840
 7105WAT      O29125   3.999   4.136   1.631  0.4252  0.2246 -0.2340
 7105WAT     H129126   3.917   4.141   1.662  0.5934  1.4395  0.0500
 7105WAT     H229127   3.989   4.141   1.545  0.2233  0.7042 -0.1836
 7105WAT    EPW29128   3.985   4.137   1.623  0.1263  0.0296 -0.7814
 7106WAT      O29129   3.418   4.901   1.850  0.4018 -0.2556  0.0897
 7106WAT     H129130   3.441   4.967   1.798 -0.9596 -0.8773 -1.3911
 7106WAT     H229131   3.379   4.940   1.918 -1.8452  0.4921 -1.5260
 7106WAT    EPW29132   3.416   4.916   1.853 -0.8030 -0.2920 -0.6812
 7107WAT      O29133   5.133   5.397   2.026 -0.3148  0.2126  0.3232
 7107WAT     H129134   5.166   5.394   2.107  0.3819  0.6055  0.0533
 7107WAT     H229135   5.060   5.444   2.036 -0.7483 -0.5581  0.8959
 7107WAT    EPW29136   5.127   5.404   2.040 -0.0024 -0.2616 -0.5058
 7108WAT      O29137   2.177   4.299   3.693 -0.6636  0.5881  0.1574
 7108WAT     H129138   2.186   4.372   3.646 -1.4265  0.9742  0.5950
 7108WAT     H229139   2.091   4.293   3.707 -0.8652 -1.4347 -1.4666
 7108WAT    EPW29140   2.166   4.309   3.688  0.3179 -1.0924  0.3063
 7109WAT      O29141   3.474   4.190   2.458 -0.3774  0.1546  0.4794
 7109WAT     H129142   3.522   4.249   2.414 -2.0283  0.6346 -0.7657
 7109WAT     H229143   3.503   4.198   2.540  1.8298  0.2302 -0.2281
 7109WAT    EPW29144   3.486   4.200   2.464  0.2471 -0.8447 -0.2677
 7110WAT      O29145   4.721   4.081   2.124  0.3751  0.2194  0.0716
 7110WAT     H129146   4.768   4.010   2.142  0.0668  0.1775  0.7412
 7110WAT     H229147   4.641   4.061   2.152  0.5737  1.3352  1.5850
 7110WAT    EPW29148   4.716   4.068   2.130  0.3376 -0.6716 -0.1869
 7111WAT      O29149   3.486   5.097   1.407 -0.5856 -0.2857  0.0098
 7111WAT     H129150   3.440   5.029   1.376  0.0059  0.2976 -2.3201
 7111WAT     H229151   3.438   5.166   1.386 -0.7060  0.1153  1.4914
 7111WAT    EPW29152   3.472   5.097   1.399 -0.2834 -0.2131 -0.9127
 7112WAT      O29153   3.805   5.723   1.628 -0.3764  0.4976 -0.4316
 7112WAT     H129154   3.859   5.656   1.640  1.7664  2.0403 -0.7017
 7112WAT     H229155   3.838   5.785   1.681 -1.2424  1.8624 -1.4187
 7112WAT    EPW29156   3.818   5.722   1.638 -0.4195 -0.6443 -0.6105
 7113WAT      O29157   3.585   3.920   1.942  0.0849  0.0855  0.2423
 7113WAT     H129158   3.591   3.868   1.872  0.8672  1.4809 -0.7762
 7113WAT     H229159   3.501   3.944   1.943  0.2336  0.6950 -0.7211
 7113WAT    EPW29160   3.574   3.916   1.932  1.0054  0.0682  0.2469
 7114WAT      O29161   4.431   3.082   1.829 -0.0233  0.3925 -0.1881
 7114WAT     H129162   4.373   3.053   1.888  0.4115  0.0138  0.0591
 7114WAT     H229163   4.459   3.157   1.864  0.1258  0.2424  0.0155
 7114WAT    EPW29164   4.427   3.089   1.843  0.5670  0.5478 -0.2063
 7115WAT      O29165   5.199   5.048   1.220 -0.0134 -0.3901 -0.3968
 7115WAT     H129166   5.273   5.063   1.176  0.1327  0.3681  0.0792
 7115WAT     H229167   5.145   5.109   1.190 -0.7290 -1.4442 -1.3340
 7115WAT    EPW29168   5.202   5.059   1.209 -0.8125  0.4528  1.0306
 7116WAT      O29169   3.152   3.257   2.872 -0.1115  0.3981 -0.1614
 7116WAT     H129170   3.209   3.253   2.938  0.2012 -1.4333 -0.4739
 7116WAT     H229171   3.192   3.308   2.813  0.3400  0.6876  0.3853
 7116WAT    EPW29172   3.166   3.264   2.873 -0.5968 -0.7429 -0.5166
 7117WAT      O29173   3.775   3.717   3.124  0.1380  0.3332  0.4075
 7117WAT     H129174   3.754   3.770   3.190  0.4862 -0.3165  1.0559
 7117WAT     H229175   3.857   3.740   3.105 -0.8680  2.5959 -1.8565
 7117WAT    EPW29176   3.784   3.728   3.131 -0.4361  0.3286 -1.1816
 7118WAT      O29177   4.413   4.134   0.557 -0.1276  0.3052 -0.7521
 7118WAT     H129178   4.359   4.066   0.550 -0.4477  0.4911 -0.1028
 7118WAT     H229179   4.470   4.109   0.618 -1.2118  1.2413  0.6960
 7118WAT    EPW29180   4.414   4.120   0.565 -0.2787 -0.3351 -0.3281
 7119WAT      O29181   3.994   3.699   2.343 -0.2371  0.4835  0.5163
 7119WAT     H129182   3.962   3.618   2.339 -0.0312  0.4477 -0.7034
 7119WAT     H229183   4.044   3.697   2.415  0.7017 -0.8320 -0.1260
 7119WAT    EPW29184   3.997   3.687   2.353  0.5863 -0.0690 -0.0839
 7120WAT      O29185   2.811   5.273   0.915  0.1069 -0.3711  0.5272
 7120WAT     H129186   2.776   5.280   0.994  0.4228  0.1854  0.6185
 7120WAT     H229187   2.868   5.207   0.923 -1.4238 -1.8109  0.1814
 7120WAT    EPW29188   2.815   5.264   0.928  0.2846  0.3082 -0.2838
 7121WAT      O29189   3.787   6.945   2.884 -0.4519  0.5049  0.5424
 7121WAT     H129190   3.866   6.964   2.854 -1.0622  1.8114 -0.3317
 7121WAT     H229191   3.802   6.896   2.955  1.1303  1.0857  0.6284
 7121WAT    EPW29192   3.801   6.940   2.890  0.1083 -0.3901  0.0348
 7122WAT      O29193   4.143   2.937   2.404  0.0948  0.1938  0.2737
 7122WAT     H129194   4.192   2.870   2.430 -0.2207  0.9703  3.2113
 7122WAT     H229195   4.194   3.006   2.421 -0.2863  0.8298 -1.0120
 7122WAT    EPW29196   4.158   2.938   2.410 -0.6972  0.4119 -0.2287
 7123WAT      O29197   5.749   2.927   2.323 -0.0747  0.1609  0.6027
 7123WAT     H129198   5.798   2.864   2.358  0.4964  0.0141 -0.4082
 7123WAT     H229199   5.681   2.884   2.290  2.2202 -0.6918 -3.7799
 7123WAT    EPW29200   5.746   2.911   2.323 -0.0584  1.3554  0.9959
 7124WAT      O29201   6.304   4.146   1.318 -0.0508 -0.1216  0.2143
 7124WAT     H129202   6.387   4.162   1.295 -0.0226  0.1683  0.5171
 7124WAT     H229203   6.293   4.193   1.390 -0.8426  0.7948 -0.4823
 7124WAT    EPW29204   6.315   4.155   1.325  1.0968  0.4671  0.1003
 7125WAT      O29205   4.148   5.619   0.667  0.4338  0.0049  0.1436
 7125WAT     H129206   4.127   5.535   0.672  0.5290  0.0150  0.8100
 7125WAT     H229207   4.080   5.660   0.703  0.2444  0.2428 -0.4658
 7125WAT    EPW29208   4.135   5.613   0.673  0.1401 -0.5039 -0.3498
 7126WAT      O29209   3.328   4.664   2.540 -0.4118 -0.3589  0.3572
 7126WAT     H129210   3.380   4.654   2.609  0.4039  3.9339  0.6214
 7126WAT     H229211   3.377   4.635   2.473  0.2563 -1.1286  1.1634
 7126WAT    EPW29212   3.343   4.658   2.540 -0.1858  0.7057 -0.0364
 7127WAT      O29213   3.940   4.652   1.916  0.3639  0.1073  0.8189
 7127WAT     H129214   3.985   4.726   1.931  0.0702  0.3956  0.3013
 7127WAT     H229215   3.880   4.652   1.980 -0.5806  1.0843 -0.0325
 7127WAT    EPW29216   3.938   4.663   1.928  0.5782 -0.3858 -0.1152
 7128WAT      O29217   4.367   4.342   2.398  0.7670  0.3767 -0.3676
 7128WAT     H129218   4.289   4.357   2.433 -0.0775  0.0643 -1.9882
 7128WAT     H229219   4.402   4.282   2.450 -1.3266 -1.6930 -1.1685
 7128WAT    EPW29220   4.361   4.335   2.411  0.3812  0.2434  0.2473
 7129WAT      O29221   4.404   4.706   0.948 -0.1401 -0.1160  0.5048
 7129WAT     H129222   4.323   4.734   0.965  0.4265  0.3318  2.7557
 7129WAT     H229223   4.410   4.631   0.992  0.6626 -0.1688  0.3221
 7129WAT    EPW29224   4.392   4.699   0.957  0.8544  0.4623 -0.0857
 7130WAT      O29225   3.495   3.207   2.151 -0.8308 -0.2216 -0.2408
 7130WAT     H129226   3.507   3.165   2.226 -0.0004  0.2156 -0.1202
 7130WAT     H229227   3.486   3.291   2.174  0.3085  0.0428 -0.6680
 7130WAT    EPW29228   3.495   3.213   2.165 -0.4987 -0.2959  0.2266
 7131WAT      O29229   5.432   3.823   1.257 -0.0255  0.3972  0.6647
 7131WAT     H129230   5.513   3.797   1.278  0.1951 -0.4043 -1.0188
 7131WAT     H229231   5.407   3.869   1.326  0.7271 -1.8204  2.5223
 7131WAT    EPW29232   5.441   3.826   1.270  0.6700 -0.2965  0.6273
 7132WAT      O29233   4.521   4.917   1.814  0.1797 -0.3926  0.0420
 7132WAT     H129234   4.457   4.909   1.755 -1.4137 -0.3791  1.6611
 7132WAT     H229235   4.563   4.989   1.789  0.6161 -1.2844 -1.9808
 7132WAT    EPW29236   4.518   4.927   1.802 -0.3792  0.7003 -0.2102
 7133WAT      O29237   2.747   4.922   1.183  0.0238 -0.2670  0.1307
 7133WAT     H129238   2.814   4.969   1.213 -0.3090 -0.0486  0.5400
 7133WAT     H229239   2.677   4.964   1.214 -0.3033 -0.5214 -0.2525
 7133WAT    EPW29240   2.747   4.935   1.192  0.2454  1.0853  0.6143
 7134WAT      O29241   4.133   3.698   2.801 -0.5709  0.7505 -0.3115
 7134WAT     H129242   4.095   3.681   2.724 -1.7316 -0.0918  0.4072
 7134WAT     H229243   4.212   3.662   2.794 -0.9881 -0.1054 -0.8223
 7134WAT    EPW29244   4.139   3.690   2.789  0.1224 -0.0602 -0.8104
 7135WAT      O29245   3.945   3.456   1.135 -0.4528  0.0196  0.6394
 7135WAT     H129246   3.917   3.380   1.104  0.8663 -0.1635 -0.2111
 7135WAT     H229247   3.983   3.493   1.065 -0.7229  1.2778  1.1373
 7135WAT    EPW29248   3.947   3.451   1.120 -0.3452 -0.2583 -0.1096
 7136WAT      O29249   3.743   4.112   1.805 -0.1858 -0.7551  0.1855
 7136WAT     H129250   3.694   4.052   1.844 -0.9024 -1.1282 -1.2412
 7136WAT     H229251   3.687   4.176   1.785  0.5223  0.3194  1.4724
 7136WAT    EPW29252   3.728   4.113   1.808 -0.0779  0.5880 -0.0941
 7137WAT      O29253   3.980   2.423   1.159  0.0492  0.2061  0.1149
 7137WAT     H129254   4.030   2.354   1.143  0.2595  0.3762  0.0216
 7137WAT     H229255   4.022   2.488   1.118 -0.0143  0.4323  0.4020
 7137WAT    EPW29256   3.994   2.423   1.151  0.5612 -0.1406  0.3075
 7138WAT      O29257   4.095   4.451   2.686  0.6691  0.0770 -0.0020
 7138WAT     H129258   4.064   4.531   2.696 -0.8420 -0.2526 -1.5919
 7138WAT     H229259   4.062   4.407   2.754  0.8749  0.6037  0.4459
 7138WAT    EPW29260   4.086   4.456   2.697  0.1037 -0.1829 -0.6736
 7139WAT      O29261   3.889   4.988   1.846  0.1250 -0.3581  0.1271
 7139WAT     H129262   3.813   4.945   1.837  0.3837 -0.6362 -0.8612
 7139WAT     H229263   3.928   4.947   1.913 -1.4573  1.1146  2.0719
 7139WAT    EPW29264   3.883   4.975   1.855  0.4181  0.2202  0.2114
 7140WAT      O29265   4.393   4.208   1.584 -0.2852 -0.5197  0.0357
 7140WAT     H129266   4.471   4.203   1.545 -0.2374 -1.0638  0.2036
 7140WAT     H229267   4.337   4.213   1.518 -0.1435 -0.5767 -0.0886
 7140WAT    EPW29268   4.396   4.208   1.568  0.1723  0.4091 -0.3180
 7141WAT      O29269   3.938   5.583   1.242 -0.6137  0.1723 -0.0508
 7141WAT     H129270   3.993   5.563   1.307 -1.7313  0.1921  0.9306
 7141WAT     H229271   3.902   5.506   1.221 -1.2864  0.3786  0.3296
 7141WAT    EPW29272   3.941   5.569   1.248 -0.4197 -0.8403 -0.0126
 7142WAT      O29273   3.976   4.909   0.914  0.5191  0.0252 -0.0141
 7142WAT     H129274   4.027   4.967   0.955  1.0224 -0.0140 -0.5784
 7142WAT     H229275   3.908   4.901   0.968  0.3080  1.3386 -0.0475
 7142WAT    EPW29276   3.974   4.917   0.928 -0.3909  0.3081  0.3602
 7143WAT      O29277   4.061   4.334   1.996  0.4013 -0.4178 -0.1385
 7143WAT     H129278   4.070   4.350   1.910 -2.1065  0.3693 -0.3392
 7143WAT     H229279   4.143   4.331   2.024  1.3019  0.5998 -2.3518
 7143WAT    EPW29280   4.074   4.336   1.987 -0.0877 -0.2358 -0.7703
 7144WAT      O29281   4.285   2.947   2.133  0.4580  0.2414  0.0412
 7144WAT     H129282   4.276   2.925   2.217 -2.2622 -1.0990 -0.4862
 7144WAT     H229283   4.356   2.997   2.132  1.6293 -1.1596  2.8447
 7144WAT    EPW29284   4.294   2.951   2.145  0.0399 -0.0307  0.4708
 7145WAT      O29285   2.741   4.409   2.206  0.6153  0.6242 -0.3700
 7145WAT     H129286   2.682   4.442   2.151  0.2797  0.6521 -0.0041
 7145WAT     H229287   2.788   4.478   2.230 -0.3107  0.9404  0.6705
 7145WAT    EPW29288   2.739   4.424   2.202  0.0127  0.1504 -0.7094
 7146WAT      O29289   4.010   3.210   0.996  0.2845 -0.1302  0.5790
 7146WAT     H129290   3.966   3.239   0.926 -0.5544  0.8417  1.4668
 7146WAT     H229291   3.999   3.124   0.993 -0.6028 -0.0130  0.0664
 7146WAT    EPW29292   4.002   3.201   0.985  1.4533 -0.6183  0.5098
 7147WAT      O29293   4.786   4.163   2.818 -0.2155  0.1918 -0.2550
 7147WAT     H129294   4.840   4.209   2.767 -0.4548  0.7298 -0.0330
 7147WAT     H229295   4.764   4.095   2.768  0.0961  0.3482 -0.6147
 7147WAT    EPW29296   4.790   4.160   2.803  0.5806  0.2208 -0.2875
 7148WAT      O29297   4.348   2.719   1.965  0.2648 -0.4478 -0.0301
 7148WAT     H129298   4.338   2.768   2.036 -0.0354 -1.6049  0.7624
 7148WAT     H229299   4.327   2.639   1.993  1.6050 -1.1845 -1.0501
 7148WAT    EPW29300   4.343   2.714   1.980  0.2103  0.0787  0.5961
 7149WAT      O29301   2.928   3.055   0.739  0.1001 -0.2250 -0.5017
 7149WAT     H129302   2.925   3.107   0.809 -1.0712  0.1908 -0.8458
 7149WAT     H229303   2.846   3.054   0.711  0.5979 -0.1746 -2.0300
 7149WAT    EPW29304   2.915   3.062   0.745  0.3612 -0.2447 -0.4419
 7150WAT      O29305   3.266   3.345   2.642  0.2460 -0.3610  1.0582
 7150WAT     H129306   3.346   3.317   2.620 -0.1666 -0.9663  0.2869
 7150WAT     H229307   3.240   3.390   2.572 -0.4434 -0.9282  0.9476
 7150WAT    EPW29308   3.274   3.348   2.628 -0.5841  0.3268 -0.0769
 7151WAT      O29309   3.205   4.239   2.368 -0.7999  0.0167  0.0788
 7151WAT     H129310   3.289   4.225   2.386 -0.7301  0.0097 -0.2597
 7151WAT     H229311   3.206   4.273   2.288 -1.0922  0.4056  0.2402
 7151WAT    EPW29312   3.218   4.242   2.359  0.5052  0.0597 -0.3526
 7152WAT      O29313   4.058   4.896   2.039  0.1182 -0.0559  0.2848
 7152WAT     H129314   4.143   4.878   2.031  0.4697  1.0257  1.2612
 7152WAT     H229315   4.034   4.853   2.111 -0.3235 -0.8536 -0.3263
 7152WAT    EPW29316   4.067   4.887   2.049 -0.0444  0.1653 -0.5036
 7153WAT      O29317   4.564   4.351   2.923  0.3165  0.0349 -0.2233
 7153WAT     H129318   4.615   4.298   2.877  0.1487 -1.2794  1.0314
 7153WAT     H229319   4.562   4.314   3.002  0.4371  2.0802  0.8059
 7153WAT    EPW29320   4.571   4.338   2.928  0.9580  0.3386 -0.8080
 7154WAT      O29321   5.008   5.011   1.629 -0.3598  0.0911 -0.2437
 7154WAT     H129322   4.958   5.075   1.600 -0.4064 -0.3834 -1.2501
 7154WAT     H229323   4.981   4.941   1.584  0.8920 -0.2609 -0.4868
 7154WAT    EPW29324   4.997   5.010   1.618 -0.1119  0.5328 -0.3584
 7155WAT      O29325   4.047   4.493   1.438 -0.1967  0.7590  0.0454
 7155WAT     H129326   4.018   4.573   1.418  0.7659  0.8350 -1.1530
 7155WAT     H229327   4.133   4.503   1.441 -0.1048 -0.1018  0.5595
 7155WAT    EPW29328   4.055   4.506   1.436  0.5735 -1.2106 -0.8767
 7156WAT      O29329   4.475   4.172   2.630 -0.8235 -0.4873  0.4290
 7156WAT     H129330   4.558   4.145   2.624 -0.3372  0.6684  1.4295
 7156WAT     H229331   4.430   4.111   2.587  0.6947 -0.3272 -1.5218
 7156WAT    EPW29332   4.480   4.159   2.623  0.4432  0.6362  0.1905
 7157WAT      O29333   4.449   5.249   1.447  0.2342  0.8814 -0.1525
 7157WAT     H129334   4.502   5.292   1.502  0.4984 -0.0589  0.3455
 7157WAT     H229335   4.369   5.273   1.473  0.3826  1.3813 -0.1445
 7157WAT    EPW29336   4.445   5.259   1.459 -0.6620 -0.3164 -0.1532
 7158WAT      O29337   5.061   2.498   1.507 -0.3116  0.2340 -0.2192
 7158WAT     H129338   5.147   2.513   1.514 -0.3643  0.0031  1.1734
 7158WAT     H229339   5.025   2.552   1.565 -1.0015 -0.5149  0.0815
 7158WAT    EPW29340   5.069   2.508   1.516 -0.1953 -0.6463 -0.0090
 7159WAT      O29341   4.198   5.547   7.704  0.3517  0.1279  0.2259
 7159WAT     H129342   4.170   5.567   7.624  1.9823  0.3638 -0.3390
 7159WAT     H229343   4.216   5.625   7.739 -0.6847  0.0474  0.9720
 7159WAT    EPW29344   4.197   5.562   7.697  0.0436 -0.0794 -0.0729
 7160WAT      O29345   4.083   4.381   2.979  0.1813 -0.1640 -0.0899
 7160WAT     H129346   4.133   4.320   3.017 -0.5327 -0.6952  0.0127
 7160WAT     H229347   4.039   4.416   3.045  1.2841  1.1654 -0.0102
 7160WAT    EPW29348   4.084   4.377   2.994 -0.3195 -0.6764 -0.3881
 7161WAT      O29349   2.640   4.103   1.778  0.2422  0.5185 -0.2296
 7161WAT     H129350   2.672   4.180   1.803  3.3734 -1.2276  1.7501
 7161WAT     H229351   2.605   4.070   1.851 -0.5403 -0.2349 -0.9188
 7161WAT    EPW29352   2.639   4.110   1.792  0.5657  0.3708 -0.3010
 7162WAT      O29353   2.094   2.202   1.538 -0.3041  0.1621 -0.2792
 7162WAT     H129354   2.065   2.164   1.466  0.4372  0.6842 -0.8650
 7162WAT     H229355   2.028   2.255   1.561 -0.7840 -0.4533 -0.2181
 7162WAT    EPW29356   2.080   2.204   1.531  0.2174  0.5237  0.0989
 7163WAT      O29357   3.620   2.892   2.161  0.3117  0.1150  0.3449
 7163WAT     H129358   3.547   2.869   2.202 -0.7910  2.8620  0.1356
 7163WAT     H229359   3.683   2.868   2.216 -0.8108 -1.0841  1.1617
 7163WAT    EPW29360   3.618   2.885   2.175  0.0406  0.4278  0.2519
 7164WAT      O29361   4.203   3.609   2.509  0.4378 -1.4036  0.2107
 7164WAT     H129362   4.203   3.524   2.531  1.8640 -1.3508  0.4812
 7164WAT     H229363   4.257   3.613   2.441 -1.1300 -0.9839 -1.0699
 7164WAT    EPW29364   4.211   3.597   2.502  0.3311 -0.1043  0.7001
 7165WAT      O29365   3.378   2.745   1.330  0.2594 -0.0452 -0.6621
 7165WAT     H129366   3.440   2.701   1.288 -0.1610  1.5841 -3.2347
 7165WAT     H229367   3.385   2.826   1.298 -1.5088  0.8071  0.9104
 7165WAT    EPW29368   3.388   2.751   1.319 -1.3179  0.0628 -0.0451
 7166WAT      O29369   4.463   4.520   2.660 -0.1240 -0.0725  0.1613
 7166WAT     H129370   4.468   4.550   2.578 -0.9024  0.5556  0.3257
 7166WAT     H229371   4.537   4.549   2.697  0.2198 -0.3381 -0.3110
 7166WAT    EPW29372   4.475   4.529   2.654  0.0332  0.6303 -1.1556
 7167WAT      O29373   3.395   4.874   1.268  0.5588  0.0358 -0.4843
 7167WAT     H129374   3.444   4.836   1.206  1.5890  0.0293  0.2941
 7167WAT     H229375   3.317   4.838   1.258  1.0936 -1.0823 -0.8314
 7167WAT    EPW29376   3.391   4.863   1.258 -0.7636 -0.0453  0.0474
 7168WAT      O29377   4.437   5.095   2.570  0.6611 -0.5476  0.3702
 7168WAT     H129378   4.353   5.083   2.591  0.2346 -0.7745 -1.3619
 7168WAT     H229379   4.474   5.018   2.591  0.4655 -0.4416  1.1472
 7168WAT    EPW29380   4.430   5.082   2.576 -0.1113  0.7473 -1.0529
 7169WAT      O29381   1.429   2.184   1.523  0.0426  0.0296  0.2403
 7169WAT     H129382   1.417   2.100   1.500 -1.0485  0.7447 -2.0348
 7169WAT     H229383   1.404   2.186   1.606 -2.8494 -1.3666 -0.4810
 7169WAT    EPW29384   1.424   2.172   1.532 -0.1680  0.0866  0.4432
 7170WAT      O29385   6.091   4.392   2.940 -0.0252 -0.3793 -0.0453
 7170WAT     H129386   6.048   4.425   3.009  2.6252  1.6551  0.8123
 7170WAT     H229387   6.135   4.324   2.973 -0.3510 -0.6957 -0.2512
 7170WAT    EPW29388   6.091   4.387   2.955 -0.0420 -0.0184  0.1038
 7171WAT      O29389   2.405   2.554   1.849 -0.2088 -0.2571 -0.0224
 7171WAT     H129390   2.368   2.633   1.852 -0.5502 -0.3450 -1.5262
 7171WAT     H229391   2.461   2.560   1.783 -0.8615 -1.5257 -0.7265
 7171WAT    EPW29392   2.408   2.567   1.840  1.3606 -0.6999  0.2274
 7172WAT      O29393   1.431   1.700   2.636 -0.5527 -0.1800  0.2861
 7172WAT     H129394   1.406   1.624   2.601  0.7219 -0.4740 -0.0634
 7172WAT     H229395   1.497   1.677   2.689  0.2580  0.7281 -0.2826
 7172WAT    EPW29396   1.437   1.685   2.639  0.0816 -0.4166  0.6526
 7173WAT      O29397   4.489   3.813   2.987 -0.1307 -0.1143 -0.5092
 7173WAT     H129398   4.573   3.816   3.010 -0.7655 -1.6364  2.4702
 7173WAT     H229399   4.489   3.762   2.916  1.3317 -2.0345  0.7605
 7173WAT    EPW29400   4.501   3.806   2.980  0.4883  0.6112 -0.4318
 7174WAT      O29401   5.313   2.453   1.851  0.6029  0.1066 -0.7463
 7174WAT     H129402   5.283   2.533   1.832  0.2118 -0.0814 -0.9414
 7174WAT     H229403   5.294   2.406   1.780 -1.1748 -0.6921  0.1695
 7174WAT    EPW29404   5.305   2.458   1.838  0.2155 -0.1393 -0.1455
 7175WAT      O29405   2.465   4.361   2.953 -0.2849 -0.2823 -0.7150
 7175WAT     H129406   2.485   4.359   2.868  0.5860 -1.4411 -0.5029
 7175WAT     H229407   2.378   4.374   2.953 -0.2968 -0.2831 -1.7754
 7175WAT    EPW29408   2.455   4.363   2.940 -0.1889 -0.1394 -0.4647
 7176WAT      O29409   5.437   4.752   0.927 -0.1688  0.4749  0.0476
 7176WAT     H129410   5.522   4.755   0.911 -0.0766  1.6026  0.6434
 7176WAT     H229411   5.432   4.710   1.004 -0.3769 -1.9710 -1.2048
 7176WAT    EPW29412   5.448   4.746   0.936  0.2059  0.1440 -0.4890
 7177WAT      O29413   4.277   3.873   3.157 -0.2982 -0.3249  0.6696
 7177WAT     H129414   4.322   3.854   3.085  1.7981  0.0803  1.8089
 7177WAT     H229415   4.285   3.801   3.206 -1.6769 -0.5797  0.5693
 7177WAT    EPW29416   4.284   3.860   3.153 -0.2760 -0.1377  0.4050
 7178WAT      O29417   4.873   4.284   1.305  0.5027  0.0651  0.4184
 7178WAT     H129418   4.923   4.343   1.265 -0.5440 -1.2523 -3.2179
 7178WAT     H229419   4.907   4.207   1.281 -0.8317 -0.8405  1.2290
 7178WAT    EPW29420   4.885   4.281   1.295  0.4487  0.6700 -0.5919
 7179WAT      O29421   3.772   4.516   2.737  0.0125  0.1675 -0.2165
 7179WAT     H129422   3.821   4.580   2.704  2.5132 -1.7789 -0.5983
 7179WAT     H229423   3.789   4.518   2.822  0.3377 -0.1114 -0.2677
 7179WAT    EPW29424   3.782   4.526   2.745 -0.6886  0.4908 -0.0257
 7180WAT      O29425   4.525   4.813   2.589  0.4217 -0.0365 -0.3740
 7180WAT     H129426   4.556   4.745   2.544 -1.8394 -0.6212 -1.1830
 7180WAT     H229427   4.580   4.820   2.656  0.1726 -3.3548  0.3454
 7180WAT    EPW29428   4.537   4.804   2.592 -0.7429  0.5508  0.1543
 7181WAT      O29429   4.279   3.875   1.401  0.0002 -0.5677  0.1623
 7181WAT     H129430   4.339   3.877   1.339  0.6220 -2.5194  0.6232
 7181WAT     H229431   4.204   3.864   1.357  0.2188 -0.1681 -0.3143
 7181WAT    EPW29432   4.277   3.874   1.385  0.5118 -0.0650 -0.5932
 7182WAT      O29433   5.110   4.930   2.367  0.3454 -0.0079  0.3243
 7182WAT     H129434   5.108   4.986   2.300  0.1603  0.7763  0.9651
 7182WAT     H229435   5.026   4.909   2.379  0.3987 -0.3085  0.1854
 7182WAT    EPW29436   5.097   4.935   2.359  0.0345  0.2544 -0.4881
 7183WAT      O29437   5.228   5.085   2.801  0.3669  0.1533  0.3116
 7183WAT     H129438   5.203   5.164   2.772  0.6414  0.1901  0.1656
 7183WAT     H229439   5.182   5.074   2.874 -0.5080 -0.0305 -0.2436
 7183WAT    EPW29440   5.218   5.095   2.807 -0.1435  0.1011  0.0206
 7184WAT      O29441   5.003   2.986   0.843  0.7923 -0.8529  0.3594
 7184WAT     H129442   4.969   2.921   0.795 -0.9572 -0.6286  1.2500
 7184WAT     H229443   4.944   2.999   0.906  1.1149  1.5999  0.2387
 7184WAT    EPW29444   4.989   2.978   0.845 -0.1784  0.5471  0.5905
 7185WAT      O29445   3.801   3.325   0.536  0.2602 -0.6164 -0.7858
 7185WAT     H129446   3.861   3.384   0.513 -0.0521 -0.4171 -1.0975
 7185WAT     H229447   3.727   3.371   0.537  0.2332 -0.6585  0.4606
 7185WAT    EPW29448   3.799   3.340   0.533  0.0843 -0.4108  0.4635
 7186WAT      O29449   3.334   3.573   2.903  0.0349 -0.3321  0.4393
 7186WAT     H129450   3.340   3.565   2.817  0.6554  1.1224  0.3235
 7186WAT     H229451   3.410   3.543   2.933  0.0990 -0.1842  0.4259
 7186WAT    EPW29452   3.346   3.567   2.895 -0.4745  0.0693  0.9461
 7187WAT      O29453   4.658   3.619   1.639  0.8258 -0.6791 -0.0289
 7187WAT     H129454   4.717   3.597   1.579  2.9776 -0.0782  1.7395
 7187WAT     H229455   4.636   3.543   1.675  0.4286 -0.9141 -0.7510
 7187WAT    EPW29456   4.664   3.605   1.635 -0.0645 -0.2370 -0.2059
 7188WAT      O29457   4.038   3.647   1.986  0.3221  0.2560  0.5257
 7188WAT     H129458   4.083   3.586   1.941  2.0938  0.4689  1.9092
 7188WAT     H229459   3.991   3.600   2.042 -0.6598  0.0715 -0.4048
 7188WAT    EPW29460   4.037   3.631   1.987  0.3764 -0.2144  0.2636
 7189WAT      O29461   3.132   4.459   3.322 -0.2067 -0.1457 -0.0633
 7189WAT     H129462   3.191   4.515   3.289  0.5542  0.6534  2.4277
 7189WAT     H229463   3.181   4.400   3.363 -1.1073 -1.1120 -0.3387
 7189WAT    EPW29464   3.148   4.459   3.323 -0.1888 -0.1319 -0.8466
 7190WAT      O29465   4.823   2.153   1.264 -0.4328 -0.6965 -0.5322
 7190WAT     H129466   4.867   2.163   1.338 -2.2469  0.7121  0.4236
 7190WAT     H229467   4.848   2.073   1.236 -0.0635 -1.4686  1.8107
 7190WAT    EPW29468   4.833   2.142   1.271  0.6177 -0.3356 -0.0686
 7191WAT      O29469   4.705   4.038   2.589 -0.1034  0.2322  0.3840
 7191WAT     H129470   4.706   3.960   2.549 -0.9454  0.7167 -0.6362
 7191WAT     H229471   4.734   4.093   2.528  0.7505  0.6927  1.1887
 7191WAT    EPW29472   4.710   4.035   2.574 -0.4946  0.5116 -0.2074
 7192WAT      O29473   4.342   5.378   1.857  0.1195  0.6036  0.2582
 7192WAT     H129474   4.299   5.303   1.863  0.4165  0.4646  0.7449
 7192WAT     H229475   4.312   5.424   1.925 -1.1672  1.5174 -0.8766
 7192WAT    EPW29476   4.331   5.374   1.868  0.2694  0.5050  0.8352
 7193WAT      O29477   4.318   4.078   2.870  0.2640  0.0354  0.2973
 7193WAT     H129478   4.374   4.011   2.867 -0.3725 -0.4726 -1.1462
 7193WAT     H229479   4.307   4.092   2.955  2.0298 -0.3017  0.6227
 7193WAT    EPW29480   4.324   4.071   2.882  0.0270  0.2443 -0.5514
 7194WAT      O29481   3.692   5.085   2.092 -0.2939 -0.5975 -0.0351
 7194WAT     H129482   3.643   5.089   2.164  0.2934  2.8591  0.3213
 7194WAT     H229483   3.637   5.112   2.029  0.0557 -0.6081 -0.3468
 7194WAT    EPW29484   3.677   5.089   2.093  0.2429  0.6304 -0.3964
 7195WAT      O29485   5.067   5.138   1.924 -0.0177 -0.1495  0.4985
 7195WAT     H129486   5.076   5.140   1.838  1.2061 -0.7533  0.5845
 7195WAT     H229487   5.094   5.217   1.950 -0.9500  0.2433  0.2972
 7195WAT    EPW29488   5.072   5.150   1.916 -0.5900  0.0408 -0.4022
 7196WAT      O29489   4.832   4.892   2.402 -0.2680  0.1586  0.0072
 7196WAT     H129490   4.807   4.809   2.395 -2.3831  0.7843 -0.6207
 7196WAT     H229491   4.784   4.933   2.342  0.4941  1.8890  0.5223
 7196WAT    EPW29492   4.822   4.886   2.392  0.1326  0.1631  0.6309
 7197WAT      O29493   3.698   3.809   3.370  0.0611 -0.3023  0.2578
 7197WAT     H129494   3.772   3.820   3.414  1.9178 -1.5292 -2.3110
 7197WAT     H229495   3.671   3.729   3.394  2.2716 -1.9590 -2.1722
 7197WAT    EPW29496   3.705   3.799   3.380 -0.4255 -0.5828 -0.5909
 7198WAT      O29497   3.328   4.045   1.948 -0.1605 -0.2573 -0.1685
 7198WAT     H129498   3.355   4.085   1.875  2.6995  0.3612  1.1172
 7198WAT     H229499   3.279   4.106   1.987  0.0102  0.1455 -0.5711
 7198WAT    EPW29500   3.325   4.060   1.943 -0.3631 -0.4296 -0.2170
 7199WAT      O29501   5.468   5.109   1.910 -0.2734  0.3811 -0.4312
 7199WAT     H129502   5.402   5.158   1.882  1.7857  3.2134 -0.7368
 7199WAT     H229503   5.479   5.050   1.846 -3.3769 -1.2794  0.3572
 7199WAT    EPW29504   5.460   5.107   1.896  0.3094  0.1686 -0.4929
 7200WAT      O29505   4.586   3.990   1.820 -0.2157  0.1589 -0.0103
 7200WAT     H129506   4.584   4.063   1.772 -1.4882  0.4020  0.3657
 7200WAT     H229507   4.543   4.013   1.893 -2.0086 -1.3800 -0.5289
 7200WAT    EPW29508   4.579   4.005   1.824 -0.3402  0.0850  0.5433
 7201WAT      O29509   3.702   3.769   2.338  0.1925  0.0222  0.3490
 7201WAT     H129510   3.776   3.812   2.319 -0.2146 -0.2797 -2.1959
 7201WAT     H229511   3.731   3.694   2.372  1.1423 -0.3948 -1.2543
 7201WAT    EPW29512   3.718   3.764   2.340 -0.6196 -0.5082 -0.0176
 7202WAT      O29513   3.387   3.771   0.775  0.0590  0.4343  0.3068
 7202WAT     H129514   3.391   3.744   0.858  1.6325 -2.3085 -0.5202
 7202WAT     H229515   3.438   3.841   0.773  1.2153 -0.3360  1.4248
 7202WAT    EPW29516   3.395   3.777   0.787 -0.7105 -0.1944  0.3188
 7203WAT      O29517   3.912   4.198   0.829 -0.1923  0.1200 -0.8896
 7203WAT     H129518   3.862   4.133   0.856 -0.0895  0.2171 -0.4500
 7203WAT     H229519   3.979   4.197   0.885 -0.4348  0.9122 -0.5718
 7203WAT    EPW29520   3.915   4.188   0.841 -0.3264 -0.5513  0.0939
 7204WAT      O29521   4.324   4.493   1.506 -0.4987 -0.0101 -0.2156
 7204WAT     H129522   4.305   4.416   1.543  0.8336  0.2124  1.0159
 7204WAT     H229523   4.366   4.470   1.434  1.5731 -0.5022  1.0716
 7204WAT    EPW29524   4.327   4.478   1.501  0.7338  0.3106  0.2116
 7205WAT      O29525   3.730   3.870   1.337  0.3386  0.7136 -0.5573
 7205WAT     H129526   3.725   3.827   1.261  1.0557 -0.0113 -0.2046
 7205WAT     H229527   3.650   3.906   1.345 -0.2171 -0.3748 -0.9777
 7205WAT    EPW29528   3.717   3.869   1.327 -1.1805  0.3526  0.4434
 7206WAT      O29529   3.987   4.203   0.566  0.0560 -0.7857 -0.4737
 7206WAT     H129530   3.947   4.191   0.642  1.4844 -0.6732  0.3317
 7206WAT     H229531   3.952   4.276   0.535  0.5137  0.0243  0.8243
 7206WAT    EPW29532   3.976   4.212   0.573 -0.0264 -0.4331 -1.0054
 7207WAT      O29533   4.145   3.954   2.713 -0.2078  0.0962 -0.0368
 7207WAT     H129534   4.188   4.001   2.772  1.6484  0.5348 -1.6230
 7207WAT     H229535   4.155   3.872   2.742  0.5736  0.3095  0.3265
 7207WAT    EPW29536   4.153   3.949   2.726  0.0440 -0.1610 -0.8397
 7208WAT      O29537   3.472   4.014   2.232  0.6625  0.1075 -0.4004
 7208WAT     H129538   3.512   4.059   2.169  2.3226  2.0643  1.8881
 7208WAT     H229539   3.503   4.048   2.305 -1.9349 -1.3589  1.5653
 7208WAT    EPW29540   3.482   4.025   2.233 -0.7582  0.4963 -0.1066
 7209WAT      O29541   4.282   4.193   3.132  0.0739  0.2577  0.4245
 7209WAT     H129542   4.366   4.208   3.150  1.0419 -1.0509 -2.3678
 7209WAT     H229543   4.254   4.148   3.201  2.7463 -2.3423  0.0009
 7209WAT    EPW29544   4.290   4.188   3.145  0.2268  0.7911 -0.1028
 7210WAT      O29545   4.726   7.182   4.209 -0.1680  0.7280  0.3252
 7210WAT     H129546   4.767   7.126   4.156  0.8505  1.5056  0.2556
 7210WAT     H229547   4.672   7.132   4.255  0.7204 -0.3150  0.2658
 7210WAT    EPW29548   4.724   7.167   4.208  0.3034  0.0011  0.2118
 7211WAT      O29549   3.398   2.538   2.679  0.3384  0.0767 -0.3835
 7211WAT     H129550   3.457   2.511   2.622 -1.1404 -1.0160 -1.4578
 7211WAT     H229551   3.409   2.625   2.680  0.7245  0.0677 -1.9451
 7211WAT    EPW29552   3.408   2.547   2.671  0.5545 -0.0744 -0.5866
 7212WAT      O29553   3.904   4.522   3.159 -0.6444 -0.4634  0.3215
 7212WAT     H129554   3.866   4.503   3.236 -1.0100 -0.6885  0.0860
 7212WAT     H229555   3.837   4.522   3.103 -0.2473 -1.1800 -0.1517
 7212WAT    EPW29556   3.888   4.520   3.162 -0.4091  0.0014  1.0028
 7213WAT      O29557   2.994   3.673   1.523 -0.1805  0.2939 -0.1464
 7213WAT     H129558   2.964   3.609   1.472  0.8443 -0.1811 -0.1963
 7213WAT     H229559   2.939   3.673   1.591  0.3101 -1.2818  0.2935
 7213WAT    EPW29560   2.982   3.663   1.525  0.2975  0.0167  0.3583
 7214WAT      O29561   3.300   5.014   3.280 -0.3075  0.4174  0.1898
 7214WAT     H129562   3.236   4.962   3.252 -0.5194  0.9565 -0.3459
 7214WAT     H229563   3.373   4.972   3.254 -0.4316 -0.2595  0.9174
 7214WAT    EPW29564   3.301   5.000   3.272 -1.0670  0.2086  0.9033
 7215WAT      O29565   4.052   4.396   2.424  0.0363 -0.0826 -0.1303
 7215WAT     H129566   3.995   4.330   2.422 -2.4675  1.9358 -0.5754
 7215WAT     H229567   4.053   4.420   2.508 -0.3373  0.3306 -0.2419
 7215WAT    EPW29568   4.044   4.389   2.436  0.6305 -0.1352 -0.1697
 7216WAT      O29569   3.966   5.081   2.452  0.2605 -0.4758  0.2860
 7216WAT     H129570   4.046   5.091   2.418  0.9465 -1.9806  1.3541
 7216WAT     H229571   3.927   5.027   2.396  0.2934 -0.4296  0.2182
 7216WAT    EPW29572   3.972   5.075   2.439  0.2069 -0.3420 -0.0656
 7217WAT      O29573   3.867   3.613   2.701  0.3532 -0.2050 -0.1669
 7217WAT     H129574   3.802   3.656   2.740 -0.2599 -1.6891  0.5209
 7217WAT     H229575   3.894   3.557   2.761  1.5201 -0.3898 -0.8376
 7217WAT    EPW29576   3.861   3.611   2.716 -0.6227 -0.1258 -0.0077
 7218WAT      O29577   4.410   3.758   0.300  0.0584 -0.0937 -0.7868
 7218WAT     H129578   4.353   3.781   0.238  0.4795  1.7009 -0.5504
 7218WAT     H229579   4.380   3.797   0.372  2.0333  1.7228 -0.8494
 7218WAT    EPW29580   4.397   3.767   0.301  0.5152 -0.1559 -0.5673
 7219WAT      O29581   4.864   4.325   1.837 -0.1555 -0.3255 -0.1255
 7219WAT     H129582   4.913   4.254   1.850  0.6713 -0.0897 -1.7469
 7219WAT     H229583   4.861   4.333   1.751  0.5329  2.0867 -0.0087
 7219WAT    EPW29584   4.871   4.316   1.826 -0.4577 -0.1622 -0.5656
 7220WAT      O29585   2.990   4.504   1.949 -0.6172  0.2119  0.0053
 7220WAT     H129586   2.989   4.591   1.954 -0.6001  0.1446  1.5238
 7220WAT     H229587   2.980   4.478   2.032  0.0208 -1.2379 -0.3406
 7220WAT    EPW29588   2.988   4.513   1.962 -0.1890 -0.4013 -0.3197
 7221WAT      O29589   2.687   5.259   1.173  0.3366 -0.2909 -0.3476
 7221WAT     H129590   2.643   5.191   1.205 -1.6967  1.9454  2.0756
 7221WAT     H229591   2.625   5.317   1.155  2.0109  1.1236 -2.0091
 7221WAT    EPW29592   2.671   5.258   1.175  0.3342  0.2941  0.0411
 7222WAT      O29593   2.664   5.035   3.428 -0.1010  0.0223  0.3332
 7222WAT     H129594   2.601   5.090   3.453 -0.0067  0.3028 -0.0430
 7222WAT     H229595   2.726   5.047   3.489  0.9835  2.1978 -1.0558
 7222WAT    EPW29596   2.664   5.045   3.441 -0.8472  0.2020  0.3701
 7223WAT      O29597   4.222   4.452   1.148  0.6234 -0.6771  0.3300
 7223WAT     H129598   4.213   4.378   1.101 -1.8902 -0.2610 -0.0117
 7223WAT     H229599   4.167   4.507   1.108 -1.5400 -0.2187  3.5741
 7223WAT    EPW29600   4.213   4.449   1.135  0.8184  0.7739 -1.8373
 7224WAT      O29601   2.480   6.276   1.101 -0.2814  0.2140 -0.2915
 7224WAT     H129602   2.476   6.361   1.080  0.0475  0.7359  1.5761
 7224WAT     H229603   2.546   6.246   1.053 -1.9752  0.3213 -2.9685
 7224WAT    EPW29604   2.489   6.284   1.090  0.5658  0.6784 -0.5146
 7225WAT      O29605   3.851   5.249   1.741 -0.0345 -0.2757  0.0671
 7225WAT     H129606   3.872   5.183   1.794 -1.4740 -0.3774  0.5653
 7225WAT     H229607   3.773   5.274   1.771  0.0942  1.0787 -0.6706
 7225WAT    EPW29608   3.842   5.243   1.753  1.4703 -0.8996 -0.0419
 7226WAT      O29609   3.068   4.848   0.521  0.4327  0.3476 -0.3029
 7226WAT     H129610   3.052   4.776   0.474  0.4139 -0.7098  1.2449
 7226WAT     H229611   3.112   4.899   0.465 -1.1546 -0.0568 -2.0313
 7226WAT    EPW29612   3.072   4.845   0.506  0.8044  0.2020  0.0992
 7227WAT      O29613   3.936   4.602   7.718 -0.4188  0.7691  0.2730
 7227WAT     H129614   3.863   4.595   7.766 -0.8348  1.1396 -0.2927
 7227WAT     H229615   3.965   4.520   7.715 -1.4580  0.4069 -0.4695
 7227WAT    EPW29616   3.930   4.589   7.725  0.8496  0.3602 -0.0052
 7228WAT      O29617   3.626   4.351   1.667 -0.7045 -0.7651  1.0447
 7228WAT     H129618   3.671   4.422   1.690 -1.0268 -0.8480  2.0075
 7228WAT     H229619   3.544   4.382   1.657 -0.7534 -0.9142  0.9910
 7228WAT    EPW29620   3.620   4.366   1.669 -1.3461 -0.2638  0.9818
 7229WAT      O29621   3.313   4.111   1.233  0.2155  0.4902 -0.5853
 7229WAT     H129622   3.254   4.048   1.244 -0.7209  1.2775 -0.9108
 7229WAT     H229623   3.317   4.148   1.312 -0.1853  0.8003 -0.7016
 7229WAT    EPW29624   3.305   4.107   1.246 -0.2140 -1.0811 -0.4953
 7230WAT      O29625   1.092   4.114   0.553  0.5358 -0.0114 -0.4424
 7230WAT     H129626   1.087   4.200   0.568 -0.7461 -0.1760  0.2081
 7230WAT     H229627   1.136   4.084   0.623  0.6725  0.0773 -0.4910
 7230WAT    EPW29628   1.098   4.122   0.566  0.6560  0.4665  0.3044
 7231WAT      O29629   1.266   2.540   0.010  1.1210 -0.0348 -0.0480
 7231WAT     H129630   1.241   2.551   0.093 -1.7048  1.2521 -0.9245
 7231WAT     H229631   1.235   2.461  -0.010  0.1939  0.3936 -0.3462
 7231WAT    EPW29632   1.258   2.530   0.020 -0.2084  0.3169 -0.6297
 7232WAT      O29633   3.777   2.870   1.942 -0.5541 -0.2019 -0.7070
 7232WAT     H129634   3.735   2.894   1.869 -1.2180 -3.4318 -1.5218
 7232WAT     H229635   3.713   2.844   1.995  0.1334 -1.7144 -0.5698
 7232WAT    EPW29636   3.761   2.870   1.939  0.4633  0.6452 -0.6463
 7233WAT      O29637   4.864   4.635   0.995  0.2663  0.6985 -0.6821
 7233WAT     H129638   4.846   4.635   0.910  0.9196 -1.5618 -0.9045
 7233WAT     H229639   4.799   4.589   1.030  1.6070 -1.1786 -0.4787
 7233WAT    EPW29640   4.852   4.628   0.988 -0.0295 -0.1781  0.1715
 7234WAT      O29641   2.976   3.251   0.949 -0.8875 -0.1818 -0.1981
 7234WAT     H129642   2.921   3.272   1.013  0.4667  2.5052  0.2143
 7234WAT     H229643   2.998   3.329   0.915  0.6143 -1.3426 -2.0789
 7234WAT    EPW29644   2.971   3.266   0.953  0.0616  0.6661 -0.6656
 7235WAT      O29645   5.343   2.686   2.912  0.1500  0.1881 -0.5285
 7235WAT     H129646   5.429   2.693   2.900  0.1478 -2.1360 -2.9223
 7235WAT     H229647   5.332   2.712   2.994  2.5876  3.7876 -1.0861
 7235WAT    EPW29648   5.354   2.691   2.922  0.3699 -0.1651  0.3204
 7236WAT      O29649   2.933   4.647   0.138 -0.2791  0.0507  0.4655
 7236WAT     H129650   2.995   4.595   0.105 -2.1387 -0.2739 -3.0223
 7236WAT     H229651   2.955   4.726   0.109 -1.2154 -0.0025 -0.4463
 7236WAT    EPW29652   2.946   4.651   0.129 -0.8250 -0.6661 -1.3538
 7237WAT      O29653   5.294   3.037   2.284  0.2675 -0.3306 -0.4263
 7237WAT     H129654   5.368   3.076   2.309  0.3646 -0.0240 -1.1813
 7237WAT     H229655   5.253   3.020   2.359  0.4723  0.7354 -0.0626
 7237WAT    EPW29656   5.299   3.040   2.299 -0.1356 -0.0553 -0.3151
 7238WAT      O29657   3.425   3.703   2.357  0.0184  0.7774  0.0950
 7238WAT     H129658   3.381   3.746   2.295 -0.2329 -0.2370 -0.4426
 7238WAT     H229659   3.509   3.717   2.335 -0.0629 -0.4761 -1.1415
 7238WAT    EPW29660   3.431   3.711   2.345 -0.0993 -0.5376 -0.7095
 7239WAT      O29661   4.630   4.591   1.547 -0.0078  0.0155  0.4881
 7239WAT     H129662   4.650   4.646   1.612 -0.7283 -0.1833  0.8823
 7239WAT     H229663   4.544   4.579   1.556 -0.1013 -0.0866 -0.4485
 7239WAT    EPW29664   4.620   4.598   1.558 -1.3530  0.3998  0.1042
 7240WAT      O29665   2.814   4.545   1.041  0.5099  0.0970  0.0005
 7240WAT     H129666   2.848   4.465   1.046  0.8470  0.2593  0.4050
 7240WAT     H229667   2.786   4.560   1.123 -0.3797  0.0376 -0.2870
 7240WAT    EPW29668   2.815   4.536   1.054 -0.2006 -1.3307 -0.8645
 7241WAT      O29669   4.238   4.255   0.734  0.1633 -0.4453 -0.0520
 7241WAT     H129670   4.180   4.257   0.669  1.1818  3.5647 -1.1213
 7241WAT     H229671   4.305   4.211   0.701 -0.5592 -1.2332 -0.4857
 7241WAT    EPW29672   4.239   4.249   0.720  0.0624 -0.3583  0.3021
 7242WAT      O29673   2.712   4.696   7.695 -0.1895  0.0762 -0.3367
 7242WAT     H129674   2.699   4.734   7.618  1.0099 -0.2893 -0.7230
 7242WAT     H229675   2.796   4.673   7.694 -0.3422 -0.6129  0.7778
 7242WAT    EPW29676   2.722   4.698   7.684  0.4138  0.2578  0.1549
 7243WAT      O29677   3.748   4.585   1.727  0.6017  0.3922  0.2426
 7243WAT     H129678   3.825   4.568   1.763  1.8130  0.6909 -2.0715
 7243WAT     H229679   3.722   4.658   1.769  2.6177  1.5527 -0.4292
 7243WAT    EPW29680   3.755   4.593   1.739 -0.3845  0.8230 -0.4821
 7244WAT      O29681   3.571   3.719   0.350  0.3002  0.0072  0.2834
 7244WAT     H129682   3.592   3.643   0.312  2.3043  1.3104 -1.4054
 7244WAT     H229683   3.492   3.737   0.316 -0.1616 -1.2463  0.6366
 7244WAT    EPW29684   3.562   3.710   0.339  0.5158  0.2360  0.1187
 7245WAT      O29685   5.493   3.437   0.706  0.2137  0.1676  0.0779
 7245WAT     H129686   5.529   3.364   0.735  1.4092  0.4714 -0.5945
 7245WAT     H229687   5.436   3.458   0.769  0.9393 -0.5278  0.9967
 7245WAT    EPW29688   5.490   3.430   0.720  0.5189 -0.3858  0.0231
 7246WAT      O29689   4.453   2.735   0.499  0.1745 -0.2178  0.2035
 7246WAT     H129690   4.384   2.681   0.498  1.2340 -1.6439  1.0286
 7246WAT     H229691   4.479   2.736   0.415  1.1445 -2.3878  0.4127
 7246WAT    EPW29692   4.447   2.727   0.486 -0.0073  0.3656 -0.2122
 7247WAT      O29693   1.562   4.163   0.170  0.0854  0.5635  0.8333
 7247WAT     H129694   1.623   4.099   0.173 -1.5076 -1.0160  1.2502
 7247WAT     H229695   1.526   4.153   0.091 -0.0415  1.0801  0.8280
 7247WAT    EPW29696   1.566   4.152   0.159 -0.2745  0.8489  0.0861
 7248WAT      O29697   3.486   3.123   0.467  0.1667  0.0360 -0.3074
 7248WAT     H129698   3.405   3.138   0.437  0.3224  1.3976 -0.1383
 7248WAT     H229699   3.505   3.196   0.510  1.8235  0.1235 -1.1035
 7248WAT    EPW29700   3.477   3.136   0.469  0.3038  0.1628 -0.1565
 7249WAT      O29701   2.607   4.207   1.102 -0.1959  0.1746  0.0071
 7249WAT     H129702   2.552   4.230   1.166 -0.6531 -2.5755  0.7035
 7249WAT     H229703   2.658   4.278   1.094 -4.3812  3.4960 -1.5818
 7249WAT    EPW29704   2.606   4.221   1.111 -0.2309  0.1635 -0.1775
 7250WAT      O29705   5.105   5.520   0.725 -0.3148  0.4044 -0.4129
 7250WAT     H129706   5.085   5.496   0.807  1.3439 -0.2683 -0.1605
 7250WAT     H229707   5.047   5.477   0.676 -1.3225  0.8022  0.3830
 7250WAT    EPW29708   5.093   5.510   0.730 -0.4921  0.2203 -0.0294
 7251WAT      O29709   4.260   4.621   0.408 -0.1442 -0.1687 -0.9557
 7251WAT     H129710   4.283   4.543   0.377  0.7359 -0.3368  0.0478
 7251WAT     H229711   4.317   4.634   0.473  1.2448  2.3262 -2.5302
 7251WAT    EPW29712   4.272   4.611   0.413 -0.0267 -0.2437 -0.4148
 7252WAT      O29713   4.237   3.400   0.979  0.0811 -0.3026  0.2640
 7252WAT     H129714   4.170   3.355   1.011 -0.5863  0.0778 -0.5332
 7252WAT     H229715   4.201   3.444   0.912  0.8639  0.8163  0.5515
 7252WAT    EPW29716   4.222   3.400   0.974  0.0786 -0.3264 -1.3742
 7253WAT      O29717   1.916   3.424   0.594 -0.5094  0.1067  0.5450
 7253WAT     H129718   1.944   3.506   0.602  1.7636 -0.6989  1.8074
 7253WAT     H229719   1.836   3.426   0.627  0.0691  1.5637  1.9764
 7253WAT    EPW29720   1.909   3.436   0.600 -0.0377  0.0643  0.1433
 7254WAT      O29721   5.460   4.297   1.332 -0.2778  0.0567 -0.6680
 7254WAT     H129722   5.420   4.308   1.256 -0.2346 -0.8577 -0.8282
 7254WAT     H229723   5.394   4.289   1.389 -0.3509  2.3749 -0.3065
 7254WAT    EPW29724   5.445   4.298   1.329 -0.1913  0.0466  0.1772
 7255WAT      O29725   3.648   4.149   1.439  0.4797  0.0609 -0.3499
 7255WAT     H129726   3.669   4.224   1.478  2.3602 -0.7161  0.2555
 7255WAT     H229727   3.604   4.106   1.501 -0.5471  0.6032 -0.6781
 7255WAT    EPW29728   3.645   4.154   1.454  0.8575 -0.1773  0.4580
 7256WAT      O29729   3.311   2.764   0.772 -0.0862 -0.0434 -0.3255
 7256WAT     H129730   3.234   2.788   0.739  0.8704  1.0963 -1.8949
 7256WAT     H229731   3.368   2.818   0.733  1.5840 -1.2182  0.3509
 7256WAT    EPW29732   3.308   2.776   0.762  0.5441  0.4842  0.2399
 7257WAT      O29733   2.444   4.071   0.331 -0.4171 -0.0767 -0.0625
 7257WAT     H129734   2.360   4.094   0.323  0.0150  1.7545  0.3035
 7257WAT     H229735   2.459   4.076   0.417 -0.1966 -1.5091  0.0103
 7257WAT    EPW29736   2.434   4.075   0.343 -0.3478  0.2705 -0.1951
 7258WAT      O29737   4.504   4.054   0.806 -0.4567  0.1312  0.0300
 7258WAT     H129738   4.539   4.114   0.859 -0.8382  0.7146 -0.3669
 7258WAT     H229739   4.556   3.984   0.817  0.2537  0.6701  0.1646
 7258WAT    EPW29740   4.517   4.052   0.816 -0.4066 -1.3033 -0.1619
 7259WAT      O29741   2.380   2.628   1.466 -0.3152 -0.3821  0.3038
 7259WAT     H129742   2.437   2.616   1.401  1.0554 -2.3378  1.7769
 7259WAT     H229743   2.333   2.555   1.467 -1.6030  0.4074  0.3658
 7259WAT    EPW29744   2.381   2.616   1.456  0.3306  0.3923  0.5057
 7260WAT      O29745   2.600   4.067   0.548 -0.7137  0.3795  0.3665
 7260WAT     H129746   2.618   4.050   0.632  1.3543 -0.7893 -0.2413
 7260WAT     H229747   2.674   4.101   0.517 -1.1847  0.1091 -1.1623
 7260WAT    EPW29748   2.614   4.069   0.556  0.4524 -0.1191  0.0135
 7261WAT      O29749   5.325   3.754   2.024  0.0030  1.0578  0.4339
 7261WAT     H129750   5.250   3.765   1.981 -0.4391 -1.3479  0.4053
 7261WAT     H229751   5.303   3.765   2.108 -1.0482 -1.9009  0.6615
 7261WAT    EPW29752   5.310   3.757   2.030 -0.3515  1.0092 -0.2429
 7262WAT      O29753   3.977   4.055   1.963  0.0551 -0.6426 -0.6507
 7262WAT     H129754   3.909   4.065   1.909 -0.4354  0.6478  0.1413
 7262WAT     H229755   4.006   4.137   1.974  1.0949 -1.0617 -0.1599
 7262WAT    EPW29756   3.971   4.069   1.957 -0.0286  0.1531  0.2510
 7263WAT      O29757   3.088   3.728   6.823 -0.6486 -0.6548 -0.1495
 7263WAT     H129758   3.072   3.672   6.888  0.6844  1.2448  1.9772
 7263WAT     H229759   3.015   3.776   6.819 -0.5968 -0.5461  0.2009
 7263WAT    EPW29760   3.075   3.727   6.832  0.2602  0.1048 -0.3656
 7264WAT      O29761   3.734   3.967   0.937 -0.6133  0.1791  0.4478
 7264WAT     H129762   3.689   4.002   1.003  0.2883 -0.2816  1.3303
 7264WAT     H229763   3.775   3.899   0.973  0.4827  0.3548 -0.3916
 7264WAT    EPW29764   3.734   3.962   0.952 -1.0830 -0.6115  0.1254
 7265WAT      O29765   3.413   4.094   8.023  0.3930 -0.2537 -0.1805
 7265WAT     H129766   3.418   4.129   8.102  0.2927 -2.4924  0.8989
 7265WAT     H229767   3.402   4.008   8.039 -1.8404 -0.5487 -2.5710
 7265WAT    EPW29768   3.412   4.086   8.037 -0.1248 -0.5697 -1.0819
 7266WAT      O29769   4.649   2.893   1.775 -0.1306 -0.5607 -0.4644
 7266WAT     H129770   4.576   2.923   1.811  0.4922 -1.2817  1.5613
 7266WAT     H229771   4.711   2.944   1.810  0.4060 -0.3233 -1.7105
 7266WAT    EPW29772   4.647   2.905   1.786  0.9578 -0.0433 -0.4320
 7267WAT      O29773   4.683   4.149   1.000 -0.3165 -0.0901 -0.2748
 7267WAT     H129774   4.680   4.231   1.028  0.8740  0.0512 -0.5169
 7267WAT     H229775   4.768   4.135   0.985 -0.2833 -1.8839  1.2887
 7267WAT    EPW29776   4.695   4.159   1.002  0.3079  0.7627  0.8766
 7268WAT      O29777   4.866   1.879   1.063  0.4380  0.5876 -0.0490
 7268WAT     H129778   4.929   1.837   1.106 -1.6541 -0.3248  2.4022
 7268WAT     H229779   4.832   1.818   1.011  0.5864  0.6328 -0.1976
 7268WAT    EPW29780   4.870   1.864   1.062 -0.8308  0.0863 -0.1951
 7269WAT      O29781   4.946   3.919   7.743  0.0657  0.0312  0.1652
 7269WAT     H129782   5.029   3.901   7.759  0.1260  0.5717  0.5036
 7269WAT     H229783   4.904   3.887   7.813  0.1463  0.9402  0.6473
 7269WAT    EPW29784   4.952   3.912   7.756  0.0591  0.2657 -0.1209
 7270WAT      O29785   3.781   2.602   1.352 -0.3937  0.8395  0.1363
 7270WAT     H129786   3.782   2.612   1.265 -2.5635 -2.6937 -0.5167
 7270WAT     H229787   3.852   2.554   1.367  0.1234  1.6710  0.3872
 7270WAT    EPW29788   3.791   2.596   1.341  0.0205 -0.1195 -0.4579
 7271WAT      O29789   4.522   3.144   0.453 -0.4011 -0.0919 -0.2064
 7271WAT     H129790   4.560   3.169   0.378 -1.0764  0.0165 -0.5154
 7271WAT     H229791   4.590   3.124   0.504  0.0725 -0.0001 -0.7874
 7271WAT    EPW29792   4.538   3.145   0.449 -0.2950  0.8555 -0.6721
 7272WAT      O29793   3.014   1.923   7.932  0.3360 -0.1363 -0.0433
 7272WAT     H129794   2.992   1.896   7.852 -1.7468 -0.0543  0.4360
 7272WAT     H229795   3.064   1.858   7.962 -2.0204 -2.1060 -0.0564
 7272WAT    EPW29796   3.018   1.909   7.925 -0.7388 -0.0864 -0.3537
 7273WAT      O29797   3.192   4.658   0.686  0.2206 -0.2983 -0.1933
 7273WAT     H129798   3.160   4.734   0.657  0.7561  0.0509  0.1178
 7273WAT     H229799   3.218   4.619   0.613  1.0837  0.3533 -0.2473
 7273WAT    EPW29800   3.191   4.664   0.671 -0.3492 -0.1758  0.2150
 7274WAT      O29801   2.555   3.218   0.789  0.2526  0.4368 -0.1829
 7274WAT     H129802   2.585   3.139   0.766  0.9803  0.3981  0.8435
 7274WAT     H229803   2.567   3.221   0.875  3.5505  2.9540 -0.5134
 7274WAT    EPW29804   2.561   3.207   0.798 -0.7992  0.1473 -0.2906
 7275WAT      O29805   4.531   4.722   8.038  0.4778 -0.2449 -0.3758
 7275WAT     H129806   4.471   4.736   8.101  0.9839  0.6054 -0.0675
 7275WAT     H229807   4.518   4.788   7.983 -0.1083 -1.1041 -1.3140
 7275WAT    EPW29808   4.520   4.733   8.039  0.7861 -0.2858 -0.7430
 7276WAT      O29809   2.832   2.148   0.919 -0.4581 -0.4068 -0.0361
 7276WAT     H129810   2.809   2.142   0.835  1.8119  0.3623 -0.7972
 7276WAT     H229811   2.893   2.086   0.928 -0.9386 -0.7349  1.1712
 7276WAT    EPW29812   2.838   2.138   0.908 -0.0719 -0.0609  0.1661
 7277WAT      O29813   4.583   3.207   1.305 -0.4261  0.1716 -0.1171
 7277WAT     H129814   4.626   3.142   1.344 -0.5093  0.4672  0.4846
 7277WAT     H229815   4.500   3.186   1.317 -0.4996 -0.9040 -2.1269
 7277WAT    EPW29816   4.577   3.195   1.312 -0.2261  0.5265 -0.4477
 7278WAT      O29817   4.717   3.453   1.362  0.1686 -0.0219  0.6098
 7278WAT     H129818   4.796   3.419   1.345 -0.2881 -1.3215  0.9852
 7278WAT     H229819   4.662   3.390   1.338 -0.7139  0.4616  1.3210
 7278WAT    EPW29820   4.721   3.439   1.356  0.1623 -0.5186  0.6383
 7279WAT      O29821   4.573   3.521   0.326  0.5307 -0.2532 -0.4022
 7279WAT     H129822   4.647   3.557   0.298 -0.3748  0.0449 -2.6019
 7279WAT     H229823   4.514   3.584   0.316 -0.2990 -0.9810 -0.2158
 7279WAT    EPW29824   4.576   3.535   0.320  0.6556 -0.4651  0.6711
 7280WAT      O29825   5.934   4.649   1.211  0.0214  0.1233  0.5217
 7280WAT     H129826   5.984   4.720   1.214  1.0913 -0.6192  0.9493
 7280WAT     H229827   5.989   4.586   1.187 -0.9545 -0.5358 -0.1110
 7280WAT    EPW29828   5.949   4.650   1.208  0.0563 -0.5605  0.2322
 7281WAT      O29829   4.675   3.871   0.327  0.6311 -0.0809  0.2186
 7281WAT     H129830   4.660   3.852   0.411 -0.1544  0.2873  0.1649
 7281WAT     H229831   4.603   3.844   0.286  1.1706 -0.6267 -0.4040
 7281WAT    EPW29832   4.662   3.864   0.333 -0.8581 -0.0445 -0.6290
 7282WAT      O29833   3.136   4.225   0.793 -0.1487 -0.5334  0.0668
 7282WAT     H129834   3.163   4.297   0.835 -0.7688 -0.2717  0.0236
 7282WAT     H229835   3.111   4.172   0.857  0.6414 -0.8575  0.1192
 7282WAT    EPW29836   3.136   4.228   0.809 -0.3113 -0.2700 -0.2229
 7283WAT      O29837   2.712   4.978   0.907  0.0932  0.4811 -0.4392
 7283WAT     H129838   2.741   4.957   0.986  0.8711  0.4418 -0.7269
 7283WAT     H229839   2.770   5.036   0.878  0.8264 -0.7913 -1.6633
 7283WAT    EPW29840   2.725   4.983   0.914  0.3422 -0.5255  0.6900
 7284WAT      O29841   3.984   3.148   1.882  0.0979 -0.0679 -0.1034
 7284WAT     H129842   3.978   3.175   1.800  1.3090  0.1375 -0.1415
 7284WAT     H229843   4.060   3.181   1.909 -0.1654 -0.3360  1.0222
 7284WAT    EPW29844   3.994   3.157   1.874 -0.5816  0.0819 -0.5862
 7285WAT      O29845   3.045   4.078   1.018 -0.0549 -0.6547 -0.9446
 7285WAT     H129846   3.096   4.029   1.069 -1.7966 -1.4573  0.1427
 7285WAT     H229847   2.992   4.019   0.981 -1.4632  0.2646 -0.4877
 7285WAT    EPW29848   3.045   4.062   1.020  0.6378  0.8407 -0.3227
 7286WAT      O29849   2.803   2.561   2.088 -0.4714  0.1976 -0.5737
 7286WAT     H129850   2.765   2.628   2.047 -0.5929  0.9864  0.7738
 7286WAT     H229851   2.798   2.583   2.172  0.9376 -0.7568 -0.2095
 7286WAT    EPW29852   2.797   2.574   2.095  0.4393  0.2150 -0.3543
 7287WAT      O29853   3.755   2.411   1.651  0.3489 -0.3108 -0.1861
 7287WAT     H129854   3.809   2.408   1.583 -1.1894  2.4219 -1.6892
 7287WAT     H229855   3.733   2.495   1.657 -0.9515 -0.7287  2.6234
 7287WAT    EPW29856   3.760   2.423   1.642  0.0980 -0.0836 -0.0203
 7288WAT      O29857   2.450   3.863   7.693 -0.9544 -0.1065 -0.5855
 7288WAT     H129858   2.510   3.831   7.749 -2.1948 -2.0132 -0.2586
 7288WAT     H229859   2.380   3.875   7.744 -2.3766 -2.6494 -1.7663
 7288WAT    EPW29860   2.449   3.860   7.709  0.1887 -0.8945 -0.3845
 7289WAT      O29861   3.958   4.334   7.657 -0.3329 -0.0066  0.5784
 7289WAT     H129862   3.890   4.308   7.706 -0.3751 -0.9284  0.0577
 7289WAT     H229863   3.997   4.259   7.636  0.5915  0.4904  0.4892
 7289WAT    EPW29864   3.954   4.319   7.661 -0.4333  0.1461  0.1307
 7290WAT      O29865   3.121   4.504   3.027 -0.0230 -0.2674  0.2864
 7290WAT     H129866   3.078   4.485   3.100 -1.1339 -1.1816 -0.5591
 7290WAT     H229867   3.163   4.430   3.008  0.2307 -0.0509 -0.0089
 7290WAT    EPW29868   3.121   4.490   3.035 -0.5971 -0.0355 -0.7622
 7291WAT      O29869   4.654   4.022   1.236 -0.0934 -0.2389 -0.1854
 7291WAT     H129870   4.652   4.062   1.159  2.2610 -1.0277 -0.7428
 7291WAT     H229871   4.658   4.088   1.293  0.2627  0.3466 -0.8752
 7291WAT    EPW29872   4.654   4.038   1.233  0.0775 -0.4820 -0.7097
 7292WAT      O29873   3.697   4.208   0.343  0.3248  0.0744 -0.5703
 7292WAT     H129874   3.781   4.219   0.324  0.3242  1.4527  0.0695
 7292WAT     H229875   3.657   4.270   0.295 -0.1856  0.2257  0.0229
 7292WAT    EPW29876   3.703   4.219   0.333  0.4634  0.1660 -0.0391
 7293WAT      O29877   2.652   3.945   1.189  0.5116  0.7840  0.2730
 7293WAT     H129878   2.627   3.978   1.266 -1.0591  0.7441 -0.2012
 7293WAT     H229879   2.660   4.016   1.138  0.4244  0.7136  0.1611
 7293WAT    EPW29880   2.650   3.961   1.193 -0.2094  0.1191 -0.5793
 7294WAT      O29881   3.962   4.211   0.008 -0.6971 -0.4366  0.6339
 7294WAT     H129882   3.997   4.131   0.010  0.5171  0.0851  1.3801
 7294WAT     H229883   3.937   4.224   0.091 -2.7990 -0.8095  0.1211
 7294WAT    EPW29884   3.963   4.201   0.021 -0.2130  0.4312 -0.3497
 7295WAT      O29885   3.749   5.362   1.221 -0.6026 -0.0651 -0.3523
 7295WAT     H129886   3.763   5.292   1.271  0.7556 -0.2255 -0.8960
 7295WAT     H229887   3.721   5.328   1.145  0.0553 -0.0374 -0.6156
 7295WAT    EPW29888   3.747   5.347   1.217 -0.6081 -0.5008 -0.5515
 7296WAT      O29889   4.396   2.484   0.294  0.0639  0.2886  0.5834
 7296WAT     H129890   4.424   2.562   0.267 -0.2609  0.7062  1.3963
 7296WAT     H229891   4.310   2.489   0.286  0.1497 -0.9963 -1.9164
 7296WAT    EPW29892   4.388   2.496   0.289  0.0364  0.4195 -0.4345
 7297WAT      O29893   3.432   4.091   1.691 -0.2212 -0.4338 -0.0254
 7297WAT     H129894   3.378   4.144   1.648 -0.6828  0.0431  1.0868
 7297WAT     H229895   3.451   4.029   1.633 -0.2921  0.5167 -1.1092
 7297WAT    EPW29896   3.427   4.090   1.676 -0.2746  0.0032 -0.1967
 7298WAT      O29897   1.761   4.020   0.981 -0.1822  0.1748  0.2529
 7298WAT     H129898   1.733   4.101   0.965 -0.7575  0.0281  0.4729
 7298WAT     H229899   1.789   4.024   1.064  1.3399  0.5485 -0.2496
 7298WAT    EPW29900   1.761   4.033   0.991  0.7191 -0.1619  0.0510
 7299WAT      O29901   4.322   3.560   1.402  0.9351 -0.2796  0.1085
 7299WAT     H129902   4.343   3.532   1.482 -1.4339 -0.4762  0.7308
 7299WAT     H229903   4.340   3.645   1.404  0.5893 -0.2175  0.9900
 7299WAT    EPW29904   4.328   3.568   1.414  0.6368 -0.7020 -0.0203
 7300WAT      O29905   5.978   4.323   1.631 -0.4530  0.4911  0.9836
 7300WAT     H129906   5.940   4.380   1.578 -0.6735  0.9568  1.6373
 7300WAT     H229907   5.913   4.294   1.681 -0.8702 -2.1781 -0.8881
 7300WAT    EPW29908   5.963   4.327   1.630 -0.6806 -0.9677  0.0883
 7301WAT      O29909   5.024   3.771   0.998  0.2979  0.3692  0.2655
 7301WAT     H129910   5.032   3.684   1.007 -1.2114  0.2860  1.0720
 7301WAT     H229911   5.019   3.782   0.912 -0.2515 -0.4215  0.1845
 7301WAT    EPW29912   5.025   3.760   0.987  0.6728  0.1579 -0.6134
 7302WAT      O29913   4.053   4.842   0.524 -0.1654  0.1501 -0.0260
 7302WAT     H129914   4.107   4.798   0.471 -0.3127  0.1971 -0.2188
 7302WAT     H229915   4.001   4.780   0.557 -1.1086  0.2808 -1.1574
 7302WAT    EPW29916   4.053   4.827   0.521  0.4110 -0.8026 -0.1032
 7303WAT      O29917   2.341   3.696   0.035  0.2712 -0.4347 -0.4788
 7303WAT     H129918   2.284   3.759   0.054 -1.1970 -1.6171 -0.6832
 7303WAT     H229919   2.413   3.739   0.011 -0.7366  1.1584 -0.8121
 7303WAT    EPW29920   2.343   3.711   0.034 -0.1960 -1.2510 -0.6068
 7304WAT      O29921   3.099   3.959   2.313 -0.0159  0.1426 -0.2382
 7304WAT     H129922   3.110   3.924   2.392 -0.6153  0.6939  0.1052
 7304WAT     H229923   3.145   4.033   2.316  0.2477 -0.0053 -0.5344
 7304WAT    EPW29924   3.107   3.965   2.325 -0.2721 -0.2076 -0.9225
 7305WAT      O29925   4.223   4.306   8.024 -0.0427 -0.3996 -0.0568
 7305WAT     H129926   4.146   4.271   8.044 -0.0114 -0.4437 -0.0107
 7305WAT     H229927   4.210   4.392   8.032  0.7265 -0.4430  3.0989
 7305WAT    EPW29928   4.210   4.314   8.029 -0.0752 -0.7216 -0.2344
 7306WAT      O29929   5.764   4.169   0.848  0.5264  0.0647  0.1166
 7306WAT     H129930   5.775   4.110   0.911  1.7680 -0.2289 -0.3581
 7306WAT     H229931   5.726   4.236   0.890  1.8817  0.1207  1.3453
 7306WAT    EPW29932   5.760   4.170   0.864  0.1371  0.0759 -0.1695
 7307WAT      O29933   6.591   5.147   2.319 -0.2079  0.0279 -0.2481
 7307WAT     H129934   6.636   5.088   2.273 -1.1716  0.1833 -1.4183
 7307WAT     H229935   6.538   5.098   2.369 -0.1804 -0.1102 -0.3530
 7307WAT    EPW29936   6.590   5.131   2.320  0.4461 -0.0286 -0.2708
 7308WAT      O29937   3.556   4.717   1.102 -0.2254 -0.0030 -0.0143
 7308WAT     H129938   3.518   4.712   1.023 -0.5925  1.5548  0.0330
 7308WAT     H229939   3.578   4.635   1.119 -2.1183 -0.7252 -0.7739
 7308WAT    EPW29940   3.554   4.704   1.093  0.0948 -0.5577  1.1056
 7309WAT      O29941   3.310   3.212   1.113 -0.1457 -0.0953 -0.3934
 7309WAT     H129942   3.238   3.210   1.163  0.3942 -0.4422  0.4022
 7309WAT     H229943   3.283   3.180   1.037 -0.8260 -0.2780 -0.0862
 7309WAT    EPW29944   3.295   3.207   1.109 -0.1904 -0.9411  0.1960
 7310WAT      O29945   3.319   3.377   0.805  0.5818  0.5881 -0.4783
 7310WAT     H129946   3.310   3.297   0.837 -0.8858  0.5243 -1.0130
 7310WAT     H229947   3.282   3.428   0.865 -0.5590  0.6315 -1.1887
 7310WAT    EPW29948   3.313   3.373   0.818 -0.5877 -0.6334  0.6386
 7311WAT      O29949   3.039   3.356   1.753 -0.1231  0.2977 -0.5475
 7311WAT     H129950   3.058   3.298   1.816 -1.0476  0.2032 -0.3541
 7311WAT     H229951   3.103   3.342   1.694  0.3650 -0.0753  0.0480
 7311WAT    EPW29952   3.051   3.345   1.753 -0.2048 -0.1836  0.0003
 7312WAT      O29953   4.040   4.626   1.007 -0.4426 -0.2970  0.0174
 7312WAT     H129954   4.050   4.710   0.986 -0.7053 -0.2597  0.0432
 7312WAT     H229955   4.049   4.585   0.931  0.1239 -0.2831  0.0702
 7312WAT    EPW29956   4.043   4.632   0.993  0.0657  0.4738 -0.3853
 7313WAT      O29957   3.431   2.998   1.232 -0.6776  0.6049 -0.2423
 7313WAT     H129958   3.513   3.003   1.203  0.8155  1.4675  3.5432
 7313WAT     H229959   3.389   3.061   1.189  1.4069  2.0702 -0.2515
 7313WAT    EPW29960   3.437   3.008   1.222 -0.2220  0.2172  0.2251
 7314WAT      O29961   5.190   3.264   0.568  0.1706 -0.0220 -0.3302
 7314WAT     H129962   5.163   3.344   0.547 -2.0164 -0.2977  1.1451
 7314WAT     H229963   5.187   3.263   0.655  0.1347 -1.7159 -0.3189
 7314WAT    EPW29964   5.186   3.276   0.578 -0.2403 -0.1536 -0.9085
 7315WAT      O29965   3.580   5.131   0.426 -0.4439  0.3304 -0.3079
 7315WAT     H129966   3.563   5.208   0.464 -0.0290 -0.1246  0.8329
 7315WAT     H229967   3.635   5.092   0.482 -0.5219 -0.7341 -0.9497
 7315WAT    EPW29968   3.586   5.137   0.440  0.5377 -0.1148 -0.3875
 7316WAT      O29969   3.724   3.134   0.065  0.6862  0.2872  0.1575
 7316WAT     H129970   3.757   3.163  -0.011  1.1212  0.3212  0.3562
 7316WAT     H229971   3.779   3.166   0.125  2.6274 -2.8305  0.2617
 7316WAT    EPW29972   3.737   3.143   0.063  1.2860  0.1178 -0.2139
 7317WAT      O29973   5.695   3.744   1.294  0.2344 -0.2579  0.6586
 7317WAT     H129974   5.723   3.826   1.304 -0.2728  0.6391 -3.4575
 7317WAT     H229975   5.759   3.706   1.247 -0.6489 -1.4561  0.3776
 7317WAT    EPW29976   5.709   3.750   1.289  0.7483 -0.3375 -0.7795
 7318WAT      O29977   4.116   2.518   0.304 -0.1689 -0.2574 -0.1047
 7318WAT     H129978   4.071   2.528   0.229  0.9562 -0.7458 -0.8717
 7318WAT     H229979   4.075   2.451   0.343 -0.6109 -0.1659 -0.3976
 7318WAT    EPW29980   4.103   2.510   0.298  0.4983  0.2048  0.0003
 7319WAT      O29981   4.680   3.860   0.834  0.5378  0.0584  0.1250
 7319WAT     H129982   4.692   3.813   0.907  1.9452 -1.6078 -1.0869
 7319WAT     H229983   4.742   3.920   0.838  3.1855 -2.3252 -1.3317
 7319WAT    EPW29984   4.691   3.862   0.846 -0.0966 -0.3894 -0.1335
 7320WAT      O29985   4.870   4.048   0.759 -0.2514  0.4728 -0.2024
 7320WAT     H129986   4.909   4.018   0.687  1.3990  0.9294  0.4695
 7320WAT     H229987   4.829   4.120   0.731 -1.8350 -0.7363 -1.2041
 7320WAT    EPW29988   4.869   4.054   0.744  0.0359 -0.0076 -1.1103
 7321WAT      O29989   3.835   4.880   2.252  0.1822 -0.6957 -0.2117
 7321WAT     H129990   3.847   4.941   2.190  0.9043 -0.6777 -0.0581
 7321WAT     H229991   3.803   4.812   2.207 -0.1769 -0.3766 -0.4579
 7321WAT    EPW29992   3.832   4.879   2.236 -0.0297  0.2014 -0.0895
 7322WAT      O29993   4.970   5.071   0.834 -0.4692  0.6729  0.5786
 7322WAT     H129994   4.894   5.074   0.792 -1.0752 -3.5115  0.8755
 7322WAT     H229995   4.951   5.022   0.904  2.1656  0.9214  1.5567
 7322WAT    EPW29996   4.956   5.064   0.838  0.0846 -0.2224 -1.3614
 7323WAT      O29997   2.172   4.178   0.198  0.3816  0.6397  0.4606
 7323WAT     H129998   2.197   4.248   0.152 -0.3906  0.8148  0.2929
 7323WAT     H229999   2.085   4.183   0.198  0.2335 -0.9333 -0.5449
 7323WAT    EPW30000   2.163   4.189   0.191  0.8761 -0.0859  0.3575
 7324WAT      O30001   4.525   2.660   0.997  0.2813  0.6476  0.1785
 7324WAT     H130002   4.485   2.716   1.050  0.2015  0.4599  0.3183
 7324WAT     H230003   4.482   2.670   0.921 -0.7043 -0.2602  0.5814
 7324WAT    EPW30004   4.512   2.669   0.993  0.7840 -0.0623 -0.3094
 7325WAT      O30005   3.812   3.348   0.820 -0.0582 -0.5327  0.6898
 7325WAT     H130006   3.831   3.339   0.735  0.7911 -1.9692  1.0100
 7325WAT     H230007   3.772   3.426   0.823  2.7793  1.1292 -0.5483
 7325WAT    EPW30008   3.809   3.358   0.808  0.4805 -0.7670  0.1419
 7326WAT      O30009   3.950   2.875   0.317 -0.2871  0.1000 -0.2175
 7326WAT     H130010   3.907   2.917   0.381  0.3116 -0.4074  0.5326
 7326WAT     H230011   3.894   2.878   0.250 -1.2492 -0.0328  0.5575
 7326WAT    EPW30012   3.935   2.882   0.317 -0.5410 -0.4867 -0.3273
 7327WAT      O30013   3.530   4.456   1.249  0.2962  0.0395 -0.2725
 7327WAT     H130014   3.467   4.461   1.310  1.6472  0.9071  1.1271
 7327WAT     H230015   3.603   4.472   1.294  1.4451 -0.1222 -1.9979
 7327WAT    EPW30016   3.531   4.459   1.265 -0.3455 -1.0309 -0.7560
 7328WAT      O30017   3.193   3.830   0.564  0.3305  0.1840 -0.2278
 7328WAT     H130018   3.234   3.821   0.640 -0.3126  0.5127  0.1643
 7328WAT     H230019   3.113   3.800   0.580  0.8510 -2.0444 -1.4380
 7328WAT    EPW30020   3.187   3.825   0.578  0.1097  0.4094  1.0452
 7329WAT      O30021   5.017   4.637   0.603  0.2683 -0.2835  0.0136
 7329WAT     H130022   5.084   4.620   0.656  0.0387  0.4383  0.5545
 7329WAT     H230023   5.053   4.677   0.535  0.7605 -2.4245 -1.0817
 7329WAT    EPW30024   5.032   4.640   0.601 -0.3406  0.1099 -0.5724
 7330WAT      O30025   4.750   3.242   1.655  0.0883  0.3170 -0.1945
 7330WAT     H130026   4.795   3.286   1.595 -0.7104 -0.1693 -1.1906
 7330WAT     H230027   4.694   3.301   1.686 -0.1490  0.3261 -0.6356
 7330WAT    EPW30028   4.748   3.257   1.650 -0.2796 -0.4380 -0.4957
 7331WAT      O30029   5.337   3.895   0.519  0.0652  0.3441 -0.4362
 7331WAT     H130030   5.407   3.854   0.550  0.4604 -0.6455 -2.4939
 7331WAT     H230031   5.369   3.968   0.484 -0.0746  0.3569 -0.5401
 7331WAT    EPW30032   5.352   3.899   0.519 -0.7154  0.4631 -0.2512
 7332WAT      O30033   3.267   4.328   1.027 -0.0291  0.0074 -0.3972
 7332WAT     H130034   3.352   4.347   1.021 -0.0028  0.5911  1.2323
 7332WAT     H230035   3.265   4.261   1.083 -0.7162  0.9195  0.7074
 7332WAT    EPW30036   3.280   4.321   1.034 -0.1043  0.7590 -0.5795
 7333WAT      O30037   3.834   4.669   2.450  0.5927 -0.1910 -0.4767
 7333WAT     H130038   3.768   4.718   2.479  0.6436 -0.2890 -0.1844
 7333WAT     H230039   3.875   4.721   2.394  3.6234  2.1398  3.3587
 7333WAT    EPW30040   3.831   4.684   2.446 -0.6000  0.5985  0.5643
 7334WAT      O30041   1.397   3.925   1.534  0.5114 -0.7419 -0.3676
 7334WAT     H130042   1.437   3.962   1.466 -0.6720 -0.0721 -0.7453
 7334WAT     H230043   1.356   3.993   1.573  1.5652 -1.0188  1.3236
 7334WAT    EPW30044   1.397   3.941   1.530 -1.1375  0.2980  0.9372
 7335WAT      O30045   4.324   5.709   0.476  0.2499 -0.0837  0.0285
 7335WAT     H130046   4.268   5.687   0.539 -2.2368  0.8418 -1.6799
 7335WAT     H230047   4.391   5.744   0.519 -1.1389  0.1274  2.1663
 7335WAT    EPW30048   4.326   5.711   0.491 -0.1114 -0.5357  0.9347
 7336WAT      O30049   4.530   1.008   0.215  0.0842 -0.1261 -0.6546
 7336WAT     H130050   4.528   1.086   0.177 -1.1461 -0.5488 -1.4998
 7336WAT     H230051   4.487   1.020   0.289 -2.5548 -0.5786 -2.0139
 7336WAT    EPW30052   4.524   1.021   0.220 -0.0624 -0.6027 -0.3220
 7337WAT      O30053   3.469   2.749   0.352  0.0284  0.5159  0.6662
 7337WAT     H130054   3.493   2.758   0.269 -1.7982  2.1875  0.2440
 7337WAT     H230055   3.393   2.707   0.347 -0.9285  2.0840  1.3219
 7337WAT    EPW30056   3.461   2.744   0.339  0.2669 -0.6003  0.1021
 7338WAT      O30057   4.686   2.190   0.547  0.0569  0.0081 -0.2877
 7338WAT     H130058   4.674   2.125   0.604 -0.1077  0.0077 -0.3235
 7338WAT     H230059   4.626   2.176   0.485 -0.3158  0.4712 -0.0446
 7338WAT    EPW30060   4.676   2.179   0.546 -0.2419  0.3004 -0.1643
 7339WAT      O30061   3.499   1.584   6.479 -0.1673  0.1982 -0.8146
 7339WAT     H130062   3.464   1.506   6.496  0.5922  0.3918  2.2476
 7339WAT     H230063   3.539   1.572   6.403 -2.6004 -1.4541 -1.9571
 7339WAT    EPW30064   3.500   1.571   6.471  0.1652  0.2943  0.5979
 7340WAT      O30065   3.009   3.600   7.067  0.3706  0.8518  0.2478
 7340WAT     H130066   2.978   3.537   7.118 -1.0313  1.0680 -0.2989
 7340WAT     H230067   2.949   3.663   7.074 -1.2000  0.0393 -3.4305
 7340WAT    EPW30068   2.996   3.600   7.076  0.4026 -0.4147  0.0360
 7341WAT      O30069   5.572   2.234   7.975 -0.7663  0.1841 -0.3086
 7341WAT     H130070   5.500   2.207   7.932 -0.2721  1.4349 -2.0490
 7341WAT     H230071   5.543   2.301   8.022 -0.8736  0.2308 -0.4392
 7341WAT    EPW30072   5.557   2.240   7.975 -0.7693 -0.3087 -0.6195
 7342WAT      O30073   2.428   4.222   0.910  0.1589 -0.0118  0.3669
 7342WAT     H130074   2.486   4.211   0.974 -0.0913 -1.8359  0.3222
 7342WAT     H230075   2.354   4.191   0.945  0.1278 -1.5194 -0.9424
 7342WAT    EPW30076   2.425   4.216   0.925 -0.1318 -0.5821 -1.0702
 7343WAT      O30077   3.855   0.845   0.633  0.0991 -0.4047  0.1682
 7343WAT     H130078   3.902   0.772   0.638  2.2794  0.9144  0.1692
 7343WAT     H230079   3.846   0.858   0.547  0.2209 -0.3536  0.1637
 7343WAT    EPW30080   3.860   0.836   0.621  0.0623 -0.3601 -0.0094
 7344WAT      O30081   1.869   2.647   7.400  0.2522  0.6260  0.0386
 7344WAT     H130082   1.833   2.718   7.364  0.5039  0.7118 -0.0507
 7344WAT     H230083   1.908   2.679   7.471  0.2297  0.5496  0.0857
 7344WAT    EPW30084   1.870   2.663   7.405 -0.0299  0.1426  0.2436
 7345WAT      O30085   5.807   1.802   0.565 -0.1478  0.3004  0.1435
 7345WAT     H130086   5.808   1.888   0.581 -1.7991  0.4408 -0.3797
 7345WAT     H230087   5.834   1.767   0.640  2.9817  1.3109 -0.3771
 7345WAT    EPW30088   5.811   1.809   0.579  0.2222 -0.2369 -1.3045
 7346WAT      O30089   3.770   3.038   0.478 -0.2831 -0.5485 -0.2635
 7346WAT     H130090   3.686   3.019   0.463 -0.7718  1.4987 -0.3445
 7346WAT     H230091   3.770   3.123   0.494  1.5309 -0.8128  1.7316
 7346WAT    EPW30092   3.758   3.047   0.478  0.6901  0.0427 -0.0161
 7347WAT      O30093   4.612   2.513   7.570 -0.7670 -0.1096  0.0029
 7347WAT     H130094   4.625   2.591   7.532 -2.6456  0.6138  0.6923
 7347WAT     H230095   4.659   2.519   7.643  1.1720 -0.6861 -1.1320
 7347WAT    EPW30096   4.620   2.526   7.575 -0.3505  0.3563 -0.1922
 7348WAT      O30097   3.763   0.722   7.776 -0.7179 -0.3418  0.2021
 7348WAT     H130098   3.838   0.684   7.755 -0.0060  1.1663 -0.1802
 7348WAT     H230099   3.721   0.662   7.823  1.3142 -0.7577  1.6352
 7348WAT    EPW30100   3.768   0.708   7.780  0.8337  0.1526 -0.5720
 7349WAT      O30101   3.224   0.853   0.329 -0.5405  0.3270  0.5104
 7349WAT     H130102   3.212   0.907   0.261 -1.8325 -0.2002  0.2746
 7349WAT     H230103   3.310   0.854   0.342 -0.4720  1.9405  0.1119
 7349WAT    EPW30104   3.235   0.861   0.321 -0.4320  0.1357 -0.8154
 7350WAT      O30105   3.941   2.266   7.856 -0.4232 -0.1038  0.4311
 7350WAT     H130106   4.021   2.232   7.853 -0.0563  0.5268  2.1090
 7350WAT     H230107   3.948   2.341   7.812 -0.1811 -0.2201  0.2739
 7350WAT    EPW30108   3.954   2.272   7.849 -0.5849 -0.4011 -0.2759
 7351WAT      O30109   4.948   2.829   0.150  0.2481 -0.7611  0.0885
 7351WAT     H130110   5.028   2.859   0.164  0.4743 -1.0681 -0.5011
 7351WAT     H230111   4.929   2.785   0.223  0.7398 -0.9557  0.1018
 7351WAT    EPW30112   4.957   2.827   0.163  0.1800  0.0323  0.4435
 7352WAT      O30113   2.478   1.498   8.055 -0.4616  0.0815  0.3104
 7352WAT     H130114   2.545   1.445   8.070 -0.5856 -0.1102  0.1946
 7352WAT     H230115   2.459   1.483   7.971 -1.6686 -1.0471  0.7588
 7352WAT    EPW30116   2.485   1.488   8.045 -0.1273  0.4335  0.8618
 7353WAT      O30117   2.841   2.693   7.891 -0.2648 -0.1804  0.3919
 7353WAT     H130118   2.820   2.645   7.961 -0.0076 -0.6608  0.1494
 7353WAT     H230119   2.808   2.772   7.909 -2.2118 -0.8661  0.0497
 7353WAT    EPW30120   2.833   2.697   7.904 -0.5276 -0.1338  0.0250
 7354WAT      O30121   3.034   2.784   0.712  0.1217 -0.3958 -0.1425
 7354WAT     H130122   2.997   2.863   0.714 -2.2189 -1.4109 -0.2087
 7354WAT     H230123   3.005   2.749   0.638 -0.8518 -2.1507  1.0009
 7354WAT    EPW30124   3.024   2.790   0.702  0.8624  0.6622  0.0990
 7355WAT      O30125   5.415   2.168   0.403  0.2685 -0.5382 -0.0454
 7355WAT     H130126   5.458   2.114   0.457 -0.5642  0.1218  1.3119
 7355WAT     H230127   5.421   2.127   0.326  0.5738 -2.0491  0.7311
 7355WAT    EPW30128   5.422   2.154   0.399 -0.4678  0.1344 -0.2498
 7356WAT      O30129   4.107   3.387   1.354 -0.3809  0.2111 -0.2574
 7356WAT     H130130   4.063   3.410   1.282  1.2951  1.3600 -0.9846
 7356WAT     H230131   4.176   3.441   1.354  0.4438 -0.7526  1.4214
 7356WAT    EPW30132   4.111   3.398   1.343  0.9486 -0.8119  0.1436
 7357WAT      O30133   2.516   1.961   0.685  0.2439 -0.2205 -0.3043
 7357WAT     H130134   2.452   1.941   0.741  1.4339 -1.8508  0.5281
 7357WAT     H230135   2.551   1.883   0.665  1.2857  0.5392 -1.5747
 7357WAT    EPW30136   2.511   1.946   0.690  0.2529  0.0636  0.7810
 7358WAT      O30137   5.505   0.702   0.418 -0.3719 -0.2092 -0.0317
 7358WAT     H130138   5.462   0.665   0.485  3.0238 -0.8750  2.0324
 7358WAT     H230139   5.506   0.786   0.439 -0.4119 -0.2352  0.0812
 7358WAT    EPW30140   5.499   0.709   0.431 -0.3499 -0.0583  0.3335
 7359WAT      O30141   2.690   3.437   8.011  0.1729  0.0047  0.2522
 7359WAT     H130142   2.682   3.428   7.925 -0.3157 -2.1506  0.4645
 7359WAT     H230143   2.766   3.397   8.028 -0.4661 -0.9237  0.9750
 7359WAT    EPW30144   2.700   3.430   8.001  0.0329 -0.4466  0.0909
 7360WAT      O30145   2.840   2.524   0.066 -0.0269  0.5992  0.0558
 7360WAT     H130146   2.764   2.490   0.093 -0.6563  1.1479 -0.9539
 7360WAT     H230147   2.893   2.454   0.060 -0.4360  0.2130  0.7808
 7360WAT    EPW30148   2.837   2.508   0.069  0.2313 -0.4675 -0.2166
 7361WAT      O30149   4.203   2.180   7.791 -0.3844 -0.3618  0.1790
 7361WAT     H130150   4.203   2.170   7.705 -1.0433 -0.2854  0.1600
 7361WAT     H230151   4.236   2.105   7.821 -0.2096 -0.4100 -0.1341
 7361WAT    EPW30152   4.208   2.167   7.783 -0.2094 -1.3575 -0.8681
 7362WAT      O30153   3.840   2.071   7.662 -0.0882  0.0242  0.0136
 7362WAT     H130154   3.828   2.002   7.715  2.3753 -0.0944  0.5541
 7362WAT     H230155   3.859   2.136   7.717 -1.2161  0.8955 -0.5677
 7362WAT    EPW30156   3.841   2.070   7.678  0.6838  0.4440 -0.1991
 7363WAT      O30157   5.441   1.223   6.996  0.5623  0.0261  0.4356
 7363WAT     H130158   5.362   1.255   6.978 -0.4626 -2.5088 -0.0141
 7363WAT     H230159   5.474   1.279   7.054 -0.3862  2.6839 -1.4114
 7363WAT    EPW30160   5.435   1.236   7.002  0.2395  0.2209 -0.2723
 7364WAT      O30161   3.515   1.429   7.793 -0.0973 -0.2560 -0.6556
 7364WAT     H130162   3.575   1.460   7.737  1.6460 -1.1289  0.6340
 7364WAT     H230163   3.510   1.491   7.854 -0.2478 -0.3600 -0.5624
 7364WAT    EPW30164   3.523   1.443   7.793  0.4408 -0.5577 -0.5845
 7365WAT      O30165   5.940   2.244   0.127  0.3751  0.5169  0.1700
 7365WAT     H130166   5.954   2.314   0.178 -0.9639  0.2704  0.9184
 7365WAT     H230167   5.903   2.279   0.055 -0.8506  0.5535  0.7902
 7365WAT    EPW30168   5.936   2.260   0.124 -1.1810  0.6695 -1.1129
 7366WAT      O30169   5.145   0.050   7.776 -0.2378  0.1459  0.3266
 7366WAT     H130170   5.159   0.025   7.859  1.4807 -1.6087 -0.4163
 7366WAT     H230171   5.188   0.125   7.770 -0.3228  0.2605  0.9776
 7366WAT    EPW30172   5.153   0.057   7.788 -0.4630 -0.2424  0.6143
 7367WAT      O30173   5.121   2.019   0.235 -0.1380 -0.5519 -0.0089
 7367WAT     H130174   5.085   2.030   0.314  1.4028 -1.6801  0.9074
 7367WAT     H230175   5.109   2.096   0.196 -1.3045 -0.0988  1.1600
 7367WAT    EPW30176   5.114   2.032   0.241 -0.2628 -0.2042 -0.8959
 7368WAT      O30177   4.514   2.114   0.341 -0.0224  0.3972 -0.0537
 7368WAT     H130178   4.557   2.049   0.301  0.5662 -0.0913  1.3168
 7368WAT     H230179   4.435   2.112   0.304  0.5455  0.0957 -1.3156
 7368WAT    EPW30180   4.509   2.104   0.329  0.1983  0.2597 -0.2478
 7369WAT      O30181   5.035   3.613   7.663 -0.1118 -0.4555  0.9315
 7369WAT     H130182   4.959   3.616   7.706 -0.0688 -1.2897  1.0626
 7369WAT     H230183   5.011   3.626   7.580 -0.0870  2.3188  1.2567
 7369WAT    EPW30184   5.020   3.616   7.657 -0.8567 -0.1849 -0.8057
 7370WAT      O30185   3.622   1.826   7.998 -0.1523 -0.5494  0.5748
 7370WAT     H130186   3.678   1.835   7.932  0.7144 -1.5778  1.1467
 7370WAT     H230187   3.671   1.796   8.063 -1.1055 -0.1289  1.5252
 7370WAT    EPW30188   3.638   1.823   7.998 -0.5163 -0.1628 -0.6701
 7371WAT      O30189   3.702   1.648   1.115  0.5893  0.2549  0.0514
 7371WAT     H130190   3.771   1.648   1.169  0.9843  0.5860 -0.4511
 7371WAT     H230191   3.735   1.673   1.039 -0.2628  1.3516  0.0183
 7371WAT    EPW30192   3.717   1.652   1.112 -0.3218 -0.4732  0.8786
 7372WAT      O30193   5.101   0.813   0.620  0.4279  0.0848  0.2220
 7372WAT     H130194   5.060   0.741   0.594  0.1465  0.0331  0.7935
 7372WAT     H230195   5.124   0.852   0.546  0.4686 -0.5280 -0.0905
 7372WAT    EPW30196   5.098   0.809   0.605 -1.7618  1.3027  0.1246
 7373WAT      O30197   3.354   1.858   7.783 -0.8371 -0.3019  0.0149
 7373WAT     H130198   3.307   1.810   7.838 -1.0993 -1.0179 -0.7981
 7373WAT     H230199   3.311   1.849   7.707 -0.0777  0.0378 -0.4667
 7373WAT    EPW30200   3.341   1.849   7.780  0.6207 -0.5679 -0.1433
 7374WAT      O30201   3.956   1.985   0.634 -0.0308  0.3857 -0.7694
 7374WAT     H130202   3.871   1.982   0.617 -0.0964 -0.5436 -0.3550
 7374WAT     H230203   3.959   2.000   0.720  0.2670  2.7209 -1.1219
 7374WAT    EPW30204   3.944   1.987   0.644 -0.3202  0.0386 -0.2816
 7375WAT      O30205   4.029   1.536   0.603 -0.6044  0.1132  0.1158
 7375WAT     H130206   4.051   1.475   0.660 -1.5606 -0.2666  0.1027
 7375WAT     H230207   4.012   1.492   0.530 -3.5124  0.0545  0.7024
 7375WAT    EPW30208   4.030   1.521   0.601  0.2853  0.2572 -0.0813
 7376WAT      O30209   3.580   2.104   8.040  0.0284  0.0734  0.0559
 7376WAT     H130210   3.553   2.113   7.957  0.2937 -0.6982 -0.1191
 7376WAT     H230211   3.596   2.019   8.047  2.5583  0.4960  0.1192
 7376WAT    EPW30212   3.578   2.093   8.029  0.1588 -0.3288 -0.1113
 7377WAT      O30213   2.983   4.630   7.658  0.2932  0.0246 -0.2040
 7377WAT     H130214   2.991   4.623   7.572 -0.6436  1.4101 -0.4326
 7377WAT     H230215   2.979   4.547   7.685 -0.1675 -0.4202 -1.5661
 7377WAT    EPW30216   2.984   4.617   7.649  0.8162  0.1865  0.3418
 7378WAT      O30217   4.164   3.236   7.835  0.4597 -0.1470 -0.0186
 7378WAT     H130218   4.135   3.208   7.912  1.1173 -0.6013  0.0735
 7378WAT     H230219   4.138   3.175   7.779  0.3746 -0.0473 -0.0888
 7378WAT    EPW30220   4.156   3.223   7.838 -0.6479 -0.3411  0.7594
 7379WAT      O30221   4.169   2.611   1.036 -0.0551  0.0117 -0.5600
 7379WAT     H130222   4.178   2.672   1.097  0.5782  0.4837 -1.1080
 7379WAT     H230223   4.216   2.642   0.969 -1.2065 -0.2041 -1.4969
 7379WAT    EPW30224   4.177   2.624   1.035  1.0433  0.0914 -0.0030
 7380WAT      O30225   4.833   1.133   7.857  0.8860  0.3300 -0.1677
 7380WAT     H130226   4.806   1.204   7.813 -0.7864  1.1875  2.0432
 7380WAT     H230227   4.787   1.068   7.822  1.1640  0.6051 -1.0689
 7380WAT    EPW30228   4.822   1.134   7.845  0.2561 -0.1405  0.7738
 7381WAT      O30229   3.473   2.111   0.863 -0.7603 -0.2590 -0.2548
 7381WAT     H130230   3.445   2.181   0.907 -0.3054 -0.1056 -0.2015
 7381WAT     H230231   3.525   2.070   0.920 -0.5211 -0.2973 -0.4949
 7381WAT    EPW30232   3.477   2.115   0.877  0.0378 -0.6496 -0.0737
 7382WAT      O30233   3.010   2.410   7.499  0.2658  0.1163 -0.2611
 7382WAT     H130234   2.941   2.460   7.517  0.2089  0.4127 -1.2314
 7382WAT     H230235   3.075   2.468   7.491 -0.0932  0.2724 -2.9334
 7382WAT    EPW30236   3.009   2.426   7.500 -0.0377 -0.2964 -0.4363
 7383WAT      O30237   5.311   0.591   0.633 -0.3347  0.2742  0.8102
 7383WAT     H130238   5.288   0.670   0.663 -0.0516  0.6485  0.0747
 7383WAT     H230239   5.355   0.556   0.700  0.3697  1.1278  0.8226
 7383WAT    EPW30240   5.314   0.598   0.647  0.1196  0.0373 -0.5665
 7384WAT      O30241   3.794   2.133   1.306 -0.1586  0.0343 -0.4699
 7384WAT     H130242   3.732   2.193   1.319  0.7838  1.1799 -1.0134
 7384WAT     H230243   3.769   2.094   1.232 -0.7439 -0.2120 -0.1494
 7384WAT    EPW30244   3.781   2.136   1.297  0.3599  0.3896 -0.8208
 7385WAT      O30245   3.825   3.338   7.230  0.0443 -0.0540  0.1023
 7385WAT     H130246   3.828   3.251   7.237  0.8014 -0.0770 -0.3897
 7385WAT     H230247   3.754   3.360   7.276 -0.9481 -1.0472 -0.9112
 7385WAT    EPW30248   3.815   3.328   7.238 -1.0349  0.0977  0.0350
 7386WAT      O30249   3.941   2.800   1.436  0.3041 -0.0572 -0.2910
 7386WAT     H130250   3.990   2.796   1.364 -2.4214  1.3388 -2.3959
 7386WAT     H230251   3.876   2.744   1.420 -0.1211 -0.0854  1.3383
 7386WAT    EPW30252   3.939   2.791   1.423  0.0028 -0.1020  0.9902
 7387WAT      O30253   3.390   2.767   7.993 -0.5854  0.0572  0.3215
 7387WAT     H130254   3.367   2.684   7.977  0.5449 -0.2702  0.3083
 7387WAT     H230255   3.437   2.789   7.923  0.5650  0.1372  1.0964
 7387WAT    EPW30256   3.394   2.758   7.980  0.4452 -0.4623 -0.3364
 7388WAT      O30257   2.739   2.959   8.004  0.1268  0.4488  0.7787
 7388WAT     H130258   2.687   2.915   8.059  0.5847 -1.1449  0.0207
 7388WAT     H230259   2.683   3.004   7.954 -0.6415 -1.5504 -0.2932
 7388WAT    EPW30260   2.723   2.959   8.005  0.6068  0.3538  0.2021
 7389WAT      O30261   5.503   2.335   7.538  0.1051  0.5373  0.2015
 7389WAT     H130262   5.541   2.395   7.588  0.7834  0.7983 -0.5951
 7389WAT     H230263   5.560   2.270   7.536 -0.4009  0.0731  0.6417
 7389WAT    EPW30264   5.517   2.334   7.545 -0.8343  0.0474  0.3484
 7390WAT      O30265   2.464   1.375   2.077  0.0325 -0.3301  0.2653
 7390WAT     H130266   2.458   1.327   2.004  0.8719  2.5977 -1.8980
 7390WAT     H230267   2.390   1.356   2.120 -0.3300 -2.3894 -1.1063
 7390WAT    EPW30268   2.452   1.365   2.073 -0.1763 -0.5147 -0.3408
 7391WAT      O30269   3.613   2.746   0.124 -0.1775  0.2646  0.5338
 7391WAT     H130270   3.647   2.666   0.129 -1.9064 -0.4431  1.7571
 7391WAT     H230271   3.554   2.739   0.061 -0.9747  0.3002  1.2634
 7391WAT    EPW30272   3.609   2.733   0.116 -0.7463 -0.4142  0.1580
 7392WAT      O30273   3.969   1.920   7.235  0.0224  0.4563  0.2013
 7392WAT     H130274   4.015   1.857   7.274 -0.6201 -0.3557 -0.2936
 7392WAT     H230275   3.899   1.877   7.204 -0.9435  1.5942  0.7231
 7392WAT    EPW30276   3.965   1.904   7.236  0.2259 -0.7519  1.1616
 7393WAT      O30277   4.881   2.295   0.124 -0.2089  0.5873  0.3483
 7393WAT     H130278   4.912   2.370   0.091  1.3578  1.4974  3.4811
 7393WAT     H230279   4.798   2.314   0.143 -1.1016  0.1032 -2.4972
 7393WAT    EPW30280   4.874   2.309   0.122  0.1016  0.6429  0.1717
 7394WAT      O30281   4.864   2.186   7.746 -0.2913 -0.1969 -0.6494
 7394WAT     H130282   4.901   2.174   7.824  0.4558 -0.2708 -1.0153
 7394WAT     H230283   4.780   2.201   7.766  0.0502  0.6538  0.2318
 7394WAT    EPW30284   4.857   2.187   7.761 -0.1143 -0.1703 -0.7052
 7395WAT      O30285   4.833   2.838   1.430 -0.2181 -0.1131  0.0635
 7395WAT     H130286   4.801   2.779   1.486  0.0270 -1.5785 -1.2675
 7395WAT     H230287   4.771   2.900   1.428 -0.3656 -0.1605  1.6869
 7395WAT    EPW30288   4.819   2.839   1.438  0.0734 -0.3005  0.4260
 7396WAT      O30289   3.566   1.612   1.850  0.0801 -0.3784 -0.6792
 7396WAT     H130290   3.551   1.697   1.863 -0.3303 -0.4142 -0.8863
 7396WAT     H230291   3.652   1.604   1.859  0.0078 -0.1203  0.3858
 7396WAT    EPW30292   3.576   1.623   1.853  0.5369  0.1836  0.5514
 7397WAT      O30293   4.597   2.028   8.041  0.1191  0.1491 -0.8376
 7397WAT     H130294   4.614   2.022   8.126 -0.3582  0.1139 -0.7431
 7397WAT     H230295   4.624   1.952   8.009  0.9656  0.4445 -0.8347
 7397WAT    EPW30296   4.603   2.016   8.049 -0.0039 -0.7274  0.5942
 7398WAT      O30297   4.343   0.861   0.071  0.2873  0.3543  0.5918
 7398WAT     H130298   4.402   0.912   0.110  0.6953 -0.9255  1.7440
 7398WAT     H230299   4.390   0.794   0.042 -0.5708 -0.6605  1.4721
 7398WAT    EPW30300   4.359   0.859   0.073  0.5344  0.0668  0.7056
 7399WAT      O30301   4.038   3.176   0.031  0.5311 -0.2643  0.0597
 7399WAT     H130302   4.075   3.112   0.079 -0.8851 -0.7947  0.4808
 7399WAT     H230303   3.981   3.212   0.086  0.6911  0.8088 -0.4637
 7399WAT    EPW30304   4.035   3.172   0.046  0.5596 -0.1703 -0.2967
 7400WAT      O30305   4.583   1.733   7.120  0.2213  0.3673 -0.4272
 7400WAT     H130306   4.557   1.747   7.038 -1.9197 -0.0874  0.1106
 7400WAT     H230307   4.661   1.697   7.111  0.9050  2.1008 -2.1808
 7400WAT    EPW30308   4.590   1.730   7.107 -0.0974  0.3308  0.1428
 7401WAT      O30309   3.717   1.537   7.630  0.0043  0.1847 -0.1801
 7401WAT     H130310   3.789   1.550   7.677  0.5624 -2.1469 -0.2989
 7401WAT     H230311   3.743   1.483   7.566 -2.1542 -2.2151  0.8041
 7401WAT    EPW30312   3.732   1.531   7.627 -1.2384 -0.5089 -0.7349
 7402WAT      O30313   4.207   1.305   0.002 -0.3378  0.4555 -0.4842
 7402WAT     H130314   4.189   1.236   0.051 -1.4547  2.1170  1.6142
 7402WAT     H230315   4.240   1.271  -0.071  2.0355 -2.1755  1.5932
 7402WAT    EPW30316   4.210   1.290  -0.001  0.5535 -0.9097  0.3724
 7403WAT      O30317   3.352   1.208   7.873 -0.4806  0.3949 -0.1884
 7403WAT     H130318   3.396   1.166   7.935  0.4261 -1.1533 -1.7966
 7403WAT     H230319   3.408   1.268   7.844 -0.5298  0.4394 -0.1924
 7403WAT    EPW30320   3.367   1.210   7.878  0.3279 -0.0405 -0.2544
 7404WAT      O30321   4.119   1.174   0.390  0.1833  0.0889 -0.3310
 7404WAT     H130322   4.075   1.245   0.365 -0.2195  0.3206  0.9563
 7404WAT     H230323   4.086   1.156   0.469  2.1497  0.0425  0.5145
 7404WAT    EPW30324   4.107   1.182   0.398 -0.6467  1.1201 -1.0815
 7405WAT      O30325   4.597   1.619   0.145 -0.2229 -0.5323  0.7194
 7405WAT     H130326   4.621   1.561   0.207 -1.9069 -1.6259  0.3999
 7405WAT     H230327   4.604   1.696   0.186  2.2774 -0.8520  1.0967
 7405WAT    EPW30328   4.602   1.622   0.160  0.5738  0.6399 -0.0043
 7406WAT      O30329   4.659   1.879   0.249 -0.3030  0.4173 -0.1170
 7406WAT     H130330   4.740   1.868   0.218  0.2350 -0.1953  1.4066
 7406WAT     H230331   4.668   1.867   0.335 -1.8766  1.1834  0.1919
 7406WAT    EPW30332   4.672   1.875   0.257 -0.4770  0.2195  0.5893
 7407WAT      O30333   5.129   2.594   7.871  0.4927  0.4513 -0.3353
 7407WAT     H130334   5.093   2.670   7.848 -1.1208  0.1824  1.1119
 7407WAT     H230335   5.119   2.545   7.800 -0.0200  1.0563 -0.6969
 7407WAT    EPW30336   5.122   2.598   7.857  0.2735 -0.3630  0.2292
 7408WAT      O30337   3.389   0.753   7.161 -0.1962 -0.4300 -0.1365
 7408WAT     H130338   3.373   0.683   7.209  0.5713 -1.1537 -0.8969
 7408WAT     H230339   3.387   0.819   7.218  0.5396 -1.2412  0.8507
 7408WAT    EPW30340   3.386   0.752   7.176 -0.5032  0.2499  0.1130
 7409WAT      O30341   5.119   1.262   0.184  0.2566 -0.6445  0.1230
 7409WAT     H130342   5.191   1.240   0.229  1.2520  0.9436 -0.5837
 7409WAT     H230343   5.128   1.348   0.172 -1.3031 -0.5690 -0.8169
 7409WAT    EPW30344   5.131   1.272   0.189  0.8514  0.3030 -0.4482
 7410WAT      O30345   4.193   2.237   7.328  0.3795 -0.2983 -0.2612
 7410WAT     H130346   4.225   2.299   7.380 -2.5056  0.4080  0.8620
 7410WAT     H230347   4.116   2.217   7.364 -0.1592 -2.3895 -2.2860
 7410WAT    EPW30348   4.186   2.243   7.341 -0.6152 -0.0714 -0.5720
 7411WAT      O30349   2.513   1.815   0.283  0.1315 -0.2349 -0.0082
 7411WAT     H130350   2.450   1.813   0.224  0.3721  0.7305 -0.3145
 7411WAT     H230351   2.540   1.898   0.282 -0.1387 -0.0757  1.7452
 7411WAT    EPW30352   2.508   1.827   0.274  0.4906 -0.1716 -0.0113
 7412WAT      O30353   3.842   2.878   0.048  0.0019  0.5389 -0.0539
 7412WAT     H130354   3.820   2.962   0.037  0.7347  0.6355 -0.9609
 7412WAT     H230355   3.768   2.840   0.071 -0.1433  1.6039  1.3893
 7412WAT    EPW30356   3.828   2.885   0.050 -0.4247 -0.3448  0.6235
 7413WAT      O30357   5.059   2.084   0.970  0.1944  0.3329  0.3191
 7413WAT     H130358   5.012   2.020   1.006  2.7498 -1.0079  1.5388
 7413WAT     H230359   5.098   2.121   1.038  0.6440  1.6459 -0.6116
 7413WAT    EPW30360   5.058   2.080   0.985  0.4628  0.0905 -0.4289
 7414WAT      O30361   3.956   4.266   0.263 -0.3474 -0.2691  0.3721
 7414WAT     H130362   4.018   4.234   0.316 -2.2704 -0.3218  2.7651
 7414WAT     H230363   3.971   4.352   0.263  0.6704 -0.4280 -0.4256
 7414WAT    EPW30364   3.968   4.274   0.271  0.6573  0.3632  0.0638
 7415WAT      O30365   4.911   2.162   0.390  0.5403 -0.4245  0.1458
 7415WAT     H130366   4.903   2.188   0.307  1.6209 -0.0523  0.1389
 7415WAT     H230367   4.837   2.188   0.427  1.6184  3.0844  0.2360
 7415WAT    EPW30368   4.899   2.170   0.383  0.3159 -0.6768 -0.6006
 7416WAT      O30369   2.572   2.668   1.260  0.1911  0.5566 -0.5867
 7416WAT     H130370   2.603   2.628   1.189 -2.2245 -1.0545 -0.8480
 7416WAT     H230371   2.636   2.723   1.282  2.5584 -1.5003 -1.8534
 7416WAT    EPW30372   2.586   2.670   1.253  0.5094  0.2676  0.1693
 7417WAT      O30373   3.608   2.426   7.666  0.0946 -0.3510 -0.2619
 7417WAT     H130374   3.685   2.467   7.664  0.1644 -0.4652  0.0468
 7417WAT     H230375   3.562   2.465   7.604 -0.2524  1.0062  0.8061
 7417WAT    EPW30376   3.613   2.438   7.657 -0.8008  0.2346 -0.7238
 7418WAT      O30377   3.230   3.047   0.575  0.2256 -0.1986 -0.0074
 7418WAT     H130378   3.210   3.127   0.546 -1.0638 -0.1510  0.9019
 7418WAT     H230379   3.214   3.052   0.661 -0.4245 -1.5856 -0.0230
 7418WAT    EPW30380   3.225   3.059   0.584 -0.7176 -0.3332  0.5153
 7419WAT      O30381   4.210   0.973   7.336  0.7714  0.1612 -0.5636
 7419WAT     H130382   4.244   0.934   7.266  2.7513  0.8971 -0.0856
 7419WAT     H230383   4.280   1.000   7.381 -0.4555  1.5353  0.6553
 7419WAT    EPW30384   4.225   0.971   7.332  0.1079 -1.0895 -0.8054
 7420WAT      O30385   5.304   2.927   1.332  0.1670  0.3150 -0.4448
 7420WAT     H130386   5.355   2.952   1.265 -1.1381  0.5449 -1.4030
 7420WAT     H230387   5.295   2.841   1.320  2.2581 -0.1967  1.1474
 7420WAT    EPW30388   5.310   2.918   1.320 -0.2959 -0.9275  0.3093
 7421WAT      O30389   5.519   0.994   0.299  0.0493 -0.2506  0.1636
 7421WAT     H130390   5.477   1.056   0.254  0.8291  0.0983 -0.0967
 7421WAT     H230391   5.551   0.941   0.237  1.8933  0.7256  0.2234
 7421WAT    EPW30392   5.517   0.995   0.283 -0.5143  0.1020  0.0553
 7422WAT      O30393   3.178   1.190   7.561 -0.5048  0.5499  0.3047
 7422WAT     H130394   3.208   1.270   7.576 -0.4195  0.6223 -0.2326
 7422WAT     H230395   3.131   1.172   7.632 -0.6932  1.1593  0.3368
 7422WAT    EPW30396   3.175   1.199   7.574  0.2103  0.2883  0.3176
 7423WAT      O30397   3.861   0.094   7.433  0.0694 -0.4539 -0.4627
 7423WAT     H130398   3.865   0.129   7.353  2.3384 -0.1438 -0.2742
 7423WAT     H230399   3.932   0.044   7.437 -0.4343 -1.0876  1.1028
 7423WAT    EPW30400   3.872   0.092   7.422 -0.2912 -0.1216 -0.3792
 7424WAT      O30401   3.318   3.298   7.708 -0.4371  0.3786 -0.1191
 7424WAT     H130402   3.320   3.347   7.780 -1.2227  2.2733 -1.2933
 7424WAT     H230403   3.234   3.300   7.685 -0.1959 -0.1693 -1.0768
 7424WAT    EPW30404   3.306   3.306   7.715  1.3887 -0.3725 -0.3449
 7425WAT      O30405   2.509   3.491   0.147  0.2508  0.3868  0.0619
 7425WAT     H130406   2.536   3.483   0.064  1.2538  0.4721  0.3712
 7425WAT     H230407   2.448   3.553   0.142 -0.5047 -0.3838 -0.7831
 7425WAT    EPW30408   2.504   3.499   0.134  0.3853 -0.1397  1.1359
 7426WAT      O30409   4.258   3.023   1.076 -0.3133 -0.4370  0.2524
 7426WAT     H130410   4.289   3.057   1.002 -3.3627  3.2160  0.3639
 7426WAT     H230411   4.282   3.081   1.136 -0.1789 -1.9681  1.7468
 7426WAT    EPW30412   4.266   3.037   1.074 -0.4633  0.3534  0.5888
 7427WAT      O30413   4.862   1.266   0.311 -0.0426  0.6401 -0.3383
 7427WAT     H130414   4.860   1.193   0.359  1.4604  0.4878 -0.4478
 7427WAT     H230415   4.944   1.268   0.281 -0.8061  0.9416 -2.5848
 7427WAT    EPW30416   4.874   1.255   0.314 -0.2336 -1.1554  0.0977
 7428WAT      O30417   4.335   2.508   6.445  0.0077  0.2752  0.8008
 7428WAT     H130418   4.375   2.540   6.516 -1.5001  0.5348  1.5711
 7428WAT     H230419   4.309   2.580   6.403  0.3580  0.1077  0.2827
 7428WAT    EPW30420   4.337   2.524   6.449 -0.5689  0.0610 -1.0020
 7429WAT      O30421   3.853   1.177   8.048 -0.4194 -0.3451  0.0287
 7429WAT     H130422   3.888   1.242   8.002 -1.1923 -0.2757 -0.4699
 7429WAT     H230423   3.791   1.146   7.996  0.4052 -1.9767 -0.0616
 7429WAT    EPW30424   3.849   1.182   8.034 -0.4241 -0.6282  0.2110
 7430WAT      O30425   5.212   2.181   1.206 -0.5201  0.0425 -0.5815
 7430WAT     H130426   5.191   2.192   1.290 -0.9026  0.2856 -0.7122
 7430WAT     H230427   5.241   2.259   1.182 -1.2960  0.2180 -0.9373
 7430WAT    EPW30428   5.213   2.194   1.215  0.0884 -0.2417  0.2353
 7431WAT      O30429   3.342   2.495   7.955  0.5161  0.4079 -0.6933
 7431WAT     H130430   3.361   2.415   7.924 -2.0949 -0.9150  0.7234
 7431WAT     H230431   3.360   2.488   8.040  0.4952  1.4278 -0.6007
 7431WAT    EPW30432   3.347   2.482   7.963  0.3624  0.6525  0.0449
 7432WAT      O30433   3.830   1.809   0.899  0.3483 -0.6649  0.6800
 7432WAT     H130434   3.811   1.751   0.836 -0.4193 -3.4324  3.2298
 7432WAT     H230435   3.916   1.817   0.894  0.2894 -0.6391 -0.8411
 7432WAT    EPW30436   3.840   1.801   0.889  0.4578 -0.9933 -0.1253
 7433WAT      O30437   4.133   2.774   7.363 -0.5304  0.0717 -0.1062
 7433WAT     H130438   4.179   2.799   7.293  0.8746  1.3722  1.2114
 7433WAT     H230439   4.073   2.837   7.371 -0.3902  0.1728  0.1379
 7433WAT    EPW30440   4.131   2.787   7.354  0.2671  0.2374 -0.0870
 7434WAT      O30441   3.985   1.351   7.898 -0.4294 -0.6587 -0.0486
 7434WAT     H130442   4.045   1.349   7.962 -0.0785 -0.7904 -0.3827
 7434WAT     H230443   4.005   1.281   7.850  0.3110  0.3379 -1.2307
 7434WAT    EPW30444   3.997   1.340   7.901 -0.0650  0.5117 -0.1771
 7435WAT      O30445   4.405   3.281   7.135  0.5076  0.1084 -0.3814
 7435WAT     H130446   4.389   3.277   7.221 -2.0523 -3.0822 -0.8062
 7435WAT     H230447   4.491   3.268   7.131  0.8870  1.4233  1.6990
 7435WAT    EPW30448   4.415   3.278   7.147  0.2421  0.2885 -0.3686
 7436WAT      O30449   2.486   0.694   7.600  0.2858 -0.5471  0.4156
 7436WAT     H130450   2.570   0.692   7.575  1.0422  1.2563  2.4798
 7436WAT     H230451   2.445   0.725   7.530  1.5671 -0.0992 -0.1745
 7436WAT    EPW30452   2.492   0.698   7.586 -0.4586 -0.2186 -0.1988
 7437WAT      O30453   5.524   2.288   1.387  0.4895  0.0710  0.0124
 7437WAT     H130454   5.608   2.309   1.373  0.6537 -1.6286 -2.0643
 7437WAT     H230455   5.515   2.212   1.344 -2.2600  0.4876 -0.2911
 7437WAT    EPW30456   5.535   2.280   1.378 -0.1772  1.2918 -0.0672
 7438WAT      O30457   3.821   0.855   0.331  0.0887 -0.4771  0.0685
 7438WAT     H130458   3.881   0.792   0.337 -0.6499 -1.3538 -1.1942
 7438WAT     H230459   3.783   0.840   0.254  0.0513  1.6952 -0.4153
 7438WAT    EPW30460   3.824   0.844   0.321  0.5953  0.4193 -0.1518
 7439WAT      O30461   3.830   1.202   0.287  0.4363  0.3703 -0.4569
 7439WAT     H130462   3.893   1.150   0.318 -1.1603 -0.6141  1.3758
 7439WAT     H230463   3.826   1.182   0.202  2.5476  0.4690 -0.6317
 7439WAT    EPW30464   3.839   1.191   0.279  0.1076 -0.4172  0.5131
 7440WAT      O30465   3.946   2.881   6.663  0.7031  0.6459  0.9407
 7440WAT     H130466   3.930   2.869   6.578  2.1722  1.4080  0.5316
 7440WAT     H230467   3.990   2.810   6.686  0.6641  0.6297  0.9648
 7440WAT    EPW30468   3.950   2.869   6.654  0.4518  0.2363  0.8758
 7441WAT      O30469   3.833   1.474   7.231  0.0287 -0.6820  0.8202
 7441WAT     H130470   3.835   1.555   7.260  0.5221 -0.1216 -0.6501
 7441WAT     H230471   3.817   1.426   7.302  1.7418  0.5113  2.0943
 7441WAT    EPW30472   3.831   1.479   7.245  0.4519  0.0271  0.1005
 7442WAT      O30473   3.157   4.020   6.623 -0.0664 -0.1541 -0.3555
 7442WAT     H130474   3.122   4.026   6.703  0.0951  0.7288 -0.3387
 7442WAT     H230475   3.234   4.061   6.632  0.5978 -1.3146 -0.6046
 7442WAT    EPW30476   3.164   4.027   6.636  0.5091 -0.1161 -0.2582
 7443WAT      O30477   3.573   2.174   7.595  0.4988  0.1513 -0.1175
 7443WAT     H130478   3.596   2.255   7.619  0.1576  0.1453  0.2337
 7443WAT     H230479   3.648   2.131   7.593  0.6811  0.4720 -0.2790
 7443WAT    EPW30480   3.588   2.180   7.598  0.8616  0.4456 -0.1642
 7444WAT      O30481   4.682   2.667   1.588  0.2472 -0.2601 -0.0627
 7444WAT     H130482   4.678   2.606   1.526  0.8489 -0.8643  0.4752
 7444WAT     H230483   4.599   2.674   1.615  0.3705 -1.8612  0.8230
 7444WAT    EPW30484   4.669   2.659   1.583  0.3299  0.3591 -0.4561
 7445WAT      O30485   5.000   2.803   7.735 -0.1828  0.7812  0.1895
 7445WAT     H130486   4.926   2.827   7.696  0.7961  1.3893 -1.3971
 7445WAT     H230487   5.057   2.865   7.711  0.6609  0.8611  2.1322
 7445WAT    EPW30488   4.997   2.816   7.726  0.6897  0.7939  0.4068
 7446WAT      O30489   4.356   0.702   6.024  0.0660 -0.0612 -0.2156
 7446WAT     H130490   4.313   0.661   5.960 -0.6642 -1.2045  0.9572
 7446WAT     H230491   4.436   0.713   5.991 -0.2036 -0.8991 -1.2045
 7446WAT    EPW30492   4.362   0.698   6.009 -0.3536  0.4404  0.2234
 7447WAT      O30493   4.189   1.566   5.658 -0.1519 -0.0939  0.2772
 7447WAT     H130494   4.123   1.595   5.707  0.9823  2.3943  0.5255
 7447WAT     H230495   4.161   1.580   5.576  0.9823  3.8296  0.3518
 7447WAT    EPW30496   4.175   1.572   5.653  0.1483 -0.4082 -0.7922
 7448WAT      O30497   3.796   1.967   5.869  0.3315  0.1239  0.0651
 7448WAT     H130498   3.814   1.888   5.902  2.4606  1.0694  1.3798
 7448WAT     H230499   3.862   2.016   5.898 -0.3230  2.1421 -1.6712
 7448WAT    EPW30500   3.809   1.962   5.878  0.0554 -0.0833  0.6487
 7449WAT      O30501   4.561   2.422   6.262 -0.2788 -1.0397 -0.0069
 7449WAT     H130502   4.636   2.467   6.266 -1.1981  0.6692 -1.1519
 7449WAT     H230503   4.514   2.454   6.328  0.0952 -2.3675  0.9384
 7449WAT    EPW30504   4.565   2.433   6.272 -0.3998  0.6551 -0.1865
 7450WAT      O30505   4.415   1.758   4.412 -0.0126 -0.4163 -0.1218
 7450WAT     H130506   4.356   1.807   4.453  0.3729  0.7080 -0.8508
 7450WAT     H230507   4.431   1.802   4.338  0.7538 -1.3724 -0.5548
 7450WAT    EPW30508   4.409   1.772   4.407 -0.6329  0.1746  0.3252
 7451WAT      O30509   3.188   0.937   5.182  0.0302 -0.2355 -0.5794
 7451WAT     H130510   3.141   0.872   5.148 -0.7241 -0.3117  0.5630
 7451WAT     H230511   3.236   0.965   5.114  0.0762 -1.6977 -1.2037
 7451WAT    EPW30512   3.188   0.931   5.167 -0.1409  0.3224 -0.7595
 7452WAT      O30513   4.839   0.995   4.332 -0.5618  0.5836 -0.1999
 7452WAT     H130514   4.885   0.998   4.406 -0.4970 -0.6251 -0.1761
 7452WAT     H230515   4.893   1.028   4.272  0.6399 -1.4117 -0.3008
 7452WAT    EPW30516   4.853   1.001   4.334 -0.1728 -0.7995 -0.4368
 7453WAT      O30517   3.804   3.123   5.624  0.4252 -0.2841  0.0257
 7453WAT     H130518   3.852   3.146   5.693 -1.4736  1.7530  0.7753
 7453WAT     H230519   3.851   3.152   5.556 -0.0889  2.7294  0.7830
 7453WAT    EPW30520   3.818   3.131   5.624 -0.4901  0.2179 -0.0488
 7454WAT      O30521   5.178   2.533   6.444 -0.2892 -0.3158 -0.4543
 7454WAT     H130522   5.154   2.610   6.477  0.0976 -0.3411 -0.1065
 7454WAT     H230523   5.176   2.480   6.513 -0.3044 -0.5621 -0.6428
 7454WAT    EPW30524   5.174   2.537   6.459 -0.1539 -0.7258 -0.3616
 7455WAT      O30525   2.360   2.056   5.422  0.2328  1.0523 -0.5214
 7455WAT     H130526   2.338   1.973   5.407 -1.2542  1.4928 -0.8879
 7455WAT     H230527   2.441   2.049   5.456  0.3275 -0.4990 -0.9569
 7455WAT    EPW30528   2.369   2.043   5.425  0.6801 -0.5115  0.1722
 7456WAT      O30529   4.427   1.471   7.216 -0.3450 -0.1399 -0.0396
 7456WAT     H130530   4.452   1.545   7.176  3.2428 -1.5582 -0.8027
 7456WAT     H230531   4.437   1.489   7.300  0.7828  0.1995 -0.2296
 7456WAT    EPW30532   4.432   1.485   7.222 -0.2386  0.0169  0.0980
 7457WAT      O30533   3.286   2.554   6.228 -0.1513  0.9466 -0.5584
 7457WAT     H130534   3.206   2.585   6.210 -1.0336 -0.4166  0.7252
 7457WAT     H230535   3.306   2.595   6.302 -0.4292  0.0580  0.0293
 7457WAT    EPW30536   3.277   2.565   6.236 -0.2300  0.2438  0.1677
 7458WAT      O30537   3.954   7.880   6.155  0.3555 -0.4561 -0.2302
 7458WAT     H130538   3.930   7.798   6.136  1.3450 -0.8719  0.2169
 7458WAT     H230539   3.920   7.927   6.090 -1.8123 -0.9463  0.4798
 7458WAT    EPW30540   3.945   7.875   6.142 -0.3074 -1.3884  0.2143
 7459WAT      O30541   3.681   3.358   6.918  0.3678 -0.4906  0.2153
 7459WAT     H130542   3.712   3.276   6.925 -0.0356 -0.7526 -0.8670
 7459WAT     H230543   3.729   3.402   6.976 -0.8344 -1.8481  2.4049
 7459WAT    EPW30544   3.693   3.352   6.928 -0.5963 -0.2927  0.2992
 7460WAT      O30545   3.297   2.369   6.027 -0.4241  0.4520  0.1547
 7460WAT     H130546   3.302   2.430   6.089 -1.7477  1.6596 -0.8607
 7460WAT     H230547   3.356   2.310   6.052  1.4519  2.4574  0.8317
 7460WAT    EPW30548   3.307   2.370   6.040  1.4487 -0.6630  0.1599
 7461WAT      O30549   4.114   2.309   5.725 -0.1596 -0.0587 -0.9117
 7461WAT     H130550   4.059   2.377   5.723 -0.0459  0.0413 -0.6705
 7461WAT     H230551   4.168   2.329   5.790 -0.6529 -0.7933 -0.2512
 7461WAT    EPW30552   4.114   2.322   5.734  0.3336 -0.5128  0.1148
 7462WAT      O30553   4.000   2.265   4.985 -0.1993  0.1828 -0.3563
 7462WAT     H130554   4.086   2.263   4.999  0.0026  0.9535 -1.4043
 7462WAT     H230555   3.989   2.329   4.927 -1.6746  1.3497  1.0832
 7462WAT    EPW30556   4.011   2.274   4.979  0.0699 -0.1735 -0.1360
 7463WAT      O30557   4.986   1.689   6.101 -0.1065 -0.3193 -0.3266
 7463WAT     H130558   5.043   1.685   6.036  0.5310 -1.3009  0.2594
 7463WAT     H230559   5.036   1.696   6.172 -0.7447 -0.3201  0.1326
 7463WAT    EPW30560   5.002   1.689   6.102  0.2016 -0.3194  0.0370
 7464WAT      O30561   3.917   1.807   6.741 -0.3185  0.4170  0.4517
 7464WAT     H130562   3.983   1.759   6.772  0.2512  1.4113  0.8634
 7464WAT     H230563   3.852   1.750   6.732  0.6580 -0.6335 -0.1799
 7464WAT    EPW30564   3.917   1.792   6.744 -0.3807  0.3263 -0.8837
 7465WAT      O30565   5.040   2.166   7.963  0.1295  0.0836  0.3747
 7465WAT     H130566   4.999   2.192   8.035 -1.2429  0.7101 -0.5869
 7465WAT     H230567   5.115   2.210   7.964 -0.5609  1.2933  0.6353
 7465WAT    EPW30568   5.045   2.176   7.974 -0.4037 -0.8897  0.3213
 7466WAT      O30569   4.261   2.390   5.939  0.0871 -0.0295  0.2245
 7466WAT     H130570   4.315   2.324   5.956 -0.0634  0.4955  3.2611
 7466WAT     H230571   4.309   2.461   5.956 -0.7414  0.5315  0.3065
 7466WAT    EPW30572   4.276   2.391   5.944  0.2782 -0.4008  0.0569
 7467WAT      O30573   3.723   1.179   5.155  0.2483 -0.2483  0.1605
 7467WAT     H130574   3.688   1.164   5.234 -0.8516 -1.3589 -0.5013
 7467WAT     H230575   3.654   1.203   5.107  0.9635  0.7268 -0.3915
 7467WAT    EPW30576   3.708   1.180   5.160 -0.6877  0.4999 -0.4035
 7468WAT      O30577   3.804   1.661   5.662 -0.4007  0.1711 -0.0007
 7468WAT     H130578   3.856   1.725   5.634  0.0106 -0.6515 -1.2263
 7468WAT     H230579   3.757   1.698   5.725 -0.5407  1.8259 -1.0258
 7468WAT    EPW30580   3.805   1.676   5.667  0.4121 -0.0690  0.1136
 7469WAT      O30581   2.102   2.742   5.379 -0.8168 -0.1901 -0.7531
 7469WAT     H130582   2.053   2.771   5.446  0.4116  1.4563 -0.4759
 7469WAT     H230583   2.075   2.790   5.312 -0.2986  0.0128 -0.8246
 7469WAT    EPW30584   2.091   2.754   5.379 -0.7073  0.3554  0.7255
 7470WAT      O30585   4.843   2.288   5.555  0.0177  0.5797 -0.2290
 7470WAT     H130586   4.780   2.304   5.497 -2.3802  1.3233  2.3583
 7470WAT     H230587   4.811   2.223   5.603  1.0824  1.1958  1.3943
 7470WAT    EPW30588   4.829   2.281   5.553 -0.0497 -0.6787  0.2052
 7471WAT      O30589   3.912   3.325   4.809 -0.2983 -0.1392  0.7487
 7471WAT     H130590   3.940   3.244   4.821 -0.8116 -0.5564 -0.6744
 7471WAT     H230591   3.877   3.323   4.729  0.3264  1.6533  0.3820
 7471WAT    EPW30592   3.911   3.313   4.799  0.2793 -0.8375  0.0942
 7472WAT      O30593   3.701   1.624   6.256 -0.2517 -0.0985  1.2854
 7472WAT     H130594   3.751   1.693   6.241 -2.4421  1.0448 -1.6718
 7472WAT     H230595   3.756   1.556   6.251  1.1982  1.1339 -0.6373
 7472WAT    EPW30596   3.716   1.624   6.253  0.3079 -0.1872  0.0615
 7473WAT      O30597   3.993   1.033   6.689  0.6409 -0.5168  0.6240
 7473WAT     H130598   3.980   0.947   6.682 -0.1360 -0.4884  1.5274
 7473WAT     H230599   3.975   1.050   6.772 -0.6307  0.7436  0.1328
 7473WAT    EPW30600   3.988   1.023   6.700  0.7664  0.1975 -0.3220
 7474WAT      O30601   3.562   1.724   5.845  0.2212  0.2035  0.5008
 7474WAT     H130602   3.553   1.777   5.915 -1.7955 -0.6893  0.9824
 7474WAT     H230603   3.556   1.644   5.879 -0.6972 -0.2527 -0.6757
 7474WAT    EPW30604   3.560   1.720   5.861 -1.1522  0.2696  0.0375
 7475WAT      O30605   4.414   1.633   6.051  0.0978  0.0508  0.5889
 7475WAT     H130606   4.472   1.660   6.111  0.6475  0.4542 -0.1048
 7475WAT     H230607   4.337   1.650   6.088  0.4295  1.2233  0.7777
 7475WAT    EPW30608   4.411   1.640   6.065 -1.1634  0.2447 -0.5083
 7476WAT      O30609   3.137   0.768   7.915  0.4431 -0.0779 -0.5925
 7476WAT     H130610   3.115   0.684   7.920  0.0653  0.0512 -0.0789
 7476WAT     H230611   3.223   0.766   7.902  0.6961 -0.5186  0.9976
 7476WAT    EPW30612   3.146   0.755   7.914  0.5466 -0.0615  0.1294
 7477WAT      O30613   3.952   3.224   5.838 -0.1971 -0.3282 -0.2606
 7477WAT     H130614   3.972   3.176   5.908  0.9827  1.4805  0.7356
 7477WAT     H230615   3.870   3.248   5.852 -0.2282 -0.6345  0.0985
 7477WAT    EPW30616   3.943   3.220   5.850 -0.4433 -0.0423 -0.2141
 7478WAT      O30617   4.741   0.835   6.963  0.4020 -0.5335  0.6534
 7478WAT     H130618   4.713   0.905   7.007 -3.0302  1.5761 -4.0181
 7478WAT     H230619   4.728   0.769   7.018  2.1238  2.1579  4.7019
 7478WAT    EPW30620   4.735   0.836   6.977 -0.6102  0.6903  0.7872
 7479WAT      O30621   4.355   1.771   5.070 -0.1324 -0.1082  0.2041
 7479WAT     H130622   4.437   1.770   5.041  0.9467  2.1169  2.7731
 7479WAT     H230623   4.342   1.690   5.099  0.9993 -0.5806 -0.5456
 7479WAT    EPW30624   4.365   1.759   5.070  0.6167  0.0064 -0.3235
 7480WAT      O30625   4.198   3.038   5.115 -1.0398  0.0889 -0.2178
 7480WAT     H130626   4.169   2.987   5.051 -0.3864 -0.8101  0.1936
 7480WAT     H230627   4.186   3.119   5.084  0.9260 -0.3251 -2.2363
 7480WAT    EPW30628   4.192   3.043   5.101 -0.2891 -0.0219 -0.7640
 7481WAT      O30629   2.603   3.387   6.167 -0.0521 -0.4763 -0.3298
 7481WAT     H130630   2.614   3.402   6.082 -1.7668 -0.9521 -0.6775
 7481WAT     H230631   2.588   3.301   6.171  1.0026 -0.6378  0.5909
 7481WAT    EPW30632   2.602   3.377   6.155  0.1601  0.0785  0.4565
 7482WAT      O30633   5.243   2.173   7.669  0.0850  0.0573  0.3292
 7482WAT     H130634   5.279   2.147   7.744 -0.0958 -0.1656  0.3389
 7482WAT     H230635   5.309   2.212   7.627 -0.4130  2.5951  1.7274
 7482WAT    EPW30636   5.258   2.175   7.674 -0.5212  0.4039  0.6269
 7483WAT      O30637   5.619   1.458   7.392  0.1178 -0.1237  0.0957
 7483WAT     H130638   5.661   1.437   7.319  0.1227 -0.3505  0.1620
 7483WAT     H230639   5.677   1.506   7.437  0.4104 -0.6624  0.3086
 7483WAT    EPW30640   5.634   1.462   7.388 -0.5985  0.3082 -0.4820
 7484WAT      O30641   3.785   2.528   0.174 -0.3233  0.3507 -0.2361
 7484WAT     H130642   3.787   2.447   0.144  0.1378 -0.1133  0.9659
 7484WAT     H230643   3.857   2.565   0.142  0.3390 -0.2352  0.5518
 7484WAT    EPW30644   3.796   2.522   0.165  0.7468 -0.0678 -0.4162
 7485WAT      O30645   4.002   3.069   4.872  0.5395 -0.3632 -0.2119
 7485WAT     H130646   3.936   3.014   4.889 -0.4504  0.9674  0.4881
 7485WAT     H230647   4.038   3.036   4.800 -0.5494 -1.4440 -0.3042
 7485WAT    EPW30648   3.998   3.056   4.864  0.6061  0.2460 -0.2395
 7486WAT      O30649   4.862   1.909   4.335  0.5591  0.5025  0.0995
 7486WAT     H130650   4.864   1.951   4.411 -1.1826  0.1268  0.3932
 7486WAT     H230651   4.786   1.932   4.301  0.8351 -0.2010 -1.0445
 7486WAT    EPW30652   4.851   1.919   4.341 -0.6192 -0.4037  0.1187
 7487WAT      O30653   3.881   1.427   6.238  0.3048  0.1311  0.0802
 7487WAT     H130654   3.957   1.400   6.204  0.6686 -0.1989  1.0910
 7487WAT     H230655   3.849   1.354   6.275  0.2854  0.6073  1.0410
 7487WAT    EPW30656   3.888   1.412   6.239 -0.3102 -0.7070 -1.0568
 7488WAT      O30657   3.039   3.028   7.753  0.0197  0.1399 -0.0668
 7488WAT     H130658   3.099   3.021   7.691 -0.2777 -1.0268 -0.2359
 7488WAT     H230659   3.053   2.960   7.804 -1.6826 -0.6735 -0.5916
 7488WAT    EPW30660   3.050   3.017   7.751  0.1623 -0.6908 -0.7118
 7489WAT      O30661   4.995   1.268   6.698 -0.4101  0.3076 -0.0371
 7489WAT     H130662   4.922   1.230   6.725 -0.3756  0.2187 -0.0667
 7489WAT     H230663   4.977   1.291   6.616 -0.4786  0.4825  0.0275
 7489WAT    EPW30664   4.982   1.265   6.690 -0.3205  0.0658 -0.8643
 7490WAT      O30665   3.658   3.816   7.075  0.5388  0.6269 -0.2548
 7490WAT     H130666   3.730   3.793   7.119 -0.4456 -0.4763  0.8724
 7490WAT     H230667   3.636   3.743   7.032  0.7409  1.3135 -1.5837
 7490WAT    EPW30668   3.666   3.801   7.075  0.4499 -0.7668 -0.6244
 7491WAT      O30669   3.061   1.420   4.712  0.0306 -0.0108  0.6310
 7491WAT     H130670   3.050   1.343   4.751  1.3765 -1.6315 -1.8717
 7491WAT     H230671   3.144   1.441   4.730  0.1259  0.0926  0.1038
 7491WAT    EPW30672   3.072   1.412   4.720 -0.1124 -0.6947  0.1799
 7492WAT      O30673   4.757   3.937   5.951  0.5006 -0.1364 -0.7815
 7492WAT     H130674   4.706   3.889   5.898 -0.7897 -0.0629  0.3409
 7492WAT     H230675   4.734   3.911   6.031  0.8339  1.3038 -0.1871
 7492WAT    EPW30676   4.746   3.926   5.955 -0.0547 -0.9045 -0.0187
 7493WAT      O30677   4.297   2.612   5.539  0.0869  0.2273 -0.1087
 7493WAT     H130678   4.287   2.672   5.476  1.3642  0.6401  0.0470
 7493WAT     H230679   4.258   2.541   5.506 -0.8968  0.9509 -0.5659
 7493WAT    EPW30680   4.290   2.610   5.525  0.6171 -0.6686 -0.3946
 7494WAT      O30681   4.109   1.744   7.400 -0.3091 -0.6157 -0.1170
 7494WAT     H130682   4.127   1.659   7.408  0.0459 -0.5910 -0.6141
 7494WAT     H230683   4.187   1.780   7.386 -0.3797 -0.1308  0.7016
 7494WAT    EPW30684   4.123   1.737   7.399  0.8285  0.9038  0.0271
 7495WAT      O30685   3.169   2.624   7.426 -0.2708 -0.9180 -0.2758
 7495WAT     H130686   3.147   2.659   7.349  0.7777 -0.1374 -0.2445
 7495WAT     H230687   3.187   2.694   7.475  0.8450 -1.4702  0.1202
 7495WAT    EPW30688   3.168   2.639   7.422 -0.5001  0.6304 -0.1934
 7496WAT      O30689   3.579   0.797   4.960 -0.0605  1.0230  0.5347
 7496WAT     H130690   3.579   0.792   5.047  0.6312  0.2834  0.5090
 7496WAT     H230691   3.495   0.791   4.938 -0.2151  0.9644  1.1385
 7496WAT    EPW30692   3.567   0.796   4.970 -0.3975 -1.2002  0.0966
 7497WAT      O30693   2.732   2.224   6.205 -0.5966 -0.0826  0.2051
 7497WAT     H130694   2.722   2.155   6.152  0.3843  0.0086 -0.1304
 7497WAT     H230695   2.770   2.284   6.153 -1.3222  0.6779  0.5234
 7497WAT    EPW30696   2.736   2.223   6.189  0.1415 -0.1550  0.0621
 7498WAT      O30697   4.620   1.682   5.550 -0.3565 -0.0703  0.6444
 7498WAT     H130698   4.596   1.600   5.532  0.4770 -0.3448  0.7665
 7498WAT     H230699   4.582   1.698   5.627  0.1939 -0.6472  1.0395
 7498WAT    EPW30700   4.611   1.673   5.559  0.0909  0.7558 -0.4371
 7499WAT      O30701   3.415   1.675   7.150  0.3094 -0.3058 -0.2388
 7499WAT     H130702   3.399   1.755   7.182 -0.4754 -0.2797 -0.6651
 7499WAT     H230703   3.335   1.643   7.136  0.6196 -1.2152  0.0344
 7499WAT    EPW30704   3.401   1.682   7.152 -0.0211 -0.0281  0.0098
 7500WAT      O30705   3.401   2.496   7.500 -0.1234 -0.4986  0.2967
 7500WAT     H130706   3.353   2.548   7.449 -0.9474 -1.2242  0.3064
 7500WAT     H230707   3.355   2.491   7.574 -0.1955 -1.4389  0.1993
 7500WAT    EPW30708   3.388   2.503   7.503 -0.7412 -0.9143 -0.3060
 7501WAT      O30709   4.948   3.216   6.843 -0.6081  0.0716  0.3108
 7501WAT     H130710   5.032   3.199   6.831 -0.7208  0.6488 -1.6571
 7501WAT     H230711   4.946   3.257   6.920  1.0027  0.7241  0.0382
 7501WAT    EPW30712   4.960   3.220   6.853 -0.8750  0.0383  0.4507
 7502WAT      O30713   4.159   1.714   6.860 -0.0894 -0.4733  0.1496
 7502WAT     H130714   4.180   1.768   6.925 -2.0493 -1.1385  1.4557
 7502WAT     H230715   4.219   1.651   6.866  1.6942  1.0494 -0.8367
 7502WAT    EPW30716   4.171   1.713   6.870  0.6689 -0.0733  0.4814
 7503WAT      O30717   3.808   2.416   6.719  0.0556  0.0719 -0.0918
 7503WAT     H130718   3.848   2.339   6.730  3.8139  2.0430  2.2358
 7503WAT     H230719   3.766   2.428   6.794  0.9437  0.9707  0.2809
 7503WAT    EPW30720   3.808   2.407   6.732  0.9858  0.0207  0.7384
 7504WAT      O30721   3.981   2.386   6.333 -0.0830 -0.2424 -0.3071
 7504WAT     H130722   3.909   2.423   6.364 -0.1069  0.6501 -1.3383
 7504WAT     H230723   4.034   2.381   6.402 -0.5829  0.4867  0.1414
 7504WAT    EPW30724   3.978   2.390   6.347  0.1985 -0.0723  0.7242
 7505WAT      O30725   6.289   3.724   6.274 -0.4685 -0.2998  0.4727
 7505WAT     H130726   6.301   3.639   6.259  0.2031 -0.2605  0.7807
 7505WAT     H230727   6.287   3.759   6.194  0.6288 -0.4278  0.3736
 7505WAT    EPW30728   6.290   3.717   6.260 -0.0489 -0.1045 -0.9119
 7506WAT      O30729   2.462   1.711   5.552 -0.3109  0.1458  0.2961
 7506WAT     H130730   2.393   1.721   5.605 -0.1709 -1.0822  0.7626
 7506WAT     H230731   2.530   1.715   5.607 -0.1174 -0.3484  0.0967
 7506WAT    EPW30732   2.462   1.713   5.568  0.5659  0.0931 -0.4431
 7507WAT      O30733   3.156   2.634   5.201  0.1336 -0.1245 -0.0409
 7507WAT     H130734   3.236   2.668   5.205  0.8521 -1.3843 -2.3088
 7507WAT     H230735   3.164   2.568   5.145 -2.6066  0.0891 -0.8296
 7507WAT    EPW30736   3.169   2.629   5.193 -0.4427 -0.4473  0.1840
 7508WAT      O30737   4.849   1.255   7.246  0.3338 -0.2211 -0.4226
 7508WAT     H130738   4.907   1.239   7.309  1.2578 -0.2508 -1.2549
 7508WAT     H230739   4.895   1.300   7.186  0.3163 -2.5681 -2.3752
 7508WAT    EPW30740   4.865   1.259   7.246 -1.0083 -0.0323 -0.1738
 7509WAT      O30741   4.275   3.080   6.983 -0.3374 -0.6676  0.6190
 7509WAT     H130742   4.297   3.155   7.021 -0.2141  0.7546 -2.0228
 7509WAT     H230743   4.352   3.043   6.964 -0.3052 -0.1251 -0.4193
 7509WAT    EPW30744   4.290   3.085   6.985 -0.7244 -0.3569 -0.7472
 7510WAT      O30745   4.198   1.962   5.760 -0.3169 -0.0357  0.3191
 7510WAT     H130746   4.202   1.943   5.845  0.4448 -1.1915  0.0417
 7510WAT     H230747   4.186   2.049   5.760  0.2259  0.0718  1.6058
 7510WAT    EPW30748   4.197   1.972   5.773  0.8052  0.7361 -0.4439
 7511WAT      O30749   4.254   2.130   5.023  0.4231  0.0140 -0.0098
 7511WAT     H130750   4.328   2.097   4.991 -0.0446  1.6264 -3.1270
 7511WAT     H230751   4.220   2.064   5.069  3.0000 -1.2624  0.2200
 7511WAT    EPW30752   4.260   2.115   5.025  0.4889  0.5305 -0.3916
 7512WAT      O30753   4.997   1.644   5.190 -0.7731 -0.0935 -0.0130
 7512WAT     H130754   5.002   1.721   5.231 -0.5584 -0.9618  1.6933
 7512WAT     H230755   5.014   1.663   5.107  0.9773  1.4590  0.6466
 7512WAT    EPW30756   5.000   1.658   5.184 -0.8063  0.0423 -0.9378
 7513WAT      O30757   3.115   2.758   7.197  0.2749 -0.7581  0.0582
 7513WAT     H130758   3.085   2.774   7.117 -0.6534  1.0537  0.7042
 7513WAT     H230759   3.198   2.784   7.194 -0.1308  0.6231  0.0081
 7513WAT    EPW30760   3.123   2.764   7.185 -0.1149 -0.6850 -0.2473
 7514WAT      O30761   3.933   2.130   7.394 -0.5045  0.0763 -0.4372
 7514WAT     H130762   3.901   2.090   7.464 -1.5537  1.5101 -0.0350
 7514WAT     H230763   3.954   2.065   7.340  0.1541 -1.0452  1.1257
 7514WAT    EPW30764   3.931   2.115   7.396 -0.2831 -0.0598  0.2145
 7515WAT      O30765   4.940   2.573   0.017  0.1472  0.1423  0.2422
 7515WAT     H130766   4.946   2.653   0.052  2.6527 -0.3308  1.1384
 7515WAT     H230767   5.003   2.572  -0.043  2.8701 -2.2115  2.8074
 7515WAT    EPW30768   4.950   2.585   0.013 -0.1761  0.1439  1.1251
 7516WAT      O30769   4.444   1.203   5.813 -0.6043 -0.1326  0.3880
 7516WAT     H130770   4.408   1.240   5.743  2.1751 -0.1834 -1.2223
 7516WAT     H230771   4.381   1.151   5.844 -2.6228  1.4680 -0.7786
 7516WAT    EPW30772   4.429   1.201   5.808 -0.5748 -0.3933 -0.3124
 7517WAT      O30773   5.204   0.500   5.530 -0.5355  0.4327 -0.2294
 7517WAT     H130774   5.213   0.505   5.444 -1.5620 -1.2498 -0.4825
 7517WAT     H230775   5.147   0.563   5.549  0.9341  1.9255 -0.4955
 7517WAT    EPW30776   5.197   0.510   5.520  0.2328  0.5721  0.2572
 7518WAT      O30777   4.370   1.835   7.280 -0.2021  0.0410 -0.4614
 7518WAT     H130778   4.359   1.915   7.247 -0.4204 -0.7256 -2.3608
 7518WAT     H230779   4.444   1.808   7.243 -0.2447 -0.7157 -0.0011
 7518WAT    EPW30780   4.379   1.843   7.269 -0.0071  0.3428  0.8767
 7519WAT      O30781   2.761   1.989   6.018 -0.3094 -0.4386 -0.0905
 7519WAT     H130782   2.737   1.910   6.045  3.7930 -2.1028 -0.6005
 7519WAT     H230783   2.739   1.989   5.933 -0.4853 -0.9531 -0.0493
 7519WAT    EPW30784   2.754   1.977   6.009  0.0285 -0.7614  0.1656
 7520WAT      O30785   3.249   2.831   7.582  0.2791  0.5638 -0.2588
 7520WAT     H130786   3.310   2.877   7.540  0.1164  1.2789  0.2527
 7520WAT     H230787   3.289   2.806   7.655 -0.3166  1.9583  0.5969
 7520WAT    EPW30788   3.264   2.834   7.587  0.3925  0.1837  0.7198
 7521WAT      O30789   3.118   2.449   6.516  0.0218  0.0846 -0.0780
 7521WAT     H130790   3.125   2.397   6.446  2.0960  1.2281 -0.8306
 7521WAT     H230791   3.087   2.397   6.578  1.5387 -1.9268 -0.9091
 7521WAT    EPW30792   3.114   2.434   6.515 -0.6624  0.6373  0.8854
 7522WAT      O30793   3.148   3.273   4.789  0.3413 -0.1324  0.2730
 7522WAT     H130794   3.229   3.298   4.772  0.3975  0.7120  1.5994
 7522WAT     H230795   3.126   3.223   4.721  2.4679 -1.5629  0.5640
 7522WAT    EPW30796   3.156   3.270   4.777 -0.0770  0.6002 -0.4020
 7523WAT      O30797   2.660   1.482   4.697  0.6230  0.7089 -0.1696
 7523WAT     H130798   2.670   1.469   4.783  1.6522 -2.8370 -0.6355
 7523WAT     H230799   2.573   1.486   4.687  0.4839  0.9700  1.0100
 7523WAT    EPW30800   2.648   1.480   4.708  0.0637  0.5907 -0.5865
 7524WAT      O30801   3.610   1.503   5.322 -0.7146  0.0036  0.0432
 7524WAT     H130802   3.559   1.458   5.377 -1.1587  1.0921  0.5583
 7524WAT     H230803   3.559   1.514   5.252 -0.6721 -0.1178 -0.0080
 7524WAT    EPW30804   3.595   1.498   5.320 -0.6395  0.5275 -0.4747
 7525WAT      O30805   4.904   1.897   7.146  0.2587  0.8998  0.5159
 7525WAT     H130806   4.898   1.984   7.145 -0.8935  0.8453  1.4563
 7525WAT     H230807   4.849   1.872   7.082  0.9001  0.8606 -0.0344
 7525WAT    EPW30808   4.895   1.906   7.136 -0.9798 -0.5666 -0.1095
 7526WAT      O30809   4.767   2.407   6.956 -0.0212 -0.7142 -0.0637
 7526WAT     H130810   4.685   2.398   6.928  0.0944  1.6338 -1.3848
 7526WAT     H230811   4.776   2.493   6.968  2.0562 -0.9740  0.6591
 7526WAT    EPW30812   4.757   2.418   6.954 -0.0603 -0.1815  0.3954
 7527WAT      O30813   3.645   2.775   7.480  0.7695  0.5488  0.0690
 7527WAT     H130814   3.717   2.817   7.456  1.6547 -0.8893  0.0416
 7527WAT     H230815   3.648   2.701   7.433 -0.7040  0.4491  0.1024
 7527WAT    EPW30816   3.656   2.770   7.470 -0.6473 -0.2396  0.7148
 7528WAT      O30817   3.410   0.817   3.373  0.1392  0.4643 -0.2840
 7528WAT     H130818   3.434   0.821   3.289  0.0963 -0.3701 -0.3462
 7528WAT     H230819   3.356   0.749   3.375  1.1137 -0.2977  0.6504
 7528WAT    EPW30820   3.406   0.808   3.361  0.0387 -0.2921  0.3837
 7529WAT      O30821   4.147   2.379   6.584  0.7440  0.1529 -0.5655
 7529WAT     H130822   4.138   2.297   6.557 -2.5623  0.3330 -0.4601
 7529WAT     H230823   4.212   2.410   6.535  1.8725 -2.3819 -0.8410
 7529WAT    EPW30824   4.155   2.371   6.573  0.2034 -0.2833  0.0844
 7530WAT      O30825   4.074   1.380   6.969  0.2780 -0.2634  0.2585
 7530WAT     H130826   4.012   1.434   6.943  0.7006  0.5819  0.9526
 7530WAT     H230827   4.144   1.405   6.924  0.5391 -0.0391  0.7738
 7530WAT    EPW30828   4.075   1.391   6.958  0.0245 -0.7817  0.9969
 7531WAT      O30829   3.804   2.876   5.954 -0.2207 -0.0312 -0.1509
 7531WAT     H130830   3.860   2.942   5.962 -0.5495  0.1653  0.6545
 7531WAT     H230831   3.849   2.807   5.984 -0.5576  0.2149  0.9474
 7531WAT    EPW30832   3.819   2.875   5.960 -0.1078 -0.5045  0.3348
 7532WAT      O30833   3.638   2.905   6.300  0.4852  0.4372  0.5280
 7532WAT     H130834   3.626   2.858   6.372  0.2196 -0.2513  0.0406
 7532WAT     H230835   3.720   2.933   6.307  1.4821 -2.0672 -0.3054
 7532WAT    EPW30836   3.648   2.902   6.312 -0.1816  0.4997  0.2142
 7533WAT      O30837   4.170   1.642   6.195  0.4328  0.1136  0.1614
 7533WAT     H130838   4.166   1.687   6.270  0.4072 -0.5033  0.5347
 7533WAT     H230839   4.171   1.559   6.221  1.6230 -0.0890 -0.4677
 7533WAT    EPW30840   4.170   1.637   6.210  0.2593  0.2037 -0.5096
 7534WAT      O30841   4.590   1.287   6.410  0.1662 -0.5617  0.5204
 7534WAT     H130842   4.515   1.244   6.416  0.6049 -1.4244 -0.0514
 7534WAT     H230843   4.565   1.371   6.409 -0.9843 -0.8497 -1.9129
 7534WAT    EPW30844   4.575   1.293   6.411 -0.0568  0.6455  0.6259
 7535WAT      O30845   3.602   1.473   7.078  0.3248  0.1615  0.6034
 7535WAT     H130846   3.670   1.475   7.132  0.0536 -0.5390  0.9772
 7535WAT     H230847   3.552   1.539   7.106  0.7574  0.5754  0.4300
 7535WAT    EPW30848   3.605   1.483   7.090  0.3059 -0.6977  0.6233
 7536WAT      O30849   3.876   3.533   7.040 -0.1990  0.2914  0.1560
 7536WAT     H130850   3.881   3.466   7.096 -2.9641 -0.7104 -0.6343
 7536WAT     H230851   3.921   3.504   6.970  1.4095  0.6686  0.9873
 7536WAT    EPW30852   3.884   3.519   7.038  0.1365  0.0702 -0.4331
 7537WAT      O30853   3.696   2.573   7.296  0.2432 -0.3553  0.0533
 7537WAT     H130854   3.766   2.524   7.277 -0.3153 -0.4798 -1.8870
 7537WAT     H230855   3.682   2.617   7.222 -2.1071 -0.8262  0.1580
 7537WAT    EPW30856   3.704   2.572   7.282  0.6162  1.0305  0.1411
 7538WAT      O30857   3.931   1.953   6.454 -0.0767  0.2329 -0.0239
 7538WAT     H130858   3.936   1.915   6.532 -1.2162 -0.8777 -0.4698
 7538WAT     H230859   3.986   2.021   6.462  0.4295 -0.2938  1.4697
 7538WAT    EPW30860   3.940   1.957   6.467  0.0991  0.1902 -0.6485
 7539WAT      O30861   4.892   2.490   4.430 -0.5833 -0.1709 -0.5527
 7539WAT     H130862   4.825   2.539   4.403  0.4969  1.4301 -0.4694
 7539WAT     H230863   4.904   2.515   4.513 -0.8448 -1.5692 -0.0737
 7539WAT    EPW30864   4.884   2.501   4.438 -0.4726  0.2305 -0.5271
 7540WAT      O30865   3.849   2.884   7.080  0.3257 -0.0896  0.1352
 7540WAT     H130866   3.861   2.920   7.158 -0.7749 -1.0732  0.7749
 7540WAT     H230867   3.912   2.824   7.076 -0.5483 -1.0856  0.9291
 7540WAT    EPW30868   3.860   2.881   7.091 -0.1637 -0.2175  0.4845
 7541WAT      O30869   4.218   4.534   5.798 -0.4108 -0.7519 -0.0628
 7541WAT     H130870   4.175   4.529   5.873 -1.0528  1.3777 -0.2403
 7541WAT     H230871   4.163   4.576   5.745  0.8861 -0.2390 -1.0567
 7541WAT    EPW30872   4.204   4.540   5.801 -0.5194 -0.5061 -0.6411
 7542WAT      O30873   3.814   1.436   6.872 -0.3159  0.1150  0.0155
 7542WAT     H130874   3.805   1.358   6.834  0.1209  1.1424 -2.4205
 7542WAT     H230875   3.766   1.430   6.944 -0.8818 -2.1541 -0.4748
 7542WAT    EPW30876   3.806   1.423   6.877  0.5293 -0.0678 -0.1057
 7543WAT      O30877   4.046   1.776   4.902  0.5671 -0.2082  0.1411
 7543WAT     H130878   4.112   1.797   4.849 -0.8297 -0.3273 -1.7523
 7543WAT     H230879   3.975   1.786   4.851 -0.8909 -0.0084  2.1025
 7543WAT    EPW30880   4.045   1.781   4.887 -0.1113 -0.5631 -0.8232
 7544WAT      O30881   3.351   2.402   5.768 -0.2014  1.2043  0.0407
 7544WAT     H130882   3.331   2.336   5.715  1.1301 -0.1093  1.0900
 7544WAT     H230883   3.312   2.380   5.843  1.1185  1.0566  0.7021
 7544WAT    EPW30884   3.342   2.389   5.771 -0.6889 -0.4658  0.1656
 7545WAT      O30885   5.676   1.717   7.785  0.1493  0.2227  0.3260
 7545WAT     H130886   5.738   1.714   7.723 -1.4363  0.9986 -1.4013
 7545WAT     H230887   5.684   1.641   7.826  2.0587  0.1965 -0.0179
 7545WAT    EPW30888   5.686   1.705   7.782  0.8403 -0.1061 -0.1608
 7546WAT      O30889   3.604   0.384   7.148  0.4688  0.2598  0.2404
 7546WAT     H130890   3.636   0.463   7.168  1.1049 -0.1170  0.7879
 7546WAT     H230891   3.552   0.365   7.216 -0.4782  0.6253 -0.3728
 7546WAT    EPW30892   3.601   0.393   7.161 -1.1841 -0.5029 -0.9025
 7547WAT      O30893   3.027   2.456   4.386  0.1683  0.3134  0.4602
 7547WAT     H130894   3.082   2.472   4.452 -1.6413 -0.5907  2.2832
 7547WAT     H230895   2.987   2.533   4.373  0.0278  0.3207  0.9252
 7547WAT    EPW30896   3.029   2.470   4.394  0.1950  0.2360 -0.9415
 7548WAT      O30897   2.782   2.471   6.109  0.0851 -0.4532  0.1370
 7548WAT     H130898   2.739   2.461   6.034 -1.7834  1.3822  0.8644
 7548WAT     H230899   2.846   2.526   6.088 -0.9377  0.7397 -0.0036
 7548WAT    EPW30900   2.785   2.478   6.095 -0.8004 -0.4582 -0.8378
 7549WAT      O30901   3.486   0.442   4.934 -0.1065 -0.5043 -0.4422
 7549WAT     H130902   3.553   0.465   4.884 -0.3496 -1.5236 -1.2716
 7549WAT     H230903   3.434   0.397   4.880 -1.1871 -0.2121  0.3204
 7549WAT    EPW30904   3.488   0.439   4.919  0.6726 -0.2466 -0.0073
 7550WAT      O30905   4.140   1.667   5.408  0.2298 -0.1107  0.1320
 7550WAT     H130906   4.096   1.722   5.460  2.3808  2.2819 -0.3754
 7550WAT     H230907   4.219   1.703   5.403  0.8438 -1.6040 -2.7939
 7550WAT    EPW30908   4.145   1.681   5.415 -0.4011 -0.3515  0.8679
 7551WAT      O30909   4.554   2.282   5.410 -0.6080  0.6266  0.3261
 7551WAT     H130910   4.468   2.271   5.396 -0.1231 -1.3745 -1.6601
 7551WAT     H230911   4.569   2.363   5.380 -1.4788  0.2666 -1.1697
 7551WAT    EPW30912   4.543   2.293   5.404  0.2467 -0.4212  0.1099
 7552WAT      O30913   3.458   1.879   6.410 -0.1508  0.3310  0.3193
 7552WAT     H130914   3.468   1.795   6.433  1.3108 -0.1044 -1.5497
 7552WAT     H230915   3.530   1.917   6.441 -0.9804  1.0134  1.4712
 7552WAT    EPW30916   3.470   1.872   6.418  0.3251  0.1151  0.4199
 7553WAT      O30917   3.389   2.132   7.406 -0.5048 -0.0631 -0.0390
 7553WAT     H130918   3.442   2.136   7.475 -0.2722 -1.0859 -0.1507
 7553WAT     H230919   3.407   2.205   7.361 -0.4177  0.4352  0.7992
 7553WAT    EPW30920   3.399   2.143   7.409  0.0240  0.6700  1.0603
 7554WAT      O30921   1.696   2.885   5.363 -0.4021 -0.2260 -0.0331
 7554WAT     H130922   1.711   2.929   5.290  1.2425  0.3116  0.5964
 7554WAT     H230923   1.768   2.897   5.410 -0.7004 -2.0090  0.9664
 7554WAT    EPW30924   1.709   2.893   5.359  1.6263  0.5695 -1.1211
 7555WAT      O30925   5.155   1.776   7.093 -0.4764  0.3635 -0.0164
 7555WAT     H130926   5.079   1.819   7.101 -0.1608  1.2719 -1.3736
 7555WAT     H230927   5.131   1.692   7.091 -1.5018  0.6418 -0.6919
 7555WAT    EPW30928   5.140   1.770   7.094 -0.5748 -0.0602 -0.7396
 7556WAT      O30929   4.905   1.993   4.936 -0.7548 -0.7650  0.3648
 7556WAT     H130930   4.938   1.917   4.906  0.1610 -0.2358  0.0045
 7556WAT     H230931   4.887   2.037   4.863 -2.2729 -1.0307  0.5573
 7556WAT    EPW30932   4.907   1.988   4.921  0.4629 -0.5336  0.0081
 7557WAT      O30933   2.606   1.212   4.945 -0.1581  0.0238  0.4328
 7557WAT     H130934   2.677   1.261   4.936  1.0412 -1.8570 -1.1113
 7557WAT     H230935   2.633   1.144   4.993 -1.6230  0.4766  2.0123
 7557WAT    EPW30936   2.620   1.209   4.951  0.5842 -0.1530  0.2807
 7558WAT      O30937   3.730   2.432   5.965  0.3121  0.1880  0.1820
 7558WAT     H130938   3.668   2.492   5.955  0.2172 -0.0742 -0.8628
 7558WAT     H230939   3.703   2.366   5.914  2.2037  0.6760 -1.5679
 7558WAT    EPW30940   3.717   2.431   5.956 -0.0830 -0.2997 -0.4322
 7559WAT      O30941   2.893   2.042   5.365 -0.7608 -0.1094  0.3137
 7559WAT     H130942   2.921   2.050   5.283 -0.2873  0.6220  0.5375
 7559WAT     H230943   2.912   2.119   5.401 -0.1473 -0.7259  1.3499
 7559WAT    EPW30944   2.900   2.055   5.358  0.0664 -0.0427 -1.1346
 7560WAT      O30945   2.198   1.262   5.460  0.2608  1.0548 -0.0025
 7560WAT     H130946   2.237   1.238   5.387  0.6393 -1.9660  1.0637
 7560WAT     H230947   2.130   1.208   5.466 -0.8778  2.5080  0.9553
 7560WAT    EPW30948   2.194   1.250   5.450 -1.3782  0.5047 -0.3658
 7561WAT      O30949   4.658   2.101   5.762 -0.5906  0.0109  0.7173
 7561WAT     H130950   4.721   2.042   5.775  0.8562  1.3724  0.2471
 7561WAT     H230951   4.607   2.063   5.702  1.6665  0.0999 -1.4885
 7561WAT    EPW30952   4.660   2.087   5.755  0.0279 -0.3782  0.2072
 7562WAT      O30953   4.107   2.535   6.113 -0.3564 -0.0526 -0.1677
 7562WAT     H130954   4.148   2.479   6.059  0.3414  0.5230 -0.2527
 7562WAT     H230955   4.081   2.484   6.178  0.8975 -0.3899  0.1016
 7562WAT    EPW30956   4.109   2.519   6.114 -0.5736 -0.1808  0.3876
 7563WAT      O30957   4.733   2.756   7.417 -0.1122 -0.4107 -0.0309
 7563WAT     H130958   4.810   2.716   7.423 -0.2677 -0.6043  0.6720
 7563WAT     H230959   4.733   2.810   7.485 -0.1206  0.4228 -0.6803
 7563WAT    EPW30960   4.744   2.758   7.428  0.3442  0.0693 -0.4042
 7564WAT      O30961   2.907   2.106   6.526 -0.0420  0.1135  0.3487
 7564WAT     H130962   2.837   2.056   6.515  0.8622 -1.2479  0.5682
 7564WAT     H230963   2.973   2.056   6.498  0.9306  1.0580  0.8753
 7564WAT    EPW30964   2.907   2.091   6.520 -0.8607 -0.8058 -0.4381
 7565WAT      O30965   4.865   4.830   6.463  0.5719  0.5121  0.0539
 7565WAT     H130966   4.824   4.866   6.395 -1.0491 -2.4421 -0.7002
 7565WAT     H230967   4.936   4.795   6.426 -0.2197 -0.9402 -0.1587
 7565WAT    EPW30968   4.870   4.830   6.447 -0.1557  1.3271 -0.1187
 7566WAT      O30969   3.499   3.149   6.589 -0.0099  0.0950 -0.1887
 7566WAT     H130970   3.430   3.185   6.627 -0.6651 -2.3554  1.1556
 7566WAT     H230971   3.479   3.150   6.504 -2.4299 -1.7841  0.2430
 7566WAT    EPW30972   3.486   3.155   6.582  0.1165 -0.0485 -0.4262
 7567WAT      O30973   2.634   1.440   6.348 -0.2160 -0.3081  0.6717
 7567WAT     H130974   2.719   1.454   6.360 -0.5045  1.6072  0.8902
 7567WAT     H230975   2.625   1.443   6.262  0.3480 -3.8623  0.3329
 7567WAT    EPW30976   2.645   1.443   6.337  0.0192 -0.2365  0.1279
 7568WAT      O30977   4.695   2.557   5.423  0.8016 -0.0406  0.0369
 7568WAT     H130978   4.780   2.569   5.406  0.3732 -0.2002 -2.6510
 7568WAT     H230979   4.690   2.565   5.510  3.3660  1.1488  0.1630
 7568WAT    EPW30980   4.707   2.560   5.434  0.3083 -0.5162 -1.3510
 7569WAT      O30981   3.984   1.442   0.353  0.1753 -0.9214 -0.5001
 7569WAT     H130982   3.999   1.486   0.278 -1.2103  0.2875 -0.1191
 7569WAT     H230983   3.922   1.385   0.331 -0.0697 -0.7208 -0.3334
 7569WAT    EPW30984   3.977   1.440   0.339  0.5060 -0.1108  0.0278
 7570WAT      O30985   4.168   2.610   7.873 -0.0553  0.0737  0.0515
 7570WAT     H130986   4.224   2.565   7.922 -1.5094  0.0567  1.7655
 7570WAT     H230987   4.168   2.567   7.797  0.4983 -1.2839  0.7954
 7570WAT    EPW30988   4.176   2.597   7.869 -0.7785  0.7591  0.4902
 7571WAT      O30989   4.822   1.152   6.309  0.6181  0.1647  0.2126
 7571WAT     H130990   4.760   1.210   6.329  0.8438  0.0762  1.2645
 7571WAT     H230991   4.868   1.191   6.247  0.3804  0.8483  0.4559
 7571WAT    EPW30992   4.819   1.167   6.303 -0.7299 -0.2451  0.0384
 7572WAT      O30993   4.396   3.007   4.866 -0.5887 -0.0849 -0.0684
 7572WAT     H130994   4.397   3.011   4.779 -0.1293 -0.7106 -0.0953
 7572WAT     H230995   4.326   2.957   4.884 -0.1836 -0.6782 -0.1154
 7572WAT    EPW30996   4.386   3.000   4.856 -0.4149 -0.3591 -0.5358
 7573WAT      O30997   4.827   1.529   8.023 -0.5103  0.3335 -0.5857
 7573WAT     H130998   4.768   1.544   8.085 -1.0395 -1.2289 -0.6938
 7573WAT     H230999   4.837   1.443   8.023  1.9832  0.5264 -0.4006
 7573WAT    EPW31000   4.820   1.519   8.032 -0.2731  0.0236  0.0178
 7574WAT      O31001   3.058   3.350   7.626  0.1644  0.2228 -0.3964
 7574WAT     H131002   2.988   3.320   7.670  2.3297 -0.7504  2.7436
 7574WAT     H231003   3.059   3.435   7.645  1.6236 -0.3316  2.6498
 7574WAT    EPW31004   3.048   3.358   7.635 -0.1217  0.5166 -0.6643
 7575WAT      O31005   5.234   1.910   0.867 -0.1851  0.4512  0.2215
 7575WAT     H131006   5.192   1.978   0.902  1.7778  1.3949  0.8900
 7575WAT     H231007   5.288   1.948   0.809  1.1574 -0.4781  0.8153
 7575WAT    EPW31008   5.236   1.926   0.863  0.3851  0.6549 -0.0204
 7576WAT      O31009   3.620   0.757   7.015 -0.3855 -0.5733 -0.1681
 7576WAT     H131010   3.557   0.763   7.075 -0.0175 -1.4004  0.3197
 7576WAT     H231011   3.688   0.727   7.060  0.0645 -0.6665 -0.8941
 7576WAT    EPW31012   3.621   0.754   7.030  0.3554 -0.1247 -0.0534
 7577WAT      O31013   4.277   0.580   7.118  0.4985  0.1787 -0.0318
 7577WAT     H131014   4.291   0.551   7.198  0.1977  0.8012  0.2540
 7577WAT     H231015   4.194   0.557   7.102  0.6484 -0.2010 -0.2789
 7577WAT    EPW31016   4.267   0.573   7.127 -0.0583 -0.2473  0.2518
 7578WAT      O31017   4.503   2.027   4.912  0.4231  0.2302 -0.4871
 7578WAT     H131018   4.485   2.080   4.845  1.4701  0.7067 -0.4058
 7578WAT     H231019   4.563   2.071   4.957  1.7070 -1.2526 -0.6913
 7578WAT    EPW31020   4.509   2.042   4.909  1.1190 -0.8626 -0.1601
 7579WAT      O31021   4.783   2.543   7.810  0.5693  0.0538 -0.3129
 7579WAT     H131022   4.833   2.559   7.880 -2.6614  0.2875  2.1969
 7579WAT     H231023   4.706   2.520   7.845 -0.9662 -0.8555 -3.8527
 7579WAT    EPW31024   4.779   2.542   7.826  0.0616  0.3970 -0.2433
 7580WAT      O31025   3.658   0.691   6.561  0.0194  0.1306  0.2912
 7580WAT     H131026   3.621   0.622   6.523  1.0857 -0.7153  0.7377
 7580WAT     H231027   3.603   0.713   6.624  0.0762 -0.8493  0.6873
 7580WAT    EPW31028   3.645   0.684   6.564 -0.1160 -0.1789  0.1414
 7581WAT      O31029   4.906   1.804   7.399 -0.0736 -0.0685 -0.4288
 7581WAT     H131030   4.914   1.837   7.319  0.5786  0.3628 -0.2048
 7581WAT     H231031   4.983   1.824   7.436 -0.5959  0.2757  0.4920
 7581WAT    EPW31032   4.919   1.812   7.393  0.3662 -0.0026  0.5358
 7582WAT      O31033   4.650   3.346   7.864  0.0726 -0.3815 -0.8443
 7582WAT     H131034   4.626   3.318   7.943 -0.5982 -0.0245 -0.9143
 7582WAT     H231035   4.680   3.427   7.878  1.7512 -0.9889 -0.6846
 7582WAT    EPW31036   4.651   3.354   7.877 -0.4893  0.7319 -0.0094
 7583WAT      O31037   4.861   2.181   7.133  0.2655  0.1817 -0.3001
 7583WAT     H131038   4.924   2.217   7.181 -0.4559  1.4621 -0.2654
 7583WAT     H231039   4.850   2.238   7.068 -1.7167  0.6485  0.3903
 7583WAT    EPW31040   4.869   2.194   7.131 -0.0704  0.5827  0.0730
 7584WAT      O31041   4.904   2.521   5.738  0.1285 -0.3614  0.5622
 7584WAT     H131042   4.851   2.467   5.782  1.7383 -1.3455  1.3766
 7584WAT     H231043   4.927   2.475   5.668 -1.5533  0.7938 -0.8254
 7584WAT    EPW31044   4.899   2.506   5.734 -0.7169 -0.4180 -0.7609
 7585WAT      O31045   3.583   0.843   5.232  0.7815 -0.1865  0.4746
 7585WAT     H131046   3.504   0.807   5.242  0.4432  0.1615 -0.7113
 7585WAT     H231047   3.573   0.924   5.263  0.2282  0.3398 -1.0048
 7585WAT    EPW31048   3.570   0.850   5.238 -0.1019 -0.1069 -0.0320
 7586WAT      O31049   3.262   2.367   5.119  0.3348 -0.1481  0.7501
 7586WAT     H131050   3.348   2.352   5.112  0.1554 -0.8913 -0.0733
 7586WAT     H231051   3.227   2.309   5.063 -0.5846  1.4483 -0.3865
 7586WAT    EPW31052   3.270   2.356   5.110 -0.3460  0.3187  0.3147
 7587WAT      O31053   4.944   2.883   0.572  0.6749 -0.4115  0.3726
 7587WAT     H131054   4.910   2.833   0.509 -0.9043  2.0732 -0.9569
 7587WAT     H231055   4.991   2.942   0.527 -0.6635  1.5664  1.4400
 7587WAT    EPW31056   4.946   2.885   0.556 -0.4247 -0.2549  0.0919
 7588WAT      O31057   3.853   2.117   6.746  0.0013  0.2935 -0.1753
 7588WAT     H131058   3.771   2.089   6.759  0.0087  0.0298 -0.6926
 7588WAT     H231059   3.902   2.056   6.785 -0.0182  0.0411 -0.5448
 7588WAT    EPW31060   3.848   2.104   6.754  0.1067  0.7248  0.1079
 7589WAT      O31061   2.672   3.523   7.056 -0.5818 -0.4119 -0.2917
 7589WAT     H131062   2.732   3.541   6.995 -0.3074 -2.3015 -0.6339
 7589WAT     H231063   2.627   3.597   7.062  1.8536  1.1621  0.1122
 7589WAT    EPW31064   2.674   3.537   7.048  0.8363 -0.2721  0.8885
 7590WAT      O31065   4.823   1.838   5.457  0.4632  0.0892  0.4372
 7590WAT     H131066   4.769   1.787   5.503  1.4995  0.2785  1.9418
 7590WAT     H231067   4.771   1.901   5.427 -0.6338 -1.1933 -0.4985
 7590WAT    EPW31068   4.808   1.839   5.459 -0.0193  0.4069  0.3994
 7591WAT      O31069   4.448   1.684   5.781 -0.0840  0.3322  0.3943
 7591WAT     H131070   4.431   1.678   5.867 -0.7198  0.2828  0.2692
 7591WAT     H231071   4.371   1.666   5.744  1.0444 -4.3969 -0.3401
 7591WAT    EPW31072   4.434   1.680   5.788 -0.3007  0.5406 -0.1970
 7592WAT      O31073   3.110   1.951   6.755  0.5260  0.2018 -0.3111
 7592WAT     H131074   3.178   1.999   6.782  1.0267  0.7213 -2.3377
 7592WAT     H231075   3.113   1.958   6.668 -0.8631 -1.5318 -0.5536
 7592WAT    EPW31076   3.121   1.959   6.746 -0.5910  0.1219 -0.2627
 7593WAT      O31077   4.785   3.204   5.732 -0.3505 -0.2426  0.4454
 7593WAT     H131078   4.851   3.151   5.754 -0.3564 -0.4469 -0.0287
 7593WAT     H231079   4.798   3.274   5.783  1.8565  0.9265 -1.5153
 7593WAT    EPW31080   4.797   3.207   5.743  1.2443  0.1422 -0.6517
 7594WAT      O31081   4.151   3.605   6.177 -0.3094  0.3330  0.9966
 7594WAT     H131082   4.122   3.588   6.096  0.6525 -1.1187  0.9112
 7594WAT     H231083   4.142   3.528   6.218  3.0095 -0.1548  1.0389
 7594WAT    EPW31084   4.145   3.591   6.171 -0.4099  0.6918  0.3935
 7595WAT      O31085   4.108   0.568   6.667 -0.5570 -0.2796  0.0978
 7595WAT     H131086   4.159   0.614   6.615 -0.3492 -0.3034  0.2787
 7595WAT     H231087   4.140   0.487   6.662 -0.4654 -0.2596  0.3482
 7595WAT    EPW31088   4.120   0.563   6.659  0.1265 -0.2528 -0.3420
 7596WAT      O31089   4.014   1.861   5.562  0.1996  0.0959 -0.2450
 7596WAT     H131090   3.995   1.940   5.530  0.0248  1.0977  2.1527
 7596WAT     H231091   4.066   1.878   5.630  1.4790 -1.9868 -0.6120
 7596WAT    EPW31092   4.019   1.875   5.567  0.1237 -0.7335  0.2408
 7597WAT      O31093   4.165   0.797   4.663 -0.1287 -0.8468 -0.4735
 7597WAT     H131094   4.252   0.790   4.661  0.0131  0.4875 -0.1255
 7597WAT     H231095   4.143   0.788   4.579  0.3734 -0.8666 -0.6105
 7597WAT    EPW31096   4.175   0.795   4.650  0.1947 -0.2601  0.3445
 7598WAT      O31097   3.530   1.899   7.331 -0.0589  0.1873  0.5032
 7598WAT     H131098   3.550   1.852   7.402  0.9478 -1.6290 -0.9178
 7598WAT     H231099   3.476   1.961   7.362 -0.4613 -1.1539  2.6621
 7598WAT    EPW31100   3.525   1.901   7.346  0.3952 -0.2819 -0.8199
 7599WAT      O31101   4.109   2.404   5.339  0.3330 -0.0776 -0.3410
 7599WAT     H131102   4.122   2.325   5.375 -2.2661  1.1128  4.0513
 7599WAT     H231103   4.031   2.396   5.301  0.8837 -0.0265 -1.5158
 7599WAT    EPW31104   4.100   2.391   5.339 -0.1799  0.8019  0.1655
 7600WAT      O31105   3.584   2.952   6.744 -0.0710  0.1646  0.7316
 7600WAT     H131106   3.658   2.982   6.780  0.4614 -1.0019  0.6560
 7600WAT     H231107   3.567   3.009   6.680  0.1466  1.0650  1.4560
 7600WAT    EPW31108   3.592   2.965   6.740  0.8540 -0.3039 -0.3324
 7601WAT      O31109   5.535   2.555   0.855  0.1456 -0.1100  0.6285
 7601WAT     H131110   5.538   2.560   0.942  1.8047  1.1755  0.5234
 7601WAT     H231111   5.517   2.636   0.830 -0.1280 -0.4308 -0.2615
 7601WAT    EPW31112   5.533   2.568   0.864 -0.2948  0.8822  0.4612
 7602WAT      O31113   3.718   1.643   6.673 -0.6898  0.1536 -0.6746
 7602WAT     H131114   3.736   1.579   6.730 -0.6671 -0.9651 -1.8830
 7602WAT     H231115   3.642   1.619   6.639 -0.4771  0.5649 -1.4467
 7602WAT    EPW31116   3.710   1.630   6.677 -0.6283  0.3023 -0.1513
 7603WAT      O31117   2.900   3.283   0.353  0.0132 -0.0549  0.8561
 7603WAT     H131118   2.835   3.248   0.307 -0.6865  1.9927  0.1658
 7603WAT     H231119   2.871   3.281   0.435 -0.4276 -0.1778  0.6979
 7603WAT    EPW31120   2.886   3.278   0.359  0.6247  0.5662  0.8935
 7604WAT      O31121   3.217   2.428   7.095 -0.4860 -0.2072  0.4243
 7604WAT     H131122   3.279   2.437   7.155 -0.1637 -0.8195  0.1998
 7604WAT     H231123   3.144   2.422   7.142 -0.3377  0.1984  0.7098
 7604WAT    EPW31124   3.215   2.428   7.111  0.5651  0.2848  0.7968
 7605WAT      O31125   3.610   2.761   6.537 -0.1102  0.5859 -0.1593
 7605WAT     H131126   3.650   2.683   6.541  2.3258  1.7276 -0.2820
 7605WAT     H231127   3.615   2.790   6.620 -2.2518  0.1143  0.1986
 7605WAT    EPW31128   3.617   2.754   6.550 -0.2738 -0.6014 -0.4382
 7606WAT      O31129   4.074   2.943   5.654 -0.3019  0.3554  0.7153
 7606WAT     H131130   4.094   3.028   5.663 -0.9539  0.6142 -0.0840
 7606WAT     H231131   4.139   2.902   5.695  1.8601  1.1434 -1.6528
 7606WAT    EPW31132   4.086   2.950   5.661  1.0668 -0.7370 -0.9345
 7607WAT      O31133   4.466   2.979   7.643  0.2668  0.4106  0.0538
 7607WAT     H131134   4.444   3.062   7.656  1.6369  0.8979 -0.5113
 7607WAT     H231135   4.406   2.934   7.687 -0.2099  1.7205  0.7811
 7607WAT    EPW31136   4.454   2.985   7.652 -0.0558  0.4482 -0.5128
 7608WAT      O31137   3.811   2.270   0.075  0.2184 -0.1688  0.1863
 7608WAT     H131138   3.866   2.285   0.009 -0.4907  0.6930 -0.2292
 7608WAT     H231139   3.758   2.208   0.044  0.4427 -0.4221  0.2967
 7608WAT    EPW31140   3.812   2.263   0.061  0.0051 -0.0050 -0.0824
 7609WAT      O31141   3.128   0.590   7.604 -0.1182  0.4161  1.2100
 7609WAT     H131142   3.129   0.674   7.627 -0.8302  1.0520 -0.8477
 7609WAT     H231143   3.154   0.592   7.521  1.6510 -1.6258  1.6350
 7609WAT    EPW31144   3.132   0.603   7.595  0.3670 -0.4067  0.1823
 7610WAT      O31145   6.961   2.106   4.245  0.2144 -0.3047 -0.0449
 7610WAT     H131146   6.958   2.123   4.330 -3.1208 -2.4431  0.4465
 7610WAT     H231147   6.888   2.141   4.214  1.1365  0.0457 -1.9928
 7610WAT    EPW31148   6.950   2.114   4.253  0.2427 -0.5971 -0.0991
 7611WAT      O31149   3.502   1.788   6.903 -0.1885  1.1483 -0.0409
 7611WAT     H131150   3.473   1.745   6.973  1.4059 -0.2422 -0.1712
 7611WAT     H231151   3.448   1.763   6.840  0.2376 -0.0726  0.0595
 7611WAT    EPW31152   3.490   1.778   6.904  0.1927 -0.9696  0.0157
 7612WAT      O31153   4.026   2.577   6.748  0.0576  0.2336  0.1686
 7612WAT     H131154   4.092   2.530   6.715  0.0371  1.7130 -2.2584
 7612WAT     H231155   3.958   2.522   6.745  1.0283 -1.2285  2.4754
 7612WAT    EPW31156   4.026   2.562   6.743  0.9863  0.9184  0.2453
 7613WAT      O31157   4.319   1.493   6.949 -0.6897 -0.1930  0.5211
 7613WAT     H131158   4.334   1.413   6.917 -0.3946  0.2989 -0.6339
 7613WAT     H231159   4.348   1.488   7.031  1.8758 -0.5191 -0.3199
 7613WAT    EPW31160   4.325   1.480   6.956 -0.9855  0.4611 -0.5932
 7614WAT      O31161   2.848   1.752   4.948 -0.2810 -0.5929 -0.1433
 7614WAT     H131162   2.930   1.776   4.969 -1.0688  1.2004  1.1316
 7614WAT     H231163   2.842   1.775   4.864  0.8646 -1.8403 -0.6076
 7614WAT    EPW31164   2.859   1.759   4.939 -0.5791 -0.7570 -0.5139
 7615WAT      O31165   4.473   0.595   4.844 -0.3077 -0.2183 -0.1578
 7615WAT     H131166   4.516   0.519   4.849  0.2029  0.1120  1.3969
 7615WAT     H231167   4.495   0.634   4.919 -0.6773  1.3986 -0.8598
 7615WAT    EPW31168   4.483   0.589   4.856 -0.0360  0.6063  0.0201
 7616WAT      O31169   5.586   1.757   7.150  0.0155  0.6239 -0.2734
 7616WAT     H131170   5.654   1.791   7.193 -0.3950  1.4325 -0.2567
 7616WAT     H231171   5.621   1.735   7.073  0.1435  1.7667 -0.5630
 7616WAT    EPW31172   5.601   1.759   7.145  0.0778  0.1332 -0.0412
 7617WAT      O31173   2.218   2.122   6.094 -0.1077 -0.0920  0.1035
 7617WAT     H131174   2.159   2.139   6.032  0.9659 -0.5597 -1.0770
 7617WAT     H231175   2.174   2.136   6.168 -1.8746 -0.9943 -0.7117
 7617WAT    EPW31176   2.203   2.127   6.096 -0.2218  0.4135  0.0379
 7618WAT      O31177   5.014   1.364   7.498  0.2671  0.1154  0.1037
 7618WAT     H131178   5.030   1.432   7.447 -0.9119 -0.8594 -1.6659
 7618WAT     H231179   5.024   1.396   7.579  0.9968  2.0197 -0.6866
 7618WAT    EPW31180   5.018   1.379   7.503  0.4337  0.3677 -0.5136
 7619WAT      O31181   5.060   2.399   7.679  0.7722 -0.5585 -0.0326
 7619WAT     H131182   5.119   2.337   7.661  2.5878  0.5114  1.8097
 7619WAT     H231183   4.989   2.353   7.701  0.6313 -1.8824 -2.8580
 7619WAT    EPW31184   5.058   2.383   7.680  0.0141  0.1151 -0.0877
 7620WAT      O31185   4.778   3.503   6.421  0.2105  0.0189  0.0453
 7620WAT     H131186   4.784   3.438   6.479 -0.8136 -0.2460 -0.1200
 7620WAT     H231187   4.787   3.575   6.470 -1.1908 -0.1843  0.6439
 7620WAT    EPW31188   4.780   3.504   6.437  0.4482  0.1792  0.0405
 7621WAT      O31189   4.704   3.315   4.682 -0.5598  0.5041  0.4319
 7621WAT     H131190   4.648   3.378   4.660 -0.6643  0.6045  0.9765
 7621WAT     H231191   4.662   3.271   4.745 -1.5380 -1.6214 -1.5358
 7621WAT    EPW31192   4.689   3.318   4.688  1.1851 -0.0925 -0.4035
 7622WAT      O31193   3.587   2.511   4.714 -0.1830  0.0987 -0.4417
 7622WAT     H131194   3.549   2.496   4.637  0.9744 -0.4780 -0.9207
 7622WAT     H231195   3.622   2.590   4.704  0.0635 -0.0239 -0.5469
 7622WAT    EPW31196   3.587   2.521   4.701 -0.2588 -0.4903 -0.2208
 7623WAT      O31197   3.667   2.067   6.496 -0.3915  0.6882 -0.3263
 7623WAT     H131198   3.657   2.146   6.460  0.5569  0.7934 -0.3915
 7623WAT     H231199   3.744   2.040   6.464 -1.5151 -1.0596 -1.8074
 7623WAT    EPW31200   3.677   2.075   6.486  0.4447  0.4638  0.1852
 7624WAT      O31201   4.492   2.067   6.774 -0.5912 -0.3137  0.2635
 7624WAT     H131202   4.523   2.134   6.727  0.8446 -0.7790  0.4910
 7624WAT     H231203   4.429   2.034   6.724 -0.6431  0.5966 -0.2908
 7624WAT    EPW31204   4.488   2.072   6.760 -0.3833 -0.7037  0.2062
 7625WAT      O31205   4.954   0.093   6.551 -0.1841 -0.2213  0.2878
 7625WAT     H131206   4.954   0.007   6.536  0.5276  0.1375 -2.4020
 7625WAT     H231207   5.027   0.106   6.596 -0.1193 -0.9814  0.4169
 7625WAT    EPW31208   4.965   0.082   6.555 -0.5851 -0.6210 -0.1838
 7626WAT      O31209   4.476   2.817   6.717  0.1202  0.3663 -0.1128
 7626WAT     H131210   4.510   2.842   6.640 -1.2141  1.0397 -0.5052
 7626WAT     H231211   4.481   2.730   6.713  0.4365  0.4054 -0.7836
 7626WAT    EPW31212   4.482   2.808   6.705  0.6720  0.5576  0.3178
 7627WAT      O31213   3.492   3.147   6.314  0.2090  0.0598 -0.4072
 7627WAT     H131214   3.534   3.071   6.306 -0.3698 -0.2188 -0.9289
 7627WAT     H231215   3.408   3.125   6.301  0.0747  0.8436 -0.9324
 7627WAT    EPW31216   3.486   3.132   6.311  0.1445 -0.5487  0.6461
 7628WAT      O31217   2.407   2.790   5.754 -0.0109 -0.3181  0.3582
 7628WAT     H131218   2.395   2.841   5.824  1.3331 -1.6180  1.6105
 7628WAT     H231219   2.342   2.731   5.761 -1.1828  0.7730 -0.7422
 7628WAT    EPW31220   2.395   2.789   5.766  0.1173 -0.1144  0.2162
 7629WAT      O31221   4.876   2.748   5.889 -0.2590  0.2431 -0.2513
 7629WAT     H131222   4.872   2.680   5.835  0.6200 -0.0288  0.0201
 7629WAT     H231223   4.955   2.782   5.874  0.0528  0.0829  0.9410
 7629WAT    EPW31224   4.887   2.743   5.879  0.0308 -0.5393  0.1137
 7630WAT      O31225   5.195   3.856   7.897 -0.0123  0.4863  0.0916
 7630WAT     H131226   5.225   3.791   7.947  0.4354  1.3954  1.0254
 7630WAT     H231227   5.247   3.854   7.827  0.1260 -0.0174  0.2048
 7630WAT    EPW31228   5.207   3.846   7.894 -1.1803 -0.1810  0.2269
 7631WAT      O31229   3.585   3.603   6.914 -0.5028  0.0730  0.2942
 7631WAT     H131230   3.632   3.530   6.907 -0.3351 -0.2681  3.5316
 7631WAT     H231231   3.504   3.575   6.929 -0.9964  0.6448 -1.0924
 7631WAT    EPW31232   3.580   3.588   6.915  0.0365 -0.4339 -0.7710
 7632WAT      O31233   3.357   2.900   6.456 -0.3095  0.1880 -0.2741
 7632WAT     H131234   3.435   2.901   6.494 -1.1005  0.2556  1.4232
 7632WAT     H231235   3.337   2.816   6.450  0.1526  0.1373 -1.3226
 7632WAT    EPW31236   3.366   2.888   6.460  0.3942 -0.7744 -0.9765
 7633WAT      O31237   4.336   1.625   0.206 -0.1365  0.1529 -0.4354
 7633WAT     H131238   4.410   1.634   0.161  0.0609 -1.0759 -0.3831
 7633WAT     H231239   4.354   1.562   0.263 -1.0138  0.3208  0.0453
 7633WAT    EPW31240   4.349   1.617   0.208  0.5664 -0.5210  0.2325
 7634WAT      O31241   4.592   1.389   6.716  0.0823  0.1087 -0.0923
 7634WAT     H131242   4.574   1.376   6.631 -0.6977  2.2750 -0.3202
 7634WAT     H231243   4.514   1.381   6.755 -0.2173  2.3285 -0.0848
 7634WAT    EPW31244   4.578   1.386   6.709 -0.0704 -0.1817  0.3612
 7635WAT      O31245   3.378   2.448   0.517  0.2205  0.1400  0.0492
 7635WAT     H131246   3.461   2.472   0.500  0.6315  0.5235  2.2853
 7635WAT     H231247   3.331   2.507   0.473  1.0124 -1.0214 -2.5837
 7635WAT    EPW31248   3.384   2.461   0.508  0.0287 -0.8024 -0.1566
 7636WAT      O31249   4.485   2.518   7.223  0.2047 -0.0912  0.1590
 7636WAT     H131250   4.546   2.466   7.256  0.9784 -0.8918 -2.3268
 7636WAT     H231251   4.411   2.486   7.256  0.9269 -0.5961  1.3477
 7636WAT    EPW31252   4.483   2.505   7.233 -0.1585 -0.3110 -0.5408
 7637WAT      O31253   4.505   7.761   4.797 -0.9019  0.2038  0.1823
 7637WAT     H131254   4.522   7.702   4.735  1.0803  0.7294  0.1672
 7637WAT     H231255   4.527   7.836   4.760  1.7354  0.4102  1.9264
 7637WAT    EPW31256   4.511   7.763   4.783  0.2254 -0.2865 -0.9172
 7638WAT      O31257   3.886   3.773   7.220 -0.3579  0.5256 -0.1063
 7638WAT     H131258   3.890   3.691   7.192  1.0484  0.3186  0.6564
 7638WAT     H231259   3.918   3.770   7.300 -1.0429  1.7066  0.2406
 7638WAT    EPW31260   3.891   3.761   7.227 -0.5095 -0.4046 -0.7387
 7639WAT      O31261   4.168   1.958   5.229 -0.3603  0.6287 -0.0636
 7639WAT     H131262   4.194   1.875   5.216 -1.1727  0.4733 -0.8367
 7639WAT     H231263   4.085   1.957   5.204 -0.8088  1.3532  1.3199
 7639WAT    EPW31264   4.160   1.945   5.224 -0.2403  0.7090 -0.2154
 7640WAT      O31265   4.580   3.196   4.924 -0.0174  0.2213  0.6958
 7640WAT     H131266   4.523   3.131   4.921  1.7482 -1.4823  1.7697
 7640WAT     H231267   4.542   3.255   4.976 -0.8173 -0.8320  1.3490
 7640WAT    EPW31268   4.566   3.195   4.931  0.6346 -0.1229  0.7390
 7641WAT      O31269   5.867   2.681   4.772 -0.2739 -0.4447  0.0711
 7641WAT     H131270   5.848   2.759   4.738 -2.2139 -0.8477  0.1461
 7641WAT     H231271   5.816   2.676   4.842  1.8664 -0.6588  1.7136
 7641WAT    EPW31272   5.857   2.692   4.777  0.8950 -0.0192  0.1823
 7642WAT      O31273   3.770   3.450   7.810  0.1673  0.8577  0.1007
 7642WAT     H131274   3.771   3.467   7.724  1.9555  2.0780  0.2959
 7642WAT     H231275   3.774   3.363   7.814 -0.9406  0.7335 -1.0333
 7642WAT    EPW31276   3.771   3.440   7.798 -0.2866  0.0325  0.6832
 7643WAT      O31277   4.317   2.094   7.557  0.8155 -0.1656  0.0771
 7643WAT     H131278   4.391   2.052   7.534  0.5436  0.6657 -2.7151
 7643WAT     H231279   4.269   2.091   7.485 -1.3421  0.5428  1.4013
 7643WAT    EPW31280   4.321   2.087   7.543 -0.6650 -0.6344 -0.5556
 7644WAT      O31281   4.976   2.607   7.495 -0.5305 -0.1311  0.3267
 7644WAT     H131282   4.990   2.552   7.561 -0.8678 -0.5291  0.0696
 7644WAT     H231283   5.057   2.631   7.471 -0.3369 -1.2006 -0.1303
 7644WAT    EPW31284   4.990   2.603   7.501  0.2095  0.6847 -0.2290
 7645WAT      O31285   3.821   0.920   7.419 -0.4013  0.2011  0.2308
 7645WAT     H131286   3.772   0.849   7.408  0.8448 -0.4816 -1.1529
 7645WAT     H231287   3.765   0.986   7.407 -1.4946 -0.5058  1.2011
 7645WAT    EPW31288   3.806   0.919   7.416 -0.4323 -0.6118 -1.0019
 7646WAT      O31289   5.139   1.144   7.365 -0.0991  0.0315 -0.1550
 7646WAT     H131290   5.150   1.225   7.393  0.2896  0.2257 -0.8548
 7646WAT     H231291   5.214   1.125   7.325  0.3767 -1.1980  1.2343
 7646WAT    EPW31292   5.151   1.153   7.363  0.0097 -0.4186 -0.3623
 7647WAT      O31293   4.133   3.368   5.688  0.0643  0.4325  0.1040
 7647WAT     H131294   4.074   3.317   5.726 -0.0452  0.6171  0.1857
 7647WAT     H231295   4.104   3.376   5.606 -0.3477  1.0041  0.3005
 7647WAT    EPW31296   4.120   3.362   5.682  0.0555 -0.9676 -0.1820
 7648WAT      O31297   5.118   2.315   5.457  0.0133  0.4398 -0.0998
 7648WAT     H131298   5.169   2.323   5.527 -0.4745 -0.4283  0.3672
 7648WAT     H231299   5.039   2.300   5.490  0.1779 -2.5283 -0.7752
 7648WAT    EPW31300   5.114   2.314   5.472  0.0174  0.1911  0.1339
 7649WAT      O31301   2.800   3.241   6.635 -0.0944 -0.5236 -0.0257
 7649WAT     H131302   2.766   3.306   6.587  1.0601 -1.5287 -2.3543
 7649WAT     H231303   2.729   3.203   6.671 -1.0375  0.2044 -1.0427
 7649WAT    EPW31304   2.784   3.245   6.633 -0.4281  0.3678 -0.6345
 7650WAT      O31305   4.355   2.346   2.350  0.3081 -0.0764 -0.3670
 7650WAT     H131306   4.395   2.273   2.324 -1.1785 -2.0644  2.4206
 7650WAT     H231307   4.416   2.387   2.398  0.2838 -1.0107  0.4846
 7650WAT    EPW31308   4.370   2.341   2.353  0.3053  0.2195  0.2933
 7651WAT      O31309   4.092   2.575   4.450 -0.9781  0.0240 -0.6783
 7651WAT     H131310   4.087   2.531   4.375 -0.1331  0.1090 -0.7973
 7651WAT     H231311   4.030   2.636   4.442  0.8975  1.8842 -2.5876
 7651WAT    EPW31312   4.082   2.578   4.438 -0.5677 -0.0703 -1.2610
 7652WAT      O31313   3.542   1.240   3.563  0.2290  0.2598  0.2736
 7652WAT     H131314   3.455   1.247   3.561  0.2223  0.1252  0.1077
 7652WAT     H231315   3.555   1.156   3.582  0.3241  0.2253  0.0551
 7652WAT    EPW31316   3.531   1.228   3.566 -0.2584 -0.7224 -0.2435
 7653WAT      O31317   3.440   2.107   2.769 -0.3412 -0.2859  0.1187
 7653WAT     H131318   3.429   2.039   2.715 -1.2802 -0.0423 -0.0071
 7653WAT     H231319   3.360   2.140   2.778 -0.5609 -1.3260  3.0577
 7653WAT    EPW31320   3.427   2.102   2.762  0.3521  0.5053 -0.1049
 7654WAT      O31321   4.416   1.465   2.985  0.7122  0.3917  0.4174
 7654WAT     H131322   4.439   1.410   2.922 -1.0519 -0.6694  0.6132
 7654WAT     H231323   4.376   1.413   3.043  0.5827  1.6231  1.4677
 7654WAT    EPW31324   4.413   1.449   2.984 -0.0263  0.7348 -0.7185
 7655WAT      O31325   3.982   2.823   5.112 -0.4022 -0.1711  0.4537
 7655WAT     H131326   4.055   2.813   5.066  0.0340  1.5892  0.6924
 7655WAT     H231327   3.926   2.856   5.054 -0.9362 -1.2344  0.3454
 7655WAT    EPW31328   3.984   2.827   5.097 -0.0769 -0.7629 -0.7629
 7656WAT      O31329   3.709   1.988   2.903  0.4915  0.1009 -0.2356
 7656WAT     H131330   3.651   2.050   2.884  0.3500 -0.0483 -0.2884
 7656WAT     H231331   3.780   2.033   2.927 -0.1187  0.2743  1.3032
 7656WAT    EPW31332   3.711   2.004   2.904 -0.3370 -0.6593 -0.3228
 7657WAT      O31333   3.998   2.906   3.679 -0.3829 -0.3063 -0.1702
 7657WAT     H131334   3.930   2.951   3.711  0.7617  1.3081  0.1071
 7657WAT     H231335   4.047   2.891   3.749  1.8460  2.7241 -0.8806
 7657WAT    EPW31336   3.995   2.911   3.694  0.6271  0.3622  0.9444
 7658WAT      O31337   4.044   2.853   2.944 -0.5876  0.1928  0.3016
 7658WAT     H131338   3.980   2.865   2.886 -1.1090  1.6380  1.1213
 7658WAT     H231339   4.116   2.857   2.895 -1.0908 -1.6359 -0.6605
 7658WAT    EPW31340   4.045   2.856   2.928  0.3825 -0.9407  0.0686
 7659WAT      O31341   4.322   2.398   5.092 -0.5314  0.2304  0.4426
 7659WAT     H131342   4.270   2.415   5.160 -2.1162 -2.0938 -0.0643
 7659WAT     H231343   4.312   2.313   5.079  1.1644  0.2508 -1.5820
 7659WAT    EPW31344   4.313   2.388   5.100 -0.3678 -0.0066  0.0618
 7660WAT      O31345   5.826   2.396   3.999 -0.0568  0.1574  0.2604
 7660WAT     H131346   5.859   2.317   3.981 -0.8756 -0.0722 -0.3056
 7660WAT     H231347   5.767   2.380   4.061  0.4732  0.4803  0.8575
 7660WAT    EPW31348   5.822   2.382   4.005 -0.6912 -1.2302 -0.5554
 7661WAT      O31349   5.142   2.475   5.251  0.0910 -0.3940 -0.5184
 7661WAT     H131350   5.222   2.505   5.267  0.1295 -0.8675  0.1972
 7661WAT     H231351   5.132   2.410   5.308 -0.6946 -0.5313 -0.7963
 7661WAT    EPW31352   5.152   2.470   5.262 -0.6782  0.8108  0.3624
 7662WAT      O31353   4.377   0.743   2.555  0.5806 -0.3880  0.2247
 7662WAT     H131354   4.338   0.801   2.606 -0.9033 -2.6920  1.8932
 7662WAT     H231355   4.383   0.784   2.478  0.3301  2.1742  1.4715
 7662WAT    EPW31356   4.372   0.758   2.551  0.0757 -0.3631 -0.5225
 7663WAT      O31357   4.482   0.555   3.405  0.8545  0.1505 -0.3936
 7663WAT     H131358   4.458   0.506   3.473 -0.3266  0.7139 -0.3950
 7663WAT     H231359   4.485   0.636   3.438 -0.9277  0.6156 -1.2648
 7663WAT    EPW31360   4.479   0.560   3.420  0.1695 -0.7476 -1.2670
 7664WAT      O31361   5.383   2.834   3.150  0.2510  0.0725  0.0290
 7664WAT     H131362   5.466   2.811   3.164  0.9371  2.3599  0.1161
 7664WAT     H231363   5.347   2.826   3.229  0.7742  0.4572  0.3141
 7664WAT    EPW31364   5.390   2.829   3.164  1.3011 -0.7332 -0.8308
 7665WAT      O31365   4.110   2.131   2.255 -0.7730  0.1456 -0.4470
 7665WAT     H131366   4.165   2.134   2.187  0.7586  0.5721  0.7568
 7665WAT     H231367   4.126   2.053   2.290  0.2891  0.9144  0.8524
 7665WAT    EPW31368   4.120   2.120   2.250 -0.3763 -0.1775  0.3272
 7666WAT      O31369   3.897   1.384   4.252 -0.0284 -0.5699  0.4597
 7666WAT     H131370   3.952   1.374   4.319 -0.0922 -0.8557  0.4686
 7666WAT     H231371   3.950   1.406   4.186  0.1158 -0.9679  0.4391
 7666WAT    EPW31372   3.913   1.386   4.252 -0.2090 -0.5790  0.0863
 7667WAT      O31373   4.861   0.844   2.225  0.4414 -0.3126 -0.0220
 7667WAT     H131374   4.856   0.917   2.179  2.1006 -1.1674 -1.6762
 7667WAT     H231375   4.913   0.792   2.178  0.9402 -1.8554  2.0271
 7667WAT    EPW31376   4.868   0.847   2.211  0.3593  0.2718 -0.0314
 7668WAT      O31377   4.287   1.148   4.170  0.3831  0.1124  0.3226
 7668WAT     H131378   4.277   1.076   4.123  0.3394 -0.0678  0.6078
 7668WAT     H231379   4.368   1.140   4.203  1.5420  1.5153 -1.9047
 7668WAT    EPW31380   4.298   1.136   4.168  0.4431 -0.5096  0.1770
 7669WAT      O31381   4.691   2.759   4.773 -0.4183 -0.3533  0.0548
 7669WAT     H131382   4.663   2.802   4.702  0.7862 -2.6104 -1.9127
 7669WAT     H231383   4.620   2.716   4.800 -0.3532 -1.3528 -1.2806
 7669WAT    EPW31384   4.676   2.759   4.767 -0.2002  0.0874  0.1218
 7670WAT      O31385   4.106   2.775   3.453  0.3452 -0.1007  0.0268
 7670WAT     H131386   4.071   2.825   3.515  0.9352 -0.0223  0.2983
 7670WAT     H231387   4.161   2.828   3.411 -1.1414  0.2825 -1.5516
 7670WAT    EPW31388   4.109   2.790   3.456  0.1864  0.2416 -0.5134
 7671WAT      O31389   4.275   1.449   2.332  0.4460  0.4289 -0.0781
 7671WAT     H131390   4.348   1.496   2.324  0.4721  0.3425 -0.3491
 7671WAT     H231391   4.223   1.499   2.381 -0.6158  2.0314 -2.6282
 7671WAT    EPW31392   4.278   1.463   2.338  0.2419 -0.1512  0.8773
 7672WAT      O31393   4.911   1.074   3.577  0.7677 -0.8061  0.2347
 7672WAT     H131394   4.947   1.007   3.620  0.0782 -1.2914  0.0743
 7672WAT     H231395   4.967   1.139   3.591 -0.4339 -0.3377  3.6864
 7672WAT    EPW31396   4.925   1.073   3.585 -0.3666 -0.1155 -0.4204
 7673WAT      O31397   3.453   1.936   3.990  0.8182 -0.2849  0.2907
 7673WAT     H131398   3.384   1.981   3.960  0.9273  0.9302  1.7313
 7673WAT     H231399   3.429   1.853   3.981 -0.2988  0.0984 -0.4431
 7673WAT    EPW31400   3.439   1.931   3.984  0.2493 -0.7081 -0.7253
 7674WAT      O31401   5.788   2.464   3.070 -0.1298 -0.1143 -0.4830
 7674WAT     H131402   5.856   2.461   3.015 -0.6012 -0.3934 -1.0642
 7674WAT     H231403   5.811   2.527   3.127  1.5458 -1.6111  0.5981
 7674WAT    EPW31404   5.802   2.473   3.070  0.6875  0.2903  0.2884
 7675WAT      O31405   4.583   0.537   2.574 -0.3153 -0.1961  0.0956
 7675WAT     H131406   4.622   0.546   2.651  0.6686  1.6991 -0.5513
 7675WAT     H231407   4.518   0.595   2.577 -0.0590  0.1472 -0.5853
 7675WAT    EPW31408   4.579   0.547   2.586 -0.0457 -0.3331  0.1754
 7676WAT      O31409   5.673   0.671   3.069 -0.6609  0.6424 -0.4465
 7676WAT     H131410   5.645   0.696   2.990  0.6821  0.3856 -1.0308
 7676WAT     H231411   5.711   0.742   3.101 -1.1839  0.7395 -0.0290
 7676WAT    EPW31412   5.675   0.685   3.062 -0.5478 -0.2928 -0.4464
 7677WAT      O31413   3.847   1.040   1.935  0.2973 -0.4581 -0.4960
 7677WAT     H131414   3.834   0.965   1.977 -1.3393  0.5788  0.9718
 7677WAT     H231415   3.785   1.040   1.874 -0.2593  0.0649  0.0603
 7677WAT    EPW31416   3.836   1.029   1.932  0.3084  0.5534 -0.0186
 7678WAT      O31417   4.222   0.853   3.017 -0.0661 -0.5751  0.1503
 7678WAT     H131418   4.246   0.789   2.962  0.9317  0.0839 -0.2134
 7678WAT     H231419   4.192   0.810   3.086 -0.7478 -1.4339 -0.6463
 7678WAT    EPW31420   4.221   0.837   3.019 -0.0559 -1.1270 -0.6213
 7679WAT      O31421   5.174   2.162   3.266 -0.6745  0.2045 -0.2787
 7679WAT     H131422   5.204   2.186   3.344 -0.2752 -1.1821  0.0212
 7679WAT     H231423   5.189   2.076   3.264 -3.3933 -0.3465 -0.6681
 7679WAT    EPW31424   5.180   2.153   3.277 -0.2219  0.6456 -0.2168
 7680WAT      O31425   3.240   2.377   4.103  0.3566 -0.0019 -0.5064
 7680WAT     H131426   3.319   2.343   4.119  0.1682 -0.3979 -0.3868
 7680WAT     H231427   3.243   2.398   4.019  0.9963  1.0997 -0.2226
 7680WAT    EPW31428   3.252   2.375   4.093 -0.0845  0.5855 -0.1109
 7681WAT      O31429   3.868   2.691   4.105 -0.8899  0.1933 -0.4468
 7681WAT     H131430   3.892   2.711   4.186 -0.4575  0.3237 -0.6080
 7681WAT     H231431   3.936   2.714   4.056 -0.1484 -2.0392 -0.6085
 7681WAT    EPW31432   3.881   2.697   4.110  0.2466  0.5799  0.1137
 7682WAT      O31433   4.188   0.221   4.877  0.0493  0.1678  0.1250
 7682WAT     H131434   4.211   0.267   4.947 -0.6758 -0.5445  0.8692
 7682WAT     H231435   4.184   0.280   4.813 -1.6747  1.3337  1.2144
 7682WAT    EPW31436   4.190   0.236   4.878 -0.7168  0.4266 -0.7013
 7683WAT      O31437   3.903   2.789   4.386  0.2822 -0.0950  0.2004
 7683WAT     H131438   3.818   2.775   4.404 -0.0493 -1.8268 -2.2004
 7683WAT     H231439   3.906   2.874   4.368 -1.0470 -0.0736 -0.0441
 7683WAT    EPW31440   3.891   2.799   4.386 -0.7789 -1.1980 -0.3046
 7684WAT      O31441   4.253   2.120   4.310  0.3620 -0.1629  0.1748
 7684WAT     H131442   4.238   2.059   4.371  0.6239 -0.2373  0.1652
 7684WAT     H231443   4.203   2.187   4.335  0.8142 -0.0270  0.7211
 7684WAT    EPW31444   4.243   2.121   4.323  0.4503 -0.0006 -0.5107
 7685WAT      O31445   3.268   2.038   5.322  0.7936  0.2815 -0.6710
 7685WAT     H131446   3.262   1.962   5.363 -0.3939  0.7778  0.1222
 7685WAT     H231447   3.199   2.039   5.269  0.3565  1.1151 -0.1125
 7685WAT    EPW31448   3.257   2.027   5.320 -0.5621  0.6340  0.2404
 7686WAT      O31449   4.110   2.306   4.494  0.6698 -0.2706  0.5207
 7686WAT     H131450   4.036   2.283   4.452  0.9856  0.2909 -0.3881
 7686WAT     H231451   4.103   2.393   4.500  0.9230 -0.2894  1.0844
 7686WAT    EPW31452   4.098   2.315   4.488 -0.2481 -0.3497 -0.0901
 7687WAT      O31453   5.069   1.838   3.442 -0.0635 -0.4727  0.4996
 7687WAT     H131454   4.982   1.840   3.456 -0.5965  0.2407 -2.2721
 7687WAT     H231455   5.089   1.754   3.451 -1.1970 -0.7752  0.4312
 7687WAT    EPW31456   5.059   1.826   3.445 -0.4687  0.7211  0.5392
 7688WAT      O31457   4.052   1.005   5.900  0.0798  0.3154  0.1530
 7688WAT     H131458   4.001   0.973   5.964  0.4385  0.0062  0.2917
 7688WAT     H231459   4.069   0.934   5.851  2.2649 -0.1134  1.3981
 7688WAT    EPW31460   4.047   0.990   5.902 -0.3956  0.0678  0.3906
 7689WAT      O31461   5.135   2.779   5.808  0.0070 -0.7120 -0.6471
 7689WAT     H131462   5.200   2.837   5.808 -1.4532  0.9855 -0.6470
 7689WAT     H231463   5.116   2.769   5.723 -1.4778  0.8961 -0.5523
 7689WAT    EPW31464   5.142   2.786   5.795 -0.0259 -0.2984 -0.2108
 7690WAT      O31465   5.544   1.353   3.041  0.5547 -0.0512 -0.0855
 7690WAT     H131466   5.543   1.437   3.067  2.4419  0.4479 -1.4229
 7690WAT     H231467   5.515   1.357   2.959  0.2898 -0.7765 -0.0336
 7690WAT    EPW31468   5.540   1.366   3.033 -0.6534 -0.0191 -0.6998
 7691WAT      O31469   4.809   0.882   2.842  0.5803  0.2080 -0.5367
 7691WAT     H131470   4.747   0.925   2.886 -0.9216 -3.3095  1.2192
 7691WAT     H231471   4.883   0.922   2.865 -0.5506  0.9507  2.1468
 7691WAT    EPW31472   4.811   0.894   2.852 -0.0464  0.9733 -0.6518
 7692WAT      O31473   5.752   2.936   4.643  0.7576 -0.4428 -0.8056
 7692WAT     H131474   5.706   2.952   4.571  1.7568  0.5642 -1.2422
 7692WAT     H231475   5.692   2.936   4.706  0.1719  1.1021 -1.3258
 7692WAT    EPW31476   5.737   2.938   4.642 -0.5455  0.0932 -0.0857
 7693WAT      O31477   4.928   0.952   3.960  0.9560 -0.0451 -0.1173
 7693WAT     H131478   4.944   1.014   4.020  0.1780  0.3004 -0.2515
 7693WAT     H231479   4.865   0.987   3.911 -0.5898 -1.5088  0.7094
 7693WAT    EPW31480   4.921   0.967   3.962  0.7947 -0.5933 -0.0318
 7694WAT      O31481   3.821   2.405   3.214  0.0657 -0.4725 -0.1185
 7694WAT     H131482   3.783   2.483   3.228 -0.2647 -0.5633 -0.4836
 7694WAT     H231483   3.872   2.420   3.145  1.1984 -0.1905  0.7362
 7694WAT    EPW31484   3.823   2.419   3.206 -0.2365 -0.4263  0.3184
 7695WAT      O31485   3.638   1.251   3.284 -0.3217  0.3702  0.0123
 7695WAT     H131486   3.677   1.173   3.275 -1.6807 -0.2147 -1.1618
 7695WAT     H231487   3.614   1.253   3.367 -0.4122 -0.5475  0.0178
 7695WAT    EPW31488   3.640   1.240   3.295 -0.7262 -0.0326  0.7008
 7696WAT      O31489   5.693   1.196   3.834 -0.0403 -0.0719  0.0401
 7696WAT     H131490   5.759   1.230   3.788  0.0910  2.3084  1.8166
 7696WAT     H231491   5.632   1.258   3.831 -2.2788 -2.1712 -1.4636
 7696WAT    EPW31492   5.694   1.210   3.827  0.1720 -0.1411  0.2382
 7697WAT      O31493   3.219   2.273   3.083 -0.0568 -0.1794  0.4852
 7697WAT     H131494   3.141   2.309   3.096  0.2110 -0.2614  2.8256
 7697WAT     H231495   3.267   2.339   3.051 -0.5788  0.4269  0.9341
 7697WAT    EPW31496   3.215   2.288   3.080  0.1405  0.6990  0.5719
 7698WAT      O31497   4.757   2.020   3.329  0.1143 -0.2392 -0.1432
 7698WAT     H131498   4.802   2.091   3.303 -0.7661  0.8813  1.2271
 7698WAT     H231499   4.678   2.053   3.348  0.0241 -1.3899  1.6218
 7698WAT    EPW31500   4.752   2.036   3.328 -0.0461 -0.1411 -0.9294
 7699WAT      O31501   4.011   2.024   3.220 -0.2739  0.0248 -0.0163
 7699WAT     H131502   3.925   2.009   3.211  0.0298 -1.3201 -1.0058
 7699WAT     H231503   4.045   1.944   3.223  1.0222  0.5447 -0.3334
 7699WAT    EPW31504   4.003   2.010   3.219  0.6700 -0.4589 -0.3625
 7700WAT      O31505   4.027   2.364   3.399  0.2437  0.1657  0.1614
 7700WAT     H131506   4.007   2.428   3.454  1.1751 -0.8175  1.7332
 7700WAT     H231507   3.961   2.364   3.341  0.1018  2.3328  0.2470
 7700WAT    EPW31508   4.015   2.373   3.398 -0.0822  0.6833  0.2550
 7701WAT      O31509   3.971   2.647   3.161  0.3509 -0.3014 -0.3961
 7701WAT     H131510   3.897   2.683   3.191 -0.4145 -2.7980  1.0543
 7701WAT     H231511   3.978   2.679   3.080 -1.5268  1.1273 -0.0667
 7701WAT    EPW31512   3.961   2.657   3.153  0.2780  0.0966  0.6511
 7702WAT      O31513   4.918   2.596   4.699 -0.2870  0.1121  0.2683
 7702WAT     H131514   4.855   2.640   4.740 -0.0858  1.1999 -0.5433
 7702WAT     H231515   4.960   2.554   4.764 -0.9962  0.4615  0.9645
 7702WAT    EPW31516   4.915   2.596   4.715  0.5843  1.5930  0.4363
 7703WAT      O31517   5.367   3.379   3.869 -0.5685  0.4385 -0.1632
 7703WAT     H131518   5.305   3.318   3.874 -0.3816  0.3628  2.3327
 7703WAT     H231519   5.332   3.447   3.910  0.1364  1.2143 -0.8160
 7703WAT    EPW31520   5.352   3.380   3.876  0.5250  0.3344  0.0292
 7704WAT      O31521   4.529   1.574   3.603 -0.1760 -0.0533 -0.0723
 7704WAT     H131522   4.457   1.545   3.643  0.0562 -0.8052 -0.1879
 7704WAT     H231523   4.501   1.594   3.522  0.0697 -1.9786 -0.6681
 7704WAT    EPW31524   4.514   1.573   3.597 -0.0820 -0.7649  0.1510
 7705WAT      O31525   6.191   3.006   2.880  0.0644  0.1516  0.4758
 7705WAT     H131526   6.223   2.998   2.961  0.9331  0.5100  0.1748
 7705WAT     H231527   6.178   3.092   2.871 -0.9339  0.0250  0.5609
 7705WAT    EPW31528   6.194   3.017   2.891  0.1514  0.4214 -0.1638
 7706WAT      O31529   2.387   3.087   4.551 -0.1584 -0.4350 -0.2501
 7706WAT     H131530   2.365   3.120   4.474 -0.3518  1.6315  0.6179
 7706WAT     H231531   2.447   3.143   4.581 -0.7998 -0.6144  1.4805
 7706WAT    EPW31532   2.392   3.100   4.544  0.2869 -0.4142  0.1060
 7707WAT      O31533   4.570   3.052   5.828  0.1608 -0.0335  0.6188
 7707WAT     H131534   4.639   3.094   5.794  0.9376 -1.6377  0.0971
 7707WAT     H231535   4.524   3.115   5.866  2.2630  1.0161  1.5920
 7707WAT    EPW31536   4.574   3.068   5.828 -0.5910 -0.2506 -1.1574
 7708WAT      O31537   3.393   0.871   2.224 -0.5193  0.0552 -0.3304
 7708WAT     H131538   3.418   0.788   2.210  0.6530  0.5802 -1.5281
 7708WAT     H231539   3.430   0.890   2.300  1.7708  0.3844 -1.4466
 7708WAT    EPW31540   3.402   0.861   2.233 -0.4279 -0.0015 -0.0170
 7709WAT      O31541   4.633   2.624   4.392 -0.2801  0.6186  0.5660
 7709WAT     H131542   4.584   2.616   4.320 -0.7101 -1.7527  1.0501
 7709WAT     H231543   4.598   2.693   4.432  0.5074  2.5742 -1.7981
 7709WAT    EPW31544   4.621   2.633   4.387  0.2839  0.3321 -0.3863
 7710WAT      O31545   6.255   2.758   4.683  0.6058  0.3142  0.1141
 7710WAT     H131546   6.222   2.685   4.718  0.4501  0.0153 -0.6396
 7710WAT     H231547   6.230   2.754   4.599 -0.3385  1.7646  0.2916
 7710WAT    EPW31548   6.247   2.747   4.676  0.2335  0.0942 -0.3794
 7711WAT      O31549   3.967   2.137   5.497  0.6424  0.2792 -0.1391
 7711WAT     H131550   4.021   2.182   5.548  1.5823  1.6289 -2.2141
 7711WAT     H231551   3.891   2.179   5.506  0.8395  0.6032  0.0407
 7711WAT    EPW31552   3.963   2.150   5.506 -0.0017  0.3299  0.2337
 7712WAT      O31553   3.048   1.827   3.113 -0.1223 -0.0689  0.3670
 7712WAT     H131554   3.036   1.877   3.043  0.7055  0.6370  0.7142
 7712WAT     H231555   3.016   1.875   3.178 -0.9960 -0.7720  0.4672
 7712WAT    EPW31556   3.041   1.841   3.112 -0.9009  0.4016  0.0575
 7713WAT      O31557   3.504   2.254   4.530 -0.8003  0.1363 -0.1128
 7713WAT     H131558   3.489   2.333   4.495  1.1163  1.3913  1.6971
 7713WAT     H231559   3.578   2.264   4.573 -0.9463 -2.4641  0.9291
 7713WAT    EPW31560   3.512   2.267   4.531 -0.2571 -0.7419 -0.5488
 7714WAT      O31561   3.880   0.789   2.717 -0.6224  0.2570  0.4436
 7714WAT     H131562   3.806   0.744   2.707 -0.4139 -0.3867  1.6056
 7714WAT     H231563   3.942   0.728   2.707 -0.3563  0.0289  2.9577
 7714WAT    EPW31564   3.878   0.773   2.714 -0.1282  0.9219  0.4885
 7715WAT      O31565   3.880   2.590   3.505 -0.4200 -0.4319 -0.4200
 7715WAT     H131566   3.832   2.607   3.434 -0.8150  0.1345 -0.0171
 7715WAT     H231567   3.944   2.650   3.501 -1.2077  0.4874  0.4219
 7715WAT    EPW31568   3.883   2.601   3.494  0.2310 -0.2060  0.0599
 7716WAT      O31569   3.943   2.205   3.790 -0.2510  0.2237 -0.6993
 7716WAT     H131570   3.971   2.130   3.825  1.2148  1.5387  1.2034
 7716WAT     H231571   3.978   2.205   3.710  0.5736 -0.6850 -0.3643
 7716WAT    EPW31572   3.952   2.194   3.783 -0.0393 -0.2443 -0.3433
 7717WAT      O31573   4.309   2.405   3.132  0.4807  0.3315  0.2846
 7717WAT     H131574   4.318   2.319   3.122  1.0778  0.5467 -1.2566
 7717WAT     H231575   4.389   2.436   3.119  0.2744  1.1408  0.8435
 7717WAT    EPW31576   4.322   2.397   3.129  0.6394 -0.0152  0.0044
 7718WAT      O31577   3.388   1.939   4.624  0.0735 -0.7333 -0.0366
 7718WAT     H131578   3.308   1.959   4.650  0.5791 -0.6635  1.6079
 7718WAT     H231579   3.378   1.864   4.580 -0.7669 -1.2307  0.9731
 7718WAT    EPW31580   3.375   1.931   4.621 -0.1251  0.1357 -1.1220
 7719WAT      O31581   3.101   1.640   5.314  0.3681  0.5845  0.0873
 7719WAT     H131582   3.018   1.665   5.313  0.2951  0.3427  0.0947
 7719WAT     H231583   3.140   1.700   5.365  0.3722  1.2230 -0.6568
 7719WAT    EPW31584   3.095   1.653   5.322  0.2392 -0.3111 -0.1238
 7720WAT      O31585   3.910   1.121   4.168 -0.7199  0.4432  0.4179
 7720WAT     H131586   3.907   1.200   4.207 -1.1393  0.5798  0.1144
 7720WAT     H231587   3.862   1.132   4.096  0.0332  0.1824 -0.1361
 7720WAT    EPW31588   3.902   1.134   4.163  0.3683 -0.5085 -0.0018
 7721WAT      O31589   5.006   2.460   3.745  0.1850 -0.8017  0.0075
 7721WAT     H131590   4.934   2.507   3.761  0.9198 -0.1707  1.6610
 7721WAT     H231591   5.029   2.429   3.823  1.9198 -0.6747 -0.4096
 7721WAT    EPW31592   4.998   2.463   3.759  0.0666  0.0829 -0.8983
 7722WAT      O31593   4.043   2.701   2.190 -0.0912 -0.6043 -0.5361
 7722WAT     H131594   4.070   2.621   2.211 -2.8377 -1.2758  0.9835
 7722WAT     H231595   4.060   2.748   2.261 -0.8174 -0.5363 -0.3906
 7722WAT    EPW31596   4.049   2.696   2.203  0.0850 -0.9096  0.3224
 7723WAT      O31597   4.663   2.307   3.611 -0.3286  0.5506  0.8746
 7723WAT     H131598   4.658   2.338   3.693  1.2756 -0.9913  1.6202
 7723WAT     H231599   4.711   2.366   3.569  0.3127  0.4989  1.5220
 7723WAT    EPW31600   4.669   2.320   3.617 -1.0055  0.3858  0.2457
 7724WAT      O31601   4.724   1.821   2.667 -0.4431 -0.0259 -0.2539
 7724WAT     H131602   4.798   1.861   2.644 -0.0592 -0.0695  0.8589
 7724WAT     H231603   4.752   1.750   2.709 -1.0476  1.1606  2.3410
 7724WAT    EPW31604   4.739   1.816   2.670  0.1279 -0.2030  0.1880
 7725WAT      O31605   4.444   2.294   4.209  0.3317  0.1471  0.0183
 7725WAT     H131606   4.437   2.348   4.141  0.0857 -0.6115 -0.5857
 7725WAT     H231607   4.376   2.239   4.198 -0.8081  1.0860  1.8866
 7725WAT    EPW31608   4.433   2.294   4.197 -0.0500 -0.5575 -0.6446
 7726WAT      O31609   5.031   7.840   2.410 -0.6905  0.0864 -0.0349
 7726WAT     H131610   4.944   7.850   2.416 -0.6973 -0.6298  1.4112
 7726WAT     H231611   5.061   7.883   2.480  0.1626  0.5602 -0.6698
 7726WAT    EPW31612   5.023   7.848   2.421 -0.4481 -0.2589  0.5955
 7727WAT      O31613   4.860   2.884   3.834 -0.4114  0.7837 -0.5137
 7727WAT     H131614   4.836   2.828   3.771 -1.8509 -0.7025  1.2504
 7727WAT     H231615   4.856   2.962   3.794 -1.9558 -0.0328 -2.0924
 7727WAT    EPW31616   4.856   2.888   3.819  1.2314 -0.0074 -0.4082
 7728WAT      O31617   4.873   3.635   4.683  0.3880  0.4750  0.3811
 7728WAT     H131618   4.846   3.700   4.734  0.0743  0.2743  0.4777
 7728WAT     H231619   4.831   3.650   4.608  0.2767  0.3586  0.4196
 7728WAT    EPW31620   4.863   3.647   4.680  0.6125 -0.6061 -0.5297
 7729WAT      O31621   3.911   2.497   4.835 -0.0196 -0.0093  0.0752
 7729WAT     H131622   3.873   2.561   4.788  1.6035  1.1773  0.3115
 7729WAT     H231623   3.871   2.503   4.912 -1.6685 -1.0117 -0.6340
 7729WAT    EPW31624   3.899   2.507   4.839 -0.2524  0.1521 -0.2403
 7730WAT      O31625   4.930   2.008   2.624  0.1578 -0.1634  0.4244
 7730WAT     H131626   4.933   1.997   2.538  0.6965 -4.5278  0.7899
 7730WAT     H231627   5.013   2.022   2.647  0.3639 -1.1573  0.3439
 7730WAT    EPW31628   4.942   2.009   2.615  0.1746 -0.3421  0.7296
 7731WAT      O31629   5.119   1.806   4.246  0.1837  0.0863 -0.1608
 7731WAT     H131630   5.120   1.744   4.307 -1.1043  1.0718  0.9361
 7731WAT     H231631   5.058   1.862   4.275  2.0717  2.4769 -0.4406
 7731WAT    EPW31632   5.110   1.805   4.259  0.5860  0.2650  0.9480
 7732WAT      O31633   4.215   2.795   4.949 -0.1997  0.0239  0.0925
 7732WAT     H131634   4.289   2.756   4.971 -0.7437 -0.8421  0.4496
 7732WAT     H231635   4.207   2.778   4.864  0.3614  0.7305 -0.1066
 7732WAT    EPW31636   4.224   2.787   4.940 -0.1421 -0.5599  0.3787
 7733WAT      O31637   4.169   2.904   3.213  0.0981 -0.4225 -0.7785
 7733WAT     H131638   4.157   2.987   3.191  0.0615 -0.2446 -0.1247
 7733WAT     H231639   4.113   2.860   3.162 -2.3607  0.2471  1.1532
 7733WAT    EPW31640   4.159   2.910   3.202 -0.5050 -0.0530  0.3853
 7734WAT      O31641   4.245   2.745   4.647  0.1468  0.9772 -0.4817
 7734WAT     H131642   4.328   2.754   4.622 -0.3399  0.9420 -2.2863
 7734WAT     H231643   4.208   2.704   4.579 -1.0807 -0.2107  0.8185
 7734WAT    EPW31644   4.252   2.740   4.633 -0.1231  0.2190  0.2113
 7735WAT      O31645   3.740   2.469   4.273 -0.0622  0.1980 -0.3116
 7735WAT     H131646   3.715   2.509   4.347  2.9583 -0.8018  1.4586
 7735WAT     H231647   3.753   2.535   4.218  1.0021  1.3759  1.2462
 7735WAT    EPW31648   3.738   2.484   4.276 -0.4468  0.0023  0.2254
 7736WAT      O31649   4.186   1.988   4.088 -0.5101 -0.0105  0.2368
 7736WAT     H131650   4.210   2.040   4.154  0.7570 -0.7811  0.4191
 7736WAT     H231651   4.135   1.928   4.127 -0.1077 -0.2173  0.4576
 7736WAT    EPW31652   4.182   1.987   4.104  0.5184  0.5352 -0.6394
 7737WAT      O31653   5.928   2.212   2.719 -0.4798 -0.0285  0.0825
 7737WAT     H131654   5.916   2.224   2.634  1.6995  1.8950 -0.0427
 7737WAT     H231655   5.967   2.134   2.724 -1.8181 -0.7792 -0.4789
 7737WAT    EPW31656   5.932   2.202   2.707 -0.0266 -0.1707 -0.2288
 7738WAT      O31657   4.220   0.475   4.728  0.3108 -0.1826  0.4074
 7738WAT     H131658   4.170   0.546   4.716  0.1608 -0.3127  0.2634
 7738WAT     H231659   4.295   0.508   4.758 -0.1361 -0.0464  1.4062
 7738WAT    EPW31660   4.224   0.491   4.731  0.2159 -0.8283 -0.0488
 7739WAT      O31661   4.548   3.244   5.409 -0.2376 -0.1610  0.0173
 7739WAT     H131662   4.502   3.287   5.469  0.0869  0.7823 -0.3906
 7739WAT     H231663   4.580   3.308   5.359  0.5410 -0.8694 -0.3994
 7739WAT    EPW31664   4.546   3.260   5.411  0.0584 -0.0873 -0.4271
 7740WAT      O31665   5.665   2.971   3.348  0.3655  0.1399  0.3941
 7740WAT     H131666   5.747   2.942   3.344  0.2045 -0.2597 -0.1848
 7740WAT     H231667   5.674   3.057   3.357  0.8522  0.2132 -0.6299
 7740WAT    EPW31668   5.678   2.979   3.349  1.0428  0.3714  0.2129
 7741WAT      O31669   1.850   2.902   3.310 -0.1762 -0.0330 -0.0522
 7741WAT     H131670   1.901   2.832   3.309  1.8516  1.3350  0.5266
 7741WAT     H231671   1.809   2.896   3.387 -1.4294 -1.4675 -0.7931
 7741WAT    EPW31672   1.851   2.891   3.321  0.5028  1.0526 -0.6140
 7742WAT      O31673   4.267   0.876   3.956 -0.0576  0.9608  0.0160
 7742WAT     H131674   4.337   0.894   4.004  0.4576 -1.3966  0.2620
 7742WAT     H231675   4.265   0.789   3.955 -1.7501  0.9636 -1.8014
 7742WAT    EPW31676   4.277   0.866   3.963  0.0318 -0.4095  0.4795
 7743WAT      O31677   5.105   2.829   5.543  0.5372  0.2180 -0.2516
 7743WAT     H131678   5.186   2.801   5.528  0.6481  0.1098  0.5110
 7743WAT     H231679   5.057   2.786   5.484  1.2007  1.3124 -1.6261
 7743WAT    EPW31680   5.110   2.818   5.532  0.3236 -0.1976 -0.4358
 7744WAT      O31681   5.269   2.715   5.049 -0.0398  1.0372 -0.3173
 7744WAT     H131682   5.280   2.666   4.978  1.5837  0.8316  0.0196
 7744WAT     H231683   5.206   2.770   5.027 -0.4733  0.1288 -1.4403
 7744WAT    EPW31684   5.261   2.716   5.035  0.1682  0.0561 -0.4565
 7745WAT      O31685   4.862   2.087   2.905 -0.2892 -0.2604  0.0737
 7745WAT     H131686   4.871   2.061   2.822  1.5982  0.9044 -0.1378
 7745WAT     H231687   4.905   2.025   2.950  0.3381  0.0971 -0.0184
 7745WAT    EPW31688   4.870   2.074   2.900  0.1333 -0.9195 -0.6873
 7746WAT      O31689   5.240   1.601   3.136  0.0600  0.2394  0.1431
 7746WAT     H131690   5.297   1.658   3.169  1.4281 -1.2379  0.4647
 7746WAT     H231691   5.262   1.596   3.052 -1.0026  1.2151 -0.2219
 7746WAT    EPW31692   5.251   1.609   3.129  0.1273 -0.1760 -0.1189
 7747WAT      O31693   3.822   2.707   4.685 -0.1685 -0.1273  0.3528
 7747WAT     H131694   3.835   2.785   4.722  0.0357  0.7487 -1.4031
 7747WAT     H231695   3.776   2.727   4.613 -2.4400 -1.9774  1.1915
 7747WAT    EPW31696   3.817   2.722   4.680 -0.3310 -0.2970 -0.4971
 7748WAT      O31697   3.827   0.948   5.011  0.2962 -0.0743  0.1361
 7748WAT     H131698   3.780   1.015   5.041  1.2004  1.1935 -1.1856
 7748WAT     H231699   3.766   0.886   4.996 -0.5959  0.5626  1.0003
 7748WAT    EPW31700   3.811   0.949   5.013 -0.0097 -0.2085 -0.9413
 7749WAT      O31701   3.832   2.529   3.779  0.0951 -0.1883  0.1088
 7749WAT     H131702   3.748   2.511   3.796 -0.3823  0.9975 -0.8162
 7749WAT     H231703   3.830   2.559   3.697  0.9931  2.3746  0.9261
 7749WAT    EPW31704   3.819   2.531   3.769 -0.4242  0.6662 -0.2815
 7750WAT      O31705   3.484   1.908   4.281 -0.3345 -0.1414 -0.6924
 7750WAT     H131706   3.472   1.911   4.195 -1.6474  1.7528 -0.4990
 7750WAT     H231707   3.432   1.971   4.312  1.6039  0.6457  1.3014
 7750WAT    EPW31708   3.475   1.918   4.273  0.0518  0.7986  0.1619
 7751WAT      O31709   4.704   2.370   5.854 -0.0905 -0.1614  0.0902
 7751WAT     H131710   4.703   2.286   5.831  0.1486 -0.0985 -0.1528
 7751WAT     H231711   4.642   2.406   5.804 -0.4326 -0.2519  0.4378
 7751WAT    EPW31712   4.694   2.363   5.843  0.0072 -0.3566 -0.5245
 7752WAT      O31713   3.564   1.867   6.117  0.4900 -0.8500 -0.7515
 7752WAT     H131714   3.528   1.828   6.186  0.1635 -1.9259 -1.5185
 7752WAT     H231715   3.649   1.871   6.138  0.0434  1.8485  1.1407
 7752WAT    EPW31716   3.571   1.862   6.131 -0.0210 -0.2639 -0.4653
 7753WAT      O31717   6.395   3.439   5.174 -0.3482  0.5464 -0.3669
 7753WAT     H131718   6.321   3.431   5.129 -2.1860  2.4096  2.0240
 7753WAT     H231719   6.387   3.381   5.238  1.0929 -0.3854 -0.9794
 7753WAT    EPW31720   6.383   3.429   5.177 -1.1265  0.0305 -0.1077
 7754WAT      O31721   4.308   2.838   5.374  0.6780  0.1591  0.0542
 7754WAT     H131722   4.371   2.833   5.314  0.1818  1.3607 -0.5985
 7754WAT     H231723   4.348   2.878   5.441  0.4978  1.4541 -0.5749
 7754WAT    EPW31724   4.323   2.844   5.375  0.1862 -0.4290 -0.3189
 7755WAT      O31725   2.777   3.016   4.710  0.5172 -0.1463 -0.2938
 7755WAT     H131726   2.691   3.034   4.714  0.5787 -0.0422  0.9419
 7755WAT     H231727   2.810   3.083   4.665  0.2561  1.0630  1.2507
 7755WAT    EPW31728   2.769   3.028   4.704  0.3005  0.0337  0.2663
 7756WAT      O31729   6.164   3.339   3.161  1.1365 -0.2459  0.0994
 7756WAT     H131730   6.106   3.288   3.120  0.7470 -0.7095  1.1893
 7756WAT     H231731   6.178   3.297   3.236 -0.3232  1.9632  1.7191
 7756WAT    EPW31732   6.157   3.325   3.166 -0.4538  0.1320  0.1099
 7757WAT      O31733   4.067   1.667   3.845 -0.0571 -0.0393 -0.7457
 7757WAT     H131734   4.149   1.697   3.839 -0.6072  1.8357  0.2406
 7757WAT     H231735   4.065   1.601   3.789  2.1910 -0.2775 -0.6442
 7757WAT    EPW31736   4.079   1.661   3.836  0.3777 -0.5452  0.0775
 7758WAT      O31737   4.632   1.837   4.586 -0.0886 -0.0277 -0.3730
 7758WAT     H131738   4.576   1.794   4.534  0.5387 -0.9791 -0.2910
 7758WAT     H231739   4.596   1.916   4.594 -0.8800 -0.2864 -1.1720
 7758WAT    EPW31740   4.618   1.843   4.579 -0.3905 -0.4074 -0.3439
 7759WAT      O31741   4.441   1.370   5.356 -0.2179  0.1924 -0.4403
 7759WAT     H131742   4.379   1.354   5.415 -0.0476  3.4368  0.8224
 7759WAT     H231743   4.398   1.415   5.294  0.2816 -0.3085 -1.1658
 7759WAT    EPW31744   4.425   1.374   5.355 -0.6995 -0.5112  0.3002
 7760WAT      O31745   3.425   1.572   3.344 -0.1016  0.4424  0.4660
 7760WAT     H131746   3.415   1.614   3.268  0.3920  1.3675  0.8945
 7760WAT     H231747   3.362   1.512   3.343  0.2714  0.0199 -0.9458
 7760WAT    EPW31748   3.414   1.569   3.332  0.0255 -0.1568 -0.6395
 7761WAT      O31749   4.219   1.595   4.192  0.0777  0.3870  0.5490
 7761WAT     H131750   4.302   1.616   4.213  0.0107  0.4263  0.7797
 7761WAT     H231751   4.227   1.517   4.154  0.2634  0.5629  0.2215
 7761WAT    EPW31752   4.233   1.587   4.190 -0.1169  0.2584  0.0382
 7762WAT      O31753   4.268   2.141   3.172  0.6037  0.1807 -0.7551
 7762WAT     H131754   4.283   2.068   3.127  1.7846 -0.6637  0.8976
 7762WAT     H231755   4.185   2.133   3.197  0.6705 -0.5248 -0.7345
 7762WAT    EPW31756   4.258   2.129   3.169 -0.0626 -0.5234  0.2380
 7763WAT      O31757   4.271   1.599   2.772 -0.0005  0.9539  0.3930
 7763WAT     H131758   4.297   1.555   2.842 -0.6034 -3.8778 -1.9664
 7763WAT     H231759   4.343   1.639   2.744  0.9402  0.6144  2.1927
 7763WAT    EPW31760   4.285   1.598   2.778  0.8027  1.0428  0.2046
 7764WAT      O31761   3.590   2.347   4.939  0.4531 -0.3141 -0.3637
 7764WAT     H131762   3.660   2.295   4.937  1.2934  0.7171  0.5293
 7764WAT     H231763   3.592   2.389   4.863 -0.3943 -1.7360 -1.2139
 7764WAT    EPW31764   3.601   2.346   4.928 -0.4549  0.1789 -0.0163
 7765WAT      O31765   4.599   2.304   4.446  0.0961  0.3518 -0.1633
 7765WAT     H131766   4.584   2.384   4.478  2.0929  1.1354 -0.9753
 7765WAT     H231767   4.545   2.297   4.378 -0.5588  0.7238  0.3113
 7765WAT    EPW31768   4.589   2.315   4.441 -0.8897 -0.7265  0.0077
 7766WAT      O31769   3.708   2.257   3.650  0.0452 -0.2127  0.1784
 7766WAT     H131770   3.650   2.298   3.700 -0.3756 -0.9456  0.3061
 7766WAT     H231771   3.780   2.253   3.700  0.2859  0.8835 -0.0604
 7766WAT    EPW31772   3.710   2.263   3.665 -0.0289 -0.4967  0.2424
 7767WAT      O31773   5.259   1.969   3.608  0.1747 -0.1647 -0.5577
 7767WAT     H131774   5.203   1.927   3.556 -0.5888 -0.7566  0.6837
 7767WAT     H231775   5.227   1.955   3.688  0.1099  2.4653 -0.0402
 7767WAT    EPW31776   5.246   1.961   3.613  0.3054  0.7043 -0.8307
 7768WAT      O31777   4.312   2.371   3.781  0.6371 -0.1453  0.1142
 7768WAT     H131778   4.314   2.284   3.794  1.2919  0.0927  1.7947
 7768WAT     H231779   4.349   2.403   3.853 -1.9055  1.6618  0.7410
 7768WAT    EPW31780   4.318   2.363   3.794 -0.5614 -0.3918 -0.1426
 7769WAT      O31781   4.602   2.291   4.834 -0.3758  0.0557  0.2757
 7769WAT     H131782   4.676   2.277   4.792  0.4518  0.5491  1.5097
 7769WAT     H231783   4.560   2.349   4.784 -0.4719 -1.0757 -1.0096
 7769WAT    EPW31784   4.606   2.297   4.821 -0.3145 -0.3349  0.3286
 7770WAT      O31785   4.583   1.391   1.707  0.9472 -0.3164  0.0601
 7770WAT     H131786   4.535   1.400   1.635  0.7770  1.3181  0.3485
 7770WAT     H231787   4.607   1.307   1.705 -2.0960 -1.3026  0.0385
 7770WAT    EPW31788   4.580   1.380   1.696 -0.7975 -0.7751 -0.2752
 7771WAT      O31789   4.768   2.797   4.090  0.2977 -0.1802  0.8329
 7771WAT     H131790   4.773   2.829   4.009 -0.4315  1.2985  1.3313
 7771WAT     H231791   4.690   2.759   4.092  0.7162 -1.0672  0.5640
 7771WAT    EPW31792   4.757   2.796   4.078 -0.6837  0.3591  0.1334
 7772WAT      O31793   3.581   2.317   6.432 -0.1851  0.2646  0.1886
 7772WAT     H131794   3.536   2.358   6.494 -0.0762  2.0265 -0.8260
 7772WAT     H231795   3.519   2.282   6.381 -0.2831 -0.5906  0.8617
 7772WAT    EPW31796   3.565   2.318   6.434 -0.3907 -0.9921 -0.6869
 7773WAT      O31797   4.698   2.436   3.853 -0.0143 -0.1235 -0.2931
 7773WAT     H131798   4.623   2.434   3.898  0.2567  0.6969  0.2186
 7773WAT     H231799   4.699   2.517   3.819  1.0995  0.2347  0.5251
 7773WAT    EPW31800   4.687   2.448   3.855  0.3935  0.3128 -0.8679
 7774WAT      O31801   4.333   2.429   3.481 -0.6174  0.5428 -0.3947
 7774WAT     H131802   4.333   2.393   3.560 -1.4479 -0.6018 -0.8774
 7774WAT     H231803   4.416   2.423   3.455 -0.5737 -0.1967 -0.0915
 7774WAT    EPW31804   4.345   2.423   3.489  0.4623  0.5558 -0.1132
 7775WAT      O31805   2.769   2.732   3.963 -0.2356  0.2145  0.1383
 7775WAT     H131806   2.817   2.660   3.952 -0.3669  0.2965 -1.0630
 7775WAT     H231807   2.820   2.784   4.011 -0.0122 -0.5403  0.7380
 7775WAT    EPW31808   2.784   2.729   3.968 -0.2569  0.3963 -0.0739
 7776WAT      O31809   4.432   2.700   3.267  0.4991 -0.1609  0.4265
 7776WAT     H131810   4.440   2.774   3.311  0.0816 -0.6881  1.4119
 7776WAT     H231811   4.485   2.645   3.309  1.4850 -0.2028 -0.8203
 7776WAT    EPW31812   4.441   2.703   3.279  1.0380 -0.0020  0.1599
 7777WAT      O31813   5.570   3.305   2.761 -0.5392 -0.0699  0.3337
 7777WAT     H131814   5.606   3.248   2.816 -1.0380  0.5979  1.3786
 7777WAT     H231815   5.611   3.289   2.686  0.3106 -0.8527  0.9365
 7777WAT    EPW31816   5.581   3.294   2.758  0.0612 -0.4832  0.2691
 7778WAT      O31817   5.728   3.490   5.644 -0.4927 -0.3433  0.3857
 7778WAT     H131818   5.800   3.516   5.685 -0.4221 -1.8871  1.3276
 7778WAT     H231819   5.759   3.452   5.571 -0.4178 -0.2689  0.3785
 7778WAT    EPW31820   5.743   3.488   5.639  0.0770  0.6573 -0.1076
 7779WAT      O31821   4.740   2.358   5.069 -0.3750 -0.0726  0.2788
 7779WAT     H131822   4.690   2.350   4.998  0.6423  0.0772 -0.4763
 7779WAT     H231823   4.712   2.432   5.106 -0.2795  0.3602 -0.4919
 7779WAT    EPW31824   4.729   2.368   5.064  0.3341 -0.0986 -1.0228
 7780WAT      O31825   5.542   2.094   3.338 -0.4565 -0.0089  0.1774
 7780WAT     H131826   5.613   2.144   3.340 -0.6916  0.3402 -0.1335
 7780WAT     H231827   5.485   2.137   3.388 -0.1464 -0.7634  1.2013
 7780WAT    EPW31828   5.544   2.108   3.346 -0.5090 -0.7781 -0.4008
 7781WAT      O31829   4.368   1.997   6.284 -0.2924  0.1081  0.7480
 7781WAT     H131830   4.346   2.027   6.205 -1.3732  1.4771  1.5097
 7781WAT     H231831   4.427   2.055   6.312  0.3156 -0.5406  0.8449
 7781WAT    EPW31832   4.374   2.010   6.276 -0.4673 -0.2271 -0.6162
 7782WAT      O31833   3.693   1.341   5.626  0.0107 -0.1456 -0.6548
 7782WAT     H131834   3.740   1.288   5.675 -1.8939 -1.7978 -0.4973
 7782WAT     H231835   3.753   1.385   5.580  1.6909 -1.5540  0.0834
 7782WAT    EPW31836   3.709   1.340   5.626  0.2714  0.6819  0.3142
 7783WAT      O31837   5.364   2.215   3.493  0.0175 -0.3194  0.6951
 7783WAT     H131838   5.324   2.153   3.541 -2.3910  1.4260  1.1185
 7783WAT     H231839   5.390   2.273   3.552  1.7904 -0.6284  0.2591
 7783WAT    EPW31840   5.362   2.214   3.509  0.4275 -0.8489  0.1266
 7784WAT      O31841   4.013   0.547   1.596 -0.0436  0.5023 -0.4639
 7784WAT     H131842   4.081   0.493   1.598 -0.5554 -0.3270 -2.7776
 7784WAT     H231843   3.949   0.500   1.560 -0.8684  2.2434 -1.4346
 7784WAT    EPW31844   4.013   0.532   1.591 -0.3785 -0.0986  1.0959
 7785WAT      O31845   3.028   2.558   2.417 -0.0718 -0.6677 -0.5919
 7785WAT     H131846   3.033   2.471   2.419 -1.3675 -0.7740 -1.0403
 7785WAT     H231847   2.945   2.573   2.396 -0.9476  0.7091  3.0101
 7785WAT    EPW31848   3.016   2.547   2.414  0.2681  0.2407 -0.1916
 7786WAT      O31849   2.541   1.519   2.486 -0.6837  0.6198  0.4055
 7786WAT     H131850   2.509   1.488   2.560 -0.2318  2.9868  1.6760
 7786WAT     H231851   2.471   1.526   2.434 -0.7823 -2.6055 -0.1330
 7786WAT    EPW31852   2.526   1.516   2.489 -0.2706 -0.7387 -0.0154
 7787WAT      O31853   4.033   2.816   1.734 -0.6182  0.1091 -0.5891
 7787WAT     H131854   4.091   2.854   1.681 -1.2614 -0.1696 -1.5358
 7787WAT     H231855   3.959   2.817   1.687 -0.9129 -1.2956 -0.2199
 7787WAT    EPW31856   4.030   2.821   1.719 -0.0138 -0.4648  0.0047
 7788WAT      O31857   3.496   2.197   1.878  0.2116  0.5413  0.2409
 7788WAT     H131858   3.425   2.164   1.839  0.0290 -3.1638  3.1941
 7788WAT     H231859   3.558   2.190   1.816 -1.4550  2.0504 -1.7378
 7788WAT    EPW31860   3.495   2.191   1.863 -0.0532 -0.6578 -0.2483
 7789WAT      O31861   2.687   2.754   1.894 -0.7199 -0.2658 -0.2479
 7789WAT     H131862   2.643   2.709   1.834 -1.4731  0.4115 -0.2202
 7789WAT     H231863   2.754   2.788   1.850 -0.3445 -1.1021 -0.3434
 7789WAT    EPW31864   2.690   2.753   1.879 -0.0902  0.5292 -0.7139
 7790WAT      O31865   3.630   2.595   2.067 -0.0315  0.1701 -0.0572
 7790WAT     H131866   3.675   2.649   2.118  2.4333 -0.2447 -1.6436
 7790WAT     H231867   3.564   2.644   2.038  0.2977  1.3086  1.0661
 7790WAT    EPW31868   3.627   2.610   2.070 -0.2651 -0.7723 -0.6388
 7791WAT      O31869   4.788   1.583   2.811 -0.2142 -0.1376 -0.3328
 7791WAT     H131870   4.856   1.533   2.834  0.4836  0.2858 -1.3716
 7791WAT     H231871   4.741   1.590   2.884  0.6906 -0.7192  0.3205
 7791WAT    EPW31872   4.791   1.577   2.825  0.3465  0.0040 -0.4969
 7792WAT      O31873   2.382   1.468   1.381 -0.0445 -0.5808  0.0142
 7792WAT     H131874   2.467   1.485   1.393  0.0032 -0.3756 -0.5839
 7792WAT     H231875   2.342   1.528   1.429  0.1218 -2.5052  2.8019
 7792WAT    EPW31876   2.389   1.479   1.390  0.5237  0.4296 -0.2038
 7793WAT      O31877   2.468   3.140   1.633 -0.5313 -0.0041 -0.4089
 7793WAT     H131878   2.463   3.158   1.719 -0.0587 -2.8437  0.2988
 7793WAT     H231879   2.424   3.066   1.625 -0.3374  0.0749 -2.6201
 7793WAT    EPW31880   2.461   3.132   1.645  0.8119  0.5310 -0.7588
 7794WAT      O31881   2.546   1.629   3.091 -0.3012 -0.2588 -0.4869
 7794WAT     H131882   2.543   1.544   3.108 -1.2721  0.2620  2.6877
 7794WAT     H231883   2.630   1.649   3.099 -0.4238 -0.4588  2.3747
 7794WAT    EPW31884   2.558   1.620   3.095 -0.0319 -0.4208 -0.4442
 7795WAT      O31885   3.396   2.457   2.937 -0.5516  0.5931 -0.6374
 7795WAT     H131886   3.460   2.511   2.962  1.4079 -1.6391 -0.4682
 7795WAT     H231887   3.397   2.464   2.850 -0.7483  1.2386 -0.5969
 7795WAT    EPW31888   3.406   2.466   2.927 -0.5024 -0.7238 -0.3933
 7796WAT      O31889   2.082   2.603   2.754  0.0036  0.0338  0.3158
 7796WAT     H131890   2.117   2.557   2.689 -2.3529  0.6687 -1.5573
 7796WAT     H231891   2.083   2.547   2.821  1.0482 -1.2217 -0.6921
 7796WAT    EPW31892   2.087   2.588   2.754 -0.4773 -0.1457  0.4280
 7797WAT      O31893   4.246   1.837   2.260  0.4149 -0.5917 -0.0938
 7797WAT     H131894   4.297   1.767   2.273 -1.3551 -2.1943 -1.1280
 7797WAT     H231895   4.235   1.837   2.173  0.9327  1.4699 -0.2188
 7797WAT    EPW31896   4.252   1.826   2.249  0.5804  0.1804  0.7339
 7798WAT      O31897   3.597   2.179   1.591  0.2732  0.8088 -0.2317
 7798WAT     H131898   3.633   2.258   1.600 -0.2515  0.9334  0.8910
 7798WAT     H231899   3.529   2.193   1.538  1.5203  0.6665 -1.9369
 7798WAT    EPW31900   3.592   2.193   1.585  0.0227 -0.0299  0.2252
 7799WAT      O31901   3.251   2.152   1.731  0.3645 -0.0356 -0.0518
 7799WAT     H131902   3.171   2.148   1.765  1.3871 -1.4270  2.4826
 7799WAT     H231903   3.248   2.098   1.663 -0.6439 -0.7327  0.5274
 7799WAT    EPW31904   3.239   2.144   1.726  0.3452 -0.0611 -0.3580
 7800WAT      O31905   5.786   2.448   2.140 -0.8217  0.0879  0.0556
 7800WAT     H131906   5.712   2.454   2.095  0.3096 -2.2645 -2.4399
 7800WAT     H231907   5.841   2.499   2.096  0.0606 -1.5011 -0.7909
 7800WAT    EPW31908   5.783   2.456   2.127 -0.0126  0.5247 -0.2761
 7801WAT      O31909   2.492   0.867   0.986  0.2578 -0.1322  0.2093
 7801WAT     H131910   2.443   0.798   1.007 -0.0068  0.3439  1.2344
 7801WAT     H231911   2.545   0.876   1.055 -0.3187  1.2323  0.5026
 7801WAT    EPW31912   2.493   0.858   0.999 -0.0704  0.0435  0.2077
 7802WAT      O31913   5.342   0.632   3.051 -0.0307  0.7738  0.5293
 7802WAT     H131914   5.314   0.694   3.105 -0.8042  1.2836 -0.4358
 7802WAT     H231915   5.404   0.672   3.004  0.6261  0.3381  1.0060
 7802WAT    EPW31916   5.347   0.647   3.052 -0.2876 -0.2449 -0.3469
 7803WAT      O31917   4.075   1.800   2.511 -0.2237  0.3320  0.0730
 7803WAT     H131918   4.093   1.724   2.551  1.7819  1.6947  1.9774
 7803WAT     H231919   4.031   1.845   2.572  2.2872  2.2033  0.6605
 7803WAT    EPW31920   4.071   1.795   2.526 -0.1869 -0.7477 -0.0005
 7804WAT      O31921   4.000   3.213   1.594 -0.2483  0.3597  0.1874
 7804WAT     H131922   4.018   3.264   1.525 -0.9528 -1.2161 -1.2093
 7804WAT     H231923   3.924   3.176   1.574 -0.9887  0.5747  2.2835
 7804WAT    EPW31924   3.991   3.215   1.581  0.3391  0.0629 -0.3044
 7805WAT      O31925   3.110   3.211   1.290  0.1529  0.6728  0.6902
 7805WAT     H131926   3.029   3.223   1.257 -0.0177  0.1609  0.9126
 7805WAT     H231927   3.116   3.124   1.296  1.2682  0.6171 -0.6896
 7805WAT    EPW31928   3.099   3.199   1.286 -0.3180  0.6630 -0.1085
 7806WAT      O31929   3.308   2.082   2.184  0.0847 -0.4845  0.4775
 7806WAT     H131930   3.232   2.054   2.216 -1.0616  0.8276 -0.8887
 7806WAT     H231931   3.316   2.038   2.109 -0.2077  0.5469 -0.1883
 7806WAT    EPW31932   3.298   2.072   2.177 -0.5957  0.0002  0.1940
 7807WAT      O31933   4.430   2.095   2.239 -0.1352 -0.5114 -0.0668
 7807WAT     H131934   4.397   2.022   2.273  0.7506 -0.0250  1.9742
 7807WAT     H231935   4.421   2.083   2.153 -0.7131 -2.6759  0.2347
 7807WAT    EPW31936   4.424   2.082   2.231 -0.6498 -0.1947  0.4957
 7808WAT      O31937   4.428   3.990   2.063  0.6837 -0.2694 -0.1949
 7808WAT     H131938   4.472   3.921   2.093  0.6487  0.0180  0.5356
 7808WAT     H231939   4.356   3.955   2.028  0.6336 -0.5964  0.2316
 7808WAT    EPW31940   4.424   3.974   2.062  0.4935  0.1362 -0.1634
 7809WAT      O31941   4.313   2.488   2.100 -0.4635 -0.3217 -0.2228
 7809WAT     H131942   4.328   2.490   2.186 -0.4188 -0.3337 -0.2304
 7809WAT     H231943   4.341   2.408   2.077 -1.8741 -0.9139  0.0151
 7809WAT    EPW31944   4.319   2.476   2.109 -0.4500  0.3681  0.1311
 7810WAT      O31945   4.071   8.034   4.530 -0.0446  0.4200  0.3651
 7810WAT     H131946   4.133   7.989   4.488 -0.2592 -0.3500  0.8487
 7810WAT     H231947   4.001   8.026   4.479  0.1971  1.1534 -0.0993
 7810WAT    EPW31948   4.070   8.026   4.516 -0.2141  0.8054  0.2272
 7811WAT      O31949   3.626   2.236   2.616 -0.6008 -0.3315 -0.0990
 7811WAT     H131950   3.573   2.248   2.548 -1.3015 -0.0538  0.4758
 7811WAT     H231951   3.576   2.193   2.674  0.0171 -0.6699  0.1977
 7811WAT    EPW31952   3.611   2.231   2.615 -0.0347 -0.7474 -0.7358
 7812WAT      O31953   2.694   2.035   2.342  0.0574  0.3796  0.4275
 7812WAT     H131954   2.657   1.961   2.314  0.2859  0.7501 -0.9261
 7812WAT     H231955   2.697   2.084   2.270 -1.0404  2.1195  1.5024
 7812WAT    EPW31956   2.689   2.031   2.327 -0.8910 -0.7249  0.5766
 7813WAT      O31957   5.123   1.191   1.724  0.4495  0.3395  0.4358
 7813WAT     H131958   5.178   1.195   1.791 -0.4479 -0.1840  1.2275
 7813WAT     H231959   5.134   1.268   1.683  0.5471  0.9354  1.5585
 7813WAT    EPW31960   5.133   1.203   1.728 -0.3072  0.7549  0.1638
 7814WAT      O31961   3.901   0.627   3.015 -0.2240  0.1040 -0.2788
 7814WAT     H131962   3.849   0.695   3.002  0.0536  0.4238  0.2469
 7814WAT     H231963   3.846   0.559   3.019 -0.7529  0.5805  1.4958
 7814WAT    EPW31964   3.885   0.627   3.014  0.4608 -0.2761  0.4531
 7815WAT      O31965   2.687   2.525   2.556 -0.8704  0.1693  0.2875
 7815WAT     H131966   2.702   2.499   2.638 -1.5592  1.8801  0.9869
 7815WAT     H231967   2.619   2.579   2.563 -0.0647  1.4541 -1.1918
 7815WAT    EPW31968   2.679   2.529   2.569  0.3894  0.2346 -0.8089
 7816WAT      O31969   4.974   2.604   2.872  0.2494 -0.2804 -0.4119
 7816WAT     H131970   5.023   2.613   2.944 -2.6222  0.7371  1.5663
 7816WAT     H231971   4.967   2.518   2.861  0.4549 -0.4428  0.7001
 7816WAT    EPW31972   4.980   2.593   2.881 -0.4755 -0.0920  0.4989
 7817WAT      O31973   4.882   0.514   2.561  0.0648  0.1960  0.3880
 7817WAT     H131974   4.865   0.597   2.541  0.7065  0.0162 -0.9972
 7817WAT     H231975   4.823   0.469   2.514 -1.0511 -0.1314  2.0033
 7817WAT    EPW31976   4.871   0.519   2.551  0.3535 -0.4298  0.8043
 7818WAT      O31977   5.523   1.855   3.541  0.6293 -0.0450 -0.4194
 7818WAT     H131978   5.450   1.877   3.583  0.6385  0.3711 -0.6109
 7818WAT     H231979   5.541   1.926   3.494 -0.0546 -0.9494 -2.1126
 7818WAT    EPW31980   5.515   1.869   3.540 -0.2626 -0.2000 -0.1512
 7819WAT      O31981   4.104   0.777   2.069  0.0242  0.1398  0.0968
 7819WAT     H131982   4.111   0.808   1.988  0.6319  0.1363  0.1414
 7819WAT     H231983   4.123   0.846   2.119 -0.0153  0.0549  0.2302
 7819WAT    EPW31984   4.108   0.792   2.064 -0.1295  0.4366 -0.0874
 7820WAT      O31985   5.101   2.212   1.475  0.0285 -0.3692 -0.4449
 7820WAT     H131986   5.050   2.184   1.539  0.3745  1.4881  0.7499
 7820WAT     H231987   5.086   2.298   1.472  2.2944  0.1073 -0.7172
 7820WAT    EPW31988   5.091   2.221   1.484  0.0388 -0.4008 -0.2716
 7821WAT      O31989   3.551   1.119   1.142  0.0001 -0.1587  0.6475
 7821WAT     H131990   3.478   1.099   1.099  0.6753 -0.9504 -0.1633
 7821WAT     H231991   3.558   1.206   1.131 -0.0488 -0.2861 -0.5346
 7821WAT    EPW31992   3.541   1.129   1.134  0.0665 -0.1030 -0.6512
 7822WAT      O31993   1.200   1.128   2.032 -0.2192  0.1538  0.4628
 7822WAT     H131994   1.128   1.132   1.984 -0.0550  2.4488  0.2700
 7822WAT     H231995   1.238   1.053   2.008 -1.9032 -0.4760 -0.3272
 7822WAT    EPW31996   1.195   1.118   2.021 -0.2242  0.1069  0.2271
 7823WAT      O31997   5.160   2.757   2.706  0.2963  0.9248 -0.2383
 7823WAT     H131998   5.088   2.718   2.738  0.9637 -0.3968 -0.3008
 7823WAT     H231999   5.224   2.725   2.755  1.1739 -0.0276 -1.9422
 7823WAT    EPW32000   5.159   2.747   2.718  0.2899 -0.2893  0.8745
 7824WAT      O32001   4.817   2.423   2.484  0.0118 -0.0275  0.4285
 7824WAT     H132002   4.787   2.357   2.435 -1.3907 -0.7511  2.1637
 7824WAT     H232003   4.876   2.385   2.535  0.9422  0.5767 -0.1734
 7824WAT    EPW32004   4.821   2.407   2.484 -0.2495 -0.0099 -0.3145
 7825WAT      O32005   5.062   1.171   0.593  0.0565  0.1188  0.3475
 7825WAT     H132006   5.118   1.125   0.642 -0.8558  0.1571  1.4698
 7825WAT     H232007   5.112   1.234   0.560  0.5366  0.6918  2.0515
 7825WAT    EPW32008   5.077   1.173   0.595 -1.4886  0.8556  0.3791
 7826WAT      O32009   3.671   1.855   0.534 -0.2042  0.3417 -0.2863
 7826WAT     H132010   3.615   1.836   0.471 -0.1698 -0.1267 -0.1792
 7826WAT     H232011   3.674   1.782   0.582  0.7337  0.2475 -0.4722
 7826WAT    EPW32012   3.663   1.842   0.532  0.5596  0.3283  0.3687
 7827WAT      O32013   2.936   2.272   3.039  0.6036 -0.4092  0.4587
 7827WAT     H132014   2.905   2.323   2.975  0.8440 -0.0087  0.6535
 7827WAT     H232015   2.914   2.192   3.014 -1.7345 -0.0833  1.2275
 7827WAT    EPW32016   2.928   2.268   3.026  0.0051 -0.1650  0.0561
 7828WAT      O32017   4.463   1.007   2.099 -0.3362 -0.2925 -0.2399
 7828WAT     H132018   4.422   1.079   2.072  1.0292 -0.3346 -2.6701
 7828WAT     H232019   4.537   1.037   2.133 -0.9481 -0.4203  1.2739
 7828WAT    EPW32020   4.468   1.022   2.100 -0.3169  0.6162  0.8987
 7829WAT      O32021   2.643   1.267   1.638  0.1770 -0.2456  0.1278
 7829WAT     H132022   2.592   1.319   1.688  0.5603 -1.3684  1.7892
 7829WAT     H232023   2.594   1.195   1.628  0.2826 -0.1990 -0.8103
 7829WAT    EPW32024   2.628   1.264   1.644  0.3945 -0.1810  0.3509
 7830WAT      O32025   5.106   3.612   1.761 -0.4109 -0.4292 -0.5568
 7830WAT     H132026   5.184   3.632   1.729 -1.3060 -0.1951 -2.7947
 7830WAT     H232027   5.104   3.525   1.757 -0.5287 -0.4047 -1.2888
 7830WAT    EPW32028   5.117   3.602   1.755 -1.0332  0.3141  0.0648
 7831WAT      O32029   2.524   1.005   1.682  0.5080 -0.5715 -0.4160
 7831WAT     H132030   2.484   0.963   1.746  2.1753 -1.4735  0.0810
 7831WAT     H232031   2.499   0.961   1.610 -1.6403  0.6547 -0.5266
 7831WAT    EPW32032   2.514   0.993   1.681 -0.1173  0.7279  0.1946
 7832WAT      O32033   5.549   2.531   1.129 -0.6118 -0.1645 -0.0121
 7832WAT     H132034   5.587   2.480   1.190 -0.4783  0.3727  0.3593
 7832WAT     H232035   5.589   2.608   1.139 -2.2147  0.6135  0.8223
 7832WAT    EPW32036   5.561   2.535   1.140  0.1631  0.1252  0.2674
 7833WAT      O32037   3.330   1.736   1.328  0.1225 -0.0666  0.2105
 7833WAT     H132038   3.388   1.682   1.363  1.4591  0.2175 -1.4274
 7833WAT     H232039   3.377   1.785   1.273 -1.5415  0.6551 -0.6757
 7833WAT    EPW32040   3.345   1.735   1.325  0.2560  0.2212 -0.1355
 7834WAT      O32041   4.473   1.758   1.921  0.2527 -0.4862  0.1304
 7834WAT     H132042   4.400   1.712   1.909  0.0071  0.0300 -0.4177
 7834WAT     H232043   4.484   1.756   2.008  0.5115 -1.9522  0.0906
 7834WAT    EPW32044   4.464   1.751   1.932 -0.4832  0.2345  0.2341
 7835WAT      O32045   3.729   0.865   2.979  0.5054 -0.3341 -0.2015
 7835WAT     H132046   3.725   0.898   2.899  4.0933 -1.4312 -1.0258
 7835WAT     H232047   3.646   0.845   2.997 -0.9441  3.1381 -2.1282
 7835WAT    EPW32048   3.716   0.867   2.970 -0.4987  0.0802  0.3955
 7836WAT      O32049   4.608   0.957   1.659  0.0266 -0.3768 -0.4162
 7836WAT     H132050   4.679   0.911   1.681 -0.0935 -1.2262 -1.7131
 7836WAT     H232051   4.544   0.916   1.703  0.2238 -0.0184  0.2265
 7836WAT    EPW32052   4.609   0.944   1.669 -0.5661 -0.0561  0.6317
 7837WAT      O32053   6.852   0.065   2.415 -0.2938 -0.7861 -0.1053
 7837WAT     H132054   6.808   0.044   2.343 -0.6391  0.0550 -0.1530
 7837WAT     H232055   6.791   0.097   2.468  0.1220 -0.3806  0.1427
 7837WAT    EPW32056   6.837   0.067   2.412 -0.1032  0.4585 -0.1580
 7838WAT      O32057   2.659   3.482   3.190 -0.1637 -0.2974  0.2199
 7838WAT     H132058   2.665   3.417   3.133 -0.7792 -0.3376  0.1981
 7838WAT     H232059   2.599   3.455   3.247  1.1503 -0.7064  1.4863
 7838WAT    EPW32060   2.651   3.469   3.190  0.1623 -0.0681  0.5923
 7839WAT      O32061   4.848   3.075   1.844 -0.1420 -0.4112 -0.3938
 7839WAT     H132062   4.816   3.151   1.814  2.3055  0.6071 -0.6789
 7839WAT     H232063   4.922   3.066   1.799  1.2082 -1.3431  1.8883
 7839WAT    EPW32064   4.854   3.085   1.833  0.1423  0.5837 -0.4552
 7840WAT      O32065   3.131   1.470   3.539  0.1793  0.2114  0.4079
 7840WAT     H132066   3.052   1.506   3.542  0.2670  1.3379 -3.9791
 7840WAT     H232067   3.183   1.532   3.570 -0.4608  0.3565  1.2148
 7840WAT    EPW32068   3.127   1.484   3.544  0.3130  0.2664 -0.4014
 7841WAT      O32069   4.227   1.565   1.623 -0.3438 -0.1046 -0.3425
 7841WAT     H132070   4.227   1.608   1.546 -0.8777  2.5495  1.0284
 7841WAT     H232071   4.167   1.502   1.611 -0.8438  0.6193 -1.9102
 7841WAT    EPW32072   4.218   1.562   1.610 -0.5982 -0.1045 -0.4235
 7842WAT      O32073   3.182   2.655   3.001 -0.3087  0.2079  0.1147
 7842WAT     H132074   3.254   2.631   2.958  1.0606  1.7730  1.4050
 7842WAT     H232075   3.122   2.663   2.938  0.5661 -1.2555 -0.9760
 7842WAT    EPW32076   3.184   2.652   2.986 -0.4447 -0.7081 -1.3815
 7843WAT      O32077   3.567   3.542   3.039  0.1643  0.2084 -0.0635
 7843WAT     H132078   3.635   3.588   3.069  0.3342  0.8750 -1.4043
 7843WAT     H232079   3.604   3.483   2.987 -0.2644  0.3867 -0.5729
 7843WAT    EPW32080   3.583   3.540   3.036  0.2711 -0.2274  0.4345
 7844WAT      O32081   2.149   0.253   0.903  0.1328  0.3817 -0.1368
 7844WAT     H132082   2.229   0.283   0.888 -0.0774  0.6786 -0.7025
 7844WAT     H232083   2.117   0.308   0.963  0.2133  0.4952 -0.1981
 7844WAT    EPW32084   2.156   0.265   0.909  0.4726 -0.1692  0.1288
 7845WAT      O32085   3.049   2.593   1.514  1.0785 -0.0080 -0.1058
 7845WAT     H132086   3.063   2.673   1.545 -1.3785  0.6232 -0.3641
 7845WAT     H232087   3.068   2.600   1.429  1.0198  0.2695 -0.0972
 7845WAT    EPW32088   3.054   2.606   1.506 -0.4514  0.0623 -0.5550
 7846WAT      O32089   3.770   2.069   1.980 -0.0214 -0.0656 -0.6490
 7846WAT     H132090   3.755   2.155   1.982 -1.3991 -0.2804 -1.0223
 7846WAT     H232091   3.844   2.063   1.935  1.3697  1.0435  1.3050
 7846WAT    EPW32092   3.779   2.081   1.974 -1.1383  0.6343 -0.1199
 7847WAT      O32093   3.665   2.072   1.055 -0.1590  0.2617  0.3903
 7847WAT     H132094   3.683   2.157   1.049  0.1782  0.1239 -0.9450
 7847WAT     H232095   3.721   2.035   0.999 -1.5456 -0.6359 -0.4740
 7847WAT    EPW32096   3.676   2.079   1.046  0.1835 -0.0564  0.1270
 7848WAT      O32097   4.114   2.208   1.957  0.2473  0.2415 -0.1728
 7848WAT     H132098   4.059   2.169   1.901  1.6029 -0.2876 -1.1809
 7848WAT     H232099   4.110   2.292   1.934 -0.6162  0.3163  0.2035
 7848WAT    EPW32100   4.105   2.215   1.945 -0.6292 -0.6871  0.2058
 7849WAT      O32101   4.518   2.182   3.319 -0.3585 -0.1605  0.0279
 7849WAT     H132102   4.456   2.174   3.258 -0.6901  0.3943  0.2842
 7849WAT     H232103   4.476   2.170   3.394 -0.3595  1.1395  0.2607
 7849WAT    EPW32104   4.503   2.179   3.321  0.6345 -0.4001  0.0491
 7850WAT      O32105   5.976   0.258   3.405 -0.6102 -0.0128  0.3647
 7850WAT     H132106   6.018   0.315   3.456  0.1471 -0.3203  0.0869
 7850WAT     H232107   5.935   0.309   3.347  0.7317  0.2397 -0.3981
 7850WAT    EPW32108   5.976   0.274   3.404 -0.4191 -0.4612 -0.1983
 7851WAT      O32109   2.206   1.956   1.610 -0.3676  0.1665 -0.0924
 7851WAT     H132110   2.161   2.025   1.582 -3.3024 -2.0639 -1.4639
 7851WAT     H232111   2.197   1.960   1.696 -1.4783  0.9515 -0.2120
 7851WAT    EPW32112   2.198   1.967   1.618 -0.6414 -0.9190 -0.1152
 7852WAT      O32113   4.349   1.918   0.584  0.0157  0.2504 -0.4289
 7852WAT     H132114   4.405   1.917   0.517 -1.7904  2.7075 -2.1355
 7852WAT     H232115   4.306   1.993   0.574 -1.2956  0.0770  2.7602
 7852WAT    EPW32116   4.351   1.929   0.573 -0.0296 -0.4426 -0.2218
 7853WAT      O32117   4.464   2.211   1.955 -0.1585  0.4786 -0.7385
 7853WAT     H132118   4.536   2.242   1.994  0.9742  0.3835 -2.6195
 7853WAT     H232119   4.495   2.154   1.897 -1.8385 -0.3098 -0.9224
 7853WAT    EPW32120   4.479   2.208   1.952  0.2022 -0.5971 -0.3862
 7854WAT      O32121   3.471   2.840   2.589 -0.5503 -0.3439  0.1511
 7854WAT     H132122   3.415   2.885   2.639 -0.6908  0.0693 -0.3682
 7854WAT     H232123   3.548   2.877   2.606 -0.5069 -0.5922  0.5011
 7854WAT    EPW32124   3.474   2.852   2.599 -0.2049 -0.7176 -0.5212
 7855WAT      O32125   3.964   2.745   2.538 -0.3579 -0.0882  0.4110
 7855WAT     H132126   3.914   2.759   2.608 -2.3576  0.4808 -1.0402
 7855WAT     H232127   3.991   2.825   2.516 -1.2454 -0.0398 -0.5162
 7855WAT    EPW32128   3.961   2.759   2.545  0.3378 -0.3057 -0.4145
 7856WAT      O32129   6.125   1.976   3.100 -0.1120  0.3187 -0.1356
 7856WAT     H132130   6.144   1.962   3.015  1.3171  1.3143 -0.0287
 7856WAT     H232131   6.038   1.978   3.102 -0.1938 -0.7841 -1.3981
 7856WAT    EPW32132   6.115   1.975   3.087  0.2724  0.0192 -0.2956
 7857WAT      O32133   3.468   2.748   1.923  0.2175 -0.1785  0.0924
 7857WAT     H132134   3.453   2.833   1.933 -1.0091 -0.4018  0.4432
 7857WAT     H232135   3.412   2.724   1.860  0.4237 -0.7522  0.1157
 7857WAT    EPW32136   3.457   2.757   1.915  0.3573  0.1926  0.1777
 7858WAT      O32137   3.156   2.162   2.790  0.7483 -0.1432 -0.2052
 7858WAT     H132138   3.177   2.077   2.798 -2.2308 -1.0840 -1.0040
 7858WAT     H232139   3.148   2.189   2.873 -1.5593 -1.6562  0.1391
 7858WAT    EPW32140   3.158   2.153   2.804  0.5981 -0.0714 -0.2467
 7859WAT      O32141   3.628   0.654   2.704 -0.0934 -0.2460  0.3620
 7859WAT     H132142   3.590   0.610   2.768 -1.3035 -1.3983 -1.0566
 7859WAT     H232143   3.562   0.671   2.649  0.9310  0.4414 -0.7031
 7859WAT    EPW32144   3.613   0.650   2.705 -0.5312 -0.2960 -0.0771
 7860WAT      O32145   4.624   1.364   2.035  0.7107 -0.1783 -0.1647
 7860WAT     H132146   4.549   1.347   1.994 -0.6097  1.5727  1.3343
 7860WAT     H232147   4.611   1.444   2.069  2.8898 -0.2272  0.9675
 7860WAT    EPW32148   4.611   1.374   2.034  0.6219  0.3711  0.3539
 7861WAT      O32149   3.255   2.013   1.222  0.3715 -0.0378 -1.0075
 7861WAT     H132150   3.184   1.963   1.229  0.6157 -0.3307 -0.6313
 7861WAT     H232151   3.296   1.980   1.152  1.6281 -1.7642  0.4760
 7861WAT    EPW32152   3.251   2.001   1.213  0.6590  0.6493 -0.4536
 7862WAT      O32153   3.411   0.793   1.806 -0.3840  0.0323 -0.3757
 7862WAT     H132154   3.326   0.805   1.819 -0.2140  0.3602  0.5243
 7862WAT     H232155   3.448   0.847   1.863  0.4409  0.3275 -1.1613
 7862WAT    EPW32156   3.404   0.803   1.816  0.4320 -0.7287 -1.1469
 7863WAT      O32157   4.024   1.799   4.210 -0.0460  0.2539 -0.1259
 7863WAT     H132158   4.079   1.731   4.203  0.5973  0.7158  0.2902
 7863WAT     H232159   3.994   1.793   4.291  1.4301  1.4815  0.5703
 7863WAT    EPW32160   4.028   1.788   4.221  0.2829 -0.9611 -0.5140
 7864WAT      O32161   3.226   2.677   1.794  0.6833  0.4394  0.3720
 7864WAT     H132162   3.177   2.729   1.844 -1.6041 -0.3096 -0.9484
 7864WAT     H232163   3.204   2.597   1.820  0.2283  0.0681 -1.0924
 7864WAT    EPW32164   3.216   2.673   1.805 -0.0060  0.0057 -0.6074
 7865WAT      O32165   4.116   2.012   1.340 -0.4469 -0.4270  0.0076
 7865WAT     H132166   4.177   2.042   1.394 -1.2918  2.9092 -0.6645
 7865WAT     H232167   4.046   2.001   1.391 -0.1601 -1.2750  0.2381
 7865WAT    EPW32168   4.115   2.015   1.355  0.1364  0.2049  0.5370
 7866WAT      O32169   3.076   2.507   2.020  0.2790 -0.4422 -0.5997
 7866WAT     H132170   3.003   2.505   2.069 -0.2147 -0.5634 -1.3291
 7866WAT     H232171   3.134   2.464   2.069  0.5281  1.5515  1.0083
 7866WAT    EPW32172   3.074   2.500   2.035 -0.4663 -0.2210  0.2951
 7867WAT      O32173   5.335   2.202   2.367  0.3896  0.1451  0.1899
 7867WAT     H132174   5.311   2.263   2.425  0.0811  1.7878 -1.5786
 7867WAT     H232175   5.422   2.207   2.368  0.3754  0.3838  0.2682
 7867WAT    EPW32176   5.345   2.212   2.376  0.5271 -0.4146  0.0336
 7868WAT      O32177   3.576   1.886   1.931 -0.5541  0.0540 -0.0241
 7868WAT     H132178   3.639   1.944   1.948 -0.3451 -0.2845  0.3958
 7868WAT     H232179   3.503   1.929   1.950 -0.4303  0.3377 -0.1839
 7868WAT    EPW32180   3.575   1.901   1.937  0.2281 -0.1800 -0.6033
 7869WAT      O32181   4.056   1.514   2.520 -0.6694  0.5375 -0.2139
 7869WAT     H132182   3.985   1.482   2.480 -1.0228  1.1232 -0.0647
 7869WAT     H232183   4.065   1.463   2.590 -0.7436  0.2503 -0.4123
 7869WAT    EPW32184   4.047   1.502   2.525 -0.1216 -0.3146  0.0068
 7870WAT      O32185   4.342   2.358   1.759  0.0022  0.6206 -0.0614
 7870WAT     H132186   4.374   2.309   1.823  1.4723  0.8083 -0.6266
 7870WAT     H232187   4.292   2.302   1.714  0.5311  0.0028  0.1104
 7870WAT    EPW32188   4.339   2.342   1.762 -0.6704 -0.4161  0.1726
 7871WAT      O32189   2.921   2.672   2.853  0.3532  0.0930 -0.0984
 7871WAT     H132190   2.956   2.701   2.778 -0.7412 -0.5299 -0.8649
 7871WAT     H232191   2.882   2.598   2.831 -1.2342  0.6252  0.7792
 7871WAT    EPW32192   2.920   2.666   2.839  0.3890  0.0365 -0.5410
 7872WAT      O32193   7.153   2.968   2.613 -0.3626  1.2949  0.0085
 7872WAT     H132194   7.117   2.928   2.544  0.1460  0.3416  0.2735
 7872WAT     H232195   7.234   2.985   2.587  0.1570  0.0157  0.6873
 7872WAT    EPW32196   7.160   2.964   2.599 -0.6896 -0.5975  0.2678
 7873WAT      O32197   4.604   2.604   2.241  0.1771  0.1514 -0.0236
 7873WAT     H132198   4.586   2.583   2.324  0.5372 -0.3694 -0.0669
 7873WAT     H232199   4.592   2.690   2.238 -0.5820  0.0673  0.3751
 7873WAT    EPW32200   4.600   2.614   2.253 -0.1121  0.0185 -0.3590
 7874WAT      O32201   3.869   1.948   2.652 -0.0259  0.6116  0.2513
 7874WAT     H132202   3.884   2.031   2.630  0.9845  0.5662  0.7337
 7874WAT     H232203   3.818   1.954   2.722 -0.4893  0.8076 -0.0966
 7874WAT    EPW32204   3.864   1.961   2.659 -0.3712 -0.2907 -0.1301
 7875WAT      O32205   4.679   3.722   0.593  0.0003  0.1261 -0.9372
 7875WAT     H132206   4.754   3.679   0.581 -0.0831 -0.5259  0.7036
 7875WAT     H232207   4.696   3.776   0.659 -0.7847  0.4281 -0.9709
 7875WAT    EPW32208   4.693   3.724   0.601 -0.6918 -0.2152  0.1547
 7876WAT      O32209   1.839   1.653   1.791 -0.2448 -0.0115  0.1147
 7876WAT     H132210   1.818   1.586   1.844 -0.4234 -0.8273 -0.9598
 7876WAT     H232211   1.904   1.620   1.742  0.1438  0.8421  0.0482
 7876WAT    EPW32212   1.845   1.638   1.792 -0.1520 -0.5181  0.1602
 7877WAT      O32213   3.572   4.087   1.137  0.2875  0.7026 -0.1005
 7877WAT     H132214   3.486   4.090   1.149  0.2526  0.2570 -0.2279
 7877WAT     H232215   3.604   4.123   1.210  0.0559 -1.6535  1.2460
 7877WAT    EPW32216   3.564   4.093   1.150  0.2267  0.7087  0.3866
 7878WAT      O32217   3.944   1.455   1.605 -0.1442  0.1871  0.4549
 7878WAT     H132218   3.901   1.490   1.671 -0.5134 -1.1151  0.9475
 7878WAT     H232219   3.917   1.372   1.605 -0.7594  0.3137 -1.8055
 7878WAT    EPW32220   3.934   1.448   1.614 -0.0833  0.2877 -0.1135
 7879WAT      O32221   4.989   0.796   1.439  0.4512 -1.0286  0.3123
 7879WAT     H132222   5.043   0.865   1.432 -0.0513 -0.1115  3.6319
 7879WAT     H232223   4.919   0.820   1.393  0.3337  0.6835  1.2945
 7879WAT    EPW32224   4.987   0.810   1.431  0.3083 -0.4148 -0.7729
 7880WAT      O32225   2.840   1.625   2.443  1.0671 -0.0951  0.1106
 7880WAT     H132226   2.886   1.673   2.500 -0.0649 -0.6814  1.6042
 7880WAT     H232227   2.776   1.591   2.493  1.2446 -2.3540 -1.0808
 7880WAT    EPW32228   2.837   1.627   2.459  0.6066  0.1530 -0.0802
 7881WAT      O32229   4.703   2.532   2.914  0.2107  0.1254 -0.0046
 7881WAT     H132230   4.720   2.456   2.953 -0.5147  0.1883  0.4531
 7881WAT     H232231   4.782   2.565   2.899  0.5211 -0.2369  0.7685
 7881WAT    EPW32232   4.717   2.526   2.918 -0.3318  0.2148  1.2177
 7882WAT      O32233   1.490   0.701   0.007  0.0843  0.0105 -0.3304
 7882WAT     H132234   1.530   0.773  -0.021  2.1202 -0.5582  0.9433
 7882WAT     H232235   1.556   0.647   0.025 -1.2879 -1.2573  1.1723
 7882WAT    EPW32236   1.505   0.704   0.005 -0.3792  0.7208  0.0543
 7883WAT      O32237   3.410   1.907   2.563 -0.3647  0.6820 -0.3137
 7883WAT     H132238   3.485   1.874   2.532 -0.6582 -1.3723  0.9913
 7883WAT     H232239   3.399   1.979   2.516  0.7640 -0.6480 -2.8261
 7883WAT    EPW32240   3.419   1.913   2.552 -0.1794 -0.0685  0.5742
 7884WAT      O32241   5.705   1.164   3.195 -0.1750 -0.1630 -0.5732
 7884WAT     H132242   5.649   1.202   3.140 -0.4992 -0.6544 -0.5832
 7884WAT     H232243   5.682   1.195   3.273 -0.6979 -0.6474 -0.5332
 7884WAT    EPW32244   5.693   1.174   3.198 -0.8201  0.1912  0.1380
 7885WAT      O32245   4.922   1.837   0.165 -0.1671 -0.3031  0.2999
 7885WAT     H132246   4.930   1.840   0.078 -1.9250  2.5276  0.0660
 7885WAT     H232247   4.979   1.897   0.193  0.4070 -1.2145  1.1254
 7885WAT    EPW32248   4.931   1.847   0.156  0.3085 -0.4770 -0.0305
 7886WAT      O32249   3.296   2.358   2.085 -0.0899  0.4085 -0.1725
 7886WAT     H132250   3.370   2.360   2.038  0.0284  2.1618  0.0178
 7886WAT     H232251   3.296   2.278   2.120  1.2808  0.0794 -0.8585
 7886WAT    EPW32252   3.307   2.346   2.084 -0.3366 -0.5322 -0.6056
 7887WAT      O32253   3.769   2.355   2.051  0.3782  0.1486 -0.1290
 7887WAT     H132254   3.831   2.405   2.015  1.1424  0.0692  0.9973
 7887WAT     H232255   3.699   2.407   2.054  0.0760 -0.0605 -2.2877
 7887WAT    EPW32256   3.768   2.370   2.046  0.1024  0.3630 -0.5375
 7888WAT      O32257   3.797   1.462   3.203 -0.0499 -0.5087  0.1661
 7888WAT     H132258   3.743   1.397   3.226  0.7152 -0.7069  1.4880
 7888WAT     H232259   3.822   1.439   3.123 -0.6327 -1.2855  0.1832
 7888WAT    EPW32260   3.793   1.449   3.195  0.0406 -0.6549  0.7080
 7889WAT      O32261   5.375   3.348   1.700 -0.0881  0.4322  0.5403
 7889WAT     H132262   5.384   3.322   1.617  1.3845  1.8090  0.2182
 7889WAT     H232263   5.404   3.281   1.746  0.1958  0.0943 -0.1136
 7889WAT    EPW32264   5.380   3.334   1.695 -0.1904  0.2694 -0.1493
 7890WAT      O32265   3.744   1.462   2.140 -0.1717  1.1085  0.6102
 7890WAT     H132266   3.658   1.450   2.135 -0.0668  0.0262  0.9960
 7890WAT     H232267   3.752   1.533   2.189 -0.8531  1.8182 -0.2808
 7890WAT    EPW32268   3.733   1.471   2.147 -0.2156 -0.1600  0.2352
 7891WAT      O32269   6.489   1.607   2.915  0.1571 -0.7498  0.3793
 7891WAT     H132270   6.477   1.525   2.941 -2.5040 -0.1711  1.3084
 7891WAT     H232271   6.420   1.623   2.864  2.4759 -0.1369 -2.8937
 7891WAT    EPW32272   6.477   1.597   2.912  0.1832 -0.7436 -0.7741
 7892WAT      O32273   3.198   2.364   2.560 -0.1778 -0.3731  0.6243
 7892WAT     H132274   3.171   2.324   2.632 -0.0912 -0.8504  0.3945
 7892WAT     H232275   3.252   2.427   2.590 -0.4388 -0.3247  0.9907
 7892WAT    EPW32276   3.202   2.368   2.575  0.3853 -0.0282  0.0891
 7893WAT      O32277   3.765   2.622   2.872 -0.4674 -0.3642  0.0581
 7893WAT     H132278   3.789   2.705   2.857 -0.2810 -0.6693 -1.5562
 7893WAT     H232279   3.715   2.627   2.943 -0.9860  1.2242 -0.3794
 7893WAT    EPW32280   3.761   2.635   2.880  0.0530 -0.2725 -0.6739
 7894WAT      O32281   6.844   1.453   2.752  0.2152  0.4406  0.1180
 7894WAT     H132282   6.902   1.421   2.810  0.8892 -1.5362 -1.5184
 7894WAT     H232283   6.854   1.539   2.759  2.8025  0.2040  0.5044
 7894WAT    EPW32284   6.854   1.461   2.762 -0.4856  0.0853  1.0196
 7895WAT      O32285   3.981   2.390   2.221  0.1627 -0.3936 -0.2917
 7895WAT     H132286   3.899   2.371   2.199  0.5517 -2.2160 -0.3198
 7895WAT     H232287   4.028   2.328   2.181  1.3351 -0.8466  1.6422
 7895WAT    EPW32288   3.976   2.378   2.212  0.1996  0.1725 -0.7295
 7896WAT      O32289   3.969   2.127   2.917  0.9059  0.5358 -0.1927
 7896WAT     H132290   3.967   2.206   2.880 -0.2149  0.1843 -0.9387
 7896WAT     H232291   3.995   2.143   2.999  2.6610  1.4253 -0.8778
 7896WAT    EPW32292   3.973   2.141   2.924 -0.1626  0.6497  0.3307
 7897WAT      O32293   3.120   7.303   1.236  0.7412  0.2662  0.0735
 7897WAT     H132294   3.043   7.273   1.264  1.2819  0.4222  1.9300
 7897WAT     H232295   3.100   7.377   1.194 -0.0577  1.2055  1.9610
 7897WAT    EPW32296   3.106   7.310   1.234 -0.9569 -0.7638 -0.7416
 7898WAT      O32297   5.249   3.218   3.055 -0.1399 -0.0862  0.3086
 7898WAT     H132298   5.299   3.229   3.126 -1.7854  2.1180  1.2425
 7898WAT     H232299   5.172   3.193   3.087  0.1784 -3.4396 -1.1058
 7898WAT    EPW32300   5.245   3.216   3.070 -0.0831  0.2291 -0.2004
 7899WAT      O32301   5.173   3.467   2.923  0.9351 -0.0369 -0.3390
 7899WAT     H132302   5.221   3.401   2.953  0.4172 -1.0318 -1.6140
 7899WAT     H232303   5.155   3.514   2.995  2.3885 -0.5458  0.3903
 7899WAT    EPW32304   5.177   3.465   2.938 -0.0019  0.9116 -0.7876
 7900WAT      O32305   6.414   2.404   2.998  0.4949  0.3029 -0.0287
 7900WAT     H132306   6.426   2.358   3.071  0.7549  1.4646  0.6795
 7900WAT     H232307   6.494   2.423   2.971  0.4048 -0.2159 -0.6989
 7900WAT    EPW32308   6.427   2.400   3.004 -0.6437  0.1128 -0.0124
 7901WAT      O32309   3.867   1.688   1.328  0.5315 -0.5160 -0.3427
 7901WAT     H132310   3.911   1.763   1.336 -1.0950  0.3988  0.6610
 7901WAT     H232311   3.825   1.681   1.404  0.5895 -2.4473 -0.4439
 7901WAT    EPW32312   3.867   1.698   1.341  0.3610  0.1516 -0.2008
 7902WAT      O32313   4.734   1.987   1.589  0.1484 -0.1550  0.3842
 7902WAT     H132314   4.743   1.903   1.568  1.3444 -0.0190  0.2495
 7902WAT     H232315   4.712   1.985   1.673  0.0161 -0.6143  0.3406
 7902WAT    EPW32316   4.732   1.974   1.599 -0.0607  0.0239 -0.4397
 7903WAT      O32317   7.163   0.502   3.050  0.7631  0.1562 -0.0575
 7903WAT     H132318   7.160   0.534   2.969  1.8698 -0.5630 -0.4026
 7903WAT     H232319   7.133   0.420   3.040  2.1955 -0.3991 -0.0137
 7903WAT    EPW32320   7.158   0.495   3.037 -0.1736 -1.0259 -0.7600
 7904WAT      O32321   6.978   2.040   2.540  0.5932 -1.1677  0.1635
 7904WAT     H132322   7.015   2.116   2.518  1.9531 -2.1811 -1.2450
 7904WAT     H232323   7.001   2.029   2.624 -1.7323  1.0888  1.2607
 7904WAT    EPW32324   6.987   2.049   2.549  0.2479  0.1344  0.3440
 7905WAT      O32325   3.987   1.770   1.913 -0.8593  0.4341 -0.2356
 7905WAT     H132326   4.069   1.744   1.901 -1.2367 -0.2444 -1.4924
 7905WAT     H232327   3.983   1.785   1.999  0.8982  1.6655 -0.3121
 7905WAT    EPW32328   3.998   1.769   1.924 -0.4053  0.7663 -1.0781
 7906WAT      O32329   4.325   2.867   2.789  0.2187  0.3325 -0.0852
 7906WAT     H132330   4.347   2.919   2.722  0.8939  0.5129  0.2563
 7906WAT     H232331   4.390   2.808   2.791 -0.0559  0.0322  0.1072
 7906WAT    EPW32332   4.338   2.866   2.780  0.2466  0.2949  0.0472
 7907WAT      O32333   3.799   2.593   2.349 -0.0896 -0.1823 -0.0143
 7907WAT     H132334   3.844   2.560   2.416  0.6903  0.0860 -0.3901
 7907WAT     H232335   3.840   2.561   2.279 -1.6122 -1.4376 -0.4028
 7907WAT    EPW32336   3.812   2.584   2.349  0.4742  0.2367  0.0287
 7908WAT      O32337   4.456   2.329   2.875 -0.2555  0.2332 -0.1117
 7908WAT     H132338   4.524   2.319   2.928 -1.2685  0.5188  1.3019
 7908WAT     H232339   4.478   2.398   2.826  0.6185  0.0827  0.0477
 7908WAT    EPW32340   4.469   2.338   2.876  0.4415 -0.1308 -0.7085
 7909WAT      O32341   5.603   1.985   1.752 -0.0094  0.4441 -0.4793
 7909WAT     H132342   5.594   2.067   1.722 -1.7742  0.4322 -0.0555
 7909WAT     H232343   5.546   1.939   1.706  0.1030 -0.3236  0.1202
 7909WAT    EPW32344   5.593   1.990   1.741  0.6217  0.1297  0.4957
 7910WAT      O32345   4.011   0.516   2.752 -0.1306 -0.3839 -0.0776
 7910WAT     H132346   4.024   0.430   2.757 -0.6661 -0.3839  1.9220
 7910WAT     H232347   3.981   0.538   2.830  1.0276  1.8239 -0.1515
 7910WAT    EPW32348   4.009   0.507   2.764  0.0979 -0.2791  0.0963
 7911WAT      O32349   4.531   3.098   2.165  0.3358  0.0728  0.0251
 7911WAT     H132350   4.502   3.159   2.109  1.0747  0.1222 -0.3158
 7911WAT     H232351   4.497   3.123   2.241 -0.7090 -0.0089 -0.3871
 7911WAT    EPW32352   4.522   3.111   2.168 -0.4629 -0.1310 -0.3247
 7912WAT      O32353   4.792   2.378   1.822  0.3373  0.5110  0.0347
 7912WAT     H132354   4.819   2.455   1.790  1.5489 -0.2667 -0.8681
 7912WAT     H232355   4.753   2.401   1.897  1.1220  1.9632  0.0516
 7912WAT    EPW32356   4.790   2.393   1.828  0.3047 -0.0132 -0.5540
 7913WAT      O32357   4.544   2.725   2.689  0.2556 -0.0254  0.1183
 7913WAT     H132358   4.583   2.704   2.764  1.0509 -1.2606 -0.6187
 7913WAT     H232359   4.593   2.790   2.657  0.9580 -0.6917 -0.1754
 7913WAT    EPW32360   4.557   2.732   2.696  0.3207 -0.2910 -0.2514
 7914WAT      O32361   5.225   1.950   2.411  0.2354 -0.3729 -0.0037
 7914WAT     H132362   5.253   2.029   2.385  1.0284 -0.6208  0.0974
 7914WAT     H232363   5.175   1.924   2.345  1.0875 -0.3797 -0.6665
 7914WAT    EPW32364   5.222   1.958   2.398  0.2390  0.4938 -0.3122
 7915WAT      O32365   5.627   2.665   2.951 -0.1666  0.1054  0.4137
 7915WAT     H132366   5.661   2.735   2.989  0.2628 -1.1460  2.5078
 7915WAT     H232367   5.668   2.598   2.991  0.3848 -1.3552 -2.3438
 7915WAT    EPW32368   5.638   2.665   2.962 -0.3769 -0.5258 -0.5146
 7916WAT      O32369   3.634   3.660   2.093  0.0555 -0.1895  0.0539
 7916WAT     H132370   3.686   3.683   2.160  0.9196  1.4589 -1.1141
 7916WAT     H232371   3.601   3.736   2.067 -0.9410 -0.9176 -0.8644
 7916WAT    EPW32372   3.637   3.675   2.099  0.1141 -0.2268  0.3273
 7917WAT      O32373   3.525   1.835   1.157  0.1237  0.1243 -0.6387
 7917WAT     H132374   3.573   1.901   1.124  1.1697 -0.4423 -0.2901
 7917WAT     H232375   3.578   1.766   1.149 -0.2999 -0.3557  0.5693
 7917WAT    EPW32376   3.540   1.835   1.151  0.2251  0.0425 -0.1594
 7918WAT      O32377   4.477   0.527   2.931  0.1655  0.2439  0.1847
 7918WAT     H132378   4.551   0.565   2.906  0.2146 -0.6022 -1.0394
 7918WAT     H232379   4.490   0.443   2.913  0.4039 -0.6086  3.6049
 7918WAT    EPW32380   4.490   0.520   2.924  0.2335 -0.0705  0.0879
 7919WAT      O32381   6.402   2.281   3.326 -0.2310 -0.1474 -0.3907
 7919WAT     H132382   6.326   2.269   3.285 -0.9656 -1.6063  1.2685
 7919WAT     H232383   6.460   2.241   3.275 -0.4556  1.2293 -1.8235
 7919WAT    EPW32384   6.400   2.274   3.312 -0.4950 -0.5744 -1.4261
 7920WAT      O32385   4.461   1.736   2.599 -0.6312 -0.4222 -0.0714
 7920WAT     H132386   4.468   1.705   2.518 -0.3031  1.0697 -0.6402
 7920WAT     H232387   4.539   1.771   2.615 -1.0660  0.3419  0.4313
 7920WAT    EPW32388   4.473   1.736   2.589  0.2455 -0.1902  0.0185
 7921WAT      O32389   5.661   1.308   3.419  0.8110  0.0821  0.3432
 7921WAT     H132390   5.722   1.361   3.452  0.5993 -1.2754  3.2497
 7921WAT     H232391   5.586   1.344   3.446  0.5183 -0.2012 -0.0756
 7921WAT    EPW32392   5.659   1.321   3.428  0.7115  0.4819  0.3221
 7922WAT      O32393   2.590   1.604   1.936 -0.6300 -0.6802  0.7100
 7922WAT     H132394   2.533   1.546   1.968 -2.2775  0.4282 -0.0813
 7922WAT     H232395   2.558   1.681   1.962  0.0133  0.0242 -0.4778
 7922WAT    EPW32396   2.577   1.607   1.945 -0.1601 -1.1232  0.4279
 7923WAT      O32397   5.290   0.142   1.419  0.5318 -0.5389  0.1224
 7923WAT     H132398   5.314   0.102   1.493 -1.0412 -0.5324  0.6797
 7923WAT     H232399   5.363   0.180   1.391  1.0034  0.0900  2.0770
 7923WAT    EPW32400   5.305   0.141   1.426 -0.3088  0.5964 -0.5478
 7924WAT      O32401   4.657   1.977   1.886  0.2761  0.4940 -0.0702
 7924WAT     H132402   4.611   1.906   1.904  0.7350 -0.6829 -3.0102
 7924WAT     H232403   4.727   1.970   1.938 -0.4873 -0.2818  0.8833
 7924WAT    EPW32404   4.661   1.966   1.897  0.2400  0.0457  0.2836
 7925WAT      O32405   3.555   2.466   2.414  0.5898 -0.2494  0.0337
 7925WAT     H132406   3.625   2.512   2.390 -0.0314  1.4331  1.1823
 7925WAT     H232407   3.493   2.493   2.358  0.8580 -1.8623 -1.0933
 7925WAT    EPW32408   3.556   2.477   2.402  0.7241 -1.0959 -0.2296
 7926WAT      O32409   2.779   1.414   3.331 -0.4971 -0.3277  0.8059
 7926WAT     H132410   2.798   1.406   3.415  2.4760 -0.3402  0.2576
 7926WAT     H232411   2.763   1.500   3.321 -0.2399 -0.2270  1.2744
 7926WAT    EPW32412   2.779   1.426   3.342 -0.0813 -1.0119 -0.0182
 7927WAT      O32413   3.933   3.090   2.191  0.6424 -0.0274 -0.5370
 7927WAT     H132414   3.927   3.043   2.264  1.3801  0.2168 -0.3144
 7927WAT     H232415   4.000   3.143   2.206 -0.1783  1.1175 -0.7770
 7927WAT    EPW32416   3.942   3.091   2.204  0.5712 -0.4954 -0.2946
 7928WAT      O32417   1.954   0.938   2.088  0.3680 -0.2999 -0.6204
 7928WAT     H132418   1.892   0.991   2.120  0.3330 -0.2966 -0.6949
 7928WAT     H232419   1.948   0.867   2.139 -0.7025 -0.9236 -1.5563
 7928WAT    EPW32420   1.944   0.935   2.100 -0.0418 -0.4818 -0.6092
 7929WAT      O32421   3.374   3.086   1.489  0.2430 -0.3394  0.5752
 7929WAT     H132422   3.443   3.093   1.542  0.8846 -2.0750  0.0179
 7929WAT     H232423   3.409   3.066   1.412 -0.7994  0.3925 -0.1141
 7929WAT    EPW32424   3.389   3.084   1.486  0.1463 -0.3382  0.4182
 7930WAT      O32425   4.564   1.910   1.030 -0.5355  0.0689  0.2730
 7930WAT     H132426   4.530   1.990   1.032  0.1317  0.3675  0.0199
 7930WAT     H232427   4.505   1.863   0.986  0.3265  1.0525 -2.0831
 7930WAT    EPW32428   4.550   1.915   1.024 -0.9305 -0.2867 -1.1639
 7931WAT      O32429   4.201   2.521   2.871 -0.2271  0.1129  0.4542
 7931WAT     H132430   4.259   2.585   2.879 -0.2404  0.2093 -0.1755
 7931WAT     H232431   4.239   2.454   2.911  0.8372 -0.1465 -0.9029
 7931WAT    EPW32432   4.215   2.520   2.878 -0.3054 -0.4597 -0.2383
 7932WAT      O32433   5.862   0.843   2.865  0.2455  0.3293 -0.0409
 7932WAT     H132434   5.856   0.851   2.952 -1.0519  2.0742 -0.2439
 7932WAT     H232435   5.946   0.860   2.849  0.2756  1.0112  0.7931
 7932WAT    EPW32436   5.874   0.847   2.876  0.2055  0.3593 -0.0973
 7933WAT      O32437   5.299   2.181   1.953 -0.0451  0.1348 -0.5974
 7933WAT     H132438   5.326   2.204   1.874  0.6453  0.7202 -0.1986
 7933WAT     H232439   5.366   2.134   1.985 -0.1584  0.2298 -0.2143
 7933WAT    EPW32440   5.313   2.177   1.946  0.2780 -0.1085 -0.4147
 7934WAT      O32441   5.243   2.410   2.787  0.3635 -0.0328 -0.1806
 7934WAT     H132442   5.287   2.482   2.811 -0.4999  0.3713  0.2786
 7934WAT     H232443   5.302   2.347   2.793  0.5855  0.2694  1.7564
 7934WAT    EPW32444   5.258   2.412   2.792 -0.3297  0.8341 -0.6045
 7935WAT      O32445   4.667   2.865   2.239 -0.0316  0.1479 -0.4680
 7935WAT     H132446   4.659   2.905   2.316  1.2689 -0.5438  0.0597
 7935WAT     H232447   4.633   2.921   2.183  0.2497  1.2754  0.4542
 7935WAT    EPW32448   4.661   2.879   2.242  0.2643  0.1633 -0.4239
 7936WAT      O32449   2.200   0.539   2.338  0.4089  0.5327  0.2437
 7936WAT     H132450   2.271   0.511   2.379 -1.7866 -3.0461  2.1826
 7936WAT     H232451   2.135   0.502   2.384 -2.5222  0.0838 -3.7745
 7936WAT    EPW32452   2.201   0.529   2.351  0.5242 -0.6874 -0.1110
 7937WAT      O32453   3.250   1.688   2.041 -0.1765  0.8340  0.2447
 7937WAT     H132454   3.320   1.636   2.047 -0.6346  0.0527 -0.8387
 7937WAT     H232455   3.212   1.680   2.119  0.4836  0.5996  0.5492
 7937WAT    EPW32456   3.255   1.679   2.053  0.2658  0.2504 -0.5708
 7938WAT      O32457   3.637   1.926   1.664 -0.4432  0.3134  0.0752
 7938WAT     H132458   3.603   1.912   1.743 -3.4005  0.7180 -0.9648
 7938WAT     H232459   3.605   2.004   1.642  0.6405  0.3977 -1.3685
 7938WAT    EPW32460   3.627   1.936   1.673 -1.0951  0.2383  0.8037
 7939WAT      O32461   3.040   1.226   2.226 -0.4093 -0.2242 -0.0781
 7939WAT     H132462   3.060   1.305   2.257 -0.0081 -0.3614  0.0208
 7939WAT     H232463   2.990   1.243   2.156 -0.8478  0.0969  0.3130
 7939WAT    EPW32464   3.036   1.240   2.220  0.3708 -0.2968 -0.0734
 7940WAT      O32465   4.840   1.727   3.196  0.0047  0.0091 -0.6116
 7940WAT     H132466   4.760   1.703   3.170 -0.1877 -1.3465  1.0746
 7940WAT     H232467   4.825   1.771   3.270  0.8115 -0.0787 -0.3894
 7940WAT    EPW32468   4.826   1.730   3.203 -0.0031  0.2526  0.9244
 7941WAT      O32469   4.995   1.688   2.509 -0.0951 -0.2658  0.0156
 7941WAT     H132470   5.080   1.690   2.488 -0.1755 -1.5904 -0.5466
 7941WAT     H232471   4.955   1.711   2.434 -0.2762 -1.9888 -0.4743
 7941WAT    EPW32472   5.002   1.691   2.495 -0.1123  0.1669 -0.0078
 7942WAT      O32473   4.054   2.134   3.531 -0.0399  0.2295  0.3282
 7942WAT     H132474   4.009   2.078   3.481 -1.7668  0.7044  1.2405
 7942WAT     H232475   4.057   2.207   3.483 -0.1386  0.1571  0.2110
 7942WAT    EPW32476   4.048   2.136   3.517  0.5347  0.2040  0.3560
 7943WAT      O32477   2.317   1.654   1.045 -0.0669 -0.6024 -0.1734
 7943WAT     H132478   2.263   1.592   1.016  0.1394 -0.6731 -0.4042
 7943WAT     H232479   2.394   1.615   1.047  0.2680 -0.0509 -1.3442
 7943WAT    EPW32480   2.320   1.639   1.041  0.6659  0.5387  0.1155
 7944WAT      O32481   4.286   2.219   2.653  0.4713  0.0714 -0.5825
 7944WAT     H132482   4.309   2.136   2.638 -0.0842 -0.1502 -0.2614
 7944WAT     H232483   4.325   2.238   2.728  0.7014  0.1408 -0.7204
 7944WAT    EPW32484   4.295   2.209   2.662  0.3120  0.6508 -0.6237
 7945WAT      O32485   6.177   1.362   2.891  0.0881 -0.0613  0.3599
 7945WAT     H132486   6.091   1.379   2.884  0.1729 -0.1045 -0.9418
 7945WAT     H232487   6.200   1.340   2.810  1.3176 -0.1531  0.7227
 7945WAT    EPW32488   6.167   1.362   2.878  0.1422  0.9038  0.0580
 7946WAT      O32489   2.989   3.075   1.608  0.4705 -0.1087 -0.7007
 7946WAT     H132490   3.025   2.997   1.595  0.1163 -0.4172  0.1380
 7946WAT     H232491   3.058   3.130   1.610  0.7356 -0.4277 -1.0355
 7946WAT    EPW32492   3.005   3.072   1.606  0.7010 -0.8235 -0.5644
 7947WAT      O32493   3.635   1.089   1.776 -0.2396 -0.3549 -0.1682
 7947WAT     H132494   3.579   1.060   1.835 -0.3174 -0.3207 -0.2255
 7947WAT     H232495   3.610   1.172   1.762  0.7393  0.1486  0.9160
 7947WAT    EPW32496   3.623   1.097   1.782 -0.0362 -0.2123 -0.2481
 7948WAT      O32497   4.445   2.664   2.968 -0.2421 -0.3433  0.1342
 7948WAT     H132498   4.508   2.605   2.972  0.0216 -0.5920 -3.9292
 7948WAT     H232499   4.419   2.672   3.051  2.5837 -2.9188  1.4444
 7948WAT    EPW32500   4.450   2.657   2.981 -0.0898 -0.3566  0.3680
 7949WAT      O32501   4.589   2.095   2.511  0.1092  0.0075  0.0477
 7949WAT     H132502   4.502   2.087   2.512 -0.0319  0.8892  2.8179
 7949WAT     H232503   4.615   2.040   2.574  1.3713  1.2052  0.6109
 7949WAT    EPW32504   4.580   2.086   2.520  0.4858 -0.9178  0.6984
 7950WAT      O32505   4.376   2.620   1.688  0.1410 -0.1413  0.6018
 7950WAT     H132506   4.363   2.645   1.771 -0.9863 -0.6926  0.6043
 7950WAT     H232507   4.381   2.534   1.693 -0.7848 -0.2415  0.0021
 7950WAT    EPW32508   4.375   2.611   1.701 -0.1535  0.6469 -0.3311
 7951WAT      O32509   2.920   2.125   2.089  0.3617  0.2267 -0.3465
 7951WAT     H132510   2.916   2.042   2.116  1.1171  0.5742  0.9595
 7951WAT     H232511   2.837   2.147   2.078 -0.0106 -0.0652  1.5041
 7951WAT    EPW32512   2.907   2.116   2.092  1.2169 -0.0315  0.1402
 7952WAT      O32513   3.157   2.316   1.185 -0.2881  0.0083 -0.4201
 7952WAT     H132514   3.154   2.267   1.257  1.1332 -1.1109 -1.0796
 7952WAT     H232515   3.076   2.310   1.153 -0.3166 -1.3867 -0.1311
 7952WAT    EPW32516   3.145   2.308   1.191  0.5036 -0.2833 -0.4575
 7953WAT      O32517   2.310   2.862   1.889  0.5492  0.1980  0.1318
 7953WAT     H132518   2.235   2.831   1.920  0.5965 -2.1794 -1.8201
 7953WAT     H232519   2.323   2.935   1.936 -2.8339  0.6341  0.6626
 7953WAT    EPW32520   2.301   2.868   1.901  0.9195  0.7461 -0.2414
 7954WAT      O32521   6.362   2.087   2.757  0.1383  0.0916  0.2867
 7954WAT     H132522   6.363   2.174   2.767 -1.6158  0.0031  1.7138
 7954WAT     H232523   6.371   2.076   2.671 -0.7224  1.7609 -0.0570
 7954WAT    EPW32524   6.363   2.098   2.746 -0.6590 -0.0118 -0.3489
 7955WAT      O32525   5.517   1.504   2.797 -0.9407 -0.3088 -0.5781
 7955WAT     H132526   5.501   1.467   2.720 -1.4205  0.9492 -1.1076
 7955WAT     H232527   5.438   1.529   2.824 -0.7554 -0.6054  0.2590
 7955WAT    EPW32528   5.503   1.502   2.790 -0.4096  0.4453  0.2860
 7956WAT      O32529   4.439   2.960   2.516  0.4267  0.2201 -0.3191
 7956WAT     H132530   4.516   2.984   2.550  1.5179 -1.1177 -1.7110
 7956WAT     H232531   4.409   3.034   2.481  1.2661  0.6787 -0.1229
 7956WAT    EPW32532   4.446   2.975   2.516  0.0683 -0.6128 -0.1176
 7957WAT      O32533   4.183   1.765   3.241 -0.2126  0.5756  0.0692
 7957WAT     H132534   4.149   1.714   3.178  2.7370 -0.6796 -0.6813
 7957WAT     H232535   4.242   1.813   3.198  0.1908  1.4180  1.5250
 7957WAT    EPW32536   4.187   1.764   3.225  0.8947  0.6065 -0.0625
 7958WAT      O32537   2.832   1.458   1.123  0.7045  0.5793  0.2928
 7958WAT     H132538   2.878   1.412   1.064  0.0468  1.0113 -0.5865
 7958WAT     H232539   2.778   1.399   1.157  1.6144  0.1529  1.0500
 7958WAT    EPW32540   2.831   1.443   1.119  0.9932  0.2840 -0.2174
 7959WAT      O32541   5.675   3.074   2.885 -0.1764 -0.3609 -0.3788
 7959WAT     H132542   5.602   3.027   2.891  0.8971 -2.3734 -1.6747
 7959WAT     H232543   5.726   3.039   2.947 -0.1730  0.8294  0.3191
 7959WAT    EPW32544   5.672   3.062   2.895  0.4049  0.7487 -0.3391
 7960WAT      O32545   4.957   3.286   1.419 -0.2306  0.1186 -0.1348
 7960WAT     H132546   4.935   3.230   1.356 -2.0413  0.3753  0.2043
 7960WAT     H232547   5.011   3.342   1.379 -3.0380  1.6141 -2.1996
 7960WAT    EPW32548   4.962   3.286   1.403  0.5611  0.0398 -0.2175
 7961WAT      O32549   2.861   1.860   2.094  0.7574  0.1486 -0.0886
 7961WAT     H132550   2.917   1.817   2.146  1.4731 -0.2279 -1.1466
 7961WAT     H232551   2.783   1.840   2.128  1.1461 -1.0121  0.1703
 7961WAT    EPW32552   2.858   1.850   2.107 -0.3099  0.3139  0.6012
 7962WAT      O32553   3.976   7.942   2.022  0.1158  0.2355  0.1915
 7962WAT     H132554   3.894   7.968   2.008  0.0339  0.6233  1.2446
 7962WAT     H232555   3.990   7.882   1.961 -0.4720  1.1673 -0.8879
 7962WAT    EPW32556   3.966   7.937   2.011 -0.0150 -0.5075  0.1006
 7963WAT      O32557   5.554   1.478   2.326  0.2108 -0.3477  0.1962
 7963WAT     H132558   5.541   1.564   2.322  0.5080 -0.3382 -1.5084
 7963WAT     H232559   5.562   1.462   2.411  3.5480  1.8564  0.4998
 7963WAT    EPW32560   5.553   1.488   2.338 -0.3594  1.1701 -0.6194
 7964WAT      O32561   3.671   1.269   2.696 -0.4656  0.2462  0.1808
 7964WAT     H132562   3.649   1.280   2.779 -0.5481 -1.1582  0.3593
 7964WAT     H232563   3.705   1.189   2.693 -0.3900  0.2937 -1.1184
 7964WAT    EPW32564   3.673   1.259   2.708 -0.9750  0.4328 -0.0429
 7965WAT      O32565   3.270   3.244   3.117 -0.1909  0.3275 -0.1197
 7965WAT     H132566   3.275   3.325   3.149  0.9404  0.9634 -1.7719
 7965WAT     H232567   3.343   3.206   3.147 -0.1196  0.2932 -0.3405
 7965WAT    EPW32568   3.282   3.250   3.126 -0.0400 -0.3357 -0.5934
 7966WAT      O32569   1.694   2.629   1.688 -0.0708 -0.1186 -0.5339
 7966WAT     H132570   1.676   2.709   1.716 -0.7002 -0.0462 -1.1138
 7966WAT     H232571   1.773   2.612   1.721  0.1591  0.8226 -0.5934
 7966WAT    EPW32572   1.703   2.638   1.697  0.0982 -0.3067 -0.0544
 7967WAT      O32573   2.351   3.906   1.137  0.5769 -1.0896 -0.1484
 7967WAT     H132574   2.368   3.892   1.053  0.4254 -0.3157 -0.3123
 7967WAT     H232575   2.431   3.913   1.173  0.6370 -1.1084 -0.2780
 7967WAT    EPW32576   2.366   3.905   1.130  0.7297 -0.2064  0.0891
 7968WAT      O32577   3.611   0.583   1.827 -0.3101 -0.4151 -0.4963
 7968WAT     H132578   3.541   0.633   1.812  0.5028  0.1127 -3.1513
 7968WAT     H232579   3.670   0.640   1.857  0.2946  0.1473 -2.5519
 7968WAT    EPW32580   3.610   0.599   1.829 -0.4016  0.2405 -0.4910
 7969WAT      O32581   3.698   2.817   0.758  0.0378 -0.4041 -0.1970
 7969WAT     H132582   3.631   2.823   0.703 -1.6614 -0.6714  1.7248
 7969WAT     H232583   3.695   2.892   0.802 -0.0143 -1.0955  1.0059
 7969WAT    EPW32584   3.688   2.829   0.756  0.1500 -0.1205 -0.9076
 7970WAT      O32585   5.963   1.544   1.698 -0.2348 -0.4779  0.5644
 7970WAT     H132586   5.895   1.575   1.653 -0.0786 -0.0617  0.6024
 7970WAT     H232587   6.032   1.577   1.655 -0.0560 -0.9574  0.4806
 7970WAT    EPW32588   5.963   1.554   1.685 -0.4742 -0.0998 -0.6592
 7971WAT      O32589   4.903   2.728   2.009 -0.3834  0.4812  0.3337
 7971WAT     H132590   4.817   2.719   1.996 -0.2011 -0.8373 -0.1572
 7971WAT     H232591   4.932   2.646   2.010  0.5855  0.7607  2.7797
 7971WAT    EPW32592   4.895   2.715   2.007  0.0313  0.0417 -0.5599
 7972WAT      O32593   5.002   1.491   3.235  0.9148  0.1369  0.4834
 7972WAT     H132594   4.948   1.558   3.219  0.4347  0.1975  2.0876
 7972WAT     H232595   5.078   1.517   3.202  0.6549  1.3677  0.7977
 7972WAT    EPW32596   5.005   1.505   3.228  0.2599  0.3808 -0.6839
 7973WAT      O32597   6.041   1.980   2.266 -0.2119 -0.0638 -0.3762
 7973WAT     H132598   5.984   1.930   2.309 -0.9056  0.6777 -0.4312
 7973WAT     H232599   6.011   2.061   2.277  1.9578  0.6355  1.4064
 7973WAT    EPW32600   6.028   1.984   2.274 -0.6977 -0.3777  0.7775
 7974WAT      O32601   3.817   0.550   2.250  0.1804 -0.5025  0.1788
 7974WAT     H132602   3.878   0.499   2.215 -0.9190 -2.8981  1.5383
 7974WAT     H232603   3.834   0.547   2.336 -2.9863 -3.1235  0.9023
 7974WAT    EPW32604   3.828   0.542   2.258  0.3445  0.1620 -0.8133
 7975WAT      O32605   5.658   3.186   3.606 -0.4559  0.1611 -0.8473
 7975WAT     H132606   5.674   3.261   3.648  0.9281  0.2020 -1.4050
 7975WAT     H232607   5.706   3.127   3.650  1.2257  0.2470 -2.4554
 7975WAT    EPW32608   5.668   3.188   3.619 -0.1858 -0.0223 -0.9032
 7976WAT      O32609   3.185   1.876   2.812 -0.2254  0.2135 -0.7781
 7976WAT     H132610   3.184   1.830   2.887  0.2520  0.3736 -0.6743
 7976WAT     H232611   3.220   1.821   2.755  0.9842  0.6822 -0.4995
 7976WAT    EPW32612   3.190   1.861   2.815  0.4308 -0.5232 -0.4697
 7977WAT      O32613   3.507   3.354   1.231 -0.1386 -0.6765  0.3542
 7977WAT     H132614   3.450   3.316   1.178  0.6469 -0.6450 -0.5488
 7977WAT     H232615   3.457   3.399   1.287 -1.0565 -2.3818  0.9721
 7977WAT    EPW32616   3.492   3.355   1.232 -0.8997 -1.1094 -0.2256
 7978WAT      O32617   3.739   3.534   2.477  0.2778  0.1943  0.5784
 7978WAT     H132618   3.784   3.576   2.539  1.0279  1.4650 -0.7807
 7978WAT     H232619   3.800   3.492   2.431 -0.1867 -0.1218  0.2364
 7978WAT    EPW32620   3.755   3.534   2.479 -0.0079  0.1196 -0.2849
 7979WAT      O32621   3.680   3.013   1.083  0.0986  0.1126  0.1170
 7979WAT     H132622   3.724   3.073   1.128 -1.9624  1.0498  1.0177
 7979WAT     H232623   3.656   3.054   1.010 -2.7336  1.0745  1.4537
 7979WAT    EPW32624   3.683   3.028   1.079  1.2566 -0.2369  0.7425
 7980WAT      O32625   1.233   3.575   1.973  0.1493 -0.7384  0.1419
 7980WAT     H132626   1.196   3.497   1.977  0.2257 -0.7803  0.0537
 7980WAT     H232627   1.318   3.558   1.978  0.2574 -0.7965 -1.3318
 7980WAT    EPW32628   1.240   3.561   1.974 -0.6045  0.2869  0.2951
 7981WAT      O32629   3.302   2.544   2.299  0.2223  0.0634  0.2793
 7981WAT     H132630   3.314   2.501   2.223  1.0478 -0.3959  0.6557
 7981WAT     H232631   3.235   2.502   2.335  1.6246 -1.6434  1.1028
 7981WAT    EPW32632   3.294   2.531   2.293  0.0641 -0.1453 -0.5210
 7982WAT      O32633   3.285   1.448   7.653  0.1569 -0.1892 -0.1300
 7982WAT     H132634   3.307   1.477   7.574  2.2224  0.2189  0.5373
 7982WAT     H232635   3.362   1.440   7.694 -0.9209  0.8389  2.2751
 7982WAT    EPW32636   3.300   1.451   7.647  0.3833 -1.2089 -0.6199
 7983WAT      O32637   3.675   3.069   7.637 -0.1190  0.1251  0.2411
 7983WAT     H132638   3.628   3.136   7.608  1.7301  1.9385  1.2310
 7983WAT     H232639   3.737   3.060   7.577 -0.1389 -0.4896  0.3033
 7983WAT    EPW32640   3.677   3.077   7.624 -0.1126  1.0897  1.0742
 7984WAT      O32641   2.875   2.057   0.057 -0.0957  0.5079  0.0082
 7984WAT     H132642   2.914   2.004  -0.001 -1.3690  0.1128 -0.5335
 7984WAT     H232643   2.923   2.130   0.054  1.3031 -0.3645  0.2691
 7984WAT    EPW32644   2.888   2.060   0.048 -0.2437  0.5794 -0.4833
 7985WAT      O32645   5.909   2.620   1.346 -0.1275 -0.5229 -0.5082
 7985WAT     H132646   5.981   2.649   1.306  0.0371 -1.5817 -1.0395
 7985WAT     H232647   5.934   2.609   1.429  0.1785 -0.3985 -0.5840
 7985WAT    EPW32648   5.923   2.623   1.352 -0.0213 -0.6339 -0.0587
 7986WAT      O32649   2.927   1.702   0.340  0.7594 -0.1381  0.4149
 7986WAT     H132650   2.964   1.642   0.288 -0.4127  0.2703 -0.9701
 7986WAT     H232651   2.860   1.660   0.376 -1.3706  0.7606 -2.1835
 7986WAT    EPW32652   2.923   1.687   0.338  0.7610 -0.2284 -0.1795
 7987WAT      O32653   3.368   7.851   1.500 -0.1489 -0.1717 -0.6305
 7987WAT     H132654   3.368   7.931   1.465 -0.4413 -0.4035 -1.1890
 7987WAT     H232655   3.424   7.807   1.450  1.0994  0.0383  0.5551
 7987WAT    EPW32656   3.376   7.856   1.487 -0.5364  0.4530 -0.7026
 7988WAT      O32657   2.796   0.929   1.815 -0.1376  0.5568 -0.6008
 7988WAT     H132658   2.866   0.970   1.849  0.3054 -0.4768 -0.2482
 7988WAT     H232659   2.734   0.990   1.819  0.3359  0.9941  0.5376
 7988WAT    EPW32660   2.797   0.944   1.820 -0.2612  0.2404  0.4254
 7989WAT      O32661   3.634   4.070   7.147 -0.2416 -0.3302  0.5639
 7989WAT     H132662   3.558   4.076   7.104  0.9985 -0.3746 -1.8279
 7989WAT     H232663   3.676   4.007   7.104  1.9720  1.1423  0.4431
 7989WAT    EPW32664   3.629   4.061   7.134 -0.2285  0.0545 -0.2264
 7990WAT      O32665   2.350   2.049   1.398  0.0415 -0.0602 -0.3505
 7990WAT     H132666   2.434   2.027   1.401  0.0374 -0.2182 -1.1797
 7990WAT     H232667   2.318   2.019   1.473  0.8541  0.5657  0.2570
 7990WAT    EPW32668   2.357   2.041   1.409 -0.1956 -0.4984 -0.0555
 7991WAT      O32669   3.396   0.678   0.832  0.0666  0.8665 -0.0585
 7991WAT     H132670   3.361   0.604   0.802  2.6950 -0.6926  0.4434
 7991WAT     H232671   3.366   0.683   0.914  0.9821 -0.4700  0.3889
 7991WAT    EPW32672   3.386   0.668   0.840  0.1861  0.3876 -0.0602
 7992WAT      O32673   3.058   3.529   0.945  0.0518  0.6792  0.3878
 7992WAT     H132674   2.988   3.553   0.991 -1.9621 -0.7243 -1.7378
 7992WAT     H232675   3.031   3.531   0.863  2.9325  1.2706 -0.6857
 7992WAT    EPW32676   3.044   3.533   0.940  0.7716  0.6584 -0.6138
 7993WAT      O32677   5.962   0.862   1.975 -0.3440 -0.0599 -0.2121
 7993WAT     H132678   5.881   0.837   1.997 -0.6193 -0.2563 -1.3615
 7993WAT     H232679   5.990   0.797   1.923 -0.1128  0.8273 -1.2248
 7993WAT    EPW32680   5.954   0.849   1.970 -0.2130 -0.3671 -0.2696
 7994WAT      O32681   3.053   1.341   0.206  0.4477 -0.3386  0.3661
 7994WAT     H132682   3.086   1.332   0.126  1.3689  2.3019  0.3474
 7994WAT     H232683   3.118   1.315   0.258 -0.1663 -2.0952  0.3135
 7994WAT    EPW32684   3.067   1.336   0.202 -0.5936 -0.4501 -0.7957
 7995WAT      O32685   4.004   3.457   0.442  0.2665 -0.4014  0.4637
 7995WAT     H132686   4.015   3.528   0.392  1.0234  0.2627  1.5304
 7995WAT     H232687   4.078   3.453   0.488 -0.3091 -1.1205  1.3509
 7995WAT    EPW32688   4.016   3.467   0.441  1.4107 -0.0160  0.1937
 7996WAT      O32689   3.112   2.948   1.244  0.0600 -0.1851 -0.1131
 7996WAT     H132690   3.159   2.927   1.173  2.1909  3.4883 -0.0731
 7996WAT     H232691   3.113   2.876   1.292  1.9781 -1.6159 -2.0899
 7996WAT    EPW32692   3.119   2.934   1.240  0.6107  0.0710 -0.2735
 7997WAT      O32693   4.729   4.238   0.575  0.3379 -0.1998  0.2297
 7997WAT     H132694   4.682   4.310   0.586  1.7539  0.9502 -0.8538
 7997WAT     H232695   4.704   4.208   0.497  0.5304 -0.2655  0.1910
 7997WAT    EPW32696   4.718   4.244   0.565  0.6322 -0.4391  0.0290
 7998WAT      O32697   2.900   3.883   1.288 -0.2908  0.0245  0.3963
 7998WAT     H132698   2.834   3.907   1.236  1.1252  0.0148 -1.5148
 7998WAT     H232699   2.860   3.860   1.362 -2.5221 -0.8575 -0.9737
 7998WAT    EPW32700   2.884   3.883   1.292 -0.2160 -0.4333  0.2355
 7999WAT      O32701   2.686   2.577   1.027  0.4797 -0.1512 -0.1963
 7999WAT     H132702   2.651   2.514   0.977 -0.0686 -0.6463  0.7779
 7999WAT     H232703   2.771   2.559   1.026  0.1563 -2.3654  1.9017
 7999WAT    EPW32704   2.693   2.565   1.019 -0.3895  0.3416  0.4427
 8000WAT      O32705   5.523   1.933   0.537  0.2818  0.0565 -0.0987
 8000WAT     H132706   5.557   1.856   0.559  1.4301  0.9499  1.4331
 8000WAT     H232707   5.533   1.982   0.609 -1.1723  1.4002 -0.7377
 8000WAT    EPW32708   5.529   1.929   0.551  0.1201 -0.7012 -1.2398
 8001WAT      O32709   4.306   2.994   0.424 -0.4679 -0.3209 -0.1996
 8001WAT     H132710   4.345   2.926   0.463 -0.1731 -0.9619 -1.5636
 8001WAT     H232711   4.372   3.049   0.408 -0.2770 -0.8950 -1.4659
 8001WAT    EPW32712   4.321   2.992   0.427 -0.1625 -0.5874 -0.1763
 8002WAT      O32713   3.453   2.794   1.621 -0.2693  0.3402  0.0394
 8002WAT     H132714   3.450   2.817   1.537 -0.2542 -0.1556 -0.0965
 8002WAT     H232715   3.492   2.862   1.659 -0.9476  0.8992 -0.2373
 8002WAT    EPW32716   3.458   2.808   1.614  0.0591 -0.3096  0.5621
 8003WAT      O32717   2.738   3.111   1.459 -0.1210 -0.2163  0.1889
 8003WAT     H132718   2.667   3.121   1.509  0.5411  1.9537  0.7998
 8003WAT     H232719   2.801   3.097   1.518  0.6517  2.2781  0.0674
 8003WAT    EPW32720   2.737   3.110   1.475 -0.2008 -0.0440  0.3270
 8004WAT      O32721   3.455   2.501   1.557  0.4840  0.2466  0.0669
 8004WAT     H132722   3.466   2.584   1.580  1.2958  0.1813 -0.0612
 8004WAT     H232723   3.519   2.487   1.500 -1.0284  0.2070 -1.7425
 8004WAT    EPW32724   3.466   2.511   1.552 -1.0096 -0.0764  0.2029
 8005WAT      O32725   3.823   2.775   1.117 -0.7514 -0.0622 -0.5056
 8005WAT     H132726   3.898   2.804   1.083 -0.5283 -0.5751 -0.4514
 8005WAT     H232727   3.769   2.843   1.108 -0.3608  0.2103 -0.8043
 8005WAT    EPW32728   3.826   2.789   1.111  0.0058  0.2696  0.7171
 8006WAT      O32729   4.736   3.056   0.624  0.3320  0.1144 -0.2128
 8006WAT     H132730   4.682   3.002   0.666 -0.2058  0.3021 -0.6502
 8006WAT     H232731   4.797   3.003   0.591 -0.4282 -0.2882 -0.9972
 8006WAT    EPW32732   4.737   3.040   0.625 -0.4373 -0.0526 -0.6944
 8007WAT      O32733   3.772   1.105   1.385 -0.2445 -0.1879 -0.3682
 8007WAT     H132734   3.845   1.121   1.429  1.2601 -3.8673 -1.1579
 8007WAT     H232735   3.796   1.112   1.301 -1.0623 -0.3797 -0.6347
 8007WAT    EPW32736   3.786   1.108   1.379 -0.6467 -0.5813 -0.1041
 8008WAT      O32737   4.171   0.680   0.537  0.0034  0.3720  0.2648
 8008WAT     H132738   4.219   0.609   0.522 -0.2997  0.1510  0.3360
 8008WAT     H232739   4.230   0.744   0.547  0.3562 -0.1290  1.6578
 8008WAT    EPW32740   4.187   0.679   0.536  0.3127 -1.0720  0.1828
 8009WAT      O32741   2.359   2.337   1.462 -0.5817 -0.6913 -0.3683
 8009WAT     H132742   2.320   2.259   1.452  0.0227 -1.1493  0.7790
 8009WAT     H232743   2.439   2.317   1.489 -0.3218  0.3307 -0.3477
 8009WAT    EPW32744   2.365   2.323   1.464 -0.2942  1.0019  0.5040
 8010WAT      O32745   4.420   2.023   1.547  0.4717 -0.1694 -0.5841
 8010WAT     H132746   4.433   2.103   1.513 -0.8405 -0.6941 -2.4739
 8010WAT     H232747   4.501   1.991   1.554  1.2760  2.0070  2.2615
 8010WAT    EPW32748   4.434   2.030   1.543 -0.1972 -0.1602  0.4952
 8011WAT      O32749   3.347   1.567   7.392  0.0609  0.3738  0.2047
 8011WAT     H132750   3.400   1.599   7.331  1.1774 -1.9136 -0.1154
 8011WAT     H232751   3.270   1.562   7.352  0.6740 -0.6432 -0.8897
 8011WAT    EPW32752   3.344   1.571   7.377 -0.4730 -0.7722  0.5792
 8012WAT      O32753   2.348   1.769   0.499 -0.0410  0.6925  0.3536
 8012WAT     H132754   2.399   1.742   0.564 -0.3218  1.9069  1.1157
 8012WAT     H232755   2.403   1.801   0.440  0.2521 -0.8946 -0.2873
 8012WAT    EPW32756   2.363   1.770   0.500  0.4043  0.1597  0.4531
 8013WAT      O32757   4.769   3.434   0.887  0.2640  0.1465  0.0444
 8013WAT     H132758   4.712   3.482   0.841  0.7772 -1.0634 -1.9600
 8013WAT     H232759   4.717   3.383   0.936 -0.3319  0.5157 -0.1923
 8013WAT    EPW32760   4.753   3.433   0.888 -0.2285 -0.1014 -0.3641
 8014WAT      O32761   4.539   3.553   0.754 -0.0852  0.4779  0.7037
 8014WAT     H132762   4.526   3.485   0.700  0.2086 -0.2969  1.5808
 8014WAT     H232763   4.582   3.611   0.704 -1.0360  0.3613 -0.2881
 8014WAT    EPW32764   4.544   3.552   0.738 -0.6844  0.2190  0.5179
 8015WAT      O32765   4.130   1.721   0.905 -0.6759  0.3103  0.0154
 8015WAT     H132766   4.168   1.661   0.855  2.2039  1.5881  0.4684
 8015WAT     H232767   4.121   1.681   0.982  1.1118  0.3227  0.2781
 8015WAT    EPW32768   4.134   1.707   0.909  0.1051  0.3620 -0.3161
 8016WAT      O32769   1.855   2.338   1.021 -0.1451  0.7924 -0.3497
 8016WAT     H132770   1.839   2.287   1.090 -0.2769 -0.9195 -1.5687
 8016WAT     H232771   1.923   2.387   1.046  0.5912 -0.6461  0.5885
 8016WAT    EPW32772   1.863   2.337   1.035  0.2232 -0.6754  0.1886
 8017WAT      O32773   4.662   2.368   2.099  0.0163  0.0754 -0.1536
 8017WAT     H132774   4.658   2.446   2.138 -2.7324 -0.5641  1.0647
 8017WAT     H232775   4.672   2.312   2.166 -2.3492 -0.8589 -0.4803
 8017WAT    EPW32776   4.663   2.371   2.115  0.0684  0.1800  0.3328
 8018WAT      O32777   4.907   2.627   1.727  0.4406  0.3118  0.3840
 8018WAT     H132778   4.923   2.677   1.797  0.0121 -0.6311  1.1738
 8018WAT     H232779   4.836   2.664   1.692  0.8183  0.9527  0.2792
 8018WAT    EPW32780   4.899   2.640   1.733  0.0753 -0.7015 -0.2871
 8019WAT      O32781   3.911   1.535   0.112  0.2577 -0.4390 -0.5228
 8019WAT     H132782   3.863   1.603   0.141  2.1009  0.6761  0.0602
 8019WAT     H232783   3.968   1.572   0.057 -1.4175 -2.1561 -3.7147
 8019WAT    EPW32784   3.912   1.551   0.108 -0.0570 -0.2137  0.3616
 8020WAT      O32785   4.550   2.484   7.989  0.0185 -0.3464 -0.2282
 8020WAT     H132786   4.470   2.465   7.960  0.4670 -1.0250 -1.1071
 8020WAT     H232787   4.567   2.420   8.046 -0.4576  0.3900  0.7551
 8020WAT    EPW32788   4.541   2.472   7.993  0.3628  0.0555 -1.0790
 8021WAT      O32789   3.847   2.602   0.621  0.5357  0.3671  0.2493
 8021WAT     H132790   3.789   2.599   0.555 -0.8624 -1.3395  1.4438
 8021WAT     H232791   3.811   2.657   0.678  0.2086 -0.4509  0.8543
 8021WAT    EPW32792   3.833   2.609   0.619 -0.0751 -0.2690  0.2059
 8022WAT      O32793   2.764   2.321   2.395  0.0708 -0.5843 -0.1586
 8022WAT     H132794   2.731   2.384   2.445 -0.2052 -0.5635 -0.3632
 8022WAT     H232795   2.714   2.252   2.413 -0.3187 -0.4577 -0.7408
 8022WAT    EPW32796   2.752   2.320   2.405 -0.1047  0.1710 -0.9504
 8023WAT      O32797   4.170   2.553   2.586  0.3708  0.1550  0.0712
 8023WAT     H132798   4.193   2.546   2.670  0.0273 -0.1091  0.1452
 8023WAT     H232799   4.125   2.628   2.583 -0.2738 -0.2160  0.2791
 8023WAT    EPW32800   4.167   2.563   2.598 -0.3445  0.4458 -0.7986
 8024WAT      O32801   5.345   0.902   1.497 -0.2647 -0.4893  0.1368
 8024WAT     H132802   5.389   0.839   1.456  3.6399  1.4937  0.8087
 8024WAT     H232803   5.298   0.938   1.432  1.0583 -1.1685 -1.2779
 8024WAT    EPW32804   5.344   0.898   1.481 -0.0492 -0.2061 -0.9816
 8025WAT      O32805   5.277   2.242   1.687  0.0201 -0.2669  0.0248
 8025WAT     H132806   5.240   2.240   1.608 -1.0112 -1.4913  0.5050
 8025WAT     H232807   5.362   2.238   1.669 -0.1525  0.2921 -1.0354
 8025WAT    EPW32808   5.284   2.241   1.673  0.6425 -0.1417  0.7176
 8026WAT      O32809   2.986   1.973   0.428 -0.1387 -0.0612  0.7903
 8026WAT     H132810   3.041   1.962   0.495 -1.0908  1.3328  1.8685
 8026WAT     H232811   2.956   1.893   0.412 -0.3120 -0.3644  2.4428
 8026WAT    EPW32812   2.990   1.960   0.436 -0.1040  0.2566 -0.6482
 8027WAT      O32813   4.322   1.432   7.702 -0.4625  0.4782 -0.4323
 8027WAT     H132814   4.326   1.497   7.760 -1.1831 -0.0254  0.2093
 8027WAT     H232815   4.304   1.362   7.751 -0.7994 -0.0109 -1.2264
 8027WAT    EPW32816   4.320   1.431   7.717  0.3217 -0.4178  0.2513
 8028WAT      O32817   2.896   2.354   1.100 -0.6203 -0.2329 -0.0059
 8028WAT     H132818   2.848   2.324   1.167 -0.8157 -1.2192 -0.5709
 8028WAT     H232819   2.874   2.302   1.034  2.0303 -1.4401 -0.0384
 8028WAT    EPW32820   2.886   2.342   1.100  0.2809 -0.3970 -0.0383
 8029WAT      O32821   4.258   2.123   0.200 -0.2470 -0.4133  0.1314
 8029WAT     H132822   4.252   2.042   0.232 -1.4707 -0.7022 -0.7351
 8029WAT     H232823   4.191   2.165   0.239 -0.0070  0.0115  0.0955
 8029WAT    EPW32824   4.247   2.117   0.211 -0.1481 -0.1564  0.0633
 8030WAT      O32825   1.921   1.818   1.483  0.4735  0.3592  0.2195
 8030WAT     H132826   1.966   1.753   1.519  0.9950 -0.0563 -1.1109
 8030WAT     H232827   1.983   1.875   1.459  0.2692  0.0221 -1.1655
 8030WAT    EPW32828   1.937   1.817   1.485 -0.5071  0.2488 -0.0924
 8031WAT      O32829   5.441   3.013   1.111  0.2079 -0.3794 -0.4068
 8031WAT     H132830   5.422   2.953   1.050 -1.0023 -0.4303 -0.0130
 8031WAT     H232831   5.372   3.066   1.109 -0.2165 -0.7945  1.4016
 8031WAT    EPW32832   5.428   3.012   1.102  0.3281 -0.4751  0.0036
 8032WAT      O32833   4.122   1.589   1.158 -0.3889  0.0075 -0.0510
 8032WAT     H132834   4.158   1.639   1.220  0.9481 -0.8368 -0.0906
 8032WAT     H232835   4.078   1.529   1.203  0.3254 -0.4201  0.1037
 8032WAT    EPW32836   4.121   1.588   1.174 -0.0272  0.1738 -0.1740
 8033WAT      O32837   6.062   4.197   1.183  0.1031 -0.2887  0.0501
 8033WAT     H132838   6.067   4.162   1.103 -1.1391  0.1525 -0.2508
 8033WAT     H232839   6.138   4.175   1.220  1.3229  0.6470 -1.7126
 8033WAT    EPW32840   6.074   4.188   1.176  0.3141  0.4106 -0.3504
 8034WAT      O32841   5.297   1.531   1.823  0.1516 -0.5288  0.1412
 8034WAT     H132842   5.270   1.523   1.740 -0.0854 -3.5507  0.4140
 8034WAT     H232843   5.384   1.530   1.816  0.1646  0.6086 -0.1183
 8034WAT    EPW32844   5.306   1.530   1.809  0.2244 -0.2304  0.2860
 8035WAT      O32845   4.655   2.641   1.950  0.0317  0.3484  0.1277
 8035WAT     H132846   4.585   2.624   1.999 -0.0790 -4.3906 -1.1037
 8035WAT     H232847   4.622   2.682   1.881 -0.7071  2.0137  1.3852
 8035WAT    EPW32848   4.640   2.644   1.947  0.2253  0.5555  0.3265
 8036WAT      O32849   4.366   2.127   1.084  0.0358  0.6206 -0.6935
 8036WAT     H132850   4.389   2.202   1.046  0.4565  0.4034 -0.8776
 8036WAT     H232851   4.352   2.074   1.017  0.6716  0.2673 -0.5587
 8036WAT    EPW32852   4.367   2.130   1.068  0.0951 -0.3435  0.6475
 8037WAT      O32853   3.372   3.504   1.454 -0.0809  0.6930 -0.3803
 8037WAT     H132854   3.444   3.523   1.500 -0.3871 -0.6373  0.7048
 8037WAT     H232855   3.335   3.439   1.499 -0.9976  0.0964 -1.9150
 8037WAT    EPW32856   3.377   3.497   1.467 -0.7408  0.7828 -0.5453
 8038WAT      O32857   2.879   3.335   2.166  0.1298 -0.0555  0.3088
 8038WAT     H132858   2.873   3.418   2.137  1.7493  0.5485  1.5363
 8038WAT     H232859   2.960   3.331   2.198 -0.5069 -1.6042  1.8744
 8038WAT    EPW32860   2.890   3.347   2.166  0.2151 -0.3672  0.6504
 8039WAT      O32861   3.057   1.638   0.762  0.1847 -0.3957  0.0447
 8039WAT     H132862   2.980   1.678   0.775  0.7763  0.4695  1.0885
 8039WAT     H232863   3.098   1.691   0.707  0.0555 -0.8422 -0.4865
 8039WAT    EPW32864   3.052   1.652   0.756  0.2530  0.7713  0.3663
 8040WAT      O32865   4.337   1.975   7.950  0.0936 -0.0721 -0.4947
 8040WAT     H132866   4.407   1.995   7.999  0.3709  1.0659 -1.3269
 8040WAT     H232867   4.283   1.936   8.006  0.3629  1.2773  0.7466
 8040WAT    EPW32868   4.340   1.972   7.965 -0.3312 -0.1283  0.3966
 8041WAT      O32869   4.178   2.164   0.623 -0.9594 -0.1150  0.7626
 8041WAT     H132870   4.216   2.181   0.699  0.4414 -1.1554  0.3513
 8041WAT     H232871   4.117   2.105   0.643 -2.2104  1.3372  1.3891
 8041WAT    EPW32872   4.175   2.158   0.637 -0.1988  0.0035  0.2508
 8042WAT      O32873   3.488   1.079   0.581 -0.1323  0.0084 -0.3314
 8042WAT     H132874   3.506   1.030   0.651 -1.6817 -1.3539 -0.8157
 8042WAT     H232875   3.485   1.021   0.515 -1.3005  0.8403 -1.0479
 8042WAT    EPW32876   3.490   1.063   0.582  0.2282 -0.8332 -0.0319
 8043WAT      O32877   3.724   1.717   0.180  0.4503 -0.2180  0.1079
 8043WAT     H132878   3.763   1.790   0.208 -0.3075 -0.0301  0.7163
 8043WAT     H232879   3.704   1.675   0.254 -1.4336  0.1996 -0.0975
 8043WAT    EPW32880   3.727   1.722   0.195  0.7974  0.1429 -0.4665
 8044WAT      O32881   3.159   2.857   1.590 -0.3552  0.0762 -0.8463
 8044WAT     H132882   3.202   2.815   1.654 -0.6079  0.6581 -0.2811
 8044WAT     H232883   3.221   2.909   1.556 -0.8095  1.6957  0.6602
 8044WAT    EPW32884   3.175   2.859   1.595  0.0051 -0.7024 -0.0113
 8045WAT      O32885   3.101   2.862   1.942  0.1559 -0.0922 -0.2893
 8045WAT     H132886   3.121   2.946   1.948 -0.4016 -0.0469  1.4991
 8045WAT     H232887   3.089   2.838   2.024 -2.3299 -1.2750 -0.9042
 8045WAT    EPW32888   3.102   2.871   1.955  0.3711  0.1813  0.0806
 8046WAT      O32889   5.107   1.773   2.785 -0.1552  0.0876  0.4756
 8046WAT     H132890   5.119   1.860   2.782 -0.1295  0.0710 -1.3499
 8046WAT     H232891   5.059   1.757   2.714  1.7504 -1.6546 -0.5295
 8046WAT    EPW32892   5.101   1.784   2.774  0.2256 -0.3644  0.1908
 8047WAT      O32893   2.369   3.625   1.204 -0.1667 -0.0115 -0.2279
 8047WAT     H132894   2.323   3.588   1.140  0.5325  0.6502 -1.1263
 8047WAT     H232895   2.364   3.710   1.187  0.8214  0.1153  0.0420
 8047WAT    EPW32896   2.361   3.632   1.192  0.3484  0.2907 -0.0863
 8048WAT      O32897   2.588   2.584   1.653 -0.0263 -0.0116  0.1356
 8048WAT     H132898   2.518   2.561   1.605 -0.6409 -2.9151  2.1967
 8048WAT     H232899   2.651   2.532   1.623  0.5981  0.7659  0.0624
 8048WAT    EPW32900   2.587   2.573   1.641  0.8737  0.3102 -0.3053
 8049WAT      O32901   3.286   1.924   0.918  0.5312  0.3804 -0.0381
 8049WAT     H132902   3.334   1.855   0.940  0.2862 -0.2930 -1.4872
 8049WAT     H232903   3.345   1.983   0.894  0.7073  0.2166 -0.0112
 8049WAT    EPW32904   3.302   1.922   0.918  0.0910 -0.2887 -0.2927
 8050WAT      O32905   3.295   1.941   1.946  0.3339 -0.3589 -0.2977
 8050WAT     H132906   3.273   1.859   1.968  2.4189 -0.8406  0.1970
 8050WAT     H232907   3.253   1.953   1.870 -0.0394 -1.8816 -0.3799
 8050WAT    EPW32908   3.286   1.930   1.938 -0.9872  0.8681  0.0511
 8051WAT      O32909   4.475   3.477   1.178 -0.2708  0.4760 -0.2656
 8051WAT     H132910   4.426   3.501   1.246  1.0734  0.6421  0.6802
 8051WAT     H232911   4.417   3.462   1.115 -1.4018  3.1320  0.0333
 8051WAT    EPW32912   4.459   3.478   1.179  0.3792 -0.0290  0.0363
 8052WAT      O32913   3.058   2.214   0.666 -0.2244  0.1567 -0.1110
 8052WAT     H132914   3.133   2.193   0.628  0.2741 -2.0160  1.8750
 8052WAT     H232915   3.004   2.150   0.641 -0.1974 -0.6564  1.7939
 8052WAT    EPW32916   3.061   2.201   0.657 -0.2067  0.0893  0.5739
 8053WAT      O32917   4.039   1.378   1.363  0.0061  0.5530 -0.5740
 8053WAT     H132918   3.985   1.412   1.422 -0.1863  2.0815 -1.5615
 8053WAT     H232919   4.092   1.327   1.409 -1.2369  0.3219  0.6478
 8053WAT    EPW32920   4.039   1.376   1.378 -0.2152 -0.2979 -0.7025
 8054WAT      O32921   3.981   2.128   0.879 -0.4431 -0.0706 -0.0861
 8054WAT     H132922   4.029   2.133   0.952 -0.4243  0.2559 -0.1205
 8054WAT     H232923   3.925   2.195   0.887  0.2521  0.6137 -0.8701
 8054WAT    EPW32924   3.980   2.138   0.891 -0.4823 -0.3342  0.3543
 8055WAT      O32925   3.518   3.343   0.604  0.3411  0.0175  0.4912
 8055WAT     H132926   3.477   3.352   0.680  0.4607 -0.5731  0.6267
 8055WAT     H232927   3.501   3.419   0.563 -1.2470 -0.3675  0.3629
 8055WAT    EPW32928   3.509   3.356   0.609 -0.4009  0.8361  0.1666
 8056WAT      O32929   4.029   2.985   7.712  0.0894  0.7975  0.4887
 8056WAT     H132930   3.969   2.928   7.739  2.3616 -1.4312  1.2083
 8056WAT     H232931   4.024   2.980   7.625 -0.2050 -0.0047  0.5404
 8056WAT    EPW32932   4.020   2.976   7.703 -0.2584  0.5291 -0.1481
 8057WAT      O32933   4.952   2.475   2.104  0.1496 -0.2726 -0.1474
 8057WAT     H132934   4.911   2.409   2.064 -0.9724 -0.0383  0.5776
 8057WAT     H232935   5.035   2.449   2.105 -0.2941 -1.8349  0.3504
 8057WAT    EPW32936   4.958   2.461   2.098  0.3068 -1.1184  0.0255
 8058WAT      O32937   3.361   3.067   1.969  0.1668  0.3104  0.1352
 8058WAT     H132938   3.386   3.120   2.034 -0.1459 -0.1623  0.6479
 8058WAT     H232939   3.413   3.090   1.903  2.4810 -1.0678  1.3282
 8058WAT    EPW32940   3.372   3.078   1.969  0.0778  0.7561  0.6595
 8059WAT      O32941   1.900   4.273   1.481 -0.8978  0.1948  0.0007
 8059WAT     H132942   1.865   4.213   1.428 -0.5166 -0.1967  0.1860
 8059WAT     H232943   1.982   4.281   1.452 -0.9622  0.6636 -0.0538
 8059WAT    EPW32944   1.907   4.265   1.469  0.6466 -0.2158 -0.7166
 8060WAT      O32945   3.399   1.479   2.376  0.3755  0.2096  1.0059
 8060WAT     H132946   3.413   1.495   2.291  0.1779 -0.2100  0.8855
 8060WAT     H232947   3.479   1.468   2.409  0.5066  1.3364  1.0834
 8060WAT    EPW32948   3.413   1.480   2.368  0.5317 -0.4853 -0.1617
 8061WAT      O32949   3.248   3.736   1.401  0.3476  0.1194  0.2562
 8061WAT     H132950   3.278   3.660   1.432 -1.7526 -1.0855 -0.4250
 8061WAT     H232951   3.163   3.735   1.424 -0.0559  1.6108 -0.9956
 8061WAT    EPW32952   3.240   3.725   1.409  0.0686  0.0527 -0.1195
 8062WAT      O32953   1.212   3.688   0.276 -0.1230  0.3859 -0.5455
 8062WAT     H132954   1.149   3.698   0.335 -0.0144  0.0682 -0.3739
 8062WAT     H232955   1.220   3.767   0.240  0.9590  1.0318  1.0171
 8062WAT    EPW32956   1.204   3.701   0.279 -0.7419 -0.5622 -0.0250
 8063WAT      O32957   3.867   1.998   1.510  0.2384 -0.0020 -0.6394
 8063WAT     H132958   3.789   1.968   1.534  0.0162  0.2583 -1.0289
 8063WAT     H232959   3.848   2.058   1.450  0.6121  1.7865  0.9445
 8063WAT    EPW32960   3.853   2.002   1.505  0.9903  0.2001  0.0511
 8064WAT      O32961   2.638   2.066   0.220 -0.3861  0.1180  0.0111
 8064WAT     H132962   2.697   2.043   0.160 -0.1207  1.2440 -0.1827
 8064WAT     H232963   2.581   2.115   0.176  0.5950  2.1817  0.9181
 8064WAT    EPW32964   2.638   2.070   0.205 -0.8840  0.1461  0.2866
 8065WAT      O32965   3.734   1.007   7.777  0.0743  0.6220  0.1253
 8065WAT     H132966   3.810   1.049   7.783  0.3477  0.1766 -0.1355
 8065WAT     H232967   3.756   0.924   7.791 -0.2077  0.3536 -0.9281
 8065WAT    EPW32968   3.749   1.001   7.780  0.0211 -0.7810 -0.4137
 8066WAT      O32969   4.887   2.187   0.775 -0.3838  0.4241 -0.2756
 8066WAT     H132970   4.922   2.254   0.733  1.1207  0.1745  0.5369
 8066WAT     H232971   4.955   2.148   0.814 -1.2576 -1.3161 -0.3605
 8066WAT    EPW32972   4.902   2.191   0.775 -0.4176  0.1711 -0.8927
 8067WAT      O32973   2.599   2.397   0.812 -0.1341  0.2174 -0.7911
 8067WAT     H132974   2.627   2.321   0.782  0.5228  0.4546 -0.7898
 8067WAT     H232975   2.579   2.442   0.740  0.4580  0.4132 -0.8356
 8067WAT    EPW32976   2.600   2.393   0.797  0.4570  0.1954 -0.6904
 8068WAT      O32977   3.286   1.938   0.126  0.1548  0.2301 -0.4228
 8068WAT     H132978   3.230   2.000   0.150  0.2354  1.0986 -2.3250
 8068WAT     H232979   3.350   1.982   0.086  1.7158 -0.8363  0.7925
 8068WAT    EPW32980   3.287   1.953   0.123  1.0034 -0.3988  0.2778
 8069WAT      O32981   3.624   1.383   0.103  0.2980 -0.4729 -0.0146
 8069WAT     H132982   3.705   1.374   0.074  0.1406 -0.7411 -0.3781
 8069WAT     H232983   3.613   1.469   0.108  0.0794 -0.3918 -1.4800
 8069WAT    EPW32984   3.634   1.394   0.099 -0.0738  0.1730 -0.4199
 8070WAT      O32985   3.305   1.515   0.202  0.2119  0.0212 -0.9059
 8070WAT     H132986   3.224   1.526   0.232  1.0213 -0.2894  1.6674
 8070WAT     H232987   3.347   1.586   0.232  1.2114 -0.5473 -0.9264
 8070WAT    EPW32988   3.299   1.527   0.211 -0.1305 -0.2012 -0.6235
 8071WAT      O32989   4.625   1.773   7.960  0.1393  0.5224 -0.5005
 8071WAT     H132990   4.632   1.718   8.027 -0.5073  0.1863 -0.7041
 8071WAT     H232991   4.689   1.749   7.906  0.4005  0.5261 -0.1914
 8071WAT    EPW32992   4.635   1.762   7.962 -0.7195 -0.5871 -0.5658
 8072WAT      O32993   5.918   2.571   1.854 -0.3693  0.9028 -0.5139
 8072WAT     H132994   5.898   2.650   1.885  1.6080  0.9695  0.7695
 8072WAT     H232995   5.935   2.586   1.769  0.9161  2.0843 -0.0909
 8072WAT    EPW32996   5.918   2.585   1.846  0.0216 -0.2796  0.2721
 8073WAT      O32997   4.300   1.442   0.974  0.3007 -0.3461  0.2343
 8073WAT     H132998   4.268   1.474   1.049  0.4337  1.4864 -0.4420
 8073WAT     H232999   4.350   1.376   1.000  1.7919  1.3369  1.9918
 8073WAT    EPW33000   4.302   1.437   0.989 -0.1387 -0.0475  0.3508
 8074WAT      O33001   4.486   2.680   0.146  0.6201  0.1130  0.1456
 8074WAT     H133002   4.464   2.763   0.128  0.5335  0.5699  2.1042
 8074WAT     H233003   4.511   2.648   0.069 -1.7738  1.1804 -1.2046
 8074WAT    EPW33004   4.486   2.688   0.132 -0.0393  0.1574 -0.3398
 8075WAT      O33005   4.041   3.829   1.236  0.1156  0.1090 -0.0902
 8075WAT     H133006   4.085   3.864   1.169  0.6773 -0.8053 -0.2074
 8075WAT     H233007   3.971   3.881   1.243  0.0521  0.2340 -1.3682
 8075WAT    EPW33008   4.038   3.842   1.227  0.1621 -0.3421 -0.4305
 8076WAT      O33009   4.178   1.440   2.073  0.3420 -0.3248  0.2024
 8076WAT     H133010   4.208   1.461   2.152  2.8465 -1.6682 -0.3049
 8076WAT     H233011   4.095   1.417   2.089  0.3933  0.5917  2.2077
 8076WAT    EPW33012   4.170   1.440   2.087 -0.8858 -0.1682 -0.9121
 8077WAT      O33013   4.070   4.499   0.762  0.4045  0.3824  0.1333
 8077WAT     H133014   4.009   4.489   0.701 -0.6643 -0.0396  1.2251
 8077WAT     H233015   4.099   4.418   0.776  1.8044  0.6631 -0.9189
 8077WAT    EPW33016   4.066   4.486   0.755 -0.1911 -0.4277  0.4655
 8078WAT      O33017   4.235   3.131   0.650  0.2644 -0.0122  0.4167
 8078WAT     H133018   4.153   3.100   0.653 -0.1741  1.1388  1.8265
 8078WAT     H233019   4.271   3.087   0.585 -1.7618  0.1230 -0.8912
 8078WAT    EPW33020   4.228   3.120   0.641 -0.7051  0.5658  0.2876
 8079WAT      O33021   3.159   3.888   1.190  0.1098  0.0536 -0.1858
 8079WAT     H133022   3.199   3.851   1.259  0.4449  1.1853  0.2516
 8079WAT     H233023   3.077   3.898   1.218  0.2522  0.5398  0.0730
 8079WAT    EPW33024   3.153   3.884   1.205  0.3064 -0.0964 -1.1942
 8080WAT      O33025   2.695   2.177   0.674 -0.4369 -0.0550  0.0969
 8080WAT     H133026   2.638   2.112   0.678  0.2640 -0.6359  2.1092
 8080WAT     H233027   2.727   2.173   0.593 -1.3607 -1.3580 -0.2198
 8080WAT    EPW33028   2.692   2.167   0.663  0.1198 -0.5308  0.3137
 8081WAT      O33029   5.916   1.845   0.845  0.4831 -0.2589 -0.0918
 8081WAT     H133030   5.891   1.766   0.873  0.2474 -0.0335  0.3515
 8081WAT     H233031   5.913   1.894   0.917 -2.8802  1.0229 -0.9352
 8081WAT    EPW33032   5.912   1.841   0.860  0.2786 -0.1047 -0.5239
 8082WAT      O33033   3.172   3.595   2.471 -0.2316  0.1375 -0.2665
 8082WAT     H133034   3.155   3.658   2.530  0.6313 -0.7582  1.0017
 8082WAT     H233035   3.255   3.608   2.450  0.8364 -2.0535  2.0308
 8082WAT    EPW33036   3.182   3.606   2.477  0.5647 -0.2555  0.5014
 8083WAT      O33037   2.611   3.391   1.547  0.0785  0.2808  0.3338
 8083WAT     H133038   2.551   3.330   1.565 -1.7289  2.1527  1.1120
 8083WAT     H233039   2.641   3.413   1.626 -0.3655  1.3755  0.2179
 8083WAT    EPW33040   2.607   3.385   1.562  0.5952  0.1465  1.1565
 8084WAT      O33041   3.146   2.588   1.259 -0.0176 -0.2631  0.1819
 8084WAT     H133042   3.148   2.506   1.228 -1.3005 -0.1964 -0.1038
 8084WAT     H233043   3.230   2.613   1.253  0.0141 -0.6893 -2.0983
 8084WAT    EPW33044   3.159   2.579   1.253  0.8125 -0.2245  0.6168
 8085WAT      O33045   5.023   2.082   1.899  0.8242  0.3286 -0.2624
 8085WAT     H133046   4.979   2.106   1.828 -0.0932  0.0271  0.1919
 8085WAT     H233047   5.088   2.139   1.903  0.1488  1.1409 -0.6319
 8085WAT    EPW33048   5.026   2.094   1.889 -0.3523 -0.1168 -0.6428
 8086WAT      O33049   5.103   1.538   0.090  0.0941  0.1139 -0.2903
 8086WAT     H133050   5.030   1.543   0.043 -1.3738 -0.9330  1.7295
 8086WAT     H233051   5.117   1.620   0.115 -1.2527  0.1440  0.4631
 8086WAT    EPW33052   5.094   1.551   0.087  0.7089 -0.2204  0.5152
 8087WAT      O33053   3.443   1.614   0.614 -0.4351  0.1178  0.3147
 8087WAT     H133054   3.472   1.628   0.696  0.6756  0.2454 -0.0787
 8087WAT     H233055   3.403   1.536   0.620  0.9596 -0.6051  0.6784
 8087WAT    EPW33056   3.442   1.604   0.627 -0.5114  0.3626  0.3717
 8088WAT      O33057   3.650   3.131   0.824  0.0866 -0.3767 -0.3149
 8088WAT     H133058   3.617   3.147   0.745 -2.2246  0.3272  0.7040
 8088WAT     H233059   3.700   3.201   0.841 -0.0101 -0.1801 -0.8354
 8088WAT    EPW33060   3.653   3.143   0.815  0.0506  0.0176 -0.2187
 8089WAT      O33061   2.776   1.676   7.987 -0.0504 -0.0895  0.3695
 8089WAT     H133062   2.762   1.723   7.914  1.3691 -1.8554 -1.1481
 8089WAT     H233063   2.696   1.663   8.019 -1.1480 -1.8841 -2.6429
 8089WAT    EPW33064   2.762   1.681   7.981 -0.0634 -0.5225 -0.3969
 8090WAT      O33065   2.584   2.289   1.624 -0.1408  0.4127  0.0124
 8090WAT     H133066   2.515   2.288   1.678  0.3880 -0.6693  0.7146
 8090WAT     H233067   2.601   2.204   1.613 -0.5089  0.5672 -2.2458
 8090WAT    EPW33068   2.576   2.276   1.630  0.1961  0.1598  0.0425
 8091WAT      O33069   2.688   6.981   1.319  0.1818  0.2823  0.1021
 8091WAT     H133070   2.747   7.043   1.304  1.0130 -0.4427  0.3214
 8091WAT     H233071   2.723   6.934   1.383 -0.6987 -0.0776  0.3350
 8091WAT    EPW33072   2.702   6.983   1.326 -0.1336 -0.4843 -0.1345
 8092WAT      O33073   5.282   0.735   0.191 -0.0225  0.0665 -0.1415
 8092WAT     H133074   5.318   0.755   0.114  0.7008 -1.0426 -0.1263
 8092WAT     H233075   5.340   0.680   0.226 -0.9345 -0.4175  0.6504
 8092WAT    EPW33076   5.296   0.730   0.185  0.7394 -0.0162  0.6459
 8093WAT      O33077   3.632   7.102   6.595  0.4313 -0.6190 -0.1691
 8093WAT     H133078   3.557   7.146   6.585  0.2407 -0.8910  0.0521
 8093WAT     H233079   3.655   7.081   6.513  0.8589  0.4308 -0.3418
 8093WAT    EPW33080   3.624   7.105   6.581 -0.3509 -0.6361  0.1092
 8094WAT      O33081   3.895   7.635   0.228 -0.4389  0.3440 -0.3228
 8094WAT     H133082   3.849   7.565   0.254 -0.4122 -0.3319 -1.9287
 8094WAT     H233083   3.833   7.691   0.203 -0.4577  0.8647  0.8669
 8094WAT    EPW33084   3.879   7.633   0.228 -0.2049 -0.1460 -0.7651
 8095WAT      O33085   3.460   0.046   0.776 -0.1564  0.4510 -0.1898
 8095WAT     H133086   3.454   0.030   0.862 -3.7080  2.1387  0.0781
 8095WAT     H233087   3.482   0.130   0.772 -3.0339  1.3036 -0.6619
 8095WAT    EPW33088   3.462   0.056   0.788 -0.2271 -0.1983 -0.1552
 8096WAT      O33089   3.201   1.094   7.040 -0.2026  0.5188 -0.5816
 8096WAT     H133090   3.274   1.139   7.056  0.1605  0.0233 -0.8190
 8096WAT     H233091   3.170   1.075   7.120  0.2731  0.1830 -0.4731
 8096WAT    EPW33092   3.207   1.098   7.054  0.6167 -0.8603 -0.4245
 8097WAT      O33093   3.241   0.635   6.936  0.2051  0.2811  0.1390
 8097WAT     H133094   3.178   0.695   6.927  1.1769  1.3502  0.1684
 8097WAT     H233095   3.296   0.671   6.994  1.3845 -0.1247 -0.6754
 8097WAT    EPW33096   3.240   0.649   6.943  0.8958 -0.7193 -0.1363
 8098WAT      O33097   3.101   1.109   7.298  0.1032  0.2572 -0.0226
 8098WAT     H133098   3.134   1.153   7.366 -0.3740  0.1350  0.2895
 8098WAT     H233099   3.016   1.128   7.300  0.0179 -0.0750 -0.3413
 8098WAT    EPW33100   3.094   1.118   7.308  0.1169 -0.5591 -0.8324
 8099WAT      O33101   3.526   0.512   0.214 -0.3557 -0.3184  0.1811
 8099WAT     H133102   3.477   0.441   0.225 -2.5135  0.5376 -2.6930
 8099WAT     H233103   3.599   0.481   0.177 -2.0016 -1.0420 -2.7800
 8099WAT    EPW33104   3.530   0.497   0.210  0.5094 -0.7941 -0.0278
 8100WAT      O33105   4.367   2.303   0.828  0.2627 -0.1223  0.1851
 8100WAT     H133106   4.395   2.347   0.758 -0.6486  0.9458  0.4715
 8100WAT     H233107   4.408   2.343   0.894  1.5487 -1.4758  0.2481
 8100WAT    EPW33108   4.377   2.316   0.827  0.3135  0.1815  0.9908
 8101WAT      O33109   3.958   0.616   0.344 -0.4079 -0.0347 -0.5778
 8101WAT     H133110   3.977   0.609   0.259  0.4720  3.6098 -0.8502
 8101WAT     H233111   4.037   0.621   0.382 -0.7723 -2.2210  0.6297
 8101WAT    EPW33112   3.973   0.616   0.337  0.1031 -0.2893  0.0984
 8102WAT      O33113   5.305   1.151   0.977 -0.5038 -0.1675 -0.0425
 8102WAT     H133114   5.227   1.152   1.016  0.2609  1.1859  1.5775
 8102WAT     H233115   5.305   1.077   0.931 -2.3590 -0.6641  0.6986
 8102WAT    EPW33116   5.294   1.140   0.976 -0.0923 -0.0508  0.3940
 8103WAT      O33117   4.262   1.650   0.664  0.0465  0.2880 -0.3958
 8103WAT     H133118   4.256   1.732   0.635 -0.0958  1.2047  1.9913
 8103WAT     H233119   4.188   1.613   0.637  0.2567  0.8187 -1.7785
 8103WAT    EPW33120   4.251   1.656   0.656 -0.0882 -0.7609 -0.4731
 8104WAT      O33121   3.124   0.425   0.516  0.4673 -0.0046 -0.2500
 8104WAT     H133122   3.172   0.475   0.463  1.5281  1.6920  2.1204
 8104WAT     H233123   3.055   0.403   0.468  0.9358  2.1550 -2.0340
 8104WAT    EPW33124   3.121   0.429   0.501  0.3059 -0.0153 -0.4565
 8105WAT      O33125   2.568   1.695   0.672 -0.3677  0.0791  0.7075
 8105WAT     H133126   2.630   1.694   0.733  0.1620 -1.4993  0.1781
 8105WAT     H233127   2.612   1.684   0.597 -1.2709 -1.2934  0.3442
 8105WAT    EPW33128   2.584   1.693   0.670  0.4128 -0.8383  0.1829
 8106WAT      O33129   4.574   0.365   6.433 -0.1494  0.4058 -0.2900
 8106WAT     H133130   4.558   0.406   6.357 -2.9871 -0.5738 -0.3166
 8106WAT     H233131   4.599   0.430   6.486 -1.2372  1.6314 -1.2096
 8106WAT    EPW33132   4.575   0.381   6.429 -1.0170 -1.4189  0.8624
 8107WAT      O33133   3.774   1.294   7.433 -0.2331  0.1597  0.0027
 8107WAT     H133134   3.722   1.236   7.472 -1.7644 -0.0612 -2.1789
 8107WAT     H233135   3.848   1.250   7.422  0.4446  0.3893  2.9458
 8107WAT    EPW33136   3.777   1.279   7.437 -0.7359 -0.4722  0.3629
 8108WAT      O33137   3.741   1.754   7.162 -0.0719 -0.4462 -0.1165
 8108WAT     H133138   3.688   1.800   7.214 -0.0706 -1.6948  1.0705
 8108WAT     H233139   3.690   1.733   7.095 -0.0351  1.3420 -0.7488
 8108WAT    EPW33140   3.726   1.757   7.160 -0.6446  0.3329 -1.1903
 8109WAT      O33141   4.629   0.982   0.988  0.1979  0.1975  0.3565
 8109WAT     H133142   4.705   1.015   1.014  0.1574 -0.2170  1.0228
 8109WAT     H233143   4.574   1.050   0.995  0.7570  0.9282 -1.5299
 8109WAT    EPW33144   4.632   0.997   0.993  0.7402 -0.4009 -0.2049
 8110WAT      O33145   4.146   6.731   7.507 -0.2016 -0.0334  0.1420
 8110WAT     H133146   4.141   6.785   7.439  1.7584 -0.3808 -0.3473
 8110WAT     H233147   4.197   6.774   7.564 -1.3362  0.0044  1.1697
 8110WAT    EPW33148   4.153   6.746   7.506 -0.0896  0.7138 -0.7088
 8111WAT      O33149   5.945   1.190   8.018  0.5620 -0.2312 -0.1468
 8111WAT     H133150   6.026   1.206   7.992  0.7051 -0.6793  0.0124
 8111WAT     H233151   5.925   1.257   8.070  0.6281  0.1635 -0.6220
 8111WAT    EPW33152   5.954   1.202   8.022  0.7222 -0.0219 -0.3748
 8112WAT      O33153   2.964   7.321   0.443 -0.2374  0.3961 -0.2384
 8112WAT     H133154   2.937   7.251   0.398  0.5188  0.4306 -0.7671
 8112WAT     H233155   3.034   7.292   0.486  1.6972  1.4016 -2.4486
 8112WAT    EPW33156   2.971   7.307   0.443 -0.2055  0.0770 -0.1400
 8113WAT      O33157   3.385   1.863   0.506  0.0320  0.2013  0.3111
 8113WAT     H133158   3.387   1.792   0.557  2.2061  1.2138  1.7429
 8113WAT     H233159   3.388   1.829   0.425  0.9498 -1.3618  0.9434
 8113WAT    EPW33160   3.386   1.847   0.501 -0.2765  0.9189 -0.0899
 8114WAT      O33161   5.202   0.035   8.050  0.6459 -0.1759 -0.3026
 8114WAT     H133162   5.221   0.098   8.106  2.7284  0.1180 -1.2701
 8114WAT     H233163   5.165  -0.027   8.100 -0.2300  1.2261  0.8608
 8114WAT    EPW33164   5.199   0.035   8.065 -0.0925  0.0396  0.0642
 8115WAT      O33165   1.982   0.593   7.018 -0.0632  0.2652 -0.1523
 8115WAT     H133166   1.965   0.565   7.099 -1.3825  0.9345 -0.1730
 8115WAT     H233167   1.943   0.534   6.968 -2.1026  1.6006 -0.2124
 8115WAT    EPW33168   1.974   0.580   7.023  0.0087 -0.3531 -0.1026
 8116WAT      O33169   3.382   0.933   7.393  0.1282 -0.1948 -0.4861
 8116WAT     H133170   3.325   0.929   7.459  0.2810 -0.9330 -0.3841
 8116WAT     H233171   3.392   1.018   7.379 -1.3407 -0.0542 -0.8010
 8116WAT    EPW33172   3.375   0.945   7.401  0.2997 -0.1403 -0.0118
 8117WAT      O33173   4.167   6.604   7.839 -0.4786 -0.0880  0.4547
 8117WAT     H133174   4.185   6.581   7.921 -0.7540 -0.1983  0.4832
 8117WAT     H233175   4.224   6.668   7.823 -0.3258 -0.1670  0.6814
 8117WAT    EPW33176   4.178   6.610   7.849 -0.3135 -0.5705  0.0156
 8118WAT      O33177   4.496   1.162   0.690  0.0660 -0.3141  0.0225
 8118WAT     H133178   4.439   1.144   0.626  0.9077 -1.9337 -0.3331
 8118WAT     H233179   4.504   1.248   0.687 -0.3506 -0.2942 -1.7019
 8118WAT    EPW33180   4.489   1.172   0.680  0.3934 -0.5912  0.7663
 8119WAT      O33181   2.550   1.573   7.499  0.1039  0.3780 -0.6484
 8119WAT     H133182   2.607   1.629   7.532  1.3442 -0.7488 -0.8098
 8119WAT     H233183   2.475   1.618   7.499  0.5790  1.2748  1.2812
 8119WAT    EPW33184   2.547   1.588   7.503 -0.3001 -0.0287  0.0019
 8120WAT      O33185   4.160   0.225   0.403  0.2505 -0.3759  0.3611
 8120WAT     H133186   4.097   0.184   0.448 -0.9062  1.1307  0.1977
 8120WAT     H233187   4.189   0.286   0.458 -0.3613  0.7171 -0.4736
 8120WAT    EPW33188   4.155   0.228   0.418 -0.2281  0.0323  0.5458
 8121WAT      O33189   2.712   0.579   0.416 -0.3941  0.4084 -0.4356
 8121WAT     H133190   2.753   0.504   0.435  0.1257  0.4754 -1.2255
 8121WAT     H233191   2.630   0.564   0.440  0.1202  0.3458  1.3878
 8121WAT    EPW33192   2.706   0.565   0.422  1.0595  0.7192 -0.1868
 8122WAT      O33193   4.889   0.980   5.429 -0.0518  0.1349  0.1633
 8122WAT     H133194   4.820   0.950   5.472 -0.2913 -2.1234 -1.6135
 8122WAT     H233195   4.950   0.989   5.491 -0.5730 -2.2923  1.1419
 8122WAT    EPW33196   4.888   0.977   5.444 -0.3077 -0.8145 -0.1172
 8123WAT      O33197   2.269   0.108   7.303 -0.2389  0.6875 -0.6359
 8123WAT     H133198   2.281   0.036   7.256 -0.2835  1.6596 -2.2126
 8123WAT     H233199   2.202   0.147   7.264 -1.2580  0.8468  1.1585
 8123WAT    EPW33200   2.261   0.103   7.291 -0.1890 -0.0025 -0.2025
 8124WAT      O33201   3.103   1.117   7.820 -0.1639  0.3308  0.0062
 8124WAT     H133202   3.084   1.069   7.891  0.7734  0.0246  0.0720
 8124WAT     H233203   3.187   1.139   7.833  0.0830  0.0983 -1.1081
 8124WAT    EPW33204   3.113   1.113   7.833  0.5301 -0.2419 -0.3615
 8125WAT      O33205   4.781   7.855   7.999  0.1995  0.2772  0.7661
 8125WAT     H133206   4.747   7.833   8.076 -0.0537 -0.6679  0.3905
 8125WAT     H233207   4.851   7.904   8.021  0.8516 -0.9936  1.6347
 8125WAT    EPW33208   4.787   7.859   8.014 -1.2549  0.1378  0.6260
 8126WAT      O33209   3.667   7.178   0.408  0.5556 -0.5052  0.1753
 8126WAT     H133210   3.592   7.156   0.371  0.5837  2.3653 -1.9623
 8126WAT     H233211   3.722   7.115   0.382 -0.8836 -2.3060  1.2664
 8126WAT    EPW33212   3.664   7.166   0.399 -0.5863 -0.1541  0.0278
 8127WAT      O33213   3.904   1.146   0.577  0.2522 -0.2169 -0.2180
 8127WAT     H133214   3.890   1.081   0.634 -0.4116 -1.7092 -1.9802
 8127WAT     H233215   3.827   1.187   0.573  0.0473 -0.6291 -0.6249
 8127WAT    EPW33216   3.890   1.143   0.585  0.5107  0.3112 -0.4709
 8128WAT      O33217   4.727   0.592   6.574 -0.0276  0.5380 -0.5626
 8128WAT     H133218   4.771   0.581   6.649 -0.8687 -1.1305 -0.2655
 8128WAT     H233219   4.784   0.569   6.513  0.1862  0.4503 -0.3339
 8128WAT    EPW33220   4.742   0.587   6.576 -0.0799 -0.2743  0.4267
 8129WAT      O33221   4.328   0.602   0.941 -0.1183  0.4228  0.1868
 8129WAT     H133222   4.361   0.573   0.865 -0.9557  1.4965 -0.6090
 8129WAT     H233223   4.397   0.639   0.980  0.8432 -1.9958  0.9664
 8129WAT    EPW33224   4.343   0.603   0.935  0.2878  0.1505  0.2451
 8130WAT      O33225   4.083   7.197   7.464 -0.3349 -0.1703  0.3433
 8130WAT     H133226   4.030   7.152   7.411 -1.1345  0.5771  0.4999
 8130WAT     H233227   4.151   7.217   7.413 -1.1559  0.6631 -0.4595
 8130WAT    EPW33228   4.085   7.193   7.449 -0.4507 -0.2633  0.0506
 8131WAT      O33229   3.274   1.301   0.353  0.5815 -0.4007 -0.1885
 8131WAT     H133230   3.315   1.363   0.308  0.8993 -0.0695  0.5463
 8131WAT     H233231   3.291   1.321   0.436  0.2148 -1.1458  0.0757
 8131WAT    EPW33232   3.283   1.313   0.359 -0.2711 -0.6672 -0.5813
 8132WAT      O33233   4.051   0.641   0.044 -0.4735 -0.1417  0.3683
 8132WAT     H133234   4.039   0.719   0.007 -2.7364 -1.1373 -1.2206
 8132WAT     H233235   4.131   0.617   0.016 -0.0609  1.2474  0.2798
 8132WAT    EPW33236   4.061   0.649   0.034  1.1464 -0.3286  0.5021
 8133WAT      O33237   5.044   1.631   0.461 -0.1804  0.1797 -0.3956
 8133WAT     H133238   5.079   1.692   0.514  2.2128 -2.2744  1.1237
 8133WAT     H233239   5.028   1.675   0.388  0.5413  2.8386  0.9037
 8133WAT    EPW33240   5.047   1.647   0.458  0.8795 -0.0377  0.2952
 8134WAT      O33241   4.518   6.406   6.902  0.4214  0.1166 -0.1368
 8134WAT     H133242   4.545   6.466   6.846 -0.1947 -0.3579 -0.9736
 8134WAT     H233243   4.503   6.336   6.852  0.5012 -0.5391  0.7145
 8134WAT    EPW33244   4.520   6.404   6.886  0.3034  0.8515  0.0839
 8135WAT      O33245   5.339   7.985   1.058 -0.1260  0.1698 -0.1387
 8135WAT     H133246   5.267   8.004   1.013  1.2035  1.1925 -1.9916
 8135WAT     H233247   5.319   7.912   1.100 -1.6773 -0.5194 -1.9494
 8135WAT    EPW33248   5.326   7.977   1.058 -0.6033 -0.5892  0.0409
 8136WAT      O33249   4.994   1.788   0.716  0.5024  0.4024 -0.3458
 8136WAT     H133250   5.055   1.828   0.765  1.0163 -1.2463  0.4345
 8136WAT     H233251   4.919   1.814   0.753  0.8028  0.9874 -0.1299
 8136WAT    EPW33252   4.992   1.798   0.729 -0.0119  0.6904 -0.1622
 8137WAT      O33253   4.847   0.397   7.405 -0.5272  0.0633  0.0483
 8137WAT     H133254   4.827   0.339   7.343  0.0909 -1.6989  1.3970
 8137WAT     H233255   4.933   0.386   7.416 -0.6307  0.2716  1.2290
 8137WAT    EPW33256   4.856   0.387   7.397 -0.1193 -0.0765 -0.4295
 8138WAT      O33257   5.465   0.561   7.817 -0.1631  0.9800 -0.4728
 8138WAT     H133258   5.548   0.572   7.843 -0.3603 -0.0116  0.6587
 8138WAT     H233259   5.464   0.479   7.787 -0.2545  1.6784 -2.5009
 8138WAT    EPW33260   5.477   0.551   7.817 -1.2199  0.1118 -0.5409
 8139WAT      O33261   3.555   7.216   1.783 -0.3333 -0.3554 -0.0918
 8139WAT     H133262   3.624   7.163   1.785  1.6939  2.0833  1.9031
 8139WAT     H233263   3.566   7.262   1.710  0.7412  0.6610  0.6850
 8139WAT    EPW33264   3.567   7.215   1.772 -1.0263 -0.5713 -1.1755
 8140WAT      O33265   5.930   7.917   7.960  0.3304 -0.0588  0.5630
 8140WAT     H133266   5.989   7.883   8.015  2.3264  1.2797 -0.6616
 8140WAT     H233267   5.916   7.853   7.903  3.2901  0.6571 -1.1370
 8140WAT    EPW33268   5.936   7.903   7.960 -0.2811 -0.2751 -0.2444
 8141WAT      O33269   3.708   0.015   0.585  0.4834 -0.3355 -0.4284
 8141WAT     H133270   3.641  -0.015   0.633 -1.6322  1.3325 -2.1485
 8141WAT     H233271   3.744   0.076   0.637 -1.3905  1.0169 -0.5915
 8141WAT    EPW33272   3.704   0.020   0.600  0.5873 -0.6425  0.2410
 8142WAT      O33273   4.805   2.119   7.472 -0.1187 -0.1535 -0.6717
 8142WAT     H133274   4.848   2.045   7.487  0.6494  0.3269 -0.4590
 8142WAT     H233275   4.818   2.166   7.545 -2.8389 -0.8282  0.3886
 8142WAT    EPW33276   4.813   2.115   7.485  0.2040 -0.1485  0.1499
 8143WAT      O33277   4.320   0.877   0.690 -0.6433  0.1536  0.1074
 8143WAT     H133278   4.280   0.943   0.730 -0.7083  0.6136 -0.6945
 8143WAT     H233279   4.388   0.860   0.742 -1.8851 -0.6885  1.5267
 8143WAT    EPW33280   4.324   0.884   0.703 -0.1263  0.2067 -0.7213
 8144WAT      O33281   4.799   1.544   0.573  0.1978  0.4747  0.3563
 8144WAT     H133282   4.801   1.471   0.621  0.3013  0.3783  0.2032
 8144WAT     H233283   4.881   1.553   0.546 -0.0779 -0.0464 -0.6830
 8144WAT    EPW33284   4.811   1.535   0.576 -0.3821  0.1000 -0.9030
 8145WAT      O33285   4.305   0.437   0.508 -0.3883  0.1553 -0.1275
 8145WAT     H133286   4.350   0.441   0.582 -2.8513 -0.5674  1.5380
 8145WAT     H233287   4.367   0.428   0.447  1.8643  2.9639  1.5243
 8145WAT    EPW33288   4.321   0.436   0.510 -0.4029  0.2023  0.1507
 8146WAT      O33289   4.346   7.912   7.207 -0.0213  0.0000 -0.2190
 8146WAT     H133290   4.303   7.863   7.265 -1.8456 -0.2978 -1.7405
 8146WAT     H233291   4.430   7.888   7.218 -0.2774 -0.0205  2.2424
 8146WAT    EPW33292   4.352   7.901   7.217  0.4076  0.0404 -0.0407
 8147WAT      O33293   5.716   1.042   7.887 -0.0747 -0.3238  0.4417
 8147WAT     H133294   5.779   0.995   7.848  0.1571  0.4731 -0.1733
 8147WAT     H233295   5.759   1.111   7.919 -0.3024 -0.8231  1.9173
 8147WAT    EPW33296   5.732   1.045   7.886  0.3665 -0.4198 -0.4285
 8148WAT      O33297   3.904   7.967   0.048 -0.8295  0.3883  0.2108
 8148WAT     H133298   3.901   7.967  -0.039 -0.2999 -1.0991  0.1538
 8148WAT     H233299   3.986   7.943   0.065 -1.1747 -0.2044  1.1086
 8148WAT    EPW33300   3.916   7.963   0.038 -1.7462  0.1188  0.4920
 8149WAT      O33301   2.782   0.163   5.423 -0.2619  0.2939 -0.6214
 8149WAT     H133302   2.706   0.126   5.400  0.2706 -0.3983 -1.3222
 8149WAT     H233303   2.826   0.168   5.348  0.8800 -0.4910 -0.0311
 8149WAT    EPW33304   2.777   0.158   5.408  0.4679  0.1914  0.4307
 8150WAT      O33305   2.798   7.217   7.164  0.0355  0.0080  0.5027
 8150WAT     H133306   2.742   7.223   7.098  1.6731  0.7874 -0.8882
 8150WAT     H233307   2.832   7.137   7.156 -0.3186 -0.1794  0.8705
 8150WAT    EPW33308   2.795   7.206   7.153 -0.1435  0.5510 -0.4756
 8151WAT      O33309   3.508   0.305   0.786  0.5940  0.0237  0.1503
 8151WAT     H133310   3.560   0.374   0.772  1.2120 -0.7058 -1.3364
 8151WAT     H233311   3.429   0.340   0.795  0.6580  0.8494 -2.0596
 8151WAT    EPW33312   3.504   0.320   0.786  0.4847  0.4909 -0.1685
 8152WAT      O33313   4.292   0.972   1.283 -0.0781 -0.1261 -0.0070
 8152WAT     H133314   4.227   0.919   1.307  0.8608 -1.0087  0.6816
 8152WAT     H233315   4.359   0.918   1.268  0.2688  0.6831 -1.5873
 8152WAT    EPW33316   4.292   0.956   1.284  0.3319  0.7850 -0.5493
 8153WAT      O33317   3.451   7.516   7.281 -0.3888  0.0246  0.1027
 8153WAT     H133318   3.378   7.501   7.326 -2.0946 -0.5771 -2.6681
 8153WAT     H233319   3.499   7.445   7.295 -1.2325 -0.5165  0.3226
 8153WAT    EPW33320   3.447   7.503   7.290  0.1575  0.0472 -0.4126
 8154WAT      O33321   5.052   1.494   7.737 -0.8761 -0.0132 -0.4383
 8154WAT     H133322   5.132   1.521   7.759  0.9734 -2.8421 -2.9114
 8154WAT     H233323   5.005   1.568   7.734  2.3479  2.1862 -1.6021
 8154WAT    EPW33324   5.057   1.509   7.740 -1.4066 -0.4404  0.3667
 8155WAT      O33325   4.014   0.597   0.752  0.6748 -0.4660 -0.3457
 8155WAT     H133326   4.041   0.633   0.827 -0.9641 -0.1738  0.1453
 8155WAT     H233327   4.055   0.643   0.691  0.0177  1.0755  0.3268
 8155WAT    EPW33328   4.024   0.609   0.754  0.2753  0.0715 -1.4346
 8156WAT      O33329   4.751   1.538   6.194  0.7242 -0.9837  0.1431
 8156WAT     H133330   4.803   1.591   6.149  1.8328 -1.5358  0.7377
 8156WAT     H233331   4.805   1.494   6.246 -0.4750 -0.4291  1.9907
 8156WAT    EPW33332   4.766   1.539   6.195  0.9499  0.0296 -0.2027
 8157WAT      O33333   4.541   0.706   0.341 -0.1882 -0.3209 -0.2550
 8157WAT     H133334   4.462   0.699   0.305 -0.3455  0.5411 -0.0983
 8157WAT     H233335   4.589   0.742   0.277 -0.2184  0.2506  0.0367
 8157WAT    EPW33336   4.536   0.711   0.326 -0.3625  0.4494  0.1145
 8158WAT      O33337   2.863   7.374   4.016  1.0150  0.7696 -0.4958
 8158WAT     H133338   2.826   7.310   4.062 -0.9560  2.4322  0.4095
 8158WAT     H233339   2.934   7.394   4.063  1.7282 -0.7803 -0.8575
 8158WAT    EPW33340   2.868   7.367   4.030 -0.1785 -0.2176 -0.2323
 8159WAT      O33341   3.216   1.639   6.038 -0.5094  0.0333 -0.7813
 8159WAT     H133342   3.278   1.601   6.086 -0.4280 -1.3069 -1.8822
 8159WAT     H233343   3.179   1.696   6.093  1.7714  0.9994 -0.1330
 8159WAT    EPW33344   3.220   1.642   6.053  0.3712  0.5755  0.4174
 8160WAT      O33345   4.591   7.577   4.595  0.1280  0.2652 -0.1796
 8160WAT     H133346   4.565   7.554   4.516  0.0363  1.6642 -0.5794
 8160WAT     H233347   4.609   7.501   4.634 -0.3975 -0.4657 -1.3292
 8160WAT    EPW33348   4.590   7.563   4.589 -0.2602 -0.1144  0.1818
 8161WAT      O33349   5.123   1.434   4.148 -0.1337  0.0354 -0.2783
 8161WAT     H133350   5.158   1.473   4.217 -0.3878  0.5174 -0.4113
 8161WAT     H233351   5.177   1.455   4.082 -0.4175  0.3943 -0.3999
 8161WAT    EPW33352   5.136   1.443   4.148  0.7422  0.0965 -0.5281
 8162WAT      O33353   2.921   0.252   3.120 -0.6128  0.5655  0.5296
 8162WAT     H133354   2.919   0.273   3.204 -0.5174 -1.1164  0.9965
 8162WAT     H233355   2.968   0.315   3.083 -0.3010  1.0961  1.8022
 8162WAT    EPW33356   2.928   0.264   3.127 -0.1165  0.9421  0.0281
 8163WAT      O33357   5.244   1.525   3.902  0.0108 -0.0192 -1.0237
 8163WAT     H133358   5.165   1.560   3.884  0.1161  1.6348  1.2725
 8163WAT     H233359   5.286   1.590   3.942  1.7614 -1.5939 -0.1790
 8163WAT    EPW33360   5.238   1.540   3.905  0.8022 -0.6243  0.4945
 8164WAT      O33361   4.492   0.411   7.692  0.0644 -0.4920  0.4087
 8164WAT     H133362   4.545   0.458   7.743 -0.1937  0.4273 -0.1502
 8164WAT     H233363   4.542   0.344   7.666  0.3825 -0.6431  1.3689
 8164WAT    EPW33364   4.507   0.408   7.696  0.3955  0.0345 -0.1338
 8165WAT      O33365   3.272   0.370   7.685  0.0277 -0.4928  0.1645
 8165WAT     H133366   3.329   0.410   7.632 -0.6990  0.3702  0.0047
 8165WAT     H233367   3.206   0.427   7.691 -0.8433 -1.4779  0.3151
 8165WAT    EPW33368   3.270   0.385   7.678 -0.4533  0.6317  0.7546
 8166WAT      O33369   3.840   0.260   5.836 -0.5548  0.5578 -0.4746
 8166WAT     H133370   3.900   0.269   5.774  0.1146  0.1051  0.1008
 8166WAT     H233371   3.767   0.244   5.791 -0.3421  1.4795 -1.1996
 8166WAT    EPW33372   3.838   0.259   5.820  0.2263  0.4791 -1.1788
 8167WAT      O33373   5.494   1.277   0.590 -0.6537 -0.3739  0.2052
 8167WAT     H133374   5.475   1.360   0.612  0.2784 -0.2640  0.6116
 8167WAT     H233375   5.539   1.247   0.658 -0.2764 -0.9594 -0.2921
 8167WAT    EPW33376   5.497   1.285   0.603 -0.6198  1.2162  0.5299
 8168WAT      O33377   4.427   0.934   5.393  0.3690 -0.1102  0.2720
 8168WAT     H133378   4.499   0.909   5.435  1.3001 -2.8827 -2.6312
 8168WAT     H233379   4.455   0.995   5.338 -0.1989  1.0428  1.1981
 8168WAT    EPW33380   4.442   0.939   5.391  0.6754 -0.5509  0.4336
 8169WAT      O33381   3.031   0.199   6.422 -0.0227 -0.5886 -0.1981
 8169WAT     H133382   3.016   0.275   6.382 -0.4336 -0.4116  0.2714
 8169WAT     H233383   2.958   0.185   6.467  0.1735 -1.1081 -0.0336
 8169WAT    EPW33384   3.018   0.209   6.423  0.2808 -0.2403 -0.9164
 8170WAT      O33385   4.059   0.806   5.683  0.0638  0.2388  0.4240
 8170WAT     H133386   4.088   0.836   5.606 -2.4287 -1.7350 -1.4803
 8170WAT     H233387   4.125   0.758   5.713  0.5580 -0.2511 -1.3140
 8170WAT    EPW33388   4.073   0.803   5.676  0.1424  0.5361 -0.6662
 8171WAT      O33389   3.066   2.310   4.910  0.6870  0.1294 -0.4095
 8171WAT     H133390   3.136   2.349   4.876  2.5999  0.4220  3.3362
 8171WAT     H233391   3.026   2.374   4.954  0.2171 -0.8026  0.5706
 8171WAT    EPW33392   3.070   2.325   4.912 -0.0925  0.2459 -0.4690
 8172WAT      O33393   4.018   0.580   5.420  0.4497 -0.6236  0.2728
 8172WAT     H133394   3.964   0.644   5.397  0.7850 -0.4399 -0.0192
 8172WAT     H233395   4.097   0.614   5.405  0.6342 -1.0278  0.3182
 8172WAT    EPW33396   4.022   0.595   5.414 -0.2532  0.2608 -0.5947
 8173WAT      O33397   4.175   8.006   4.806  0.2079  0.1437 -0.0323
 8173WAT     H133398   4.211   8.084   4.821  1.0730 -0.3172  0.3467
 8173WAT     H233399   4.151   8.011   4.722  2.4459 -0.0034 -0.7527
 8173WAT    EPW33400   4.177   8.018   4.796 -0.3381  0.3452 -0.3905
 8174WAT      O33401   3.613   0.863   4.037  0.2133 -0.6085  0.2475
 8174WAT     H133402   3.655   0.787   4.030 -0.7226 -0.9967 -2.3559
 8174WAT     H233403   3.661   0.908   4.095  0.3530 -3.3915  2.5350
 8174WAT    EPW33404   3.626   0.859   4.045 -0.1646  0.2297  0.2174
 8175WAT      O33405   4.018   1.765   5.997  0.0634  0.0533 -0.1581
 8175WAT     H133406   3.993   1.699   5.946 -1.7074 -0.6325  1.4700
 8175WAT     H233407   4.042   1.726   6.071 -0.6518  1.1614  0.7087
 8175WAT    EPW33408   4.018   1.750   6.000 -0.5500  0.4167  0.3555
 8176WAT      O33409   3.588   2.055   6.775 -0.5494 -0.4656  0.2546
 8176WAT     H133410   3.554   1.982   6.806 -1.9588 -0.5150 -1.2910
 8176WAT     H233411   3.610   2.035   6.693 -2.9814  1.3626 -0.9532
 8176WAT    EPW33412   3.586   2.042   6.767 -0.2825  0.1654 -0.7252
 8177WAT      O33413   4.454   1.037   7.493  0.3864  0.6654 -0.2193
 8177WAT     H133414   4.494   1.111   7.472  0.5742  0.2200 -1.5362
 8177WAT     H233415   4.509   0.975   7.463  0.7703 -0.0532  1.8165
 8177WAT    EPW33416   4.468   1.039   7.485  0.0010  0.4917 -0.4376
 8178WAT      O33417   3.825   2.234   6.145  0.5367 -0.0239 -0.3657
 8178WAT     H133418   3.811   2.305   6.095 -1.1023  0.1996  0.3515
 8178WAT     H233419   3.878   2.264   6.208 -0.2756  0.6261  0.0268
 8178WAT    EPW33420   3.831   2.249   6.147 -0.2832 -0.2371  0.0756
 8179WAT      O33421   3.878   1.960   0.269  0.8176  0.2383 -0.1859
 8179WAT     H133422   3.909   1.907   0.331 -0.3752 -0.3643 -0.0723
 8179WAT     H233423   3.843   2.026   0.313 -0.1759 -0.2707 -0.1977
 8179WAT    EPW33424   3.878   1.962   0.285 -0.0910 -0.4831  0.1558
 8180WAT      O33425   3.581   0.857   0.717 -0.3086  0.4681  0.2523
 8180WAT     H133426   3.636   0.791   0.702 -0.6086  0.2764 -0.0292
 8180WAT     H233427   3.512   0.819   0.753 -0.5369  0.6095 -0.0300
 8180WAT    EPW33428   3.579   0.842   0.720 -0.1226  0.4481 -0.0318
 8181WAT      O33429   3.110   0.731   5.019 -0.4209  0.4660 -0.0398
 8181WAT     H133430   3.112   0.715   4.933  2.0568 -0.6422  0.1751
 8181WAT     H233431   3.192   0.721   5.045 -0.7611  2.4232  2.2199
 8181WAT    EPW33432   3.122   0.727   5.010  0.3423 -0.7386 -0.2518
 8182WAT      O33433   3.693   0.978   5.606  0.3326  0.6910  0.3170
 8182WAT     H133434   3.743   1.031   5.654 -1.9852  2.1525  1.2925
 8182WAT     H233435   3.639   0.941   5.664  0.4102 -1.0632 -0.6467
 8182WAT    EPW33436   3.693   0.980   5.621  0.1342 -0.4112  0.2561
 8183WAT      O33437   4.081   2.395   7.123  0.1088 -0.1754 -0.2821
 8183WAT     H133438   4.136   2.349   7.173  1.5825  0.8269 -0.9383
 8183WAT     H233439   4.107   2.378   7.042  1.4670  2.5936 -0.5532
 8183WAT    EPW33440   4.093   2.386   7.119 -0.1633 -0.4966 -0.3145
 8184WAT      O33441   3.925   1.149   6.438 -0.1316 -0.4056  0.8770
 8184WAT     H133442   3.949   1.130   6.520  0.2595  2.1678  1.4342
 8184WAT     H233443   3.961   1.085   6.391  1.1058 -1.0041  2.5330
 8184WAT    EPW33444   3.934   1.137   6.443 -0.8511  0.6482 -0.7678
 8185WAT      O33445   4.484   0.009   6.607 -0.0364 -0.1100  0.5428
 8185WAT     H133446   4.552   0.064   6.607  2.2489 -2.7050 -0.5470
 8185WAT     H233447   4.461   0.005   6.523 -2.5520  1.6761  1.0126
 8185WAT    EPW33448   4.491   0.017   6.595 -0.6177  0.0336  0.7029
 8186WAT      O33449   3.582   7.898   7.770 -0.3994  0.3892  0.3906
 8186WAT     H133450   3.509   7.927   7.733  0.5878  1.9362 -0.4349
 8186WAT     H233451   3.618   7.970   7.804  0.5900 -0.3969  1.0829
 8186WAT    EPW33452   3.577   7.913   7.770  0.1561 -0.2370  0.2832
 8187WAT      O33453   4.550   8.009   4.631 -0.3827 -0.1921 -0.2367
 8187WAT     H133454   4.513   8.083   4.658  0.0871 -0.3807  1.0345
 8187WAT     H233455   4.636   8.024   4.644 -0.2602 -0.8187 -0.3030
 8187WAT    EPW33456   4.557   8.022   4.637 -0.0538 -0.0577 -1.2781
 8188WAT      O33457   3.617   0.833   5.854  0.1031  0.4530 -0.7054
 8188WAT     H133458   3.588   0.836   5.937 -1.1857 -1.1047 -1.0510
 8188WAT     H233459   3.679   0.771   5.856  0.7374  1.0698 -0.7468
 8188WAT    EPW33460   3.622   0.824   5.867 -0.3873 -0.1709 -0.1493
 8189WAT      O33461   5.670   0.349   6.815 -0.2985  0.1094 -0.4941
 8189WAT     H133462   5.752   0.368   6.837 -0.6217  0.2835  0.6161
 8189WAT     H233463   5.634   0.427   6.799 -1.0169  0.3477  1.8925
 8189WAT    EPW33464   5.677   0.363   6.816  0.7310 -1.2716 -1.9013
 8190WAT      O33465   5.083   1.523   0.781  0.1265  0.4592  0.3202
 8190WAT     H133466   5.055   1.597   0.745  1.3378  0.8662  0.1651
 8190WAT     H233467   5.166   1.517   0.753  1.0010  0.5688  2.6473
 8190WAT    EPW33468   5.091   1.533   0.771  0.5742 -0.0456  0.3861
 8191WAT      O33469   4.816   7.952   3.470  0.2704 -0.2925 -0.3590
 8191WAT     H133470   4.893   7.913   3.457 -0.9134 -2.6578 -0.8160
 8191WAT     H233471   4.759   7.887   3.462 -1.7969  1.3842 -0.0011
 8191WAT    EPW33472   4.819   7.936   3.467  1.0619  0.7088 -0.9449
 8192WAT      O33473   3.433   6.975   6.802 -0.0262 -0.2984 -0.0612
 8192WAT     H133474   3.365   6.934   6.837 -1.0071  0.5066 -0.9791
 8192WAT     H233475   3.447   6.932   6.728 -0.8853  0.8167 -0.8931
 8192WAT    EPW33476   3.425   6.962   6.796  0.4782  0.2508 -0.1108
 8193WAT      O33477   3.956   7.979   5.861  0.0806  0.1048 -0.1894
 8193WAT     H133478   3.994   8.055   5.841  0.9128 -0.2442  0.0033
 8193WAT     H233479   4.024   7.924   5.869 -0.2138 -0.0454  2.4642
 8193WAT    EPW33480   3.972   7.982   5.860 -0.0677  0.5271 -0.2534
 8194WAT      O33481   4.088   0.281   7.313 -0.5465 -0.2229  0.0423
 8194WAT     H133482   4.116   0.206   7.278  0.4032  1.0342 -2.1193
 8194WAT     H233483   4.148   0.299   7.374 -0.8320 -1.2358  0.6346
 8194WAT    EPW33484   4.101   0.273   7.317 -0.1548 -0.7877 -0.8067
 8195WAT      O33485   4.261   0.417   5.071  0.4788  0.0415 -0.1924
 8195WAT     H133486   4.211   0.487   5.085  1.8724  0.7441  1.8834
 8195WAT     H233487   4.322   0.446   5.016  0.1632 -0.0247 -0.5828
 8195WAT    EPW33488   4.263   0.432   5.065 -0.1666  0.3450 -0.3735
 8196WAT      O33489   4.297   7.844   4.428  0.2698  0.3542 -0.9085
 8196WAT     H133490   4.255   7.814   4.357  1.2499 -1.2335 -0.8747
 8196WAT     H233491   4.381   7.837   4.406  0.5835  0.1679  0.2833
 8196WAT    EPW33492   4.303   7.839   4.414  0.2396 -0.8130  0.6719
 8197WAT      O33493   3.265   7.513   6.771 -0.1453 -0.2608  0.3628
 8197WAT     H133494   3.267   7.431   6.801  1.2300 -0.4293 -0.0809
 8197WAT     H233495   3.323   7.554   6.822  1.5036 -0.3243 -1.3226
 8197WAT    EPW33496   3.274   7.507   6.783  0.3523  0.2881  0.4006
 8198WAT      O33497   4.149   6.380   4.557 -0.1279  0.2319 -0.0076
 8198WAT     H133498   4.115   6.306   4.525  2.3747 -1.2193  0.4169
 8198WAT     H233499   4.230   6.357   4.580  0.5606  2.9928  0.7026
 8198WAT    EPW33500   4.156   6.365   4.555 -0.1626  0.3182  1.4454
 8199WAT      O33501   2.823   0.714   5.846 -0.4903 -0.6377 -0.0230
 8199WAT     H133502   2.751   0.753   5.877 -1.4423 -2.0598 -0.3498
 8199WAT     H233503   2.885   0.774   5.856 -1.5515  0.3218  1.0658
 8199WAT    EPW33504   2.821   0.729   5.852 -0.4751  0.2360 -0.6863
 8200WAT      O33505   4.775   0.154   4.269 -0.0878 -0.4781 -0.9071
 8200WAT     H133506   4.821   0.115   4.206  0.2241  0.0980 -1.0496
 8200WAT     H233507   4.834   0.172   4.330 -0.2032 -0.1507 -0.8870
 8200WAT    EPW33508   4.790   0.151   4.269 -0.2517 -0.2458 -0.2368
 8201WAT      O33509   4.013   0.658   7.674 -0.0509 -0.1226  0.0957
 8201WAT     H133510   3.975   0.604   7.618  0.2340 -1.0589  0.7765
 8201WAT     H233511   4.004   0.736   7.637  0.5894 -0.7659 -1.5013
 8201WAT    EPW33512   4.006   0.662   7.660 -0.2386  0.1966 -0.4503
 8202WAT      O33513   3.484   0.968   3.616  0.0486  0.1033 -0.0565
 8202WAT     H133514   3.468   0.928   3.540 -0.0825 -0.1064  0.0832
 8202WAT     H233515   3.562   0.937   3.639 -1.0231 -1.8331  1.1903
 8202WAT    EPW33516   3.493   0.958   3.608  0.1344 -0.2231  0.3872
 8203WAT      O33517   2.819   0.742   7.218 -0.6302  0.1156  0.0982
 8203WAT     H133518   2.758   0.804   7.231 -0.6564  0.4024 -1.1922
 8203WAT     H233519   2.893   0.780   7.244 -0.6447  0.7290 -0.6842
 8203WAT    EPW33520   2.821   0.757   7.224 -0.1634 -0.1106 -0.1815
 8204WAT      O33521   4.257   1.135   6.626 -0.5552  0.1806  0.0795
 8204WAT     H133522   4.276   1.095   6.550 -2.1280 -0.0772 -0.2156
 8204WAT     H233523   4.174   1.113   6.640 -1.3722  2.9119  0.1572
 8204WAT    EPW33524   4.248   1.126   6.617  0.2796  0.2847 -1.1438
 8205WAT      O33525   2.391   7.121   4.871 -0.5229  0.2121  0.0618
 8205WAT     H133526   2.310   7.101   4.897 -0.9355  1.0481 -0.5373
 8205WAT     H233527   2.390   7.208   4.865  0.5831  0.2788  0.5436
 8205WAT    EPW33528   2.379   7.131   4.874 -0.0822  0.0556 -0.6455
 8206WAT      O33529   4.304   0.290   6.447  0.2187  0.1036  0.8198
 8206WAT     H133530   4.271   0.243   6.382  0.6482 -0.1876  0.8032
 8206WAT     H233531   4.390   0.280   6.437  0.2848 -0.2653  1.6607
 8206WAT    EPW33532   4.312   0.282   6.436 -0.5220  0.6493  0.3829
 8207WAT      O33533   4.637   1.463   5.822 -0.3269 -0.4192  0.8166
 8207WAT     H133534   4.579   1.523   5.797  1.1161  1.2341  1.2726
 8207WAT     H233535   4.671   1.434   5.747  0.3850  0.8138  0.6438
 8207WAT    EPW33536   4.633   1.467   5.807  0.2802  0.0895 -0.1471
 8208WAT      O33537   3.537   7.926   0.416 -0.1434 -0.4810  0.3080
 8208WAT     H133538   3.588   7.864   0.382 -0.4833 -0.0655 -1.0534
 8208WAT     H233539   3.593   7.984   0.447  0.1780 -1.2721  1.2585
 8208WAT    EPW33540   3.553   7.925   0.415 -0.3727 -0.4474  0.6446
 8209WAT      O33541   5.957   0.568   7.760  0.0967  0.6998 -0.4337
 8209WAT     H133542   6.023   0.547   7.812  0.3024  1.5993 -0.3152
 8209WAT     H233543   5.929   0.491   7.730  1.7269  0.3487 -1.1440
 8209WAT    EPW33544   5.962   0.554   7.763  0.5549 -0.1564 -0.2010
 8210WAT      O33545   4.124   0.231   7.728 -0.4298  0.0522  0.2229
 8210WAT     H133546   4.163   0.255   7.802  2.7437 -1.0781 -0.8955
 8210WAT     H233547   4.143   0.295   7.673 -2.5127  0.7427  0.2459
 8210WAT    EPW33548   4.133   0.244   7.731  0.2353 -0.1610 -0.4856
 8211WAT      O33549   4.092   0.652   5.092 -0.0182  0.8069  0.7224
 8211WAT     H133550   4.095   0.716   5.034  0.7194  1.8164  1.8140
 8211WAT     H233551   4.123   0.689   5.165  1.6184 -1.1094  1.0870
 8211WAT    EPW33552   4.097   0.667   5.095 -0.4034 -0.0431 -0.3212
 8212WAT      O33553   5.034   1.428   7.078  0.3080  0.3630  0.1911
 8212WAT     H133554   5.071   1.478   7.139  1.6412  0.4670 -0.6876
 8212WAT     H233555   5.097   1.372   7.056  0.5966  1.6416 -2.5809
 8212WAT    EPW33556   5.048   1.427   7.084  0.8438 -0.7610  0.5058
 8213WAT      O33557   4.392   1.405   0.371 -0.2152  0.6280 -0.0616
 8213WAT     H133558   4.393   1.350   0.303  0.0715  0.9871 -0.3559
 8213WAT     H233559   4.476   1.415   0.390 -0.0429  2.9359 -1.6505
 8213WAT    EPW33560   4.404   1.398   0.364 -0.0376  0.6892  0.2890
 8214WAT      O33561   4.462   7.257   6.508 -0.5696  0.2106 -0.0777
 8214WAT     H133562   4.404   7.208   6.550  1.6972 -1.2013  1.6069
 8214WAT     H233563   4.455   7.336   6.545  0.4987 -0.6872  2.1801
 8214WAT    EPW33564   4.452   7.262   6.519 -0.7209  0.2930 -0.5832
 8215WAT      O33565   4.488   2.504   4.651  0.3836 -0.0506 -0.4703
 8215WAT     H133566   4.401   2.498   4.649  0.3099 -0.0612  1.4400
 8215WAT     H233567   4.505   2.565   4.591 -1.0252  0.6803 -0.1731
 8215WAT    EPW33568   4.478   2.512   4.642 -0.5863 -0.7408  0.5251
 8216WAT      O33569   4.826   0.505   3.785  0.8718  0.0110  0.1095
 8216WAT     H133570   4.888   0.521   3.844 -0.2914 -1.3823  1.7973
 8216WAT     H233571   4.785   0.582   3.777  1.4381  0.3755  0.6575
 8216WAT    EPW33572   4.829   0.519   3.792  0.1903 -0.1687 -1.2121
 8217WAT      O33573   3.512   1.391   6.763  0.1488  0.8150 -0.3680
 8217WAT     H133574   3.567   1.328   6.738  0.7195  1.4784 -0.8065
 8217WAT     H233575   3.557   1.434   6.824 -0.6751  0.1069  0.7799
 8217WAT    EPW33576   3.527   1.388   6.769 -0.0894 -0.3842  0.2774
 8218WAT      O33577   5.414   1.621   0.027  0.0403 -0.1184 -0.1026
 8218WAT     H133578   5.349   1.662   0.067  0.9543 -1.0248  2.4902
 8218WAT     H233579   5.469   1.686   0.006  0.6011  0.2495  2.2725
 8218WAT    EPW33580   5.413   1.637   0.030  0.5908 -0.0425 -0.0634
 8219WAT      O33581   3.852   7.388   5.487  0.2483 -0.0168  0.0113
 8219WAT     H133582   3.850   7.475   5.501 -0.7755 -0.0259  0.0418
 8219WAT     H233583   3.890   7.380   5.410 -1.6446  0.6454 -1.0603
 8219WAT    EPW33584   3.857   7.400   5.478  0.0827  0.2553 -0.1906
 8220WAT      O33585   5.007   7.716   6.970  0.1955  0.2150 -0.0636
 8220WAT     H133586   4.945   7.702   6.910 -0.4630 -1.5650  0.9591
 8220WAT     H233587   4.974   7.779   7.020 -2.2588 -2.5988  2.2021
 8220WAT    EPW33588   4.993   7.723   6.968  0.6116  0.2616  0.3425
 8221WAT      O33589   4.280   0.414   5.616  0.6972  0.6814 -0.3637
 8221WAT     H133590   4.199   0.385   5.626  0.8311 -0.0531 -1.3567
 8221WAT     H233591   4.325   0.374   5.679  0.5808 -0.0850 -0.7661
 8221WAT    EPW33592   4.275   0.404   5.627 -0.4224 -0.5397 -0.0921
 8222WAT      O33593   5.820   0.137   6.001  0.1874 -0.1802 -0.1700
 8222WAT     H133594   5.826   0.167   5.919  0.2879  0.8647  0.1998
 8222WAT     H233595   5.740   0.162   6.026  0.5043  0.3506  0.3524
 8222WAT    EPW33596   5.809   0.145   5.993  0.7098  0.4685 -1.1412
 8223WAT      O33597   2.627   7.976   5.908  0.2794  0.2298 -0.1414
 8223WAT     H133598   2.557   7.986   5.959 -0.3934  1.2483 -1.2110
 8223WAT     H233599   2.593   7.957   5.830  1.1119  1.8457 -0.9485
 8223WAT    EPW33600   2.612   7.975   5.904  1.0286  0.9257 -0.2922
 8224WAT      O33601   4.510   0.147   4.386 -0.7770  0.4097 -0.1162
 8224WAT     H133602   4.506   0.111   4.466 -0.1526  3.6895  1.5947
 8224WAT     H233603   4.594   0.139   4.364 -0.9874 -0.6710 -0.5684
 8224WAT    EPW33604   4.522   0.141   4.395 -0.0954 -0.2829 -0.4028
 8225WAT      O33605   3.198   0.595   7.325  0.0833 -0.1675  0.2964
 8225WAT     H133606   3.141   0.541   7.288  0.5765 -0.1056 -0.5923
 8225WAT     H233607   3.161   0.673   7.319  0.1082 -0.1755  0.0320
 8225WAT    EPW33608   3.184   0.599   7.319  0.0927 -0.8167  0.4196
 8226WAT      O33609   4.823   2.117   6.214  0.2369 -0.0712 -0.1036
 8226WAT     H133610   4.886   2.113   6.274  1.4858 -1.2783 -1.4164
 8226WAT     H233611   4.812   2.033   6.190 -1.4730  0.1819 -0.3261
 8226WAT    EPW33612   4.830   2.104   6.220  0.2464 -0.9822  0.3966
 8227WAT      O33613   3.875   0.037   6.419 -0.0615 -0.3631 -0.9016
 8227WAT     H133614   3.835   0.114   6.423  0.4399 -0.1004  2.1411
 8227WAT     H233615   3.809  -0.021   6.413 -0.5605  0.2252 -1.1465
 8227WAT    EPW33616   3.859   0.039   6.419  1.0042 -0.3599 -0.5399
 8228WAT      O33617   2.925   6.076   3.236  0.1509 -0.3251 -0.0646
 8228WAT     H133618   2.941   6.024   3.305 -0.0905 -2.1164 -1.2892
 8228WAT     H233619   2.866   6.132   3.267 -1.2269 -2.1287  0.8173
 8228WAT    EPW33620   2.918   6.076   3.251  0.5774 -0.9774  0.2705
 8229WAT      O33621   4.727   0.289   7.988 -0.4903  0.6598  0.5527
 8229WAT     H133622   4.649   0.260   7.963  0.0311  0.3274 -0.7538
 8229WAT     H233623   4.783   0.236   7.946  0.4500  0.0815  2.4360
 8229WAT    EPW33624   4.724   0.277   7.978 -0.4231  0.1229  0.2066
 8230WAT      O33625   3.729   0.608   7.264 -0.1176 -0.1186 -0.3457
 8230WAT     H133626   3.677   0.649   7.322  0.6652  1.0260 -0.4161
 8230WAT     H233627   3.768   0.546   7.312 -0.0672  0.3084  0.1836
 8230WAT    EPW33628   3.727   0.605   7.280 -0.1207 -0.5917 -0.0682
 8231WAT      O33629   5.309   1.086   6.549 -0.3320  0.0550  0.5834
 8231WAT     H133630   5.239   1.052   6.590 -0.5894 -0.9637 -0.6447
 8231WAT     H233631   5.376   1.050   6.592 -0.6023 -2.1957 -0.7421
 8231WAT    EPW33632   5.308   1.075   6.562 -0.2480  0.0614 -0.0837
 8232WAT      O33633   4.110   0.594   3.772 -0.2212 -0.1455  0.1206
 8232WAT     H133634   4.143   0.585   3.852  1.7282 -1.6888 -0.7670
 8232WAT     H233635   4.094   0.512   3.746 -0.5759  0.2974 -1.1720
 8232WAT    EPW33636   4.112   0.581   3.780  0.1995 -0.3727 -0.3286
 8233WAT      O33637   3.813   0.178   0.273  0.3827 -0.0926  0.1354
 8233WAT     H133638   3.809   0.236   0.339 -0.6812  0.6455 -0.5602
 8233WAT     H233639   3.863   0.218   0.214  0.1422 -0.1402 -0.1000
 8233WAT    EPW33640   3.820   0.193   0.274  0.1292  0.2125  0.0721
 8234WAT      O33641   5.717   1.087   7.484 -0.6042  0.1908 -0.4043
 8234WAT     H133642   5.744   1.146   7.542  0.1110  0.8403 -1.3647
 8234WAT     H233643   5.727   1.011   7.526  0.8536  0.5681 -0.0117
 8234WAT    EPW33644   5.723   1.084   7.498 -0.2706  0.0719  1.0983
 8235WAT      O33645   4.225   7.731   4.708  0.2678 -0.2522 -0.1359
 8235WAT     H133646   4.257   7.752   4.630 -0.6169 -1.0072 -0.7200
 8235WAT     H233647   4.290   7.751   4.763  1.9123 -2.0512 -1.2973
 8235WAT    EPW33648   4.239   7.737   4.705  0.2328  0.2404  0.5522
 8236WAT      O33649   4.088   1.408   5.331 -0.3350 -0.2738  0.3627
 8236WAT     H133650   4.102   1.490   5.355 -1.3940  0.2591 -0.7617
 8236WAT     H233651   4.002   1.405   5.315 -0.4252 -1.7526  0.9261
 8236WAT    EPW33652   4.077   1.419   5.332 -0.0808  0.6648  0.2634
 8237WAT      O33653   2.848   1.470   7.366 -0.1673 -0.4813 -0.7505
 8237WAT     H133654   2.864   1.498   7.447 -2.7690 -0.2386 -0.2125
 8237WAT     H233655   2.820   1.388   7.379 -2.2557  0.1070 -1.1157
 8237WAT    EPW33656   2.846   1.462   7.380  0.5556 -0.1114 -0.1604
 8238WAT      O33657   4.268   0.241   5.284  0.1604 -0.0135 -0.0824
 8238WAT     H133658   4.269   0.261   5.199 -0.2840  0.9924  0.1316
 8238WAT     H233659   4.305   0.162   5.287  1.2220  0.4167 -1.0800
 8238WAT    EPW33660   4.273   0.232   5.272 -0.2427  0.4507 -0.5379
 8239WAT      O33661   3.984   1.503   5.856 -0.4940  0.1813  0.2980
 8239WAT     H133662   3.909   1.489   5.814 -1.2836 -1.7646  2.1556
 8239WAT     H233663   3.993   1.431   5.904  0.4919  2.0823  3.1585
 8239WAT    EPW33664   3.974   1.490   5.857  0.2777 -0.0374 -0.6147
 8240WAT      O33665   4.533   0.785   6.548  0.1128 -0.7943  0.3442
 8240WAT     H133666   4.559   0.826   6.475 -1.3166 -0.7318 -0.1690
 8240WAT     H233667   4.588   0.717   6.554 -0.1870 -1.2171 -1.2183
 8240WAT    EPW33668   4.545   0.781   6.538 -0.7838 -0.3536  0.7459
 8241WAT      O33669   3.814   0.469   0.045  0.1438  0.1304 -0.0710
 8241WAT     H133670   3.875   0.532   0.044  0.0023  0.3633  1.9889
 8241WAT     H233671   3.859   0.396   0.029  0.5769  0.5461 -0.7946
 8241WAT    EPW33672   3.830   0.467   0.042  0.7976  0.1911 -0.1557
 8242WAT      O33673   4.196   1.086   0.807  0.0762 -0.0822  0.0864
 8242WAT     H133674   4.169   1.164   0.779 -3.1466 -0.9053  0.4109
 8242WAT     H233675   4.166   1.083   0.889  0.6002 -1.4529  0.2474
 8242WAT    EPW33676   4.187   1.097   0.815  0.0913  0.6552 -0.0786
 8243WAT      O33677   3.664   0.647   3.416 -0.2082  0.1697  0.0011
 8243WAT     H133678   3.620   0.718   3.442 -0.4312  0.6302 -1.5653
 8243WAT     H233679   3.622   0.621   3.345  0.5379 -0.9100 -0.0795
 8243WAT    EPW33680   3.651   0.654   3.410 -0.8791 -0.0407 -0.4879
 8244WAT      O33681   4.921   0.606   7.762  0.4080 -0.3680  0.0566
 8244WAT     H133682   4.963   0.532   7.781  0.6901 -0.2047  0.0727
 8244WAT     H233683   4.976   0.668   7.788 -0.2665 -0.1528  1.0131
 8244WAT    EPW33684   4.935   0.604   7.768  0.5452 -0.1989 -0.7421
 8245WAT      O33685   4.990   7.290   5.373  0.2801 -0.0980 -0.2183
 8245WAT     H133686   5.055   7.286   5.431 -0.5960  1.0117  0.8844
 8245WAT     H233687   4.928   7.240   5.408 -1.1446  2.3785  1.0716
 8245WAT    EPW33688   4.990   7.282   5.387  0.1412 -0.7580 -0.9288
 8246WAT      O33689   4.667   0.534   7.862 -0.1364  0.1559 -0.3874
 8246WAT     H133690   4.735   0.572   7.823  0.3191  2.2847  2.2143
 8246WAT     H233691   4.702   0.462   7.898  0.9176  1.3899  1.1918
 8246WAT    EPW33692   4.682   0.529   7.862 -0.1916 -1.6930 -0.0805
 8247WAT      O33693   3.753   7.972   6.862  0.1902  0.0830  0.0588
 8247WAT     H133694   3.685   8.026   6.868  0.4538  0.5794 -1.0943
 8247WAT     H233695   3.779   7.962   6.944  0.2503  1.8941  0.2974
 8247WAT    EPW33696   3.747   7.979   6.875  0.3904  0.0253 -0.4117
 8248WAT      O33697   4.886   7.604   4.613 -0.2501 -0.3259 -0.1007
 8248WAT     H133698   4.799   7.611   4.620 -0.2861 -0.9353  0.1177
 8248WAT     H233699   4.904   7.532   4.658  0.4578  0.1980  0.4810
 8248WAT    EPW33700   4.876   7.595   4.621  0.1983 -0.5414 -0.6370
 8249WAT      O33701   4.116   0.878   4.920  0.5410  0.5627 -0.2270
 8249WAT     H133702   4.117   0.856   4.835  2.6724 -1.8042  0.2775
 8249WAT     H233703   4.168   0.948   4.923  0.3032  0.7781 -0.8915
 8249WAT    EPW33704   4.124   0.885   4.908 -0.6394 -0.6859 -0.0706
 8250WAT      O33705   4.328   1.068   6.368 -0.8067 -0.5344 -0.2971
 8250WAT     H133706   4.307   1.141   6.326 -1.0742 -0.4344  0.0147
 8250WAT     H233707   4.390   1.033   6.317 -0.8897 -0.2443 -0.6008
 8250WAT    EPW33708   4.334   1.073   6.354 -0.3946 -0.4695  0.2693
 8251WAT      O33709   3.232   1.384   6.747  0.1380 -0.0217 -0.1468
 8251WAT     H133710   3.318   1.383   6.762 -0.2026 -1.4441  2.2837
 8251WAT     H233711   3.198   1.381   6.827 -2.2212  1.1313 -1.0201
 8251WAT    EPW33712   3.240   1.384   6.761 -0.1617 -0.3394  0.3511
 8252WAT      O33713   3.872   0.153   7.706  0.2893  0.5865 -0.4146
 8252WAT     H133714   3.954   0.179   7.714  0.3120  0.3264  0.2300
 8252WAT     H233715   3.862   0.143   7.619  1.1542 -0.1120 -0.4447
 8252WAT    EPW33716   3.882   0.156   7.694  0.8085 -0.2497  0.2354
 8253WAT      O33717   5.352   1.621   6.523 -0.0744 -0.1708  0.3467
 8253WAT     H133718   5.274   1.650   6.549  0.0462 -0.4695  1.0680
 8253WAT     H233719   5.341   1.535   6.514  0.0889 -0.1729  0.1412
 8253WAT    EPW33720   5.339   1.613   6.525 -0.2062  0.5776 -0.0262
 8254WAT      O33721   3.733   0.150   6.067 -0.6949  0.0748 -0.2623
 8254WAT     H133722   3.763   0.173   5.988 -2.0994 -0.7502 -1.0665
 8254WAT     H233723   3.702   0.225   6.099 -0.5417  0.3281 -0.6940
 8254WAT    EPW33724   3.733   0.165   6.060  0.0853  0.3708  0.2484
 8255WAT      O33725   4.424   0.916   7.761  0.6426 -0.4223  0.3166
 8255WAT     H133726   4.377   0.843   7.768  1.2029 -0.8284 -0.1075
 8255WAT     H233727   4.412   0.941   7.679 -1.8922  1.5979  1.1597
 8255WAT    EPW33728   4.415   0.909   7.750  0.3039  0.8169 -0.2814
 8256WAT      O33729   3.483   0.384   5.417  0.0309 -0.0776 -0.0909
 8256WAT     H133730   3.539   0.340   5.366 -0.8290 -1.4018  0.0691
 8256WAT     H233731   3.536   0.427   5.472  0.9214 -0.0718 -0.9145
 8256WAT    EPW33732   3.499   0.384   5.417  0.1733 -0.1993 -0.2882
 8257WAT      O33733   3.996   7.607   5.815 -0.1704 -0.2178  0.3125
 8257WAT     H133734   3.946   7.625   5.745 -2.1175 -0.3987  1.5680
 8257WAT     H233735   4.021   7.525   5.802 -0.5874 -0.2772 -0.1410
 8257WAT    EPW33736   3.992   7.598   5.803 -1.1047 -0.5426 -0.6108
 8258WAT      O33737   4.094   1.386   4.461 -0.8414 -0.2791 -0.0956
 8258WAT     H133738   4.084   1.335   4.531  0.3852  1.0561  1.1319
 8258WAT     H233739   4.176   1.371   4.436 -1.4529 -1.1960 -1.6710
 8258WAT    EPW33740   4.105   1.376   4.467  0.4691 -0.0507  0.2046
 8259WAT      O33741   5.940   0.091   6.875  0.3337  0.2796  0.0560
 8259WAT     H133742   5.986   0.164   6.879 -2.2866  2.0248  1.6143
 8259WAT     H233743   5.907   0.083   6.955  0.4480 -2.6145 -0.0790
 8259WAT    EPW33744   5.942   0.101   6.887  0.1734 -0.3034 -1.1669
 8260WAT      O33745   4.808   0.209   5.250 -0.0292  0.4396  0.3145
 8260WAT     H133746   4.782   0.217   5.332  0.3722 -1.8792  0.7215
 8260WAT     H233747   4.871   0.270   5.242  2.3357 -1.4291  2.8205
 8260WAT    EPW33748   4.814   0.219   5.261 -0.0513  0.1056 -0.2395
 8261WAT      O33749   4.618   0.741   5.920  0.8549 -0.7342 -0.7336
 8261WAT     H133750   4.640   0.819   5.888  0.9525 -0.1156  0.7509
 8261WAT     H233751   4.599   0.694   5.849  1.4217  0.4396 -1.6942
 8261WAT    EPW33752   4.618   0.745   5.904  0.5316  0.0719  0.7632
 8262WAT      O33753   4.854   2.240   4.019  1.0503 -0.0145 -0.6179
 8262WAT     H133754   4.848   2.249   4.105  2.2641 -0.1114 -0.5072
 8262WAT     H233755   4.808   2.307   3.988  0.0036 -0.3890  0.0882
 8262WAT    EPW33756   4.846   2.251   4.027 -0.9943 -0.2015  0.7273
 8263WAT      O33757   2.620   0.517   4.359  0.2411  0.2659 -0.0999
 8263WAT     H133758   2.697   0.540   4.324  0.3145 -1.6159 -1.3597
 8263WAT     H233759   2.595   0.588   4.402  1.9109  1.5041 -1.0258
 8263WAT    EPW33760   2.628   0.531   4.360  0.3607  0.1814  0.5600
 8264WAT      O33761   3.540   0.207   7.485  0.4015 -0.0588 -0.1104
 8264WAT     H133762   3.471   0.212   7.432 -1.0190 -2.0562  1.4110
 8264WAT     H233763   3.568   0.125   7.475  2.0301  0.4528 -0.0272
 8264WAT    EPW33764   3.534   0.196   7.476  0.4986  0.3744 -0.1354
 8265WAT      O33765   4.675   1.698   7.556  0.0433  0.0579  0.2301
 8265WAT     H133766   4.720   1.702   7.630 -0.6996  1.0765  0.6500
 8265WAT     H233767   4.735   1.713   7.494  0.2234  2.0163  0.8152
 8265WAT    EPW33768   4.690   1.700   7.557  0.7731  0.1005 -0.1303
 8266WAT      O33769   4.767   0.366   6.047  0.2544  0.5329 -0.5188
 8266WAT     H133770   4.772   0.430   6.105  1.3651  1.1489 -1.2479
 8266WAT     H233771   4.834   0.383   5.992 -0.6951 -0.0617 -1.9143
 8266WAT    EPW33772   4.778   0.378   6.047  0.1089  0.0345 -0.9914
 8267WAT      O33773   3.968   0.886   6.133  0.1583  0.9475 -0.3995
 8267WAT     H133774   3.891   0.927   6.134 -0.6271 -0.4748 -0.1996
 8267WAT     H233775   4.002   0.904   6.211 -2.0099 -1.9995  1.4376
 8267WAT    EPW33776   3.962   0.894   6.145  0.0764  0.4519  0.8518
 8268WAT      O33777   4.166   2.297   6.865  0.1173  0.6170 -0.2275
 8268WAT     H133778   4.148   2.214   6.845  1.1866  0.2286  0.3759
 8268WAT     H233779   4.173   2.336   6.787  0.4973 -0.0485 -0.5294
 8268WAT    EPW33780   4.164   2.291   6.850  0.4312  0.2349 -0.4218
 8269WAT      O33781   3.044   7.976   6.767 -0.2157  0.6031 -0.1388
 8269WAT     H133782   3.128   7.991   6.748  0.1146  0.5789  1.1977
 8269WAT     H233783   3.012   8.056   6.784 -0.4588  0.6067 -0.5890
 8269WAT    EPW33784   3.051   7.990   6.766 -0.1976 -0.3785  0.5910
 8270WAT      O33785   4.106   0.927   6.375 -0.0232 -0.2754 -0.2509
 8270WAT     H133786   4.181   0.971   6.370  0.2871 -0.3287  2.4142
 8270WAT     H233787   4.129   0.851   6.412 -1.3746 -0.2667  0.6951
 8270WAT    EPW33788   4.120   0.922   6.379  0.3359  0.6981  0.0620
 8271WAT      O33789   3.995   7.514   4.918  0.0781  0.1927  0.2495
 8271WAT     H133790   3.919   7.506   4.960  0.0331 -2.7868 -0.2283
 8271WAT     H233791   3.983   7.469   4.844  2.1684  0.0064 -0.0395
 8271WAT    EPW33792   3.982   7.506   4.913 -0.6884  0.0862 -0.2461
 8272WAT      O33793   2.703   0.853   4.362 -0.9009  0.3169  0.6632
 8272WAT     H133794   2.635   0.831   4.412 -0.5895  1.6380  1.7325
 8272WAT     H233795   2.769   0.860   4.418  0.0459 -0.5400 -0.2984
 8272WAT    EPW33796   2.703   0.851   4.378  0.2574  0.0751 -0.0091
 8273WAT      O33797   3.863   0.702   3.830  0.1258  0.5130  0.0510
 8273WAT     H133798   3.924   0.646   3.803 -0.5427  0.5828 -1.6987
 8273WAT     H233799   3.899   0.737   3.901  0.4694 -2.2375  1.3642
 8273WAT    EPW33800   3.877   0.699   3.836  0.1516  0.3290 -0.2314
 8274WAT      O33801   5.274   2.410   5.665  0.4511 -0.1210 -0.1573
 8274WAT     H133802   5.235   2.441   5.736 -1.1638 -0.5371 -0.8165
 8274WAT     H233803   5.333   2.354   5.697 -1.9539 -2.2601  0.9019
 8274WAT    EPW33804   5.277   2.406   5.680 -0.3037 -0.4294 -0.4029
 8275WAT      O33805   5.270   1.454   1.320  0.1059 -0.3221  0.1267
 8275WAT     H133806   5.291   1.370   1.329 -0.2235 -0.5904 -1.3587
 8275WAT     H233807   5.235   1.458   1.240  2.1265  1.6096 -0.7974
 8275WAT    EPW33808   5.268   1.442   1.309  0.2059 -0.6888 -0.2152
 8276WAT      O33809   3.691   0.255   5.278  0.7049  0.0281  0.1829
 8276WAT     H133810   3.773   0.261   5.248  0.5428  0.7731 -0.1542
 8276WAT     H233811   3.646   0.226   5.209  0.6037  0.1185  0.2102
 8276WAT    EPW33812   3.696   0.252   5.263  0.1122 -0.2659  0.1600
 8277WAT      O33813   4.337   7.233   7.864 -0.0594 -0.3020  0.1328
 8277WAT     H133814   4.313   7.184   7.795 -0.8462  0.1827  0.0465
 8277WAT     H233815   4.268   7.228   7.917 -1.5783  3.1389 -1.2082
 8277WAT    EPW33816   4.323   7.225   7.861 -0.0401 -0.3752  0.2473
 8278WAT      O33817   3.709   0.577   4.843 -0.3681 -0.2169  0.0895
 8278WAT     H133818   3.673   0.657   4.842  0.0063 -0.0339 -1.5844
 8278WAT     H233819   3.756   0.577   4.917 -1.9439  0.3625  1.1503
 8278WAT    EPW33820   3.711   0.589   4.854 -0.1252  0.3334 -0.2079
 8279WAT      O33821   4.818   0.050   3.690 -0.2247  0.1975  0.5464
 8279WAT     H133822   4.794  -0.017   3.639  0.8902 -0.6919  1.1278
 8279WAT     H233823   4.787   0.028   3.769 -1.4500  1.2863  0.3822
 8279WAT    EPW33824   4.810   0.037   3.694  0.5126  0.1731 -0.7234
 8280WAT      O33825   3.580   7.976   6.114 -0.0874  0.0927  0.5171
 8280WAT     H133826   3.627   7.928   6.168  0.0816  0.1376  0.4097
 8280WAT     H233827   3.629   8.047   6.101  0.3398 -0.3541 -0.4796
 8280WAT    EPW33828   3.594   7.979   6.120 -0.2939  0.0844 -0.3148
 8281WAT      O33829   3.153   7.998   2.440 -0.4544  0.3700  0.4352
 8281WAT     H133830   3.138   7.940   2.504 -2.6823  1.2942  0.8600
 8281WAT     H233831   3.159   8.074   2.481  1.2453  0.6227 -0.2233
 8281WAT    EPW33832   3.151   8.000   2.455 -0.0793  0.3426 -0.2279
 8282WAT      O33833   3.786   7.883   1.605 -0.0472  0.0121 -0.0949
 8282WAT     H133834   3.827   7.932   1.546 -0.6797  1.2469  0.4538
 8282WAT     H233835   3.742   7.941   1.653 -1.1254 -1.1213  0.3519
 8282WAT    EPW33836   3.786   7.899   1.603  0.0374 -0.4667  0.2847
 8283WAT      O33837   2.835   1.299   2.056 -0.5496  0.3833 -0.0909
 8283WAT     H133838   2.787   1.331   2.121 -0.4711  0.2940  0.0111
 8283WAT     H233839   2.844   1.366   2.001 -1.4781  0.1923 -0.5057
 8283WAT    EPW33840   2.829   1.313   2.057  0.3933 -0.3882 -0.1015
 8284WAT      O33841   4.681   0.040   3.946 -0.0081 -0.2907 -0.2654
 8284WAT     H133842   4.636  -0.016   3.996  0.9590 -1.8769 -1.0927
 8284WAT     H233843   4.624   0.103   3.930 -1.1682 -1.0438  0.6837
 8284WAT    EPW33844   4.666   0.041   3.951  0.5060  0.8068  0.4560
 8285WAT      O33845   4.265   0.309   3.130  0.4046 -0.0409  0.2156
 8285WAT     H133846   4.202   0.286   3.186  0.8786 -0.8275  0.4376
 8285WAT     H233847   4.279   0.393   3.148 -0.3570  0.0572  0.3803
 8285WAT    EPW33848   4.258   0.318   3.141  0.6601 -0.3489 -0.5463
 8286WAT      O33849   3.087   0.268   2.441  0.1544 -0.3651 -0.6179
 8286WAT     H133850   3.072   0.294   2.523  1.0495  0.6394 -0.7419
 8286WAT     H233851   3.172   0.285   2.430  0.3661 -1.7701 -1.3176
 8286WAT    EPW33852   3.097   0.275   2.451 -0.0859 -0.4221  0.1243
 8287WAT      O33853   3.785   0.905   3.625  0.5017 -0.1081  0.0691
 8287WAT     H133854   3.804   0.829   3.663  0.2239 -1.3774 -2.1303
 8287WAT     H233855   3.824   0.900   3.547 -0.5270  1.4899 -0.6194
 8287WAT    EPW33856   3.793   0.893   3.619  0.4260  0.2392  0.1347
 8288WAT      O33857   3.998   0.364   5.595  0.2657 -0.3235  0.0605
 8288WAT     H133858   3.958   0.305   5.543  2.4164  0.0534 -2.2419
 8288WAT     H233859   3.979   0.440   5.557  1.0022  0.0664  0.4624
 8288WAT    EPW33860   3.990   0.366   5.581  0.6010 -0.7870 -0.4167
 8289WAT      O33861   3.547   0.550   4.236 -0.9309  0.7815 -0.1375
 8289WAT     H133862   3.517   0.543   4.154 -2.2744 -0.0542  0.3903
 8289WAT     H233863   3.475   0.552   4.284 -0.1611  1.3405  1.0439
 8289WAT    EPW33864   3.532   0.549   4.231 -0.8812  0.0237 -0.6079
 8290WAT      O33865   5.508   0.733   2.844 -0.5324 -0.8117  0.2235
 8290WAT     H133866   5.459   0.690   2.786 -2.1416  2.1133 -0.8220
 8290WAT     H233867   5.526   0.808   2.804  0.5587  0.2678  2.5396
 8290WAT    EPW33868   5.503   0.738   2.829 -0.3456  0.5150  0.2959
 8291WAT      O33869   3.732   1.677   2.590 -0.6615 -0.1221 -0.1994
 8291WAT     H133870   3.691   1.683   2.667  0.0851 -0.8811  0.2703
 8291WAT     H233871   3.797   1.734   2.596  1.3458 -2.3858  1.0178
 8291WAT    EPW33872   3.736   1.687   2.602  0.0670 -1.2189 -0.5217
 8292WAT      O33873   3.683   7.616   3.277 -1.0290  0.1181  0.0543
 8292WAT     H133874   3.630   7.566   3.230 -0.5087 -0.3374 -0.0546
 8292WAT     H233875   3.720   7.560   3.333 -0.4079  0.3668 -0.0964
 8292WAT    EPW33876   3.681   7.600   3.279 -0.0206  0.3684 -0.2458
 8293WAT      O33877   4.058   1.177   3.900 -0.0645 -0.4884  0.2840
 8293WAT     H133878   4.001   1.167   3.835 -0.1965  0.9610  0.1465
 8293WAT     H233879   4.026   1.126   3.963 -1.2796 -0.0479  0.0500
 8293WAT    EPW33880   4.045   1.168   3.900  0.8068 -0.6157 -0.4880
 8294WAT      O33881   4.211   0.320   1.829  0.2338 -0.3404  0.2358
 8294WAT     H133882   4.295   0.332   1.810  0.1084 -1.4267 -1.1503
 8294WAT     H233883   4.213   0.256   1.889  0.3989 -0.1773  0.4068
 8294WAT    EPW33884   4.224   0.312   1.835  0.1982  0.4613 -1.4853
 8295WAT      O33885   2.878   0.340   1.886  0.2624 -0.0200 -0.3306
 8295WAT     H133886   2.935   0.277   1.867 -0.1156 -0.4379 -0.0932
 8295WAT     H233887   2.803   0.311   1.853  0.2586  0.7088 -0.9874
 8295WAT    EPW33888   2.876   0.327   1.879 -0.2417 -1.1721  0.5750
 8296WAT      O33889   5.728   1.125   4.101 -0.3610  0.1809 -0.1781
 8296WAT     H133890   5.723   1.159   4.021 -4.7292  1.5957  0.4254
 8296WAT     H233891   5.711   1.041   4.089 -0.0431  0.1991 -0.7922
 8296WAT    EPW33892   5.725   1.118   4.087  0.0461  0.9609  0.2733
 8297WAT      O33893   3.764   1.761   4.106  0.4591 -0.1933 -0.3294
 8297WAT     H133894   3.749   1.706   4.172 -0.5685  1.8780  1.2952
 8297WAT     H233895   3.847   1.786   4.118  0.6268 -0.6593 -0.5056
 8297WAT    EPW33896   3.774   1.756   4.118 -0.0987 -0.4287 -0.6011
 8298WAT      O33897   4.749   0.576   2.798 -0.5117 -0.0674 -0.8192
 8298WAT     H133898   4.775   0.659   2.807 -1.9387  0.4651 -1.3980
 8298WAT     H233899   4.803   0.544   2.737  2.6038 -0.7722  1.9889
 8298WAT    EPW33900   4.761   0.583   2.791 -0.3574  0.0470 -0.6113
 8299WAT      O33901   4.316   1.794   3.742  0.7451 -0.2197 -0.5258
 8299WAT     H133902   4.265   1.778   3.673  0.0322 -1.3084  0.2122
 8299WAT     H233903   4.309   1.880   3.753 -1.2619 -0.3700 -0.2383
 8299WAT    EPW33904   4.307   1.804   3.733 -0.2906 -0.2018  0.9324
 8300WAT      O33905   4.722   2.211   2.318 -0.7258  0.3170 -0.0475
 8300WAT     H133906   4.776   2.143   2.313 -0.9098  0.2480 -1.7210
 8300WAT     H233907   4.658   2.182   2.370  0.1412 -0.0867  0.8275
 8300WAT    EPW33908   4.721   2.196   2.325 -0.1706 -0.4745 -0.4581
 8301WAT      O33909   5.256   1.577   2.394  0.0093  0.3335  0.3810
 8301WAT     H133910   5.300   1.502   2.408  0.7181  0.9602  1.7052
 8301WAT     H233911   5.316   1.629   2.358 -0.8136 -0.0848 -1.6819
 8301WAT    EPW33912   5.271   1.573   2.391  0.7673 -0.3108 -0.1040
 8302WAT      O33913   3.883   2.362   4.047 -0.0086 -0.1639  0.3444
 8302WAT     H133914   3.915   2.309   3.986 -0.9828 -1.7186  1.1015
 8302WAT     H233915   3.880   2.440   4.008 -0.1074 -1.0045 -1.3949
 8302WAT    EPW33916   3.887   2.366   4.032 -0.0622  0.0833 -0.5079
 8303WAT      O33917   5.677   1.062   3.560  0.3308 -0.6045 -0.1739
 8303WAT     H133918   5.729   1.066   3.630  0.4139 -0.1759 -0.2576
 8303WAT     H233919   5.677   1.143   3.530  2.4303 -1.2505 -2.2177
 8303WAT    EPW33920   5.685   1.074   3.566  0.9274  0.0976 -0.3444
 8304WAT      O33921   4.742   0.713   1.933 -0.0156  0.4920 -0.1212
 8304WAT     H133922   4.768   0.769   1.994 -2.1179 -0.4430  1.7793
 8304WAT     H233923   4.795   0.730   1.866  1.2424  2.7970  1.3135
 8304WAT    EPW33924   4.754   0.724   1.932 -0.0990 -0.1048 -0.0749
 8305WAT      O33925   4.931   1.678   4.438  0.1711  0.0577  0.0241
 8305WAT     H133926   4.910   1.760   4.415  4.1789  0.6873 -2.1884
 8305WAT     H233927   4.900   1.630   4.372 -3.5444 -0.7088  2.0168
 8305WAT    EPW33928   4.923   1.683   4.425  0.5797 -0.4753 -0.2505
 8306WAT      O33929   5.546   3.011   4.477 -0.0716 -0.0692 -0.0538
 8306WAT     H133930   5.503   2.941   4.508  0.9041 -1.3413 -1.4441
 8306WAT     H233931   5.482   3.070   4.466 -1.1530 -1.1989 -0.1327
 8306WAT    EPW33932   5.530   3.009   4.480  0.2344  0.3872 -0.7907
 8307WAT      O33933   6.388   0.749   2.656 -0.6267  0.2024 -1.0568
 8307WAT     H133934   6.378   0.804   2.722 -3.1405 -1.2362 -0.1283
 8307WAT     H233935   6.387   0.802   2.586  0.5272  1.6021 -0.0804
 8307WAT    EPW33936   6.386   0.765   2.655 -0.5199 -0.2180 -0.7212
 8308WAT      O33937   4.650   1.100   2.952 -0.1775 -0.2266  0.0606
 8308WAT     H133938   4.621   1.164   2.900  1.0663 -0.1137 -0.5329
 8308WAT     H233939   4.583   1.085   3.005  0.0211  2.7531  1.3607
 8308WAT    EPW33940   4.636   1.107   2.952 -0.5584 -0.0946 -0.2900
 8309WAT      O33941   4.327   0.594   4.340  0.4872 -0.6895 -0.3008
 8309WAT     H133942   4.368   0.624   4.410  0.5615 -2.6316  0.5426
 8309WAT     H233943   4.374   0.524   4.317 -0.0107 -0.5704 -1.7945
 8309WAT    EPW33944   4.340   0.588   4.347 -0.9498 -0.0695  0.3459
 8310WAT      O33945   3.612   1.359   2.962  0.5709  0.9141 -0.3846
 8310WAT     H133946   3.626   1.334   3.044 -0.7279 -0.5353 -0.5694
 8310WAT     H233947   3.526   1.349   2.952  0.8650 -0.1479 -2.2873
 8310WAT    EPW33948   3.602   1.354   2.972 -0.7440 -0.9827 -0.5583
 8311WAT      O33949   2.844   1.505   1.885 -0.2411 -0.0560  0.6613
 8311WAT     H133950   2.902   1.564   1.857 -0.5424  0.9825  2.1258
 8311WAT     H233951   2.771   1.552   1.899 -0.8232 -0.9688  0.7980
 8311WAT    EPW33952   2.842   1.521   1.883  0.2373  0.4109  0.2735
 8312WAT      O33953   4.072   0.718   3.214  0.5041 -0.3488  0.3620
 8312WAT     H133954   4.131   0.656   3.201 -0.3128 -0.9904 -0.3951
 8312WAT     H233955   4.020   0.713   3.144  0.0129  0.7262  0.6183
 8312WAT    EPW33956   4.073   0.708   3.202  0.4873 -1.3462 -0.5013
 8313WAT      O33957   4.219   0.244   4.363  0.9242 -0.1517  0.1343
 8313WAT     H133958   4.195   0.174   4.409  0.3504 -0.1623 -0.1662
 8313WAT     H233959   4.306   0.245   4.369  0.8468  0.1329  1.6528
 8313WAT    EPW33960   4.228   0.234   4.371  0.3817  0.6901 -0.0426
 8314WAT      O33961   3.931   7.746   1.812  0.7626  0.1344  0.6239
 8314WAT     H133962   3.851   7.738   1.848  0.3027  2.2047  0.1820
 8314WAT     H233963   3.914   7.780   1.733  2.0793  0.1564  0.3385
 8314WAT    EPW33964   3.917   7.749   1.805 -0.7528  0.2291 -0.4987
 8315WAT      O33965   2.203   7.470   1.869 -0.3072  0.0801 -0.5997
 8315WAT     H133966   2.162   7.438   1.939 -1.7168 -0.6439 -1.6984
 8315WAT     H233967   2.226   7.551   1.894  2.8410 -1.4242  2.0352
 8315WAT    EPW33968   2.200   7.477   1.883  1.1310  0.1035 -0.6212
 8316WAT      O33969   4.518   1.025   3.979 -0.4747 -0.0147  0.7169
 8316WAT     H133970   4.550   1.053   4.055 -1.2518 -2.3687  2.0134
 8316WAT     H233971   4.588   1.024   3.927  0.0786  1.6053  1.3574
 8316WAT    EPW33972   4.533   1.029   3.983  0.0880 -0.0647  0.0940
 8317WAT      O33973   4.994   1.203   3.883  0.1847  0.2017 -0.1296
 8317WAT     H133974   4.929   1.245   3.922 -1.3787 -1.1245 -1.1563
 8317WAT     H233975   5.036   1.164   3.949 -0.8068  0.1265  0.4754
 8317WAT    EPW33976   4.991   1.203   3.898  0.2378  0.3188  0.1966
 8318WAT      O33977   3.829   0.699   1.999  0.2322  0.0019 -0.7075
 8318WAT     H133978   3.914   0.719   2.009  0.7582 -1.8059 -1.2257
 8318WAT     H233979   3.809   0.659   2.074  0.0725 -0.3113 -0.9172
 8318WAT    EPW33980   3.839   0.696   2.012  0.4654  0.3233 -0.0746
 8319WAT      O33981   3.078   0.036   3.816  0.3335  0.0598  0.4126
 8319WAT     H133982   2.992   0.020   3.818  0.2881  0.3428  1.5037
 8319WAT     H233983   3.089   0.097   3.878  1.2965  0.1651  0.1627
 8319WAT    EPW33984   3.067   0.043   3.825 -0.1214 -0.2503 -0.5271
 8320WAT      O33985   3.420   0.238   2.711 -0.3911 -0.2977  0.2202
 8320WAT     H133986   3.364   0.176   2.734 -2.0182 -0.2214 -2.9463
 8320WAT     H233987   3.496   0.196   2.703 -1.0840 -1.5381 -0.1387
 8320WAT    EPW33988   3.423   0.223   2.713  0.7066 -0.6767 -0.0797
 8321WAT      O33989   3.821   0.432   1.194  0.2484  0.6150  0.3838
 8321WAT     H133990   3.775   0.476   1.135 -0.7043  1.0891  1.4361
 8321WAT     H233991   3.762   0.378   1.230  1.0311 -0.3951  0.2227
 8321WAT    EPW33992   3.805   0.430   1.190 -0.1466 -0.7476  0.5385
 8322WAT      O33993   4.414   1.036   3.116 -0.3260 -0.0741 -0.1115
 8322WAT     H133994   4.358   0.977   3.085  0.3771 -0.5679 -0.4580
 8322WAT     H233995   4.363   1.105   3.132 -1.7197 -1.5612  2.8058
 8322WAT    EPW33996   4.398   1.037   3.114 -0.0351 -0.1393  0.7123
 8323WAT      O33997   4.000   1.426   4.003  0.1471 -0.0264 -0.1163
 8323WAT     H133998   4.044   1.362   3.964  0.0483 -0.2424  0.1264
 8323WAT     H233999   4.044   1.498   3.981  0.1546 -0.1605 -0.5322
 8323WAT    EPW34000   4.013   1.428   3.994  0.3087 -0.1042  0.0029
 8324WAT      O34001   2.925   7.791   3.294 -0.3029 -0.5992  0.3403
 8324WAT     H134002   2.987   7.820   3.239 -0.3337  1.9322  1.5165
 8324WAT     H234003   2.850   7.812   3.253 -0.3273  1.5633  1.3880
 8324WAT    EPW34004   2.923   7.798   3.280 -0.0989  0.5708  0.3068
 8325WAT      O34005   3.437   1.005   1.968 -0.2909  0.2269  0.1445
 8325WAT     H134006   3.376   1.066   1.981 -3.5838 -2.5855 -0.5387
 8325WAT     H234007   3.451   0.974   2.048 -0.7167  0.0766  0.1642
 8325WAT    EPW34008   3.430   1.009   1.982  0.9772 -0.1169  0.0335
 8326WAT      O34009   3.180   0.008   3.488 -0.1546 -1.1339 -0.2058
 8326WAT     H134010   3.252   0.012   3.537 -0.4207 -1.7152  0.2393
 8326WAT     H234011   3.116  -0.009   3.546 -0.8549  0.6206 -0.4078
 8326WAT    EPW34012   3.181   0.006   3.504  0.3880  0.0153  0.0916
 8327WAT      O34013   5.182   0.275   3.345 -0.6243  0.1553  0.2496
 8327WAT     H134014   5.135   0.226   3.400 -0.6534  0.4484  0.4943
 8327WAT     H234015   5.122   0.309   3.292 -0.4402 -1.4327 -1.0425
 8327WAT    EPW34016   5.166   0.273   3.345  0.3608  0.5946  0.4827
 8328WAT      O34017   3.648   1.438   2.491  0.2987  0.0090  0.0030
 8328WAT     H134018   3.691   1.506   2.525  0.6807 -0.6070  0.8041
 8328WAT     H234019   3.647   1.381   2.557 -1.1559 -0.2636 -0.2301
 8328WAT    EPW34020   3.654   1.440   2.506 -0.1191 -0.1432 -0.0587
 8329WAT      O34021   3.107   0.152   1.886  0.0193 -0.5223  0.2558
 8329WAT     H134022   3.136   0.135   1.806  0.1581 -3.0913  0.7735
 8329WAT     H234023   3.166   0.209   1.917  0.6569 -0.4465 -1.0158
 8329WAT    EPW34024   3.120   0.158   1.879  0.1955  0.2261  0.1789
 8330WAT      O34025   4.701   0.291   3.637 -0.5011 -0.1507 -0.0059
 8330WAT     H134026   4.758   0.343   3.678 -1.4952 -0.1018  1.4066
 8330WAT     H234027   4.737   0.212   3.643 -0.2726 -0.0253  0.3094
 8330WAT    EPW34028   4.714   0.287   3.644  0.7218 -0.3693  0.0326
 8331WAT      O34029   4.704   0.684   3.254 -0.1126 -0.0279  0.4455
 8331WAT     H134030   4.649   0.637   3.303 -2.5771  1.1647 -0.9888
 8331WAT     H234031   4.674   0.766   3.262  0.1837  0.3932 -1.9888
 8331WAT    EPW34032   4.691   0.689   3.263  0.3126  0.4621  0.0498
 8332WAT      O34033   4.649   1.260   3.473 -0.0313  0.2429  0.0483
 8332WAT     H134034   4.637   1.181   3.509 -0.7111  0.4646  0.3235
 8332WAT     H234035   4.699   1.243   3.403  1.8899 -0.1190  1.4061
 8332WAT    EPW34036   4.655   1.246   3.468  0.6723  0.4322 -0.4889
 8333WAT      O34037   4.128   1.148   3.513 -0.4985 -0.4348 -0.0442
 8333WAT     H134038   4.193   1.129   3.568 -0.6211 -0.6809  0.0161
 8333WAT     H234039   4.059   1.157   3.565  0.1265  3.6347  0.4234
 8333WAT    EPW34040   4.127   1.146   3.529 -0.4197  0.3191 -0.1541
 8334WAT      O34041   3.875   0.224   2.845  0.2406  0.3584 -0.3575
 8334WAT     H134042   3.956   0.248   2.823  0.4294  0.3949  0.3621
 8334WAT     H234043   3.845   0.185   2.773  1.2263 -0.4981 -0.3250
 8334WAT    EPW34044   3.882   0.222   2.831 -0.7867 -0.5093  0.0807
 8335WAT      O34045   5.409   0.150   3.242 -0.0126 -0.5800 -0.1804
 8335WAT     H134046   5.337   0.187   3.276 -0.5514 -0.8750 -0.9799
 8335WAT     H234047   5.415   0.075   3.286 -0.1720 -0.5387 -0.0849
 8335WAT    EPW34048   5.399   0.145   3.254  0.3400 -0.2591 -0.4171
 8336WAT      O34049   5.090   1.301   3.635 -0.0975 -0.4608  0.3794
 8336WAT     H134050   5.098   1.387   3.625  2.9572 -0.3452  2.5450
 8336WAT     H234051   5.058   1.293   3.716 -0.4622 -1.3779  0.1579
 8336WAT    EPW34052   5.086   1.313   3.645 -0.5542 -1.6289 -0.2252
 8337WAT      O34053   3.669   7.984   3.304  0.2063  0.1884 -0.2547
 8337WAT     H134054   3.734   7.984   3.363  0.7697 -0.7901 -0.8484
 8337WAT     H234055   3.607   7.935   3.342 -0.2434  1.1771  0.3410
 8337WAT    EPW34056   3.669   7.976   3.319 -0.2880 -0.6491 -0.3724
 8338WAT      O34057   2.304   8.005   2.875 -0.6358  0.2530 -0.2367
 8338WAT     H134058   2.368   7.946   2.881 -0.5479  0.3419 -0.2962
 8338WAT     H234059   2.337   8.066   2.822 -0.7697  0.2998 -0.2673
 8338WAT    EPW34060   2.318   8.005   2.868 -0.9625 -0.6911  0.1245
 8339WAT      O34061   5.502   0.672   3.401  0.9563 -0.2791 -0.2141
 8339WAT     H134062   5.518   0.593   3.366  2.9679 -0.9940  2.0308
 8339WAT     H234063   5.474   0.653   3.481 -2.6017  1.3041 -0.8901
 8339WAT    EPW34064   5.501   0.657   3.407  0.2262  0.4094 -0.0766
 8340WAT      O34065   5.308   7.929   3.832 -0.2112 -0.2589  0.1721
 8340WAT     H134066   5.228   7.947   3.862 -0.7389 -2.6872  0.3994
 8340WAT     H234067   5.294   7.891   3.755  0.7248 -0.5651  0.1395
 8340WAT    EPW34068   5.294   7.926   3.825  0.4514 -0.1466 -0.5639
 8341WAT      O34069   4.838   7.231   4.561 -0.6051  0.3306  0.1837
 8341WAT     H134070   4.875   7.253   4.485 -0.7486 -0.2776 -0.0631
 8341WAT     H234071   4.898   7.181   4.599 -1.2358 -0.8577 -0.3203
 8341WAT    EPW34072   4.852   7.227   4.555 -0.0221 -0.2548  0.5697
 8342WAT      O34073   3.348   0.353   2.460 -0.5792  0.2984  0.2112
 8342WAT     H134074   3.378   0.331   2.539  0.7299  0.3722 -0.2404
 8342WAT     H234075   3.315   0.433   2.472  1.3885  1.1690  0.3202
 8342WAT    EPW34076   3.348   0.362   2.474 -0.3971 -0.3995  0.2809
 8343WAT      O34077   3.666   0.117   2.633  0.6521 -0.0579  0.1660
 8343WAT     H134078   3.634   0.036   2.630 -0.4745  0.2999  1.4191
 8343WAT     H234079   3.635   0.154   2.560  1.1931 -0.7352 -0.4247
 8343WAT    EPW34080   3.657   0.110   2.622  0.0791  0.3197 -0.0872
 8344WAT      O34081   4.184   0.540   2.494 -0.4264 -0.0920  0.2993
 8344WAT     H134082   4.130   0.536   2.562 -2.1399  1.9657 -0.8318
 8344WAT     H234083   4.241   0.602   2.518 -0.4197 -0.0756  0.2395
 8344WAT    EPW34084   4.185   0.548   2.508 -0.8587  0.6400  0.2012
 8345WAT      O34085   4.169   7.707   4.223 -0.4932  0.5377 -0.3648
 8345WAT     H134086   4.226   7.665   4.171 -0.6191 -0.1415  0.0376
 8345WAT     H234087   4.124   7.757   4.167  0.0925  0.6309 -0.7656
 8345WAT    EPW34088   4.171   7.709   4.207  0.1328  0.5406 -0.0295
 8346WAT      O34089   3.843   0.327   3.589 -0.4210  0.1101  0.3242
 8346WAT     H134090   3.845   0.393   3.532 -2.8644 -0.2579 -0.3070
 8346WAT     H234091   3.868   0.258   3.541  1.0079  0.3284  0.6923
 8346WAT    EPW34092   3.847   0.326   3.574 -0.2798  0.0216  0.2323
 8347WAT      O34093   4.593   1.660   3.037  0.1423 -0.3450  0.0914
 8347WAT     H134094   4.548   1.734   3.048 -0.1651 -0.2090 -1.7190
 8347WAT     H234095   4.532   1.598   3.041 -0.0380 -0.2655 -0.9606
 8347WAT    EPW34096   4.578   1.662   3.039 -0.0231 -1.3073 -0.3527
 8348WAT      O34097   4.023   0.147   3.384 -0.3568 -0.3004  0.4632
 8348WAT     H134098   3.972   0.083   3.414 -0.6775  0.1681  0.9457
 8348WAT     H234099   4.001   0.153   3.300 -0.3121 -0.8309  0.4126
 8348WAT    EPW34100   4.012   0.139   3.376 -1.0746  0.2018 -0.1459
 8349WAT      O34101   5.391   1.317   3.469  0.6323 -0.0115  0.2593
 8349WAT     H134102   5.363   1.306   3.387 -1.0497 -1.9359  1.0171
 8349WAT     H234103   5.376   1.401   3.485 -0.4919  0.0375 -0.8877
 8349WAT    EPW34104   5.385   1.328   3.459 -0.0040  0.5997 -0.0246
 8350WAT      O34105   5.073   7.583   2.343  0.2177  0.3670 -0.2447
 8350WAT     H134106   5.064   7.670   2.348 -0.8476  0.3154 -1.0404
 8350WAT     H234107   5.154   7.569   2.373  0.5375  1.6707 -0.4487
 8350WAT    EPW34108   5.084   7.594   2.348 -0.3910 -0.3250 -0.0290
 8351WAT      O34109   3.276   6.381   1.848 -0.1093 -0.6014 -0.2710
 8351WAT     H134110   3.264   6.451   1.798  1.6973  0.8045  1.1186
 8351WAT     H234111   3.333   6.333   1.802  0.6938  0.1557 -0.1075
 8351WAT    EPW34112   3.283   6.384   1.834  0.0712 -1.0826 -0.6737
 8352WAT      O34113   3.209   0.520   3.249  0.2680  0.3672 -0.3624
 8352WAT     H134114   3.217   0.541   3.333  0.1024  0.0453 -0.2636
 8352WAT     H234115   3.203   0.433   3.250  1.2681  0.2792 -0.7793
 8352WAT    EPW34116   3.209   0.510   3.261  0.2213 -0.4139 -0.7436
 8353WAT      O34117   3.420   6.216   4.309  0.1803 -0.5171 -0.3735
 8353WAT     H134118   3.340   6.202   4.278  0.4831 -0.1372 -1.3709
 8353WAT     H234119   3.466   6.240   4.238  1.0505 -0.2364  0.2620
 8353WAT    EPW34120   3.415   6.218   4.294  0.3436 -0.4529  0.0146
 8354WAT      O34121   4.438   1.128   2.635 -0.0459 -0.3751 -0.3627
 8354WAT     H134122   4.408   1.165   2.562 -0.9317  0.1059  0.2186
 8354WAT     H234123   4.502   1.076   2.608 -0.2786 -0.1020 -1.4612
 8354WAT    EPW34124   4.443   1.126   2.621  0.0461 -0.5435  0.9238
 8355WAT      O34125   4.407   0.500   1.301  0.0278 -0.1381 -0.0264
 8355WAT     H134126   4.430   0.445   1.365  1.4538  0.1842 -0.2485
 8355WAT     H234127   4.444   0.465   1.230  0.0393  0.5279 -0.3533
 8355WAT    EPW34128   4.416   0.486   1.300 -0.1832  0.5081 -1.0904
 8356WAT      O34129   6.579   0.430   4.253  0.0622  0.1755 -0.2186
 8356WAT     H134130   6.627   0.503   4.252  0.7532 -0.2410  0.6889
 8356WAT     H234131   6.497   0.460   4.249  0.2515  1.1229  1.5583
 8356WAT    EPW34132   6.574   0.445   4.252  0.2257 -0.5687 -1.1078
 8357WAT      O34133   5.793   0.085   3.555  0.2969 -0.5819  0.1992
 8357WAT     H134134   5.828   0.079   3.634  0.7510  0.3284  0.0866
 8357WAT     H234135   5.843   0.145   3.515 -0.9368  0.2083 -0.2219
 8357WAT    EPW34136   5.806   0.093   3.561 -0.1696  0.8636 -0.1308
 8358WAT      O34137   3.910   1.197   1.156  0.1021  0.1255 -0.4878
 8358WAT     H134138   3.956   1.254   1.203  1.1706 -0.9768 -0.1517
 8358WAT     H234139   3.970   1.139   1.129 -1.0265 -1.1828 -0.3060
 8358WAT    EPW34140   3.926   1.197   1.159  0.2032  0.7719  0.1619
 8359WAT      O34141   3.257   0.259   3.345 -0.0246 -0.0345 -0.1413
 8359WAT     H134142   3.213   0.185   3.356 -1.6109  0.5735 -1.9459
 8359WAT     H234143   3.319   0.238   3.287  0.2252 -0.1749  0.1689
 8359WAT    EPW34144   3.260   0.245   3.338 -0.1627 -0.2947 -0.3681
 8360WAT      O34145   4.356   0.005   4.077  0.8301  0.7137  0.1394
 8360WAT     H134146   4.418  -0.055   4.087  0.1377 -0.1060 -0.3614
 8360WAT     H234147   4.401   0.078   4.059  1.6167 -0.0495 -1.1169
 8360WAT    EPW34148   4.372   0.007   4.076  0.0786  0.2259 -0.6688
 8361WAT      O34149   4.321   0.578   3.166 -0.1728 -0.4571 -0.0182
 8361WAT     H134150   4.370   0.569   3.094 -1.0487 -1.5236 -0.5001
 8361WAT     H234151   4.380   0.575   3.231  0.5580 -0.0828 -0.6474
 8361WAT    EPW34152   4.337   0.576   3.165  0.3156  0.1373 -0.6907
 8362WAT      O34153   5.677   7.881   2.465 -0.2058  0.2820 -0.0050
 8362WAT     H134154   5.648   7.884   2.383 -0.2780  1.7167  0.0455
 8362WAT     H234155   5.604   7.888   2.513 -0.1060  0.1489  0.1658
 8362WAT    EPW34156   5.662   7.883   2.460  0.1552 -0.0220 -0.1824
 8363WAT      O34157   3.061   0.714   2.716  0.0971 -0.5520 -0.0334
 8363WAT     H134158   3.071   0.799   2.734  2.3523 -1.0396  1.5116
 8363WAT     H234159   2.978   0.708   2.692  0.5700  2.5766 -3.4457
 8363WAT    EPW34160   3.051   0.726   2.715 -0.4598 -0.2653  0.5131
 8364WAT      O34161   5.242   1.007   3.387 -0.4387 -0.0052  0.2221
 8364WAT     H134162   5.249   0.923   3.364 -0.1887 -0.0259  0.3647
 8364WAT     H234163   5.186   1.040   3.329  0.9034  0.1635 -1.0389
 8364WAT    EPW34164   5.235   0.999   3.375  0.3382  0.8775 -0.8172
 8365WAT      O34165   4.463   0.780   3.555  0.1657  0.1556  0.4210
 8365WAT     H134166   4.385   0.795   3.591 -1.0001 -0.5350 -1.6481
 8365WAT     H234167   4.483   0.856   3.517  0.5247  0.3393  0.9705
 8365WAT    EPW34168   4.454   0.793   3.555  0.3540  0.5593  0.2816
 8366WAT      O34169   3.849   1.186   1.638 -0.4445 -0.3389  0.1426
 8366WAT     H134170   3.923   1.165   1.679 -0.2153 -0.7295 -0.4650
 8366WAT     H234171   3.787   1.144   1.685 -0.1813 -0.8133  0.0737
 8366WAT    EPW34172   3.851   1.176   1.651 -0.0628 -0.4007  0.5319
 8367WAT      O34173   5.190   2.329   4.979  0.4331  0.7217  0.3443
 8367WAT     H134174   5.135   2.396   4.985  1.4082  1.6489 -0.6682
 8367WAT     H234175   5.258   2.354   5.029 -0.2891 -0.7186  2.1848
 8367WAT    EPW34176   5.192   2.343   4.987 -1.0453 -1.1443 -0.0386
 8368WAT      O34177   5.174   7.286   2.405 -0.0661  0.4899 -0.2624
 8368WAT     H134178   5.213   7.287   2.328 -1.1770  0.8077 -0.8476
 8368WAT     H234179   5.092   7.261   2.386  0.2237 -1.7407  1.0972
 8368WAT    EPW34180   5.168   7.282   2.391 -0.1611  0.3160 -0.0829
 8369WAT      O34181   4.243   0.339   2.283  0.4469  0.1978 -0.2666
 8369WAT     H134182   4.168   0.322   2.241  0.6010  0.4877 -0.6691
 8369WAT     H234183   4.217   0.377   2.357  0.1863  0.0673 -0.2894
 8369WAT    EPW34184   4.228   0.342   2.287 -0.3281  0.1043 -0.0727
 8370WAT      O34185   4.377   1.345   3.433  0.3741 -0.0185 -0.3190
 8370WAT     H134186   4.459   1.320   3.445  0.6001  1.2667  1.2858
 8370WAT     H234187   4.346   1.354   3.515 -0.6474  1.6342 -0.8312
 8370WAT    EPW34188   4.384   1.343   3.447  0.3501 -0.3272  0.5265
 8371WAT      O34189   5.920   0.154   4.008  0.0443  0.2885 -0.0593
 8371WAT     H134190   5.950   0.172   3.928 -2.3367  0.9517 -0.9005
 8371WAT     H234191   5.875   0.226   4.030  1.4797  0.5378  2.3687
 8371WAT    EPW34192   5.918   0.167   3.999 -0.4279 -0.5174  0.7664
 8372WAT      O34193   4.055   0.241   2.588 -0.1238  0.1539 -0.0273
 8372WAT     H134194   4.045   0.159   2.615 -0.7325  0.4016  0.5413
 8372WAT     H234195   4.014   0.242   2.511  2.5213 -0.8210 -1.5652
 8372WAT    EPW34196   4.047   0.229   2.580  0.0541  1.3918 -0.8609
 8373WAT      O34197   5.279   1.036   4.077  0.0524  0.3431 -0.0121
 8373WAT     H134198   5.341   1.087   4.111  0.4451  0.5933 -1.0483
 8373WAT     H234199   5.309   1.020   3.996  1.0018 -3.2185  0.8814
 8373WAT    EPW34200   5.293   1.041   4.070  0.2503 -0.4949  0.7082
 8374WAT      O34201   4.587   1.969   3.053 -0.2200 -0.2086 -0.0131
 8374WAT     H134202   4.633   2.023   3.003 -0.1275 -0.2803 -0.0045
 8374WAT     H234203   4.638   1.956   3.122 -1.2614  1.6767  1.1914
 8374WAT    EPW34204   4.601   1.975   3.056 -0.5240  0.1775  0.1359
 8375WAT      O34205   5.149   0.188   4.913 -0.2904 -0.4019 -0.0952
 8375WAT     H134206   5.091   0.150   4.966  0.2186  2.6118  3.0002
 8375WAT     H234207   5.218   0.134   4.916 -0.5588 -0.7027  1.7666
 8375WAT    EPW34208   5.151   0.174   4.921  0.0915  0.3545  0.1137
 8376WAT      O34209   5.002   2.335   2.888  0.0261  0.4141 -0.3095
 8376WAT     H134210   5.075   2.318   2.845  0.5632  1.4705  0.1565
 8376WAT     H234211   4.967   2.256   2.900  1.0757 -0.1065 -0.5439
 8376WAT    EPW34212   5.007   2.321   2.884 -0.5244 -0.9931  0.8992
 8377WAT      O34213   4.605   0.007   2.034 -0.9075 -0.1447  0.0121
 8377WAT     H134214   4.678  -0.041   2.030 -0.9267 -0.0828 -1.3206
 8377WAT     H234215   4.627   0.081   1.993 -1.6619 -0.0363 -0.2023
 8377WAT    EPW34216   4.619   0.011   2.028 -0.6989 -0.0583 -1.0438
 8378WAT      O34217   4.417   0.874   4.272 -0.0385  0.5645  0.5974
 8378WAT     H134218   4.369   0.803   4.288  0.0298  0.6843  1.3638
 8378WAT     H234219   4.403   0.925   4.341 -0.0457  1.2827  0.0803
 8378WAT    EPW34220   4.408   0.871   4.285  0.9628  0.0606  0.3991
 8379WAT      O34221   5.605   1.536   3.716 -0.7820 -0.0206 -0.3037
 8379WAT     H134222   5.648   1.555   3.643 -0.6537 -0.3151 -0.3069
 8379WAT     H234223   5.668   1.524   3.775 -0.9104  1.3378  0.1468
 8379WAT    EPW34224   5.620   1.537   3.714 -0.5787  0.5158 -0.3221
 8380WAT      O34225   4.596   7.890   4.127 -0.0054  0.2554  0.0090
 8380WAT     H134226   4.596   7.882   4.214  0.6455 -0.5264 -0.0460
 8380WAT     H234227   4.631   7.814   4.100  0.8310  0.9393 -0.8777
 8380WAT    EPW34228   4.601   7.877   4.136  0.4751 -0.3056 -0.3171
 8381WAT      O34229   2.914   0.749   3.160 -0.0820 -0.5682  0.1288
 8381WAT     H134230   2.986   0.799   3.160 -0.5476  0.1311  1.2763
 8381WAT     H234231   2.856   0.796   3.115 -0.2143 -0.5193  0.3468
 8381WAT    EPW34232   2.916   0.763   3.154  0.5100 -0.5038 -0.1159
 8382WAT      O34233   5.426   7.940   3.323  0.1484 -0.4807  0.2737
 8382WAT     H134234   5.409   7.878   3.264  0.4322  0.2955 -0.6443
 8382WAT     H234235   5.513   7.939   3.329  0.3131  1.0604 -1.1572
 8382WAT    EPW34236   5.436   7.930   3.315 -0.1516  0.9315 -0.2809
 8383WAT      O34237   4.691   0.150   2.661 -0.1612 -0.3287 -0.6677
 8383WAT     H134238   4.646   0.199   2.716 -0.3578 -0.0982 -1.0323
 8383WAT     H234239   4.678   0.188   2.583 -0.2019 -0.8736 -0.9305
 8383WAT    EPW34240   4.683   0.163   2.658  0.5509 -0.0765 -0.2389
 8384WAT      O34241   4.241   0.949   2.658 -0.3657  0.1144  0.8372
 8384WAT     H134242   4.308   1.002   2.674 -1.1912  1.2991  0.4547
 8384WAT     H234243   4.192   0.957   2.730 -0.4930 -0.1418  0.7786
 8384WAT    EPW34244   4.244   0.958   2.671 -0.2545 -0.2617  0.4204
 8385WAT      O34245   3.326   1.294   0.929  0.0477 -0.6580  0.6518
 8385WAT     H134246   3.247   1.330   0.922  0.6453  0.4194 -1.0041
 8385WAT     H234247   3.309   1.216   0.965 -1.7436 -0.3896  0.5030
 8385WAT    EPW34248   3.312   1.288   0.933  0.3985 -0.1609 -0.0581
 8386WAT      O34249   4.283   7.988   2.213 -0.1052 -0.4057 -0.0809
 8386WAT     H134250   4.348   7.932   2.195 -0.1420 -0.3206 -0.5064
 8386WAT     H234251   4.304   8.020   2.291  0.5916 -0.0677 -0.3920
 8386WAT    EPW34252   4.296   7.985   2.222 -0.4136 -0.6394 -0.5440
 8387WAT      O34253   5.918   1.296   3.701  0.9361  0.1277  0.4107
 8387WAT     H134254   5.927   1.374   3.662  0.9734 -0.7476 -1.4308
 8387WAT     H234255   6.000   1.265   3.702  0.8848  0.0036  0.9227
 8387WAT    EPW34256   5.932   1.303   3.695 -0.0584  0.0177 -1.4497
 8388WAT      O34257   5.864   1.945   3.678  0.4280 -0.5219  0.0174
 8388WAT     H134258   5.938   1.903   3.699  0.4927  0.3735  1.8280
 8388WAT     H234259   5.802   1.892   3.709  0.4872  0.3060  1.6826
 8388WAT    EPW34260   5.866   1.931   3.686  0.5064  0.1115 -0.1904
 8389WAT      O34261   4.187   7.850   2.842  0.1992 -0.5039  0.3141
 8389WAT     H134262   4.106   7.822   2.855 -0.0248  0.0113  0.0667
 8389WAT     H234263   4.235   7.778   2.849 -0.2487 -0.7730  0.7357
 8389WAT    EPW34264   4.182   7.836   2.845 -0.4948 -0.4238  0.0231
 8390WAT      O34265   4.702   0.767   3.666  1.4162  0.1120  0.8931
 8390WAT     H134266   4.623   0.752   3.633  1.5324 -0.0133  0.6721
 8390WAT     H234267   4.756   0.753   3.599  1.5796  0.8214  0.8676
 8390WAT    EPW34268   4.698   0.763   3.651  1.3143  0.1204 -0.0722
 8391WAT      O34269   4.293   1.281   3.163  0.0763 -0.2086  0.1310
 8391WAT     H134270   4.316   1.270   3.246 -0.6516  0.5792  0.4508
 8391WAT     H234271   4.206   1.286   3.166  0.1208  1.8705 -0.3807
 8391WAT    EPW34272   4.284   1.280   3.175  0.0060 -1.2533 -0.3360
 8392WAT      O34273   2.822   1.778   3.655 -0.1340  0.2647 -0.1514
 8392WAT     H134274   2.897   1.803   3.693 -0.7665  1.0696  0.6007
 8392WAT     H234275   2.820   1.824   3.581  0.4545 -0.3152 -0.5479
 8392WAT    EPW34276   2.833   1.789   3.650 -0.3044  0.4016 -0.5651
 8393WAT      O34277   4.038   7.997   5.314 -0.0690 -1.1913  0.4350
 8393WAT     H134278   3.962   7.959   5.332 -1.0527  0.3991 -0.1176
 8393WAT     H234279   4.022   8.041   5.240  1.1632 -0.2399  0.6958
 8393WAT    EPW34280   4.024   7.998   5.306  0.6398  0.2784  0.5362
 8394WAT      O34281   4.748   0.098   3.279  0.2081 -0.4508  0.2672
 8394WAT     H134282   4.759   0.181   3.306 -0.8598 -0.0989 -0.3327
 8394WAT     H234283   4.785   0.051   3.343  3.7557  0.5087 -0.8213
 8394WAT    EPW34284   4.755   0.104   3.293 -0.3383  0.3112 -1.1033
 8395WAT      O34285   3.520   1.914   2.313  0.1738 -0.6813  0.3061
 8395WAT     H134286   3.444   1.886   2.279  0.4207 -1.4820  0.3759
 8395WAT     H234287   3.525   1.997   2.288 -0.9199 -0.4936  0.6394
 8395WAT    EPW34288   3.510   1.922   2.305 -0.6782 -1.0477 -0.8911
 8396WAT      O34289   5.373   0.630   2.627 -0.0409 -0.3560 -0.5420
 8396WAT     H134290   5.407   0.606   2.550  1.7639 -1.7237  0.5806
 8396WAT     H234291   5.328   0.560   2.653 -0.5618  0.0584 -0.3165
 8396WAT    EPW34292   5.372   0.616   2.620 -0.1386  0.1015 -0.2227
 8397WAT      O34293   6.326   1.251   2.110  0.8277  0.1450 -0.5384
 8397WAT     H134294   6.312   1.271   2.194  2.2314 -0.2145 -0.1946
 8397WAT     H234295   6.370   1.320   2.079 -1.5337  1.2853 -1.6152
 8397WAT    EPW34296   6.330   1.264   2.118  0.1085 -0.3898 -0.0836
 8398WAT      O34297   6.018   0.197   3.741 -0.0477  0.4154 -1.1464
 8398WAT     H134298   6.034   0.282   3.726 -0.3337  0.9513  1.1834
 8398WAT     H234299   6.046   0.158   3.669 -1.5365  2.6344 -3.0892
 8398WAT    EPW34300   6.024   0.204   3.728  0.6384  0.1645 -0.3059
 8399WAT      O34301   3.202   7.333   1.926  0.3099  0.5752 -0.3374
 8399WAT     H134302   3.207   7.306   1.843  1.3390 -0.8506  0.1514
 8399WAT     H234303   3.165   7.412   1.919 -0.5253  0.0954 -2.0654
 8399WAT    EPW34304   3.197   7.341   1.912  0.0844  0.4706 -0.2770
 8400WAT      O34305   4.961   7.325   4.352 -0.0457 -0.0650  0.0604
 8400WAT     H134306   4.901   7.312   4.290  0.8924 -1.3565 -0.6323
 8400WAT     H234307   4.972   7.412   4.353  0.2802 -0.0353 -1.9680
 8400WAT    EPW34308   4.954   7.336   4.343 -0.1318 -0.1707 -0.8739
 8401WAT      O34309   4.315   1.422   3.724 -0.3841  0.4648 -0.1871
 8401WAT     H134310   4.229   1.423   3.713 -0.5184  3.0449  0.5372
 8401WAT     H234311   4.325   1.419   3.811  0.3027 -0.6304 -0.2811
 8401WAT    EPW34312   4.304   1.422   3.735  0.3626  0.7111  0.5667
 8402WAT      O34313   5.421   1.403   1.018 -0.7528 -0.2490  0.6864
 8402WAT     H134314   5.340   1.411   1.050 -1.2889 -1.3191 -0.3027
 8402WAT     H234315   5.423   1.321   0.987 -0.2939  0.6215 -1.9152
 8402WAT    EPW34316   5.409   1.392   1.018  0.0027 -0.4701  0.3008
 8403WAT      O34317   4.794   1.338   4.041  0.5411  0.6598 -0.5939
 8403WAT     H134318   4.729   1.374   3.996  0.8259  0.4167 -1.2163
 8403WAT     H234319   4.822   1.404   4.092 -0.9120  0.4456  0.5318
 8403WAT    EPW34320   4.789   1.353   4.042 -0.4141  0.1828  1.0367
 8404WAT      O34321   3.152   7.262   1.670 -0.0754 -0.1862 -0.1039
 8404WAT     H134322   3.179   7.181   1.654 -1.4417 -0.7283  0.2673
 8404WAT     H234323   3.067   7.254   1.685 -0.8218  1.6600 -2.6561
 8404WAT    EPW34324   3.144   7.249   1.670  0.1763 -0.1153 -0.4287
 8405WAT      O34325   4.902   7.072   1.650 -0.7626  0.1378 -0.0150
 8405WAT     H134326   4.905   6.986   1.664 -2.0122 -0.4059 -2.5371
 8405WAT     H234327   4.829   7.083   1.603  1.0929  2.0061 -2.8176
 8405WAT    EPW34328   4.892   7.061   1.645 -0.3164 -0.3828  0.3638
 8406WAT      O34329   2.614   7.658   0.863  0.1864 -0.3013 -0.3927
 8406WAT     H134330   2.700   7.672   0.856  0.8692 -3.8693 -1.0674
 8406WAT     H234331   2.596   7.604   0.797 -2.0342 -1.6609  1.1726
 8406WAT    EPW34332   2.624   7.652   0.852 -0.6988  1.1093  0.0977
 8407WAT      O34333   3.644   0.220   1.577 -0.1774 -0.8963 -0.0942
 8407WAT     H134334   3.670   0.297   1.544  0.1821 -1.6803 -1.7957
 8407WAT     H234335   3.711   0.196   1.627 -0.2208 -0.1753  0.3171
 8407WAT    EPW34336   3.658   0.228   1.579 -1.2582 -0.0024  1.3544
 8408WAT      O34337   2.936   0.267   1.523  0.1054 -0.5562 -0.2931
 8408WAT     H134338   2.874   0.285   1.465  0.0787 -1.0421 -0.4237
 8408WAT     H234339   2.934   0.335   1.578  0.7075  0.3328 -1.3296
 8408WAT    EPW34340   2.926   0.280   1.523  0.0515  0.1975  0.1860
 8409WAT      O34341   1.739   7.413   0.554  0.2882  0.3035  0.0827
 8409WAT     H134342   1.713   7.495   0.568  0.4304  0.2577  0.6490
 8409WAT     H234343   1.717   7.398   0.471  0.0704  0.8427  0.0400
 8409WAT    EPW34344   1.732   7.423   0.544 -0.0150 -0.1964 -0.4567
 8410WAT      O34345   2.283   1.296   1.623 -0.1189 -0.5485 -0.0712
 8410WAT     H134346   2.299   1.305   1.538 -0.3999  3.3483  0.1234
 8410WAT     H234347   2.196   1.291   1.627 -0.1555  0.1010  0.0118
 8410WAT    EPW34348   2.273   1.296   1.611  0.9985 -0.5257 -0.1634
 8411WAT      O34349   3.740   1.394   3.668 -0.2133  0.3946  0.5212
 8411WAT     H134350   3.733   1.421   3.751 -2.1246  1.7889 -0.0097
 8411WAT     H234351   3.664   1.354   3.654  0.0541  0.2593 -0.5904
 8411WAT    EPW34352   3.728   1.392   3.679 -0.9158 -0.0091 -0.1321
 8412WAT      O34353   2.816   7.227   1.286 -0.2702  0.4240  0.2181
 8412WAT     H134354   2.795   7.263   1.209  0.0239  1.5102  0.6271
 8412WAT     H234355   2.806   7.293   1.343  2.8370  0.6969  0.6343
 8412WAT    EPW34356   2.812   7.242   1.283 -0.4407  1.1681 -0.4914
 8413WAT      O34357   2.547   0.775   2.847  0.2168 -0.5291  0.2187
 8413WAT     H134358   2.510   0.702   2.876  0.7367 -0.2053  1.8315
 8413WAT     H234359   2.617   0.747   2.803  0.8667 -1.0295  1.5057
 8413WAT    EPW34360   2.552   0.760   2.845  0.2595  0.5848  0.3178
 8414WAT      O34361   2.648   0.886   1.207 -0.3128  0.0236  0.2232
 8414WAT     H134362   2.686   0.965   1.202 -0.1837 -0.0759 -0.4197
 8414WAT     H234363   2.617   0.884   1.289  0.7183  0.2719  0.6437
 8414WAT    EPW34364   2.649   0.898   1.218  0.4909  0.4736 -0.4695
 8415WAT      O34365   3.049   1.743   2.275 -0.5875 -0.3802  0.9043
 8415WAT     H134366   3.017   1.806   2.326 -1.6527 -0.7086  0.6668
 8415WAT     H234367   3.074   1.681   2.331  0.2394  0.1410  1.1246
 8415WAT    EPW34368   3.048   1.743   2.291  0.0368  0.1199  0.0121
 8416WAT      O34369   3.198   0.845   1.322  0.0583 -0.4680  0.6206
 8416WAT     H134370   3.271   0.886   1.298  1.2391 -2.2551  0.9613
 8416WAT     H234371   3.224   0.794   1.388 -1.7470 -0.3718  1.4767
 8416WAT    EPW34372   3.213   0.843   1.329 -0.1777 -0.5256 -0.4033
 8417WAT      O34373   3.175   1.363   1.790 -0.0233  0.1610 -0.1830
 8417WAT     H134374   3.200   1.418   1.726 -0.8700 -2.7834 -3.3551
 8417WAT     H234375   3.123   1.306   1.748  1.4238 -3.5609  2.5778
 8417WAT    EPW34376   3.171   1.363   1.774  0.0244 -0.3799  0.7978
 8418WAT      O34377   4.113   1.340   0.787  0.1417  0.8313  0.0826
 8418WAT     H134378   4.175   1.374   0.838  1.5778 -2.4115  0.7866
 8418WAT     H234379   4.043   1.337   0.840  0.5306  0.9452  0.6180
 8418WAT    EPW34380   4.111   1.345   0.803 -0.5089 -0.8241  0.4661
 8419WAT      O34381   3.645   6.943   1.681 -0.1001 -0.5321  0.3789
 8419WAT     H134382   3.635   6.857   1.691  0.9456 -0.5504  1.4556
 8419WAT     H234383   3.722   6.950   1.641 -0.9302 -0.1362 -1.2400
 8419WAT    EPW34384   3.655   6.931   1.676 -0.4167 -0.2205  0.3764
 8420WAT      O34385   2.186   1.123   2.020  0.6722 -0.2503 -0.9990
 8420WAT     H134386   2.120   1.079   2.055  1.1333 -0.5159 -0.4514
 8420WAT     H234387   2.191   1.195   2.069  0.1573  0.2616 -1.6635
 8420WAT    EPW34388   2.177   1.127   2.032 -0.0525 -0.2906  0.5799
 8421WAT      O34389   4.485   0.161   1.008 -0.3208 -1.0090  0.2702
 8421WAT     H134390   4.448   0.182   0.931 -1.9745  0.5550  1.3886
 8421WAT     H234391   4.428   0.105   1.043  0.5726 -1.9438  0.2795
 8421WAT    EPW34392   4.471   0.156   1.002 -0.4741  0.2024  0.6245
 8422WAT      O34393   1.837   7.518   1.549  0.2827 -0.4437  0.0775
 8422WAT     H134394   1.785   7.576   1.590  0.3497 -0.2550 -0.1019
 8422WAT     H234395   1.908   7.565   1.529  0.6752 -0.7906  0.6344
 8422WAT    EPW34396   1.839   7.534   1.552 -0.8844 -0.9302  0.5457
 8423WAT      O34397   2.543   1.271   1.157 -0.3247 -0.7303 -0.0052
 8423WAT     H134398   2.541   1.316   1.232  0.2989 -1.1485  0.2731
 8423WAT     H234399   2.611   1.217   1.168 -0.8588 -1.5096 -0.4664
 8423WAT    EPW34400   2.553   1.270   1.170  0.5690  0.0573 -0.2251
 8424WAT      O34401   4.832   1.255   2.581 -0.0928 -0.1778 -0.1989
 8424WAT     H134402   4.786   1.325   2.556 -1.5145 -0.9128  0.2253
 8424WAT     H234403   4.857   1.220   2.505  0.2075  0.5009 -0.4243
 8424WAT    EPW34404   4.829   1.260   2.566 -0.0277 -0.0514  0.1710
 8425WAT      O34405   3.723   1.015   2.592  0.3131 -0.2484 -0.1709
 8425WAT     H134406   3.785   1.053   2.545  0.1488 -0.2811 -0.4173
 8425WAT     H234407   3.764   0.948   2.630  1.0982  1.2723  1.8600
 8425WAT    EPW34408   3.738   1.010   2.591  0.1435 -0.0610 -0.0716
 8426WAT      O34409   4.380   1.195   2.375 -0.1569  0.0692 -0.3994
 8426WAT     H134410   4.326   1.128   2.364 -0.8949  0.3248  1.2367
 8426WAT     H234411   4.329   1.265   2.361 -0.4142  0.3249  1.5148
 8426WAT    EPW34412   4.364   1.196   2.371 -0.2391  0.0923 -0.1561
 8427WAT      O34413   4.161   0.914   1.822  0.7325 -0.1542 -0.0631
 8427WAT     H134414   4.248   0.909   1.825  0.9103  1.0571 -1.6083
 8427WAT     H234415   4.142   0.889   1.741 -0.4671 -1.3308  0.5474
 8427WAT    EPW34416   4.171   0.910   1.810  0.1441 -0.2655  0.0668
 8428WAT      O34417   3.322   0.693   1.553  0.0180 -1.1123 -0.3804
 8428WAT     H134418   3.340   0.724   1.633 -0.4923  0.1788 -0.7475
 8428WAT     H234419   3.306   0.608   1.568  0.8181 -1.0990  0.7470
 8428WAT    EPW34420   3.323   0.685   1.567  0.1326  0.0208  0.1820
 8429WAT      O34421   3.012   2.285   2.312 -0.1635  0.0991 -0.3335
 8429WAT     H134422   3.004   2.232   2.242 -0.3117  0.1540 -0.3598
 8429WAT     H234423   2.929   2.295   2.338 -0.1522  0.4865 -0.4512
 8429WAT    EPW34424   2.998   2.278   2.305 -0.1899 -0.6768  0.2417
 8430WAT      O34425   4.516   0.367   2.217  0.1299  0.4785 -0.0295
 8430WAT     H134426   4.431   0.382   2.234  0.2464 -0.5314  1.6932
 8430WAT     H234427   4.552   0.446   2.223 -0.5539  0.7921  0.0665
 8430WAT    EPW34428   4.509   0.381   2.220 -0.8357 -0.7482 -0.1050
 8431WAT      O34429   3.262   1.259   2.058 -0.2040  0.5250 -0.9203
 8431WAT     H134430   3.218   1.219   2.121 -0.1474  3.9390  1.5768
 8431WAT     H234431   3.205   1.264   1.992 -1.0606 -1.2178 -0.3467
 8431WAT    EPW34432   3.247   1.254   2.057  0.5688  0.3639 -0.2405
 8432WAT      O34433   3.343   1.319   2.847  0.3281 -0.3310 -0.3142
 8432WAT     H134434   3.277   1.327   2.904 -0.1303 -0.5847 -0.7910
 8432WAT     H234435   3.331   1.387   2.793  0.2300 -0.5865 -0.6188
 8432WAT    EPW34436   3.331   1.330   2.848  0.5316 -0.5420 -0.1765
 8433WAT      O34437   3.199   6.573   2.026  1.1295 -0.3647 -0.4477
 8433WAT     H134438   3.249   6.644   2.033  1.7822 -0.6132 -2.1341
 8433WAT     H234439   3.247   6.518   1.979 -1.0760 -0.1602 -3.2683
 8433WAT    EPW34440   3.213   6.576   2.020 -0.0154 -0.3170 -0.0143
 8434WAT      O34441   2.598   7.759   1.553  0.0472  0.3142 -0.9500
 8434WAT     H134442   2.560   7.682   1.542 -0.6473  0.4686  0.1943
 8434WAT     H234443   2.679   7.747   1.522 -0.6385 -0.2757 -2.5994
 8434WAT    EPW34444   2.604   7.746   1.547  0.4175  0.7258  0.1065
 8435WAT      O34445   3.893   0.172   2.350 -0.3208  0.2420 -0.2820
 8435WAT     H134446   3.807   0.157   2.354 -0.2753 -0.3680 -1.3208
 8435WAT     H234447   3.928   0.093   2.361  0.1069  0.4596 -0.0604
 8435WAT    EPW34448   3.885   0.158   2.353 -0.0074 -0.1149 -0.5849
 8436WAT      O34449   2.121   0.129   2.988  0.7273 -0.2677  0.3578
 8436WAT     H134450   2.041   0.094   2.987  0.1695  0.9463 -0.7173
 8436WAT     H234451   2.172   0.065   2.957 -0.2728 -0.1908 -1.6248
 8436WAT    EPW34452   2.117   0.114   2.983 -0.6647  0.1859 -0.0465
 8437WAT      O34453   6.459   0.354   1.247 -0.0216  0.3102  0.1527
 8437WAT     H134454   6.376   0.339   1.225 -0.2587  1.1098  0.4693
 8437WAT     H234455   6.455   0.429   1.291  0.6037 -0.6003  1.8666
 8437WAT    EPW34456   6.446   0.363   1.250 -0.3005  0.0409  0.4011
 8438WAT      O34457   3.579   1.395   1.161  0.3458 -0.0843 -0.1564
 8438WAT     H134458   3.561   1.372   1.243  0.3635  0.1415 -0.0878
 8438WAT     H234459   3.621   1.472   1.170 -1.0535  0.7443 -0.4503
 8438WAT    EPW34460   3.583   1.403   1.174 -0.3122  0.0427 -0.5781
 8439WAT      O34461   2.670   1.417   2.258 -0.2163  0.6795 -0.3370
 8439WAT     H134462   2.608   1.411   2.197 -0.3869 -1.1959 -0.0327
 8439WAT     H234463   2.626   1.443   2.329 -0.5694 -0.0938 -0.2647
 8439WAT    EPW34464   2.655   1.420   2.259  0.0531  0.1138  0.5462
 8440WAT      O34465   4.740   7.748   3.127 -0.0164 -0.1682 -0.3594
 8440WAT     H134466   4.758   7.671   3.092 -0.5362 -0.1343 -0.7087
 8440WAT     H234467   4.757   7.736   3.212  1.0926 -0.2948 -0.5840
 8440WAT    EPW34468   4.745   7.735   3.135  0.1381  0.3709 -0.4362
 8441WAT      O34469   4.075   8.036   1.640 -0.1510 -0.2533  0.4372
 8441WAT     H134470   4.012   8.092   1.664  1.5410  2.2978 -0.6388
 8441WAT     H234471   4.142   8.088   1.620  1.4837 -2.6929 -0.9489
 8441WAT    EPW34472   4.076   8.052   1.641 -0.8108  0.8070 -0.0592
 8442WAT      O34473   3.366   7.584   0.848 -0.7967 -0.1839 -0.3133
 8442WAT     H134474   3.341   7.505   0.877  0.6611 -0.5810 -0.1013
 8442WAT     H234475   3.290   7.620   0.823 -1.9942 -0.4095  2.5185
 8442WAT    EPW34476   3.351   7.578   0.849 -0.9700  0.4011 -0.7274
 8443WAT      O34477   1.975   0.223   0.671 -0.2268 -0.0696 -0.0791
 8443WAT     H134478   1.943   0.301   0.650 -0.6215 -0.4665 -1.0315
 8443WAT     H234479   2.037   0.241   0.730  1.1185  1.1643 -1.7694
 8443WAT    EPW34480   1.979   0.237   0.677 -0.0577 -0.7183  0.2399
 8444WAT      O34481   4.494   7.325   1.271  0.7635 -0.6071  0.5544
 8444WAT     H134482   4.536   7.347   1.198 -1.4886  1.8212 -0.1682
 8444WAT     H234483   4.445   7.257   1.246 -0.6195  0.7106 -0.5684
 8444WAT    EPW34484   4.493   7.318   1.256  0.0749  0.2422  0.7477
 8445WAT      O34485   5.398   0.499   1.380  0.3121  0.2553 -0.2885
 8445WAT     H134486   5.353   0.518   1.308 -1.1119 -0.5861  0.3512
 8445WAT     H234487   5.451   0.434   1.353 -3.0011 -2.9721  0.2269
 8445WAT    EPW34488   5.399   0.492   1.365  0.8380 -0.1286  0.0428
 8446WAT      O34489   1.242   7.537   0.842 -0.0520  0.4744  0.5390
 8446WAT     H134490   1.255   7.603   0.897  1.7467  1.2431 -0.7306
 8446WAT     H234491   1.303   7.479   0.864 -0.0405  0.2967  0.0546
 8446WAT    EPW34492   1.253   7.538   0.853  0.2903 -0.6213 -0.5827
 8447WAT      O34493   2.597   0.147   3.138  0.0339 -0.1267 -0.1106
 8447WAT     H134494   2.511   0.134   3.145  0.1644 -0.7189  0.5813
 8447WAT     H234495   2.620   0.174   3.218  0.3585  0.9285 -0.5442
 8447WAT    EPW34496   2.588   0.149   3.151 -0.0278 -0.3485 -0.3071
 8448WAT      O34497   2.296   1.878   0.881 -0.2700 -0.1866 -0.1084
 8448WAT     H134498   2.318   1.802   0.916  0.1947  0.6933  1.6330
 8448WAT     H234499   2.281   1.929   0.950 -3.5483  0.5250 -1.1613
 8448WAT    EPW34500   2.297   1.875   0.896 -0.2912 -0.2933 -0.6783
 8449WAT      O34501   3.593   6.842   1.398 -0.3825  0.0547 -0.3482
 8449WAT     H134502   3.570   6.860   1.480 -0.9122 -2.4019  0.1253
 8449WAT     H234503   3.557   6.906   1.352  1.3271  2.4443  1.4326
 8449WAT    EPW34504   3.584   6.854   1.403 -0.0110 -0.2166 -0.1064
 8450WAT      O34505   5.315   1.135   1.912 -0.0970 -0.2733 -0.2137
 8450WAT     H134506   5.370   1.202   1.923 -1.1043  0.6871 -0.8016
 8450WAT     H234507   5.366   1.073   1.877  1.3012 -0.5620  2.1046
 8450WAT    EPW34508   5.331   1.136   1.908 -0.0349  0.3890  0.1764
 8451WAT      O34509   2.934   7.831   0.454  0.0215  0.1922 -0.2986
 8451WAT     H134510   2.971   7.756   0.479 -2.4356 -0.3256  2.3190
 8451WAT     H234511   2.957   7.886   0.517 -0.7090  0.8095 -0.5718
 8451WAT    EPW34512   2.943   7.828   0.467 -0.0178  0.4882 -0.6675
 8452WAT      O34513   3.491   7.407   1.156 -0.0331  0.0542 -0.4076
 8452WAT     H134514   3.551   7.344   1.167 -0.2275  0.2266  2.4816
 8452WAT     H234515   3.538   7.480   1.150  0.1206 -0.1332 -1.6923
 8452WAT    EPW34516   3.507   7.409   1.157  0.1443 -0.1527 -1.2646
 8453WAT      O34517   1.209   1.513   1.320 -0.0645  0.2330 -0.3730
 8453WAT     H134518   1.221   1.599   1.309  0.9612  0.0106 -1.1598
 8453WAT     H234519   1.123   1.503   1.310 -0.0706  1.0463 -1.2812
 8453WAT    EPW34520   1.198   1.524   1.317 -0.1636 -0.3999 -0.8686
 8454WAT      O34521   4.028   1.769   0.459  0.4082 -0.0545 -0.2784
 8454WAT     H134522   4.004   1.823   0.524 -0.5991 -0.6225 -0.1762
 8454WAT     H234523   4.028   1.690   0.496  2.0656 -0.1490 -0.3761
 8454WAT    EPW34524   4.025   1.766   0.474  0.0056  0.2163  0.3697
 8455WAT      O34525   4.933   1.160   2.322 -0.7662 -0.1387 -0.0903
 8455WAT     H134526   4.976   1.236   2.320  0.6244 -0.8816  0.4195
 8455WAT     H234527   4.856   1.179   2.284 -0.1147  1.2973 -0.7573
 8455WAT    EPW34528   4.928   1.174   2.316 -0.2086  0.0775 -0.6502
 8456WAT      O34529   3.751   1.521   3.930  0.2955 -0.1818 -0.2995
 8456WAT     H134530   3.752   1.606   3.949  1.1039  0.3240 -2.3793
 8456WAT     H234531   3.831   1.493   3.951 -0.1921 -0.6264  1.0574
 8456WAT    EPW34532   3.763   1.529   3.936  0.0582 -0.0431  0.1702
 8457WAT      O34533   3.628   1.419   0.810 -0.5411 -0.0227 -0.2586
 8457WAT     H134534   3.596   1.372   0.744 -0.3468 -1.8091  0.8605
 8457WAT     H234535   3.561   1.423   0.866 -0.2777  0.2995  0.0355
 8457WAT    EPW34536   3.613   1.413   0.808 -0.0297 -0.0891 -0.3714
 8458WAT      O34537   3.718   0.142   1.260  0.3374  0.3129  0.1796
 8458WAT     H134538   3.711   0.127   1.175  1.6576 -0.1852  0.1230
 8458WAT     H234539   3.642   0.115   1.293  0.8679 -2.3462 -0.5000
 8458WAT    EPW34540   3.706   0.136   1.253  0.7412 -0.2684  0.1332
 8459WAT      O34541   4.116   1.013   1.071  0.2273  0.2484 -0.5427
 8459WAT     H134542   4.183   1.002   1.126 -0.8776  0.7478  0.9605
 8459WAT     H234543   4.117   0.940   1.023  1.2396 -0.2092  0.1330
 8459WAT    EPW34544   4.126   1.001   1.072  0.1671  0.3351  0.0637
 8460WAT      O34545   3.687   7.561   2.640 -0.1457  0.5409  0.1479
 8460WAT     H134546   3.618   7.593   2.683 -0.7683 -1.2504  0.6144
 8460WAT     H234547   3.745   7.625   2.642 -1.0879  1.4030  1.4941
 8460WAT    EPW34548   3.685   7.575   2.647 -0.2311 -0.4002  0.1122
 8461WAT      O34549   6.181   0.298   1.170 -0.1676  0.8331  0.0052
 8461WAT     H134550   6.112   0.277   1.121  0.9722 -0.8161 -0.9737
 8461WAT     H234551   6.146   0.345   1.235 -2.0424  1.0181 -1.0667
 8461WAT    EPW34552   6.166   0.302   1.172 -0.3595  1.4206  0.3245
 8462WAT      O34553   4.004   7.479   1.909 -0.1697  0.6222 -0.4271
 8462WAT     H134554   3.961   7.553   1.926 -0.9072  0.4267 -1.3495
 8462WAT     H234555   3.967   7.450   1.836  0.7676 -0.1613 -0.6163
 8462WAT    EPW34556   3.992   7.485   1.901 -0.1307 -0.0426  1.1834
 8463WAT      O34557   4.367   1.261   1.975 -0.2775 -0.1191  0.2970
 8463WAT     H134558   4.313   1.315   2.016  0.5419  0.7440  0.2640
 8463WAT     H234559   4.340   1.263   1.892 -0.8549 -0.5300  0.4703
 8463WAT    EPW34560   4.355   1.269   1.968  0.2794 -0.3408  0.0782
 8464WAT      O34561   3.227   1.422   2.593 -0.6191 -0.3960  0.1372
 8464WAT     H134562   3.284   1.434   2.528 -0.5889 -1.1935  0.0045
 8464WAT     H234563   3.229   1.336   2.606 -1.3285 -0.3530  0.5638
 8464WAT    EPW34564   3.236   1.411   2.585 -0.0440 -0.0251 -0.6763
 8465WAT      O34565   4.586   0.712   1.033  0.5453  0.2425  0.6039
 8465WAT     H134566   4.629   0.659   0.979  0.9430  0.2045  0.9514
 8465WAT     H234567   4.612   0.792   1.009 -1.9516  0.5233 -1.6072
 8465WAT    EPW34568   4.597   0.716   1.022 -0.1902  0.1577  0.6820
 8466WAT      O34569   2.918   0.041   2.070 -0.6643  0.6874  0.4342
 8466WAT     H134570   2.997   0.024   2.103 -0.3117  0.7981 -0.3507
 8466WAT     H234571   2.934   0.081   1.995 -1.4513 -0.1443 -0.2050
 8466WAT    EPW34572   2.932   0.044   2.064 -0.8068  0.3872  0.2940
 8467WAT      O34573   2.758   1.660   0.870 -0.3860 -0.7941 -0.2218
 8467WAT     H134574   2.779   1.711   0.938  0.3477 -2.7505  1.1338
 8467WAT     H234575   2.717   1.593   0.907  1.4075 -2.7042 -1.4689
 8467WAT    EPW34576   2.755   1.658   0.886 -0.3896 -0.3372  0.3180
 8468WAT      O34577   5.100   0.939   2.328  0.4336 -0.6365 -0.5032
 8468WAT     H134578   5.037   1.000   2.327  0.4379 -0.5806  0.8280
 8468WAT     H234579   5.130   0.939   2.246 -1.7170 -1.1216 -1.3475
 8468WAT    EPW34580   5.095   0.948   2.315 -0.4809 -0.0320 -0.6509
 8469WAT      O34581   3.720   0.510   1.554  0.1212 -0.3993 -0.3297
 8469WAT     H134582   3.662   0.555   1.507 -0.3754 -0.6223  0.0630
 8469WAT     H234583   3.704   0.536   1.636  1.0692  0.0872 -0.2824
 8469WAT    EPW34584   3.709   0.521   1.559  0.8569  0.7585 -0.2368
 8470WAT      O34585   3.396   2.192   1.382 -0.2414 -0.0225 -0.0474
 8470WAT     H134586   3.459   2.231   1.335  1.4413 -0.9311  1.3344
 8470WAT     H234587   3.369   2.127   1.331  1.5323 -0.9723  0.1524
 8470WAT    EPW34588   3.401   2.188   1.367  0.4125 -0.1774 -1.6927
 8471WAT      O34589   3.447   0.977   1.387  0.3340  0.1499  0.4925
 8471WAT     H134590   3.525   0.944   1.409 -0.0791 -2.1046 -1.0560
 8471WAT     H234591   3.465   1.026   1.317  0.1972 -2.1501 -1.2818
 8471WAT    EPW34592   3.461   0.979   1.380 -0.0327 -0.8305 -0.2272
 8472WAT      O34593   6.098   0.533   0.840  0.4711 -0.4127  0.2759
 8472WAT     H134594   6.056   0.609   0.833  0.4856 -0.4006  0.3285
 8472WAT     H234595   6.155   0.546   0.903  0.8616 -0.2860 -0.0994
 8472WAT    EPW34596   6.100   0.546   0.848 -0.1197  0.1616 -0.2901
 8473WAT      O34597   3.450   0.469   2.887  0.2297  0.1068  0.1777
 8473WAT     H134598   3.410   0.412   2.834  0.7905  0.2446 -0.4051
 8473WAT     H234599   3.522   0.426   2.913 -0.1431 -0.0367  0.9959
 8473WAT    EPW34600   3.455   0.454   2.883  0.1623  0.2161 -0.8268
 8474WAT      O34601   1.718   7.748   0.113 -0.5510  0.1404  0.4777
 8474WAT     H134602   1.664   7.790   0.167 -1.0317 -0.4413  0.4709
 8474WAT     H234603   1.686   7.666   0.112  1.7230 -0.8752  2.3341
 8474WAT    EPW34604   1.705   7.742   0.121 -0.3701  0.5970 -0.0377
 8475WAT      O34605   2.886   7.418   7.982  0.0276 -0.0342  0.3077
 8475WAT     H134606   2.916   7.468   7.917  0.2324 -0.3564  0.1497
 8475WAT     H234607   2.910   7.461   8.054  0.4357 -0.0386  0.1755
 8475WAT    EPW34608   2.894   7.432   7.983 -0.2628 -0.3499 -0.0919
 8476WAT      O34609   5.290   0.368   1.043 -0.1075  0.2686 -0.0085
 8476WAT     H134610   5.237   0.358   1.111 -1.4242  1.7948 -0.7599
 8476WAT     H234611   5.345   0.431   1.068  1.1850 -1.0531  0.6279
 8476WAT    EPW34612   5.290   0.376   1.056 -0.1622 -0.2512  0.0462
 8477WAT      O34613   6.009   0.113   2.447 -0.5659 -0.4213 -0.3813
 8477WAT     H134614   6.089   0.082   2.459  0.3407  1.1471 -1.9456
 8477WAT     H234615   5.977   0.121   2.528  0.8382 -1.0839  0.2588
 8477WAT    EPW34616   6.016   0.109   2.460 -0.9480  0.5959 -0.2614
 8478WAT      O34617   3.760   1.631   0.684 -0.1659 -0.1687  0.1681
 8478WAT     H134618   3.840   1.603   0.662 -0.6966 -0.5100 -1.4401
 8478WAT     H234619   3.731   1.570   0.739  0.5106 -0.2785  0.4130
 8478WAT    EPW34620   3.768   1.618   0.689  0.2114 -0.7615 -0.2843
 8479WAT      O34621   6.284   0.347   2.179 -0.4555 -0.2237  0.1017
 8479WAT     H134622   6.288   0.374   2.096 -1.0587  0.1313  0.1800
 8479WAT     H234623   6.297   0.420   2.225  0.0062 -0.4425  0.3247
 8479WAT    EPW34624   6.286   0.361   2.174 -0.0468 -0.7251 -0.7574
 8480WAT      O34625   4.743   7.841   2.422  0.1423 -0.3521 -0.3344
 8480WAT     H134626   4.722   7.771   2.376 -0.4427 -0.3405 -0.0967
 8480WAT     H234627   4.708   7.907   2.377 -1.4629 -0.4389  0.6936
 8480WAT    EPW34628   4.735   7.841   2.409 -0.0455 -0.2262  0.4210
 8481WAT      O34629   3.682   7.611   1.164  0.7803 -0.4886  0.0103
 8481WAT     H134630   3.760   7.579   1.141  1.1494  0.4689 -0.0935
 8481WAT     H234631   3.699   7.657   1.236  0.6355  1.0877 -0.9199
 8481WAT    EPW34632   3.696   7.613   1.171  0.3094  0.4056 -0.5575
 8482WAT      O34633   3.583   6.365   1.441 -0.3329 -0.4895 -0.0973
 8482WAT     H134634   3.670   6.377   1.446 -0.5951  1.1525  1.6159
 8482WAT     H234635   3.556   6.436   1.397 -0.9109 -0.3904  0.4073
 8482WAT    EPW34636   3.592   6.377   1.435 -0.2644  0.3429 -0.0743
 8483WAT      O34637   2.358   0.856   2.383 -0.6789  0.1557 -0.1530
 8483WAT     H134638   2.348   0.937   2.351  1.8844  1.3036  1.6278
 8483WAT     H234639   2.376   0.809   2.312 -3.8215  0.6720 -1.4736
 8483WAT    EPW34640   2.359   0.861   2.368 -0.1770 -0.6493 -0.7714
 8484WAT      O34641   3.035   0.471   1.234 -0.6344 -0.2559 -0.2641
 8484WAT     H134642   2.968   0.415   1.235  0.1738 -1.2561 -0.1914
 8484WAT     H234643   2.997   0.549   1.243 -1.6986 -0.8793  1.0474
 8484WAT    EPW34644   3.019   0.474   1.236  0.2672 -0.7905  0.4170
 8485WAT      O34645   3.894   1.342   2.371  0.2604 -0.5644 -0.0432
 8485WAT     H134646   3.900   1.334   2.284 -1.7607 -5.3631 -0.0555
 8485WAT     H234647   3.811   1.363   2.384  0.8304  1.3369  0.8056
 8485WAT    EPW34648   3.883   1.344   2.360 -0.1708 -0.6334 -0.6092
 8486WAT      O34649   4.137   2.189   1.604  0.0533 -0.6252 -0.2188
 8486WAT     H134650   4.074   2.248   1.589  2.0980  2.2377  1.4352
 8486WAT     H234651   4.102   2.136   1.664 -1.2189  0.0684 -0.3101
 8486WAT    EPW34652   4.123   2.190   1.610  0.6152  0.2648 -0.0757
 8487WAT      O34653   4.865   0.779   2.503  0.0168  0.0305 -0.9394
 8487WAT     H134654   4.817   0.841   2.541  2.0648  2.1970 -1.6675
 8487WAT     H234655   4.879   0.809   2.422  0.2906 -1.8606 -1.6633
 8487WAT    EPW34656   4.860   0.793   2.497  0.3320 -0.2151  0.5217
 8488WAT      O34657   4.332   0.313   2.591 -0.1308  0.1777 -0.3834
 8488WAT     H134658   4.362   0.378   2.542 -0.5525  1.7238  1.2759
 8488WAT     H234659   4.247   0.310   2.571 -0.2845  0.7435  0.1768
 8488WAT    EPW34660   4.324   0.322   2.581 -0.5853  0.1243  0.1281
 8489WAT      O34661   4.905   0.531   0.187 -0.0677  0.3525 -0.8319
 8489WAT     H134662   4.830   0.494   0.162 -0.2076 -0.3761  0.5922
 8489WAT     H234663   4.880   0.603   0.228  0.0527  0.4574 -0.9415
 8489WAT    EPW34664   4.890   0.536   0.189 -0.3387  0.1664 -0.2191
 8490WAT      O34665   2.897   1.398   2.641  0.1946  0.3000  0.2221
 8490WAT     H134666   2.905   1.372   2.724  0.5987 -0.9594 -0.1909
 8490WAT     H234667   2.920   1.327   2.595 -3.8962 -0.4626 -1.0427
 8490WAT    EPW34668   2.902   1.383   2.647 -0.5228  0.4844 -0.1514
 8491WAT      O34669   3.852   0.406   0.498 -0.5336  0.0239  0.0857
 8491WAT     H134670   3.882   0.465   0.441 -1.3931 -0.5308 -0.9841
 8491WAT     H234671   3.923   0.383   0.543 -0.1836  1.8701  0.5556
 8491WAT    EPW34672   3.867   0.412   0.496  0.4654 -0.1066 -0.2083
 8492WAT      O34673   3.609   2.373   1.311  0.1110 -0.4670 -0.4820
 8492WAT     H134674   3.679   2.424   1.317  0.3802 -0.4923 -2.5828
 8492WAT     H234675   3.567   2.405   1.242 -0.8327 -1.7694 -0.5467
 8492WAT    EPW34676   3.613   2.385   1.302  0.0505  0.3226  1.1292
 8493WAT      O34677   3.294   7.417   1.450  0.2000  0.4223 -0.2867
 8493WAT     H134678   3.255   7.397   1.375  1.7115 -1.5642 -0.6294
 8493WAT     H234679   3.256   7.365   1.509  1.5822 -0.8139 -0.4425
 8493WAT    EPW34680   3.283   7.406   1.448 -0.0788  0.2139 -0.3753
 8494WAT      O34681   2.258   6.934   1.932 -0.1339  0.5736  0.7959
 8494WAT     H134682   2.306   6.870   1.967 -0.7636  0.0542  0.7257
 8494WAT     H234683   2.248   6.990   1.998  0.3743  0.5752  0.8742
 8494WAT    EPW34684   2.264   6.933   1.947  0.2991  0.2769 -0.0188
 8495WAT      O34685   3.424   6.923   0.564 -0.1755  0.2016  0.0338
 8495WAT     H134686   3.480   6.858   0.548 -1.4600 -0.9595  0.0343
 8495WAT     H234687   3.441   6.947   0.646  1.0879  0.6827 -0.3560
 8495WAT    EPW34688   3.434   6.917   0.573 -0.8233 -0.9131  0.2788
 8496WAT      O34689   3.972   1.115   2.510  0.1697 -0.0653 -0.1331
 8496WAT     H134690   4.030   1.078   2.456  0.1891  0.6305 -0.5962
 8496WAT     H234691   3.950   1.189   2.469 -2.1800 -0.9755 -0.7451
 8496WAT    EPW34692   3.977   1.120   2.496 -0.1953 -0.1475  0.9549
 8497WAT      O34693   2.705   0.624   1.864  0.1208 -0.7840 -0.0245
 8497WAT     H134694   2.722   0.706   1.890 -0.0264  0.0107 -2.2634
 8497WAT     H234695   2.725   0.576   1.934  3.1044  0.8732  0.3989
 8497WAT    EPW34696   2.710   0.629   1.878  1.0929  0.4713 -1.0769
 8498WAT      O34697   3.253   0.433   1.603  0.0821 -0.7231 -0.2912
 8498WAT     H134698   3.199   0.455   1.667 -0.2365  0.0719 -0.8192
 8498WAT     H234699   3.309   0.378   1.641  0.5571  0.5606  0.9396
 8498WAT    EPW34700   3.254   0.428   1.618 -0.5999 -0.7100 -0.3452
 8499WAT      O34701   2.921   1.292   1.680 -0.2312 -0.1702 -0.7141
 8499WAT     H134702   2.923   1.373   1.713 -0.2799 -0.7183  0.7037
 8499WAT     H234703   2.836   1.278   1.667 -0.1904  0.1537 -1.3964
 8499WAT    EPW34704   2.909   1.302   1.683  0.3561  0.0301 -0.3468
 8500WAT      O34705   5.079   1.417   1.967  0.0714 -0.5298  0.5745
 8500WAT     H134706   5.142   1.458   1.922  0.0886 -1.1627  0.0009
 8500WAT     H234707   5.113   1.408   2.047 -0.4042  1.6144  1.0672
 8500WAT    EPW34708   5.094   1.422   1.972 -0.0458 -0.7024  0.6011
 8501WAT      O34709   6.455   0.151   2.280 -0.2535  0.0808 -0.4811
 8501WAT     H134710   6.519   0.172   2.224 -0.7256  0.4545 -0.8976
 8501WAT     H234711   6.388   0.201   2.254 -0.8597 -0.6343 -0.3456
 8501WAT    EPW34712   6.454   0.162   2.267  1.0452  0.6685 -0.7311
 8502WAT      O34713   3.775   0.723   1.273 -0.2941 -0.5921 -0.4006
 8502WAT     H134714   3.825   0.653   1.262  1.4224  0.5653 -0.4462
 8502WAT     H234715   3.773   0.760   1.194 -1.1452 -0.5501 -0.3710
 8502WAT    EPW34716   3.782   0.718   1.260 -0.1023  0.1473  0.4165
 8503WAT      O34717   3.472   7.747   1.055  0.3655  0.2815  0.2496
 8503WAT     H134718   3.538   7.714   1.100  0.4671 -0.5484 -0.4988
 8503WAT     H234719   3.456   7.688   0.993 -0.4006  0.9471 -0.2207
 8503WAT    EPW34720   3.479   7.734   1.053 -0.3983 -0.0496  0.5226
 8504WAT      O34721   3.673   0.586   0.995 -0.9207 -0.1523  0.4435
 8504WAT     H134722   3.674   0.672   1.004 -0.3551 -0.0507 -0.4123
 8504WAT     H234723   3.714   0.573   0.918 -0.3392 -1.2180  0.9053
 8504WAT    EPW34724   3.679   0.597   0.985  0.7253  0.2243 -0.0718
 8505WAT      O34725   3.506   2.553   1.127  0.1001 -0.1141  0.4217
 8505WAT     H134726   3.469   2.490   1.079  0.5693 -0.8659  1.0115
 8505WAT     H234727   3.566   2.587   1.074 -0.0300 -0.2911  0.1585
 8505WAT    EPW34728   3.509   2.549   1.112  0.6057  0.0649  0.6955
 8506WAT      O34729   4.611   0.396   1.101  0.4574 -0.0940  0.0042
 8506WAT     H134730   4.657   0.426   1.034 -0.2428 -1.3239 -1.0877
 8506WAT     H234731   4.563   0.332   1.066 -3.7949  2.4058  0.4924
 8506WAT    EPW34732   4.610   0.391   1.086 -0.0337 -0.4211 -0.7521
 8507WAT      O34733   4.953   0.142   1.030  0.1436 -0.8732 -0.3624
 8507WAT     H134734   4.999   0.187   0.970 -0.8082  0.6483  0.0163
 8507WAT     H234735   4.993   0.162   1.105 -1.0134  0.3407 -0.0488
 8507WAT    EPW34736   4.966   0.152   1.032  0.1651 -0.0335 -0.5505
 8508WAT      O34737   2.397   1.111   0.894 -0.0071 -0.4301  0.0267
 8508WAT     H134738   2.425   1.031   0.914 -0.6398 -0.9349 -0.9917
 8508WAT     H234739   2.398   1.154   0.970  1.3476 -1.0851  0.3950
 8508WAT    EPW34740   2.401   1.106   0.908 -0.1902 -0.2758 -0.0718
 8509WAT      O34741   3.501   0.887   0.366  0.5667 -0.1770 -0.4464
 8509WAT     H134742   3.578   0.907   0.331  0.0487 -0.2961 -1.6933
 8509WAT     H234743   3.519   0.822   0.421  1.2837 -0.4940 -1.0501
 8509WAT    EPW34744   3.515   0.880   0.369 -0.6359  0.3326  0.9721
 8510WAT      O34745   4.045   0.975   1.559 -0.8417 -0.2232  0.1559
 8510WAT     H134746   3.978   0.938   1.600 -0.8814 -1.0273 -0.6014
 8510WAT     H234747   4.058   0.924   1.490  0.5672 -0.0917  0.2916
 8510WAT    EPW34748   4.037   0.962   1.555  0.3332 -0.1545 -0.0480
 8511WAT      O34749   4.509   1.865   3.462 -0.3958 -0.2805  0.1053
 8511WAT     H134750   4.436   1.908   3.481 -0.2104  0.4468 -0.7187
 8511WAT     H234751   4.482   1.797   3.415 -0.5601 -0.0858 -0.0826
 8511WAT    EPW34752   4.494   1.861   3.458 -0.5101  0.1523 -0.7289
 8512WAT      O34753   4.647   0.617   2.311 -0.1912  0.0267 -0.3062
 8512WAT     H134754   4.702   0.683   2.292  0.8418 -1.0646 -1.3227
 8512WAT     H234755   4.636   0.623   2.397 -0.4424  1.7512 -0.4176
 8512WAT    EPW34756   4.654   0.628   2.321  0.7568 -0.0694 -0.3913
 8513WAT      O34757   3.617   0.270   2.396  0.2048  0.1375  0.2016
 8513WAT     H134758   3.546   0.316   2.374  1.2853  1.3515 -0.9120
 8513WAT     H234759   3.668   0.329   2.436  0.9346 -0.4933  0.2307
 8513WAT    EPW34760   3.614   0.286   2.399 -0.5474 -0.1137 -0.8166
 8514WAT      O34761   4.467   0.381   1.733  0.0636  0.2335  0.3983
 8514WAT     H134762   4.507   0.316   1.775 -0.4895 -0.3765  0.0018
 8514WAT     H234763   4.478   0.450   1.786 -1.0441 -0.6109  1.8024
 8514WAT    EPW34764   4.474   0.382   1.747 -1.1436 -0.9343  0.0347
 8515WAT      O34765   4.069   7.392   2.589 -0.0735  0.5489  0.0866
 8515WAT     H134766   4.000   7.408   2.640  1.0619 -1.3484  2.4239
 8515WAT     H234767   4.098   7.472   2.568 -0.8161  1.4330  2.1461
 8515WAT    EPW34768   4.063   7.406   2.593  0.3271  0.9000 -0.1202
 8516WAT      O34769   3.207   0.414   1.993 -0.2086  0.4965 -0.3874
 8516WAT     H134770   3.155   0.400   2.062 -0.0927  0.3164 -0.3358
 8516WAT     H234771   3.162   0.471   1.944  0.1368  1.3998  0.3170
 8516WAT    EPW34772   3.193   0.420   1.996 -0.3310  0.2338 -1.0464
 8517WAT      O34773   3.895   7.435   0.499  0.1313 -0.0856 -0.4840
 8517WAT     H134774   3.946   7.500   0.472  1.0066 -0.4155  0.3279
 8517WAT     H234775   3.850   7.413   0.427 -0.4034  1.5903 -0.7050
 8517WAT    EPW34776   3.896   7.442   0.484 -0.7272 -0.6202  0.3209
 8518WAT      O34777   2.989   7.986   0.934  0.5589  0.2549 -0.0590
 8518WAT     H134778   3.053   8.016   0.984 -0.2713  0.1224  1.1214
 8518WAT     H234779   2.925   8.045   0.944 -0.5830 -1.0932  1.1791
 8518WAT    EPW34780   2.989   7.999   0.942  0.3778 -0.1731  0.3106
 8519WAT      O34781   2.943   0.763   0.954  0.3677 -0.5383 -0.4515
 8519WAT     H134782   3.007   0.705   0.959  0.8944  0.1403  1.6854
 8519WAT     H234783   2.983   0.835   0.926  0.5355 -0.1849  0.6383
 8519WAT    EPW34784   2.958   0.765   0.951 -0.3784 -0.1485  0.2110
 8520WAT      O34785   4.912   2.181   1.658  0.0450 -0.0769  0.1539
 8520WAT     H134786   4.850   2.131   1.623  1.4833 -1.9663  0.1791
 8520WAT     H234787   4.867   2.239   1.706 -1.6907 -1.4877  0.3202
 8520WAT    EPW34788   4.896   2.182   1.660  0.6044 -0.4806 -0.0668
 8521WAT      O34789   5.382   7.296   2.191 -0.3059 -0.4042 -0.1129
 8521WAT     H134790   5.442   7.257   2.141 -1.4565 -2.0383 -0.3007
 8521WAT     H234791   5.373   7.375   2.155 -1.3007 -1.6031 -2.6887
 8521WAT    EPW34792   5.390   7.302   2.178 -0.0320 -0.4094  0.1986
 8522WAT      O34793   3.930   2.360   0.539 -0.5404 -0.0514 -0.1965
 8522WAT     H134794   3.907   2.430   0.586  1.5531 -1.1621  2.7678
 8522WAT     H234795   4.006   2.335   0.575 -1.3442 -4.0619 -0.8191
 8522WAT    EPW34796   3.938   2.367   0.551 -0.0517  0.1558 -0.4673
 8523WAT      O34797   3.994   0.374   2.171 -0.4231 -0.1159  0.1895
 8523WAT     H134798   3.963   0.306   2.216  0.3137 -0.9180 -0.4753
 8523WAT     H234799   3.994   0.346   2.089 -0.2444  0.7553 -0.1186
 8523WAT    EPW34800   3.989   0.360   2.166 -0.4889  0.5274  0.4660
 8524WAT      O34801   3.006   1.112   1.935  0.3408  0.7396 -0.6332
 8524WAT     H134802   2.959   1.181   1.959  0.9759  1.2248 -0.7594
 8524WAT     H234803   3.012   1.065   2.009  0.1686  0.9732 -0.4701
 8524WAT    EPW34804   3.000   1.115   1.950 -0.0653  0.1204 -0.9502
 8525WAT      O34805   2.775   0.836   1.533 -0.2058  0.4204  0.1929
 8525WAT     H134806   2.784   0.859   1.617  0.2073  0.1873  0.2183
 8525WAT     H234807   2.691   0.850   1.517  0.0453  2.0378  0.1696
 8525WAT    EPW34808   2.764   0.842   1.543  0.5617  0.4576 -0.2751
 8526WAT      O34809   2.613   0.846   2.509 -0.1773  0.6637 -0.1815
 8526WAT     H134810   2.641   0.925   2.484 -0.7112  0.4474 -1.5610
 8526WAT     H234811   2.530   0.844   2.482  0.0722 -0.6763 -0.9314
 8526WAT    EPW34812   2.605   0.857   2.501  1.0299 -0.8154  0.2904
 8527WAT      O34813   2.126   1.455   0.984  1.0570  0.1551 -0.0883
 8527WAT     H134814   2.161   1.414   1.053  0.5359 -2.3470 -1.2078
 8527WAT     H234815   2.112   1.391   0.927  0.2285  1.9552 -2.0309
 8527WAT    EPW34816   2.129   1.440   0.986  0.4852 -0.2602 -0.2610
 8528WAT      O34817   1.820   0.839   7.443  0.2068  0.0876 -0.1424
 8528WAT     H134818   1.868   0.786   7.493 -0.2869  1.2987  1.7127
 8528WAT     H234819   1.742   0.801   7.443  0.2046  0.0896  0.0275
 8528WAT    EPW34820   1.816   0.826   7.450 -0.4217 -0.4822 -0.3465
 8529WAT      O34821   4.771   1.304   7.651 -0.2266 -0.1872  0.0171
 8529WAT     H134822   4.846   1.307   7.608 -0.8221  0.1332 -1.0510
 8529WAT     H234823   4.712   1.324   7.590 -1.1205  0.1352  0.9568
 8529WAT    EPW34824   4.773   1.308   7.635 -0.0721 -0.3978  0.4639
 8530WAT      O34825   4.768   1.373   1.011  0.2489  0.3724 -0.1972
 8530WAT     H134826   4.813   1.358   0.938 -2.7198 -0.1213 -2.1425
 8530WAT     H234827   4.738   1.455   0.999 -0.8936  0.0082  0.0440
 8530WAT    EPW34828   4.770   1.383   0.998 -0.0887  0.0836  0.2297
 8531WAT      O34829   3.428   1.683   0.898  0.0596 -0.0752  0.0077
 8531WAT     H134830   3.357   1.645   0.931 -0.4797  1.0324  0.1830
 8531WAT     H234831   3.489   1.671   0.960 -0.6032  0.9018  0.8847
 8531WAT    EPW34832   3.427   1.675   0.912  0.1393  0.1028 -0.0086
 8532WAT      O34833   3.078   1.009   0.869  0.1959  0.1491  0.0520
 8532WAT     H134834   3.011   1.065   0.865  0.7645  0.8038 -0.4890
 8532WAT     H234835   3.088   0.983   0.786 -0.4304 -1.2223  0.3689
 8532WAT    EPW34836   3.069   1.013   0.856  0.4088  0.1450 -0.4877
 8533WAT      O34837   3.097   1.582   7.285  0.1753  0.1122 -0.4645
 8533WAT     H134838   3.016   1.550   7.290 -0.0362  0.7382  0.2004
 8533WAT     H234839   3.124   1.555   7.206  0.4440 -2.6914  0.4478
 8533WAT    EPW34840   3.089   1.573   7.274  0.2951 -0.4244  0.4921
 8534WAT      O34841   3.232   1.928   1.519 -0.6749  0.4051  0.4295
 8534WAT     H134842   3.177   1.877   1.562  1.4959 -0.7462  2.0309
 8534WAT     H234843   3.265   1.876   1.457  0.3166  0.3426  0.9930
 8534WAT    EPW34844   3.229   1.913   1.516 -0.8098 -0.1363  0.3602
 8535WAT      O34845   3.264   1.065   0.176 -0.0581  0.6988  0.5109
 8535WAT     H134846   3.252   1.133   0.230  1.5794  1.3511  0.1036
 8535WAT     H234847   3.185   1.053   0.141 -0.4995  2.0636  0.9758
 8535WAT    EPW34848   3.250   1.073   0.179  0.2028  0.4807 -0.6879
 8536WAT      O34849   3.041   1.010   0.039 -0.5160  0.1504 -0.4800
 8536WAT     H134850   2.958   0.995   0.057 -0.1708 -1.9625 -0.4310
 8536WAT     H234851   3.069   0.936   0.002  0.9614  1.3356 -1.9337
 8536WAT    EPW34852   3.033   0.997   0.036 -0.3066  0.0993 -0.1521
 8537WAT      O34853   1.309   0.182   7.753 -0.2602  0.1957  0.7371
 8537WAT     H134854   1.289   0.114   7.702 -1.6401  0.4599  0.9043
 8537WAT     H234855   1.396   0.179   7.757 -0.1878 -0.4768 -0.7451
 8537WAT    EPW34856   1.319   0.171   7.746 -0.7238 -0.6124 -0.9387
 8538WAT      O34857   3.645   6.949   1.000 -0.2425 -0.2423  0.3195
 8538WAT     H134858   3.698   6.938   0.931  0.6229  1.5580  0.6215
 8538WAT     H234859   3.635   6.869   1.032  0.3251 -0.9535 -1.1925
 8538WAT    EPW34860   3.652   6.936   0.994 -0.4520 -0.0878 -0.6122
 8539WAT      O34861   2.791   2.181   0.414  0.4811  0.3142 -0.1836
 8539WAT     H134862   2.742   2.146   0.351 -2.6772  1.5629  1.3716
 8539WAT     H234863   2.855   2.122   0.425 -3.4144 -4.2865  1.0434
 8539WAT    EPW34864   2.794   2.167   0.406  0.0889  0.0416 -0.4275
 8540WAT      O34865   4.127   0.554   1.266  0.0794 -0.0190 -0.5827
 8540WAT     H134866   4.101   0.496   1.206 -1.2632 -2.6034  2.2027
 8540WAT     H234867   4.211   0.536   1.277  0.1623 -0.0108 -1.1797
 8540WAT    EPW34868   4.135   0.543   1.259  0.3315  0.2928  0.0445
 8541WAT      O34869   3.680   7.865   0.159 -0.4125  0.1342  0.2283
 8541WAT     H134870   3.650   7.839   0.081  0.1679 -0.9138  0.3373
 8541WAT     H234871   3.759   7.896   0.140 -0.1249 -0.4526  0.4368
 8541WAT    EPW34872   3.687   7.866   0.145  0.5188  0.3313 -0.0767
 8542WAT      O34873   4.615   1.812   0.524 -0.2449  0.0102 -0.5095
 8542WAT     H134874   4.617   1.728   0.546 -0.5495  0.5937  2.0712
 8542WAT     H234875   4.634   1.854   0.598  1.1224  2.2284 -1.9675
 8542WAT    EPW34876   4.618   1.806   0.538 -0.0364 -0.9051 -0.3484
 8543WAT      O34877   2.669   1.368   0.302 -0.3181  0.3606 -0.0407
 8543WAT     H134878   2.658   1.336   0.221 -2.6065 -2.0092  1.0375
 8543WAT     H234879   2.732   1.318   0.336 -0.6398  0.1061  0.1908
 8543WAT    EPW34880   2.676   1.356   0.295  0.5373 -0.0563 -0.2882
 8544WAT      O34881   2.797   0.010   7.609  0.4897 -0.6280 -0.6574
 8544WAT     H134882   2.827   0.053   7.679  2.8480 -2.1983 -0.6123
 8544WAT     H234883   2.712   0.028   7.610  0.9147  1.9032  0.8174
 8544WAT    EPW34884   2.789   0.019   7.620  0.4576  0.0009 -0.9505
 8545WAT      O34885   5.704   0.724   1.683  0.5787  0.1097 -0.1938
 8545WAT     H134886   5.714   0.798   1.729 -1.5440  1.1703 -1.2765
 8545WAT     H234887   5.666   0.670   1.740  0.4238  0.4997  0.0851
 8545WAT    EPW34888   5.700   0.727   1.698 -0.6535 -0.3839 -0.2505
 8546WAT      O34889   3.510   0.400   1.205  0.3698 -0.7031  0.7575
 8546WAT     H134890   3.521   0.460   1.266  1.4199 -0.2746  0.1696
 8546WAT     H234891   3.551   0.433   1.135 -1.6996 -0.6742 -0.5412
 8546WAT    EPW34892   3.517   0.413   1.204 -0.2358  0.0909  0.5377
 8547WAT      O34893   3.143   0.820   1.844  0.0294 -0.6625  0.1896
 8547WAT     H134894   3.103   0.879   1.793  0.9111 -0.6968 -0.5721
 8547WAT     H234895   3.159   0.864   1.917  4.5371  1.6230 -1.7617
 8547WAT    EPW34896   3.140   0.836   1.847 -0.3324 -0.1319  0.1093
 8548WAT      O34897   2.843   1.271   7.848 -0.1246  0.4941  0.2033
 8548WAT     H134898   2.815   1.350   7.824  0.4808  0.6238 -0.1078
 8548WAT     H234899   2.930   1.280   7.848 -0.0837  0.2927  1.7549
 8548WAT    EPW34900   2.852   1.284   7.844 -0.0106 -0.2770  0.4425
 8549WAT      O34901   5.267   0.302   0.587  0.2072  0.0066 -0.0933
 8549WAT     H134902   5.271   0.389   0.591 -1.1695  0.1131 -0.5627
 8549WAT     H234903   5.254   0.278   0.670 -0.8907  0.3594 -0.1518
 8549WAT    EPW34904   5.266   0.312   0.600  0.1585  0.8223  0.3791
 8550WAT      O34905   3.291   1.505   1.098  0.1306  0.5965 -0.8307
 8550WAT     H134906   3.310   1.425   1.068 -0.3325  0.0833  0.2295
 8550WAT     H234907   3.348   1.517   1.163  0.3497  1.2410 -1.1218
 8550WAT    EPW34908   3.302   1.495   1.103  0.0273 -0.4859 -0.3403
 8551WAT      O34909   5.015   7.883   0.135  0.2883 -0.1596  0.0125
 8551WAT     H134910   4.978   7.948   0.178  0.1195 -1.0481  1.2534
 8551WAT     H234911   5.026   7.821   0.195  2.4627 -0.4825 -0.6066
 8551WAT    EPW34912   5.011   7.883   0.150  0.0303  0.1992 -0.7376
 8552WAT      O34913   4.497   0.247   0.288  0.3060  0.0850 -0.0529
 8552WAT     H134914   4.435   0.214   0.236  0.8985 -0.5120 -0.4048
 8552WAT     H234915   4.524   0.318   0.244 -0.3353  0.5289  0.2559
 8552WAT    EPW34916   4.492   0.253   0.274  0.3230  0.4596 -0.3161
 8553WAT      O34917   4.317   7.783   0.287 -0.5962 -0.0515  0.0383
 8553WAT     H134918   4.315   7.844   0.349  0.5410  0.9918 -0.9068
 8553WAT     H234919   4.401   7.777   0.267 -0.6376 -2.0927  0.2151
 8553WAT    EPW34920   4.329   7.791   0.293 -0.4197  0.0511 -0.4975
 8554WAT      O34921   3.069   0.947   0.576  0.0069 -0.1733  0.2217
 8554WAT     H134922   3.113   0.934   0.502 -1.6936  0.3351 -0.9439
 8554WAT     H234923   2.994   0.904   0.564 -0.0177 -0.7187  1.9910
 8554WAT    EPW34924   3.065   0.939   0.564  0.3997 -0.0931  0.1460
 8555WAT      O34925   4.004   7.943   0.743 -0.1638  0.0553  0.3337
 8555WAT     H134926   3.979   7.860   0.755 -0.7866  0.1666 -0.1539
 8555WAT     H234927   4.088   7.942   0.766  0.0637 -0.9015 -0.4557
 8555WAT    EPW34928   4.012   7.930   0.748  0.3198  0.0983 -0.1674
 8556WAT      O34929   2.222   1.045   1.109 -0.0322 -0.0247  0.0464
 8556WAT     H134930   2.283   0.991   1.078  0.7144  1.0920 -0.4741
 8556WAT     H234931   2.158   1.042   1.050  0.3901  0.3393 -0.4266
 8556WAT    EPW34932   2.221   1.037   1.096  0.6492 -0.8125  0.4922
 8557WAT      O34933   3.897   7.928   7.815  0.2217  0.1408 -0.3478
 8557WAT     H134934   3.873   7.861   7.765 -0.9218 -1.1141  1.7256
 8557WAT     H234935   3.908   7.994   7.759 -0.8064 -1.2043 -2.2133
 8557WAT    EPW34936   3.895   7.928   7.799 -0.3141  0.7987 -0.5336
 8558WAT      O34937   4.071   1.234   7.354  0.6153 -0.0914  0.3537
 8558WAT     H134938   4.076   1.289   7.287 -2.2947 -2.6211 -2.2528
 8558WAT     H234939   4.095   1.158   7.320  0.1531 -1.2877  2.5167
 8558WAT    EPW34940   4.075   1.231   7.339  0.2564 -0.9762 -0.8965
 8559WAT      O34941   6.788   7.382   0.680 -0.4214 -0.3581  0.0575
 8559WAT     H134942   6.856   7.436   0.671 -0.2816 -0.2742  1.3915
 8559WAT     H234943   6.792   7.359   0.764 -2.1721 -0.1836  0.2089
 8559WAT    EPW34944   6.799   7.387   0.691 -0.1225  0.6331 -0.6377
 8560WAT      O34945   5.460   2.114   0.737 -0.4162 -0.6808 -0.0573
 8560WAT     H134946   5.409   2.186   0.739 -2.1564 -1.7969 -1.2078
 8560WAT     H234947   5.477   2.099   0.821 -1.8752 -0.1578  0.3657
 8560WAT    EPW34948   5.455   2.123   0.749  0.5082  0.3028 -0.6123
 8561WAT      O34949   3.016   7.995   0.662 -0.9968  0.2792  0.5887
 8561WAT     H134950   2.990   8.001   0.745  1.3265 -1.3405  1.5466
 8561WAT     H234951   3.074   8.059   0.654 -0.1152 -0.4790  0.7212
 8561WAT    EPW34952   3.021   8.005   0.673  0.1712 -1.4746  0.2482
 8562WAT      O34953   1.697   1.282   7.732  1.3217 -0.2139 -0.3812
 8562WAT     H134954   1.641   1.234   7.779  1.9976 -1.5495 -0.8907
 8562WAT     H234955   1.691   1.361   7.768  0.7085 -0.8329  0.9616
 8562WAT    EPW34956   1.688   1.287   7.744  0.7322  0.4849  0.9016
 8563WAT      O34957   2.830   6.999   0.049 -0.2172 -0.5811  0.6972
 8563WAT     H134958   2.809   7.002  -0.036 -3.4647  1.5109  1.4128
 8563WAT     H234959   2.821   6.915   0.069  0.9466 -1.1783 -1.0464
 8563WAT    EPW34960   2.826   6.987   0.039  0.1017 -0.2345  0.3688
 8564WAT      O34961   3.600   7.387   0.008 -0.0345 -0.1368 -0.3133
 8564WAT     H134962   3.647   7.361  -0.060  0.6131  0.6700 -0.2000
 8564WAT     H234963   3.533   7.331   0.011  0.5817 -0.9124 -0.8703
 8564WAT    EPW34964   3.597   7.375  -0.001  0.8812 -0.8552 -0.0578
 8565WAT      O34965   3.864   6.917   1.299 -0.0623 -0.4798  0.2363
 8565WAT     H134966   3.782   6.890   1.310 -1.5204  3.5090  0.7042
 8565WAT     H234967   3.880   6.965   1.370  0.8143  2.7600 -1.9424
 8565WAT    EPW34968   3.855   6.920   1.311 -0.0632  0.1791 -0.6182
 8566WAT      O34969   4.056   0.339   1.103  0.1730 -0.6290  0.3659
 8566WAT     H134970   4.078   0.373   1.026 -0.3979  0.4877  0.6876
 8566WAT     H234971   3.975   0.369   1.117 -0.1596 -1.7151  0.8939
 8566WAT    EPW34972   4.047   0.348   1.094 -0.1903 -0.6174  0.1389
 8567WAT      O34973   3.631   7.703   1.454 -0.0277  0.1472  0.0902
 8567WAT     H134974   3.670   7.742   1.522 -0.8850  0.2624  0.5254
 8567WAT     H234975   3.591   7.635   1.490 -0.6643  0.3267 -0.2656
 8567WAT    EPW34976   3.631   7.699   1.469 -0.7531 -0.5573  0.2249
 8568WAT      O34977   4.214   7.190   1.497  0.1189  0.7256  0.1116
 8568WAT     H134978   4.249   7.238   1.561 -2.7987  3.2201  0.0624
 8568WAT     H234979   4.183   7.120   1.539 -0.0635  1.3883  1.1196
 8568WAT    EPW34980   4.215   7.187   1.513  0.2360 -0.2543  0.5983
 8569WAT      O34981   3.654   1.285   0.519  0.1402 -0.1595 -0.3532
 8569WAT     H134982   3.677   1.250   0.442 -1.8884 -0.6711 -0.7965
 8569WAT     H234983   3.593   1.231   0.549 -0.2937  0.9198  0.8330
 8569WAT    EPW34984   3.648   1.272   0.512  0.0535 -0.4768 -0.9767
 8570WAT      O34985   3.125   0.126   7.114 -0.3522  0.3663  0.4070
 8570WAT     H134986   3.141   0.044   7.091 -0.7902  0.7455 -1.3485
 8570WAT     H234987   3.160   0.174   7.050  1.3860  1.6597  2.2064
 8570WAT    EPW34988   3.132   0.121   7.101  0.2405 -0.1055  0.1855
 8571WAT      O34989   2.861   2.026   1.396  0.6462 -0.4727 -0.3019
 8571WAT     H134990   2.905   1.952   1.383 -0.4923 -1.3680  0.7207
 8571WAT     H234991   2.808   2.030   1.327 -0.2087 -1.3301  0.2788
 8571WAT    EPW34992   2.860   2.016   1.383 -0.5183  0.2812  0.3647
 8572WAT      O34993   4.322   0.986   5.995  0.2930  0.2596 -0.2719
 8572WAT     H134994   4.235   0.981   5.985  0.2545 -0.8146  0.3844
 8572WAT     H234995   4.342   0.910   6.033  1.0990  1.6996  2.4518
 8572WAT    EPW34996   4.312   0.974   6.000 -0.1976 -0.0025  0.0481
 8573WAT      O34997   4.899   1.342   0.727 -0.0959  0.2314  0.0643
 8573WAT     H134998   4.968   1.387   0.754 -0.4430  0.0350  1.3403
 8573WAT     H234999   4.933   1.277   0.680  0.5121  0.6728 -0.1156
 8573WAT    EPW35000   4.914   1.339   0.724 -0.2488 -0.5099 -1.0962
 8574WAT      O35001   2.889   0.472   7.599  0.4861  0.6522  0.1706
 8574WAT     H135002   2.863   0.396   7.565  0.1378  0.3227  1.1499
 8574WAT     H235003   2.973   0.476   7.579  0.3462  0.3443 -0.4950
 8574WAT    EPW35004   2.897   0.462   7.591 -0.0050  0.2732 -0.8329
 8575WAT      O35005   4.884   0.967   1.977  0.4526 -0.0742 -0.3100
 8575WAT     H135006   4.869   1.048   1.949  1.2111  0.3136  0.3588
 8575WAT     H235007   4.970   0.966   1.992 -0.0053  0.0625  2.9160
 8575WAT    EPW35008   4.894   0.979   1.975  0.0107  0.3445 -1.1549
 8576WAT      O35009   3.009   1.598   0.086 -0.3491 -0.1664 -0.2809
 8576WAT     H135010   2.935   1.627   0.049 -0.4311  0.1684  0.1375
 8576WAT     H235011   2.986   1.522   0.122 -0.6379  0.2197  0.3538
 8576WAT    EPW35012   2.995   1.591   0.086  0.7589  0.2412  0.0962
 8577WAT      O35013   3.280   0.277   1.293  0.5032  0.1590  0.1497
 8577WAT     H135014   3.234   0.346   1.319  1.9466  0.8394  0.9903
 8577WAT     H235015   3.347   0.311   1.249  1.4936 -0.6653  0.9745
 8577WAT    EPW35016   3.283   0.292   1.290  1.4017 -0.5793 -0.7395
 8578WAT      O35017   4.920   1.464   1.265  0.4527  0.1808  0.4578
 8578WAT     H135018   4.888   1.449   1.186  0.6663  0.5186  0.3084
 8578WAT     H235019   4.856   1.506   1.306  1.4539  2.8224 -0.5201
 8578WAT    EPW35020   4.906   1.468   1.260  0.1774  0.3907 -0.6309
 8579WAT      O35021   3.659   0.883   0.059  0.1784 -0.1332  0.4417
 8579WAT     H135022   3.619   0.960   0.054 -0.6615 -0.5850 -0.1672
 8579WAT     H235023   3.593   0.826   0.066  0.8018 -0.7700  1.3737
 8579WAT    EPW35024   3.644   0.886   0.059 -0.3122 -0.4497 -0.8793
 8580WAT      O35025   4.824   7.549   1.266  0.2250  0.2994 -0.0897
 8580WAT     H135026   4.765   7.530   1.204  0.2124  2.0655 -0.6843
 8580WAT     H235027   4.777   7.583   1.331  0.3741 -0.2959  0.3320
 8580WAT    EPW35028   4.809   7.552   1.266  0.0220 -0.5494  0.1911
 8581WAT      O35029   3.563   0.630   2.220 -0.3594 -0.3789  0.4592
 8581WAT     H135030   3.646   0.613   2.242 -0.1597 -0.1214 -0.0844
 8581WAT     H235031   3.544   0.568   2.161  0.0768  0.6872 -0.8457
 8581WAT    EPW35032   3.573   0.618   2.214  0.1951 -0.7163  0.3922
 8582WAT      O35033   5.530   0.738   7.627 -0.3212 -0.1727  0.2340
 8582WAT     H135034   5.506   0.668   7.674 -1.2186  0.2135  0.3762
 8582WAT     H235035   5.609   0.757   7.657 -1.0248  0.3135  1.9053
 8582WAT    EPW35036   5.538   0.730   7.638 -0.4537 -0.2037  1.2822
 8583WAT      O35037   3.985   0.015   0.445  0.0277 -0.1972 -0.2645
 8583WAT     H135038   3.946  -0.038   0.502  2.0578  0.2346  1.6738
 8583WAT     H235039   3.924   0.029   0.385 -1.6177 -2.1790  0.8158
 8583WAT    EPW35040   3.970   0.010   0.445 -0.5832 -0.0090 -0.0956
 8584WAT      O35041   1.811   1.565   0.410  0.2992  0.1567  0.1291
 8584WAT     H135042   1.872   1.509   0.382  0.7073 -0.1309  1.5133
 8584WAT     H235043   1.829   1.574   0.494 -0.4350  1.5429  0.1655
 8584WAT    EPW35044   1.823   1.558   0.418  0.6590  0.8441 -1.0374
 8585WAT      O35045   6.417   8.018   1.045  0.4037  0.2848  0.3564
 8585WAT     H135046   6.486   8.067   1.023  1.1743 -1.1850 -0.6326
 8585WAT     H235047   6.452   7.945   1.076 -0.7237 -0.1288  0.7267
 8585WAT    EPW35048   6.432   8.015   1.047 -0.2544  0.3224 -0.4517
 8586WAT      O35049   3.883   0.810   1.675  0.2698 -0.3890  0.0196
 8586WAT     H135050   3.921   0.736   1.651 -0.8384 -1.2473  0.8168
 8586WAT     H235051   3.802   0.804   1.641 -0.3322 -0.2611  1.3644
 8586WAT    EPW35052   3.877   0.798   1.666  1.0053 -0.5152 -0.2088
 8587WAT      O35053   3.174   1.230   1.285 -0.4250 -0.3256 -0.1056
 8587WAT     H135054   3.118   1.194   1.341  0.8794 -0.7304  0.9843
 8587WAT     H235055   3.179   1.313   1.311  1.0137 -0.7603  1.1374
 8587WAT    EPW35056   3.167   1.237   1.297 -0.1770 -0.8215 -0.2702
 8588WAT      O35057   3.429   1.754   0.249 -0.9651  0.6701  0.2488
 8588WAT     H135058   3.394   1.812   0.194  0.5384  2.4581  1.0806
 8588WAT     H235059   3.503   1.731   0.210 -1.3720 -0.4506  0.1042
 8588WAT    EPW35060   3.434   1.759   0.235 -0.6361  0.2138  0.0814
 8589WAT      O35061   1.540   6.836   7.858 -0.4665 -0.2352 -0.6750
 8589WAT     H135062   1.615   6.839   7.814 -0.6024  1.5796 -0.8834
 8589WAT     H235063   1.487   6.790   7.806  0.4330 -1.4061 -0.5909
 8589WAT    EPW35064   1.543   6.830   7.844  0.2507  0.4821 -0.1876
 8590WAT      O35065   3.005   7.588   7.790 -0.4157 -0.2358 -0.1280
 8590WAT     H135066   2.939   7.635   7.758 -0.2718  0.5233  0.6625
 8590WAT     H235067   3.061   7.648   7.819  0.0078 -0.8810  0.4254
 8590WAT    EPW35068   3.003   7.603   7.790 -0.5457 -1.0103 -0.1436
 8591WAT      O35069   3.599   7.282   5.389 -0.0629  0.1236 -0.2381
 8591WAT     H135070   3.534   7.267   5.445  0.5571  1.6583  0.9717
 8591WAT     H235071   3.663   7.314   5.440  1.0106  0.2957 -1.6315
 8591WAT    EPW35072   3.599   7.285   5.405 -0.1788  0.8557 -0.1398
 8592WAT      O35073   3.491   7.940   7.165 -0.0394  0.3674 -0.1093
 8592WAT     H135074   3.550   7.959   7.227  0.1459  1.5920 -0.6207
 8592WAT     H235075   3.416   7.932   7.209  0.5249 -1.5917  0.6037
 8592WAT    EPW35076   3.489   7.942   7.180 -0.9309 -0.5475 -0.2598
 8593WAT      O35077   1.718   6.265   6.712 -0.1428 -0.3032 -0.5760
 8593WAT     H135078   1.737   6.207   6.649 -0.9200  0.0611 -1.1625
 8593WAT     H235079   1.644   6.234   6.747  1.3300 -1.6617  1.6338
 8593WAT    EPW35080   1.710   6.252   6.708 -0.0089  0.4741 -0.3654
 8594WAT      O35081   0.252   6.345   7.721  0.0658  0.2325 -0.1490
 8594WAT     H135082   0.261   6.312   7.802  0.8772  0.7132 -0.0351
 8594WAT     H235083   0.287   6.283   7.671  0.2756  0.2777 -0.0608
 8594WAT    EPW35084   0.259   6.331   7.726 -0.9910  0.2805  0.1034
 8595WAT      O35085   1.939   7.628   8.006  0.2578  0.6768 -0.0843
 8595WAT     H135086   1.890   7.665   8.067  1.6399  0.6161  1.1122
 8595WAT     H235087   1.946   7.690   7.944 -0.6507  0.9644  0.0958
 8595WAT    EPW35088   1.933   7.643   8.006  0.2898 -0.0362  0.1835
 8596WAT      O35089   2.511   7.825   7.262 -0.9999 -0.4076  0.2361
 8596WAT     H135090   2.583   7.869   7.242 -0.4455 -1.3621  0.0715
 8596WAT     H235091   2.523   7.800   7.344 -0.6088 -1.5554 -0.1548
 8596WAT    EPW35092   2.523   7.828   7.271  0.8481  0.0747 -0.8390
 8597WAT      O35093   1.312   6.439   7.797 -0.0206  0.5094  0.2248
 8597WAT     H135094   1.241   6.479   7.829 -2.4039  0.6910 -4.3558
 8597WAT     H235095   1.362   6.504   7.769  1.3827  0.3209  2.0668
 8597WAT    EPW35096   1.309   6.454   7.798  0.0951  0.3242 -0.7932
 8598WAT      O35097   2.749   7.596   6.843 -0.6712 -0.1556 -0.2565
 8598WAT     H135098   2.766   7.511   6.840 -0.2338 -0.0668 -0.3558
 8598WAT     H235099   2.706   7.610   6.768 -1.4572 -0.4353  0.1326
 8598WAT    EPW35100   2.745   7.586   6.831  0.6732  0.4986 -0.2284
 8599WAT      O35101   2.220   7.638   6.839  0.1623 -0.3491  0.3313
 8599WAT     H135102   2.160   7.589   6.800 -0.1500  1.5990 -1.8447
 8599WAT     H235103   2.223   7.606   6.920  0.1552 -4.0181 -0.9356
 8599WAT    EPW35104   2.211   7.626   6.845 -0.6471 -0.9540 -0.0259
 8600WAT      O35105   3.719   7.178   7.897  0.0106  0.1424  0.1909
 8600WAT     H135106   3.637   7.149   7.893 -0.8988  2.2334  1.6136
 8600WAT     H235107   3.732   7.215   7.819 -0.6326  0.3128  0.1559
 8600WAT    EPW35108   3.709   7.179   7.885  0.4346 -0.2883  0.3516
 8601WAT      O35109   2.530   0.091   7.658  0.3723 -0.2183  0.1176
 8601WAT     H135110   2.508   0.169   7.627  0.2808 -0.2900 -0.0007
 8601WAT     H235111   2.538   0.104   7.744 -0.4821 -0.2632  0.2159
 8601WAT    EPW35112   2.528   0.104   7.666 -0.0735 -0.2752 -0.1788
 8602WAT      O35113   3.275   6.479   7.191 -0.0330  0.5162 -0.3661
 8602WAT     H135114   3.331   6.546   7.184  0.6039  0.0553  0.2229
 8602WAT     H235115   3.290   6.448   7.271 -0.0843 -0.5477 -0.7616
 8602WAT    EPW35116   3.286   6.484   7.202  0.3796 -1.0275  0.0918
 8603WAT      O35117   2.735   6.993   6.803  0.1880 -0.1237  0.0997
 8603WAT     H135118   2.674   6.991   6.865  0.6877 -1.3313  0.5837
 8603WAT     H235119   2.792   6.932   6.828  1.0151  0.1903 -0.9322
 8603WAT    EPW35120   2.735   6.983   6.816  0.3290 -0.0448  0.4249
 8604WAT      O35121   2.918   0.352   4.359  0.1634 -0.2748  0.3445
 8604WAT     H135122   3.000   0.336   4.333  0.0701  0.4394 -0.4221
 8604WAT     H235123   2.908   0.437   4.345 -0.1660 -0.0009  2.0056
 8604WAT    EPW35124   2.929   0.362   4.353 -0.5335 -0.1900  0.0862
 8605WAT      O35125   4.395   8.035   7.733 -0.2699  0.3126  0.0826
 8605WAT     H135126   4.450   7.983   7.689 -0.7685  0.4035 -0.6626
 8605WAT     H235127   4.348   8.073   7.670 -1.0932  0.3423  0.6996
 8605WAT    EPW35128   4.397   8.033   7.717 -0.0133  0.5459 -0.2692
 8606WAT      O35129   2.438   7.192   5.698 -0.7352 -0.0984  0.2630
 8606WAT     H135130   2.449   7.232   5.622  0.3841  0.4579  0.7037
 8606WAT     H235131   2.517   7.159   5.716 -1.0405 -0.4125  1.0785
 8606WAT    EPW35132   2.451   7.193   5.690  0.1676  0.4635  0.0935
 8607WAT      O35133   2.484   0.119   7.936 -0.0470 -0.0533  0.4029
 8607WAT     H135134   2.496   0.189   7.987 -0.1033  0.4707 -0.2941
 8607WAT     H235135   2.402   0.094   7.955 -0.6753  1.1351 -0.6235
 8607WAT    EPW35136   2.474   0.126   7.947  0.1509 -0.7791 -1.1827
 8608WAT      O35137   2.113   5.854   7.164  0.1359  0.5148  0.0349
 8608WAT     H135138   2.080   5.827   7.240  3.5402 -1.2860  1.1269
 8608WAT     H235139   2.148   5.932   7.184 -1.3507  1.3536 -0.5073
 8608WAT    EPW35140   2.114   5.862   7.178 -1.0551 -0.7814  0.3573
 8609WAT      O35141   2.482   7.515   7.211 -0.5620 -0.3448  0.3263
 8609WAT     H135142   2.548   7.480   7.256 -1.0788 -1.4918  0.2140
 8609WAT     H235143   2.495   7.601   7.219  1.9416 -0.5003 -1.1784
 8609WAT    EPW35144   2.493   7.523   7.219 -0.5900  0.2267 -0.4716
 8610WAT      O35145   3.007   6.040   7.558  0.2723  0.3624 -0.0174
 8610WAT     H135146   2.976   6.000   7.487  0.0561  0.8316 -0.1890
 8610WAT     H235147   3.077   5.992   7.580  0.2855  0.1629 -0.4924
 8610WAT    EPW35148   3.013   6.027   7.551 -0.9815 -0.0345  0.0619
 8611WAT      O35149   3.257   0.676   6.043 -0.6962 -0.5160  0.0828
 8611WAT     H135150   3.210   0.633   6.102 -3.7165 -1.2714 -2.5940
 8611WAT     H235151   3.285   0.613   5.989  0.2196  0.3176 -0.4479
 8611WAT    EPW35152   3.254   0.660   6.044 -0.2476 -0.0099 -0.1701
 8612WAT      O35153   2.602   6.000   7.796 -0.1229  0.5374  0.0635
 8612WAT     H135154   2.578   6.033   7.873 -1.1854 -1.8054  0.8410
 8612WAT     H235155   2.684   5.973   7.810 -0.6958 -0.9362  0.8215
 8612WAT    EPW35156   2.610   6.001   7.809 -0.3120  0.4090  0.0617
 8613WAT      O35157   3.262   1.153   5.978  0.0764 -0.3390 -0.1183
 8613WAT     H135158   3.182   1.122   5.995  0.6293 -2.0048 -0.3534
 8613WAT     H235159   3.259   1.235   6.008 -1.3621 -0.7285  0.9174
 8613WAT    EPW35160   3.250   1.160   5.985 -0.2840 -0.3291 -0.1932
 8614WAT      O35161   2.790   0.135   6.015 -0.2508  0.4305  0.0290
 8614WAT     H135162   2.787   0.117   6.100  0.4808  0.2658  0.0281
 8614WAT     H235163   2.746   0.069   5.978 -0.5868  0.5133  0.2773
 8614WAT    EPW35164   2.783   0.123   6.022  0.9709  0.1462  0.4918
 8615WAT      O35165   3.133   5.602   0.496 -0.2403  0.0686  0.5736
 8615WAT     H135166   3.078   5.591   0.430  1.3310 -1.3660 -0.5819
 8615WAT     H235167   3.142   5.689   0.501 -1.1838  0.2407 -0.4222
 8615WAT    EPW35168   3.126   5.613   0.487  0.8026 -0.4413  0.2679
 8616WAT      O35169   2.801   7.888   7.960  0.7465 -0.0295  0.0021
 8616WAT     H135170   2.842   7.946   7.909 -0.1879  1.0685  0.4439
 8616WAT     H235171   2.852   7.884   8.031  1.1012 -0.1701 -0.2570
 8616WAT    EPW35172   2.815   7.896   7.963  0.0881 -0.4020  0.5082
 8617WAT      O35173   2.639   7.363   7.824  0.3117  0.0674 -0.1158
 8617WAT     H135174   2.561   7.364   7.784 -0.8045 -0.1826  1.9461
 8617WAT     H235175   2.650   7.446   7.851  0.3783 -0.0708  0.2915
 8617WAT    EPW35176   2.629   7.375   7.822 -0.2490 -0.0044  0.1378
 8618WAT      O35177   2.286   1.449   6.683  0.1943 -0.4601  0.1394
 8618WAT     H135178   2.311   1.433   6.601 -0.7770  0.4090 -0.3512
 8618WAT     H235179   2.200   1.457   6.677  0.2431  1.1472  0.9604
 8618WAT    EPW35180   2.277   1.448   6.670  0.4991 -0.1045 -0.0950
 8619WAT      O35181   1.373   6.990   0.383 -0.4793  0.4656  0.1015
 8619WAT     H135182   1.335   7.051   0.334 -1.3812 -0.0521  0.1357
 8619WAT     H235183   1.327   6.918   0.365  0.5084 -0.1857  0.1322
 8619WAT    EPW35184   1.361   6.988   0.373  0.4992 -0.0758  0.0007
 8620WAT      O35185   2.948   7.255   5.008 -0.1670  0.7019 -0.5335
 8620WAT     H135186   2.968   7.327   5.054 -0.9366  0.8683 -0.4452
 8620WAT     H235187   2.949   7.284   4.925 -0.7742  0.8993 -0.4793
 8620WAT    EPW35188   2.951   7.270   5.002  0.1359  0.6236  0.1203
 8621WAT      O35189   2.347   5.949   0.895 -0.8540  0.5550 -0.1138
 8621WAT     H135190   2.288   5.886   0.883  0.1504 -0.6258  0.9154
 8621WAT     H235191   2.361   5.979   0.814  1.3930 -3.1654 -1.3736
 8621WAT    EPW35192   2.340   5.944   0.881  0.1838 -0.2307 -0.4626
 8622WAT      O35193   2.849   7.597   7.108 -0.0352  0.0525 -0.2738
 8622WAT     H135194   2.803   7.608   7.034 -1.5450 -2.4599  0.1806
 8622WAT     H235195   2.829   7.668   7.155 -1.5418  0.1823 -1.0581
 8622WAT    EPW35196   2.839   7.609   7.104  0.1726 -0.6623 -0.2638
 8623WAT      O35197   1.271   7.392   0.392  0.0406 -0.3382 -1.1707
 8623WAT     H135198   1.303   7.359   0.465 -0.6485 -1.3556 -1.3024
 8623WAT     H235199   1.251   7.321   0.344  0.9804  0.2943 -2.5699
 8623WAT    EPW35200   1.273   7.376   0.395 -0.9110 -0.5413  0.2297
 8624WAT      O35201   2.478   7.476   7.592 -0.5627 -0.0510  0.0247
 8624WAT     H135202   2.462   7.438   7.515 -1.5358 -1.3299  0.8143
 8624WAT     H235203   2.399   7.480   7.629 -0.0114 -0.0519  1.2284
 8624WAT    EPW35204   2.464   7.471   7.586  0.1737 -0.1073  0.1245
 8625WAT      O35205   2.476   0.215   7.011  0.2183 -0.2731  0.0742
 8625WAT     H135206   2.520   0.155   6.967  0.7631 -0.5303  0.9390
 8625WAT     H235207   2.496   0.198   7.094  0.6779  1.3325  0.3210
 8625WAT    EPW35208   2.486   0.204   7.017  0.0617 -0.6763 -0.5355
 8626WAT      O35209   1.966   0.210   7.981 -0.0814 -0.2419 -0.5265
 8626WAT     H135210   2.028   0.269   8.000 -0.8956  0.9555 -1.4970
 8626WAT     H235211   2.011   0.143   7.948  0.7560  0.3259 -0.5687
 8626WAT    EPW35212   1.982   0.209   7.979 -0.0714  0.0426 -0.7561
 8627WAT      O35213   2.478   6.706   7.144 -0.2082 -0.2529  0.3001
 8627WAT     H135214   2.507   6.653   7.208 -0.8345 -1.3393 -0.2846
 8627WAT     H235215   2.421   6.757   7.185  0.0351 -0.3670  0.7905
 8627WAT    EPW35216   2.474   6.705   7.160 -0.4837 -1.0572  0.0083
 8628WAT      O35217   2.020   0.214   7.121  0.5425 -0.3501 -0.5365
 8628WAT     H135218   1.967   0.154   7.087  0.1809  0.1737 -0.9060
 8628WAT     H235219   2.083   0.222   7.061  0.9995 -0.9107 -0.1367
 8628WAT    EPW35220   2.022   0.207   7.107  0.0385 -0.5445 -0.1877
 8629WAT      O35221   3.316   0.832   5.393 -0.3031 -0.1692  0.0295
 8629WAT     H135222   3.293   0.876   5.464  1.9248  1.9996 -0.4624
 8629WAT     H235223   3.267   0.868   5.330 -0.6257 -0.5182  0.0721
 8629WAT    EPW35224   3.305   0.844   5.394  0.9600  0.1848  0.2307
 8630WAT      O35225   3.413   0.240   0.507 -0.1492  0.3326 -0.1465
 8630WAT     H135226   3.337   0.207   0.535 -0.2079  0.9339  0.4093
 8630WAT     H235227   3.456   0.258   0.580 -0.5982  2.6186 -0.3934
 8630WAT    EPW35228   3.409   0.238   0.522 -0.6387 -0.1263  0.0389
 8631WAT      O35229   2.733   7.273   5.758 -0.2740 -0.4157  0.1370
 8631WAT     H135230   2.793   7.230   5.804 -0.2643  0.5741  1.0953
 8631WAT     H235231   2.778   7.338   5.722 -0.3015 -1.1291 -1.2475
 8631WAT    EPW35232   2.749   7.276   5.760  0.4018  0.2103  0.4757
 8632WAT      O35233   2.159   6.709   7.904 -0.0593 -0.1253  0.0924
 8632WAT     H135234   2.161   6.777   7.850  2.3080  0.6673  1.0482
 8632WAT     H235235   2.130   6.743   7.979 -0.7273 -0.6209  0.0693
 8632WAT    EPW35236   2.155   6.724   7.907  0.5660  0.7105 -0.1738
 8633WAT      O35237   3.983   7.542   8.032 -0.0436  0.1358 -0.5179
 8633WAT     H135238   3.959   7.571   8.111 -0.1384  0.2142 -0.5753
 8633WAT     H235239   4.027   7.609   7.998  1.6593 -0.5670  0.2102
 8633WAT    EPW35240   3.986   7.556   8.038  1.1350 -0.3905 -0.1240
 8634WAT      O35241   2.922   0.065   7.842  0.2198 -0.4802 -0.0260
 8634WAT     H135242   2.987   0.085   7.788 -0.5131 -0.1664 -0.8139
 8634WAT     H235243   2.899   0.142   7.876 -0.0130 -0.5258 -0.0754
 8634WAT    EPW35244   2.928   0.079   7.839 -0.1582 -0.4412 -0.0899
 8635WAT      O35245   3.390   7.648   7.719  0.5973 -0.5032 -0.1171
 8635WAT     H135246   3.360   7.717   7.764  2.0916  0.3860 -0.4104
 8635WAT     H235247   3.344   7.581   7.751 -0.9988  0.6336  0.0830
 8635WAT    EPW35248   3.379   7.649   7.731  0.2777 -0.0795 -0.4348
 8636WAT      O35249   2.942   7.519   6.235 -0.2254  0.2906  0.5215
 8636WAT     H135250   2.945   7.603   6.258 -1.2043  0.9477 -1.4800
 8636WAT     H235251   2.909   7.522   6.154  2.7115 -1.7825 -0.9396
 8636WAT    EPW35252   2.938   7.532   6.227 -0.4392 -0.1720  0.6136
 8637WAT      O35253   3.427   7.133   7.112  0.3453  0.6419 -0.1255
 8637WAT     H135254   3.491   7.171   7.158 -1.4893  1.4662  1.9394
 8637WAT     H235255   3.369   7.110   7.173 -1.2260 -0.3174 -1.8710
 8637WAT    EPW35256   3.428   7.135   7.128 -0.2998  0.5215 -0.2364
 8638WAT      O35257   2.802   7.265   1.009  0.1573  0.4703 -0.3041
 8638WAT     H135258   2.735   7.260   0.955  0.2335 -0.1367 -0.3489
 8638WAT     H235259   2.871   7.251   0.958  0.4409  2.3993 -0.5075
 8638WAT    EPW35260   2.803   7.262   0.994 -0.1888 -0.1655 -0.8012
 8639WAT      O35261   1.649   7.096   7.996  0.4896 -0.0725  0.0851
 8639WAT     H135262   1.629   7.066   8.075 -0.0166  0.2852  0.0998
 8639WAT     H235263   1.576   7.083   7.950  1.1022 -1.2306 -0.6171
 8639WAT    EPW35264   1.635   7.090   8.001 -0.0366  0.2071  0.1364
 8640WAT      O35265   2.544   7.035   7.348 -0.4452 -0.2934 -0.3410
 8640WAT     H135266   2.585   7.090   7.402 -1.1947  0.4522 -0.5158
 8640WAT     H235267   2.581   6.958   7.366 -0.3288  0.0296  0.8782
 8640WAT    EPW35268   2.556   7.032   7.359 -0.2303 -0.2468  0.2425
 8641WAT      O35269   3.181   7.902   7.027  0.1361  0.1380  0.6014
 8641WAT     H135270   3.184   7.814   7.026  1.9106  0.1582 -0.4888
 8641WAT     H235271   3.168   7.923   6.944  1.9363  0.9033  0.4676
 8641WAT    EPW35272   3.180   7.892   7.015  0.4272  0.2375 -0.4368
 8642WAT      O35273   2.791   0.251   7.442 -0.2401 -0.3189  0.3148
 8642WAT     H135274   2.718   0.232   7.397  0.5512 -1.0019 -0.7148
 8642WAT     H235275   2.807   0.178   7.486 -0.5699  0.0847  1.1284
 8642WAT    EPW35276   2.782   0.238   7.442  0.8346 -0.6871 -0.9492
 8643WAT      O35277   2.656   6.445   7.584 -0.0012 -0.1460  0.2611
 8643WAT     H135278   2.743   6.438   7.585 -0.0221 -0.3718  0.6488
 8643WAT     H235279   2.629   6.368   7.613 -0.3531 -0.3954 -0.6767
 8643WAT    EPW35280   2.665   6.433   7.588  0.0009 -0.5502  0.0489
 8644WAT      O35281   3.385   7.083   6.190 -0.1322  0.5096  0.1345
 8644WAT     H135282   3.345   7.027   6.244 -1.7561  0.1210 -1.4067
 8644WAT     H235283   3.418   7.143   6.245 -0.0688 -0.8557  1.6790
 8644WAT    EPW35284   3.384   7.083   6.206 -0.5094  0.2865  0.4602
 8645WAT      O35285   2.161   0.796   8.016 -0.5171  0.2634 -0.1527
 8645WAT     H135286   2.192   0.749   8.082  2.0971  0.3211 -1.2282
 8645WAT     H235287   2.161   0.877   8.048  1.4986  0.4093 -0.3906
 8645WAT    EPW35288   2.166   0.801   8.031  0.6588 -0.4832 -0.2602
 8646WAT      O35289   1.693   7.428   7.790 -0.1222  0.2935 -0.3177
 8646WAT     H135290   1.631   7.426   7.852 -0.4942  0.1282 -0.6927
 8646WAT     H235291   1.764   7.399   7.832 -0.8882 -2.1546 -0.5520
 8646WAT    EPW35292   1.694   7.423   7.805 -0.3094 -0.4656 -0.3654
 8647WAT      O35293   2.263   7.921   7.155 -0.5943  0.2342 -0.6010
 8647WAT     H135294   2.326   7.874   7.193 -1.7290 -0.6683  0.2499
 8647WAT     H235295   2.191   7.898   7.199 -1.4415  1.6483 -1.1767
 8647WAT    EPW35296   2.262   7.910   7.167 -0.0680 -0.3777  0.3000
 8648WAT      O35297   2.199   0.380   7.640  0.4790  0.0953  0.0576
 8648WAT     H135298   2.185   0.297   7.617  0.3626 -0.1468  0.9764
 8648WAT     H235299   2.175   0.425   7.569 -0.6523 -0.5768  0.0027
 8648WAT    EPW35300   2.194   0.374   7.626 -0.0169  0.3427  0.3452
 8649WAT      O35301   2.864   6.325   6.535  0.0353 -0.2508 -0.4899
 8649WAT     H135302   2.929   6.366   6.575  0.0033 -1.0857  0.4493
 8649WAT     H235303   2.870   6.243   6.564 -3.6347  0.3138  2.6847
 8649WAT    EPW35304   2.874   6.319   6.545 -0.6562  0.0884 -0.2091
 8650WAT      O35305   2.944   7.032   7.499  0.0799 -0.0102  0.1134
 8650WAT     H135306   2.930   6.974   7.562  0.6942  0.1677  0.4194
 8650WAT     H235307   2.870   7.078   7.498 -1.6260 -2.5216 -2.0620
 8650WAT    EPW35308   2.931   7.030   7.508 -0.2332  0.2705 -0.0247
 8651WAT      O35309   3.037   6.510   5.376 -0.4683  0.2268 -0.4642
 8651WAT     H135310   3.073   6.465   5.311  1.2692 -1.3227  1.4374
 8651WAT     H235311   2.967   6.462   5.397 -2.0883  1.6721 -2.2375
 8651WAT    EPW35312   3.032   6.496   5.370 -0.4824  0.4103  0.2076
 8652WAT      O35313   2.458   7.889   4.414 -0.0966 -0.0051  1.0929
 8652WAT     H135314   2.390   7.869   4.466  1.1132 -0.4045  2.5923
 8652WAT     H235315   2.429   7.959   4.370 -1.2798  0.2037  2.1238
 8652WAT    EPW35316   2.443   7.897   4.416 -0.8497  0.1405 -0.4154
 8653WAT      O35317   2.386   7.201   4.061 -0.1599 -0.1573  0.4284
 8653WAT     H135318   2.459   7.230   4.023 -0.5503 -0.2308 -0.4079
 8653WAT     H235319   2.375   7.122   4.027 -1.0510  0.1674 -0.0683
 8653WAT    EPW35320   2.395   7.194   4.050  0.7995  0.4633  0.7334
 8654WAT      O35321   3.129   6.582   4.768 -0.0929  0.3987  0.0530
 8654WAT     H135322   3.147   6.620   4.845 -2.1205  0.7647  0.4113
 8654WAT     H235323   3.045   6.601   4.756 -0.0825 -0.5613 -1.7653
 8654WAT    EPW35324   3.119   6.591   4.778  0.6543 -0.0328 -0.7198
 8655WAT      O35325   2.042   0.351   6.362  0.2860  0.1145  0.7705
 8655WAT     H135326   2.024   0.421   6.312  0.6243 -1.0738 -1.1350
 8655WAT     H235327   2.116   0.373   6.402  0.7694  0.6152 -0.3488
 8655WAT    EPW35328   2.050   0.365   6.360  0.9316  0.4769  0.0292
 8656WAT      O35329   3.461   6.833   6.556 -0.6983 -0.3854  0.1370
 8656WAT     H135330   3.525   6.824   6.498 -0.0014 -0.3821  0.8814
 8656WAT     H235331   3.392   6.854   6.508  0.0403  0.4107 -0.6090
 8656WAT    EPW35332   3.461   6.835   6.541 -0.3887 -0.7087 -0.4982
 8657WAT      O35333   2.981   6.230   4.993  0.5685 -0.3515  0.3412
 8657WAT     H135334   2.898   6.213   4.973  1.1896 -3.1872 -0.2655
 8657WAT     H235335   3.024   6.215   4.918  1.8584 -1.3102  1.2255
 8657WAT    EPW35336   2.975   6.226   4.979  0.3123  0.4936 -0.1279
 8658WAT      O35337   1.340   7.327   7.230  0.2336  0.2947 -0.3096
 8658WAT     H135338   1.284   7.338   7.165  0.1225  0.8008 -0.1307
 8658WAT     H235339   1.379   7.251   7.211 -1.1646 -0.5427  0.0642
 8658WAT    EPW35340   1.338   7.318   7.218 -0.1790 -0.3484  0.0871
 8659WAT      O35341   4.266   6.698   6.689  0.0010  0.3148 -0.0273
 8659WAT     H135342   4.218   6.682   6.618 -0.2597  2.3650 -0.3758
 8659WAT     H235343   4.234   6.774   6.719 -0.9315 -1.1671  3.1806
 8659WAT    EPW35344   4.254   6.707   6.683  1.0960  0.3152 -0.5171
 8660WAT      O35345   3.703   7.254   7.627 -0.1776  0.0316 -0.2309
 8660WAT     H135346   3.750   7.319   7.593  0.4255 -0.2045  0.1440
 8660WAT     H235347   3.623   7.270   7.597 -0.0760  1.0500 -0.0026
 8660WAT    EPW35348   3.698   7.266   7.617  0.0627 -0.2060 -0.7854
 8661WAT      O35349   3.090   7.175   5.531  0.2886  0.3387 -0.0678
 8661WAT     H135350   3.166   7.215   5.513  0.3938  0.0363 -0.3010
 8661WAT     H235351   3.109   7.128   5.603  0.1621  0.7073  0.2127
 8661WAT    EPW35352   3.104   7.174   5.539  0.0960  0.2916 -0.1311
 8662WAT      O35353   4.815   6.305   5.071 -0.3715 -0.4207  0.0456
 8662WAT     H135354   4.851   6.241   5.118 -2.8038 -1.6456  0.3907
 8662WAT     H235355   4.791   6.265   4.997 -0.6278  0.4212 -0.3407
 8662WAT    EPW35356   4.817   6.290   5.067  0.2409  0.5228  0.1942
 8663WAT      O35357   2.120   6.845   5.141 -0.3450  0.3312 -0.1770
 8663WAT     H135358   2.041   6.812   5.124  0.2297 -0.6418 -1.0667
 8663WAT     H235359   2.161   6.842   5.065  0.8104  0.0803  0.4244
 8663WAT    EPW35360   2.114   6.840   5.127 -0.4916 -0.0069 -0.5083
 8664WAT      O35361   1.893   6.447   4.002  0.1676  0.1235 -0.0082
 8664WAT     H135362   1.926   6.419   3.927  1.7131 -1.4725  1.1930
 8664WAT     H235363   1.882   6.533   3.989  1.9506  0.1788 -1.4793
 8664WAT    EPW35364   1.896   6.456   3.989  0.0699  0.2924  0.4233
 8665WAT      O35365   4.062   6.721   5.798  0.2200  0.0357  0.5000
 8665WAT     H135366   4.140   6.760   5.806 -0.5713  2.0359 -0.7267
 8665WAT     H235367   4.064   6.686   5.719 -0.2536  0.4772  0.2826
 8665WAT    EPW35368   4.074   6.722   5.788  0.0229 -0.3669 -0.4438
 8666WAT      O35369   3.866   7.507   6.886  0.5441 -0.3290 -0.0837
 8666WAT     H135370   3.865   7.433   6.839  1.6348 -1.5781  1.7267
 8666WAT     H235371   3.785   7.513   6.917 -0.0587  0.2608 -1.6895
 8666WAT    EPW35372   3.854   7.497   6.883 -0.6386 -0.8699  0.0840
 8667WAT      O35373   3.075   7.398   5.888  0.5643 -0.3747  0.6363
 8667WAT     H135374   3.019   7.461   5.908  1.1972  0.5823 -0.5050
 8667WAT     H235375   3.139   7.407   5.946  1.6059  1.3399 -0.7019
 8667WAT    EPW35376   3.076   7.408   5.899  0.4167  0.2898 -0.5774
 8668WAT      O35377   1.849   6.661   6.537  0.1946  0.8557  0.1071
 8668WAT     H135378   1.909   6.721   6.556 -0.1620  0.8510  1.3390
 8668WAT     H235379   1.895   6.588   6.528  0.3058  0.6387  2.0991
 8668WAT    EPW35380   1.864   6.659   6.538 -0.9073  0.2471  0.0063
 8669WAT      O35381   3.175   6.388   5.167  0.2110 -0.2231 -0.1245
 8669WAT     H135382   3.187   6.452   5.109  2.4985  0.4987  1.0133
 8669WAT     H235383   3.128   6.329   5.124 -0.2884  1.3569 -1.8635
 8669WAT    EPW35384   3.170   6.389   5.152 -0.7437  0.4696 -1.0056
 8670WAT      O35385   2.975   0.064   4.220  0.7156 -0.1721 -0.1746
 8670WAT     H135386   3.004   0.058   4.302  1.1452  1.3189 -0.1917
 8670WAT     H235387   2.890   0.080   4.230  0.6397 -0.6243 -0.0496
 8670WAT    EPW35388   2.967   0.065   4.234  0.8515 -0.5556  0.4025
 8671WAT      O35389   2.426   5.520   5.861 -0.6179 -0.2774  0.0167
 8671WAT     H135390   2.471   5.594   5.869 -1.0772  0.0829 -0.7083
 8671WAT     H235391   2.366   5.538   5.800  0.0180 -1.6052 -1.0473
 8671WAT    EPW35392   2.424   5.534   5.853  0.2941  0.2785  0.4882
 8672WAT      O35393   2.907   7.185   5.964  0.1389 -0.4991  0.0944
 8672WAT     H135394   2.951   7.156   6.033 -0.3089  0.6875  0.9102
 8672WAT     H235395   2.961   7.243   5.928 -0.0053 -0.4251 -0.0031
 8672WAT    EPW35396   2.921   7.189   5.969  0.1203  0.4447 -0.3406
 8673WAT      O35397   2.523   5.529   3.123 -0.0740 -0.1644  0.7248
 8673WAT     H135398   2.601   5.537   3.084  0.3555 -0.5128  1.4899
 8673WAT     H235399   2.542   5.491   3.199 -1.0894 -0.9651  0.5998
 8673WAT    EPW35400   2.538   5.525   3.128  0.5098 -0.3292 -0.4766
 8674WAT      O35401   1.594   5.975   4.197  0.4049  0.0239  0.7861
 8674WAT     H135402   1.618   5.901   4.157 -2.2079 -0.4730 -0.0394
 8674WAT     H235403   1.646   6.035   4.163  0.7728 -1.0186 -0.5513
 8674WAT    EPW35404   1.605   5.973   4.186  0.6099  0.2212  0.1531
 8675WAT      O35405   2.519   7.693   4.989 -0.3292 -0.4260 -0.5553
 8675WAT     H135406   2.488   7.655   5.061  0.7865 -0.2579  0.0347
 8675WAT     H235407   2.539   7.625   4.937 -0.9612 -0.5538 -0.6312
 8675WAT    EPW35408   2.518   7.677   4.992 -0.5320 -0.1432  0.1884
 8676WAT      O35409   3.266   5.309   3.571 -0.2658  0.5071  0.4124
 8676WAT     H135410   3.227   5.329   3.646 -0.7297  1.5120 -0.0831
 8676WAT     H235411   3.217   5.348   3.510 -0.2208 -0.7565 -0.4687
 8676WAT    EPW35412   3.253   5.318   3.573  0.1653 -1.0258 -0.6591
 8677WAT      O35413   1.876   0.376   5.269 -0.0462 -0.2739  0.4681
 8677WAT     H135414   1.856   0.303   5.313  0.2805 -0.4953  0.2485
 8677WAT     H235415   1.797   0.411   5.251 -0.2031  0.8845  2.9551
 8677WAT    EPW35416   1.861   0.370   5.273  0.1815 -0.4913  0.3060
 8678WAT      O35417   1.812   6.830   3.522 -0.0067 -0.6234  0.5266
 8678WAT     H135418   1.784   6.755   3.556 -0.3953 -0.4036  0.6981
 8678WAT     H235419   1.804   6.818   3.436 -0.1732 -0.7436  0.5577
 8678WAT    EPW35420   1.806   6.817   3.514 -0.6473 -0.8122 -0.1304
 8679WAT      O35421   4.372   8.018   5.209  0.6373 -0.7056  0.1185
 8679WAT     H135422   4.397   7.953   5.261 -2.3858 -0.6460  1.8467
 8679WAT     H235423   4.318   7.979   5.152 -3.1788  0.3555  2.6368
 8679WAT    EPW35424   4.368   8.003   5.208  0.1572 -0.5758 -0.2761
 8680WAT      O35425   3.640   7.509   5.224 -0.5869 -0.3684  0.3959
 8680WAT     H135426   3.571   7.561   5.212 -0.6593 -0.4771  0.3401
 8680WAT     H235427   3.611   7.449   5.280 -1.1169 -1.5033 -1.0547
 8680WAT    EPW35428   3.626   7.508   5.230 -0.5849 -0.2225 -0.8439
 8681WAT      O35429   3.668   6.259   5.903  0.5240  0.0814 -0.7734
 8681WAT     H135430   3.715   6.260   5.976 -4.0725  1.3340  2.6626
 8681WAT     H235431   3.674   6.341   5.873  0.7174  0.1646 -0.5019
 8681WAT    EPW35432   3.676   6.271   5.909 -0.5775 -0.1671  0.4954
 8682WAT      O35433   4.488   7.259   7.023  0.1383  0.7625 -0.0047
 8682WAT     H135434   4.549   7.203   6.996 -1.0781 -0.2738 -0.7177
 8682WAT     H235435   4.481   7.242   7.108 -0.3625 -0.3637 -0.2453
 8682WAT    EPW35436   4.496   7.248   7.032  0.6988 -0.0363  0.0039
 8683WAT      O35437   2.216   7.803   5.341 -0.1437  0.3694  0.3208
 8683WAT     H135438   2.237   7.725   5.374  0.9917  1.4582  2.3367
 8683WAT     H235439   2.130   7.809   5.353 -0.1649 -0.3844  0.5757
 8683WAT    EPW35440   2.207   7.793   5.347 -0.7430 -0.4679  0.7942
 8684WAT      O35441   2.618   6.807   4.551  0.4080 -0.3757  0.2678
 8684WAT     H135442   2.552   6.833   4.601 -2.3667 -2.9193 -1.7104
 8684WAT     H235443   2.606   6.851   4.476  1.0609 -0.7189 -0.0474
 8684WAT    EPW35444   2.607   6.817   4.547  0.5449  0.4529  0.4421
 8685WAT      O35445   3.655   7.798   4.682 -0.1867  0.3747  0.3955
 8685WAT     H135446   3.623   7.803   4.763  0.6997  0.6052  0.7376
 8685WAT     H235447   3.740   7.782   4.693 -0.2158 -0.5299 -0.5098
 8685WAT    EPW35448   3.663   7.796   4.695 -0.0076 -0.6449  0.1604
 8686WAT      O35449   5.592   6.483   5.360 -0.6566  0.0689  0.2211
 8686WAT     H135450   5.655   6.529   5.398 -0.6965  0.6184 -0.3683
 8686WAT     H235451   5.529   6.480   5.421 -0.4209  0.2869  0.4771
 8686WAT    EPW35452   5.592   6.489   5.375 -0.2977 -0.1811  0.2468
 8687WAT      O35453   2.561   0.528   6.853  0.3889 -0.3852 -0.5935
 8687WAT     H135454   2.475   0.525   6.867  0.3916 -1.1592 -0.6766
 8687WAT     H235455   2.594   0.473   6.912  0.5233 -2.6029 -2.5617
 8687WAT    EPW35456   2.554   0.519   6.864 -0.1031  0.4749  0.3872
 8688WAT      O35457   3.266   7.811   6.341 -0.5031  0.1609  0.2887
 8688WAT     H135458   3.302   7.873   6.291  0.0673 -1.9344 -2.1121
 8688WAT     H235459   3.185   7.804   6.309 -2.3319  2.7482  3.6767
 8688WAT    EPW35460   3.259   7.819   6.329 -0.3371  0.2074 -0.4360
 8689WAT      O35461   2.839   1.501   3.588  0.2204  0.4914 -0.1217
 8689WAT     H135462   2.844   1.456   3.663  0.7683  0.2359 -0.3053
 8689WAT     H235463   2.836   1.584   3.614 -0.5375  0.3668  0.2144
 8689WAT    EPW35464   2.839   1.506   3.603  0.3863 -0.4404  0.2100
 8690WAT      O35465   3.183   7.277   3.044  0.3240  0.0953  0.3624
 8690WAT     H135466   3.212   7.264   3.126  0.8183 -1.2668  0.0043
 8690WAT     H235467   3.152   7.198   3.021  0.1863  0.4656 -0.7550
 8690WAT    EPW35468   3.183   7.263   3.053 -0.0924  0.2459  0.5988
 8691WAT      O35469   2.339   7.389   2.196  0.1371 -0.2102  0.1227
 8691WAT     H135470   2.390   7.382   2.126 -0.0893  0.4804 -0.1177
 8691WAT     H235471   2.262   7.360   2.168  0.0212  0.1583  0.0488
 8691WAT    EPW35472   2.335   7.384   2.182  0.4566  0.3234 -0.2818
 8692WAT      O35473   3.625   6.816   5.883 -0.4525  0.0204  0.0917
 8692WAT     H135474   3.635   6.735   5.916 -2.2470 -0.6817 -0.9405
 8692WAT     H235475   3.631   6.804   5.797  0.4036  1.2219 -0.0496
 8692WAT    EPW35476   3.628   6.802   5.875 -0.4267  0.1365  1.4396
 8693WAT      O35477   2.618   0.023   6.808 -0.4269  0.3979 -0.3534
 8693WAT     H135478   2.671  -0.042   6.834  0.2551  0.8616 -0.5454
 8693WAT     H235479   2.663   0.062   6.745  0.0703  2.2615  1.0580
 8693WAT    EPW35480   2.633   0.019   6.803  0.5244 -0.5291  0.5403
 8694WAT      O35481   1.625   6.743   4.266 -0.3917 -0.0385 -0.8256
 8694WAT     H135482   1.658   6.824   4.260 -0.3433  0.0802  0.6009
 8694WAT     H235483   1.633   6.724   4.351 -2.1793 -0.7823 -0.7743
 8694WAT    EPW35484   1.631   6.752   4.278 -0.1080 -0.5177  0.6980
 8695WAT      O35485   2.866   7.371   5.526 -0.4367 -0.4793  0.0920
 8695WAT     H135486   2.906   7.435   5.483 -1.1541  1.4671  2.1310
 8695WAT     H235487   2.927   7.308   5.530  0.8082  0.6188 -0.7454
 8695WAT    EPW35488   2.881   7.371   5.520  0.5073 -0.3857 -0.2755
 8696WAT      O35489   2.518   0.664   6.051 -0.0976 -0.4089  0.5173
 8696WAT     H135490   2.532   0.586   6.087  0.0192 -0.9293 -0.5983
 8696WAT     H235491   2.473   0.645   5.978 -0.4478  0.6061  0.4557
 8696WAT    EPW35492   2.514   0.650   6.045 -0.6069  0.0715 -0.8858
 8697WAT      O35493   3.687   7.479   6.160  0.4267 -0.3847  0.4564
 8697WAT     H135494   3.720   7.427   6.221  1.8519  0.3937  0.3943
 8697WAT     H235495   3.758   7.511   6.120 -0.4585 -0.4876 -1.2764
 8697WAT    EPW35496   3.703   7.476   6.163  1.0636 -0.2458  0.0943
 8698WAT      O35497   3.642   7.740   6.241 -0.1777  0.2015 -0.4244
 8698WAT     H135498   3.688   7.751   6.314  1.5431  0.6387 -1.5124
 8698WAT     H235499   3.664   7.660   6.214 -0.0652  0.4009 -0.9391
 8698WAT    EPW35500   3.652   7.730   6.248 -0.1575 -0.0737  0.3904
 8699WAT      O35501   2.465   0.276   4.458 -0.3891  0.5982  0.9055
 8699WAT     H135502   2.458   0.298   4.542 -0.0747  1.0971  0.8071
 8699WAT     H235503   2.503   0.346   4.422  0.2111  0.0733  0.4937
 8699WAT    EPW35504   2.470   0.289   4.465  0.5825 -0.1269  1.4792
 8700WAT      O35505   3.627   0.597   5.565  0.3869  0.2023  0.8124
 8700WAT     H135506   3.545   0.624   5.576  0.4693  0.1246  1.7148
 8700WAT     H235507   3.662   0.658   5.513 -0.1915  0.3192  0.5526
 8700WAT    EPW35508   3.620   0.610   5.559  0.7580  0.5399  0.3756
 8701WAT      O35509   4.003   7.260   6.105 -0.1823 -0.2334  0.0245
 8701WAT     H135510   3.981   7.220   6.031 -0.3932  2.4091 -1.4965
 8701WAT     H235511   4.084   7.288   6.090 -0.3098  0.5346  0.6900
 8701WAT    EPW35512   4.012   7.259   6.092 -0.2588 -0.1742 -0.5286
 8702WAT      O35513   3.048   7.649   2.107 -0.2940  0.4263 -0.2945
 8702WAT     H135514   3.079   7.730   2.097 -2.9784  1.7452  1.0972
 8702WAT     H235515   3.115   7.606   2.145  1.0111  2.0960 -0.5963
 8702WAT    EPW35516   3.063   7.655   2.111 -1.1300  0.0728 -0.5510
 8703WAT      O35517   2.570   7.168   4.507  0.5729 -0.1346  0.5713
 8703WAT     H135518   2.640   7.160   4.559  0.9233 -1.1499 -0.0322
 8703WAT     H235519   2.583   7.108   4.446 -0.2730  0.4469 -0.2059
 8703WAT    EPW35520   2.582   7.158   4.506 -0.4207  0.2769  0.0314
 8704WAT      O35521   3.274   0.551   5.369  0.6537  0.1124  0.2307
 8704WAT     H135522   3.337   0.500   5.401  0.6167  0.8915  1.6241
 8704WAT     H235523   3.287   0.628   5.408 -0.7660  0.4770  0.0509
 8704WAT    EPW35524   3.285   0.555   5.379  0.3135 -0.4007  0.0000
 8705WAT      O35525   2.913   7.556   7.413  0.6165 -0.9019 -0.3960
 8705WAT     H135526   2.983   7.520   7.450  0.5823  1.5405  2.4813
 8705WAT     H235527   2.882   7.609   7.476 -2.0291  0.4272 -2.6000
 8705WAT    EPW35528   2.918   7.559   7.428 -0.6365 -0.3148  0.0364
 8706WAT      O35529   2.901   7.730   5.492  0.2486  0.2993  0.2258
 8706WAT     H135530   2.853   7.763   5.427 -1.1318  0.2473  1.1757
 8706WAT     H235531   2.890   7.789   5.556  0.2565 -0.4664  0.9383
 8706WAT    EPW35532   2.892   7.744   5.492  0.0679  0.0440 -0.7108
 8707WAT      O35533   3.551   7.588   6.626 -0.1709 -0.0994 -0.0109
 8707WAT     H135534   3.623   7.638   6.627 -1.0901  1.4468 -2.0278
 8707WAT     H235535   3.557   7.542   6.700  1.3818  2.1259  1.4003
 8707WAT    EPW35536   3.563   7.589   6.637  0.1290 -0.3198  0.6912
 8708WAT      O35537   3.408   5.802   5.140 -0.2268  0.3977  0.4854
 8708WAT     H135538   3.462   5.846   5.192  1.8834 -1.2041 -0.1829
 8708WAT     H235539   3.429   5.831   5.060 -1.7319  1.1051  0.3164
 8708WAT    EPW35540   3.419   5.813   5.136 -0.6939 -0.3398  0.1372
 8709WAT      O35541   2.409   6.509   5.391 -0.2945 -0.1615 -0.0754
 8709WAT     H135542   2.351   6.573   5.380 -0.5855 -0.7855 -2.8021
 8709WAT     H235543   2.456   6.512   5.318  0.6082 -2.1669  0.3708
 8709WAT    EPW35544   2.408   6.519   5.379 -0.1866  0.0630  0.3647
 8710WAT      O35545   3.304   0.298   4.056 -0.7308  0.5979 -0.0424
 8710WAT     H135546   3.341   0.375   4.038 -0.4703  0.6461  0.6657
 8710WAT     H235547   3.347   0.242   4.006 -1.3627  0.9962 -1.0580
 8710WAT    EPW35548   3.316   0.301   4.046 -0.2970  0.5044 -0.0366
 8711WAT      O35549   3.903   6.988   4.445 -0.0837 -0.6046  0.5642
 8711WAT     H135550   3.927   7.046   4.384  1.3007 -1.3988  0.2907
 8711WAT     H235551   3.979   6.963   4.480 -0.7358 -1.3722  1.4893
 8711WAT    EPW35552   3.918   6.993   4.441  0.8474 -0.0165 -0.1582
 8712WAT      O35553   4.639   7.519   5.337  0.0455 -0.1236  0.2960
 8712WAT     H135554   4.709   7.563   5.366 -0.2455  1.8503 -1.8139
 8712WAT     H235555   4.673   7.443   5.310  1.1952  0.3269  0.4109
 8712WAT    EPW35556   4.654   7.514   5.338 -0.7962  0.5864  0.2791
 8713WAT      O35557   1.412   6.198   4.873 -0.7727 -1.2749  0.3644
 8713WAT     H135558   1.382   6.268   4.915 -0.7440 -1.3586  0.5243
 8713WAT     H235559   1.343   6.170   4.828 -0.5604 -0.6515 -0.3600
 8713WAT    EPW35560   1.398   6.204   4.873  0.0643 -1.0704  0.6259
 8714WAT      O35561   1.919   6.606   5.422  0.2059 -0.7151 -0.0661
 8714WAT     H135562   1.923   6.554   5.492  0.0435 -0.3096  0.2576
 8714WAT     H235563   2.003   6.625   5.406  0.2587 -1.0026 -0.1308
 8714WAT    EPW35564   1.932   6.601   5.430 -0.2409  0.2756 -0.5648
 8715WAT      O35565   3.239   7.565   4.247 -0.0288 -0.1087  0.2766
 8715WAT     H135566   3.203   7.486   4.258  0.1849 -0.7387 -2.6769
 8715WAT     H235567   3.186   7.618   4.292 -2.9559 -1.3908 -1.3425
 8715WAT    EPW35568   3.225   7.561   4.256 -0.5356 -0.0521  0.2698
 8716WAT      O35569   2.219   6.666   4.180 -0.4144  0.2385 -0.9704
 8716WAT     H135570   2.170   6.667   4.108  0.8399 -0.8262 -1.8968
 8716WAT     H235571   2.167   6.629   4.239 -1.0020 -0.1683 -1.7144
 8716WAT    EPW35572   2.204   6.660   4.178 -0.2427 -0.1152 -0.5114
 8717WAT      O35573   2.463   6.453   4.475  0.3023 -0.1791  0.3869
 8717WAT     H135574   2.538   6.408   4.480 -0.3146 -1.2230  0.6856
 8717WAT     H235575   2.407   6.395   4.441 -0.3348  0.6315  0.0323
 8717WAT    EPW35576   2.465   6.438   4.471 -0.1918  0.4205 -0.0661
 8718WAT      O35577   1.968   6.902   3.884 -0.5372  0.0953 -0.0097
 8718WAT     H135578   1.973   6.969   3.939  1.4385 -1.4075  1.8452
 8718WAT     H235579   1.911   6.848   3.923 -2.2015  0.6387 -1.5374
 8718WAT    EPW35580   1.960   6.904   3.898  0.7029  0.3156 -1.2624
 8719WAT      O35581   2.950   7.908   0.190  0.7457 -0.0455 -0.3056
 8719WAT     H135582   3.020   7.960   0.194  1.5774 -1.1229  0.0641
 8719WAT     H235583   2.940   7.882   0.273  0.8176 -1.0360 -0.5934
 8719WAT    EPW35584   2.959   7.912   0.203 -0.6258  0.9119  0.4304
 8720WAT      O35585   2.299   7.074   5.391  0.2334 -0.2503 -0.6796
 8720WAT     H135586   2.371   7.027   5.408 -0.2197 -1.0521 -0.8931
 8720WAT     H235587   2.235   7.023   5.422 -0.1783  0.9285  0.4840
 8720WAT    EPW35588   2.300   7.059   5.398  0.1298  0.4734  0.3152
 8721WAT      O35589   2.561   0.083   0.573 -0.6517  0.5744 -0.3596
 8721WAT     H135590   2.555   0.035   0.646 -0.8621  0.0518 -0.7179
 8721WAT     H235591   2.592   0.028   0.514 -1.2495  0.7714 -0.8730
 8721WAT    EPW35592   2.565   0.068   0.575  1.0846 -0.2717 -0.2375
 8722WAT      O35593   3.788   1.112   6.114  0.0716 -0.3615  0.3731
 8722WAT     H135594   3.701   1.110   6.110  0.0469 -1.8713  0.7515
 8722WAT     H235595   3.812   1.156   6.043 -1.0206  1.0071  0.8226
 8722WAT    EPW35596   3.779   1.118   6.103  0.5837  0.5522  0.2997
 8723WAT      O35597   3.644   6.749   5.589  0.3502 -0.2155 -0.1518
 8723WAT     H135598   3.593   6.815   5.563 -1.2311 -2.0443 -1.9677
 8723WAT     H235599   3.709   6.749   5.531  0.2794 -0.3378 -0.2310
 8723WAT    EPW35600   3.646   6.759   5.577  0.7849 -0.6697 -0.1575
 8724WAT      O35601   3.630   7.997   7.414  0.5801 -0.0586  0.2749
 8724WAT     H135602   3.711   8.025   7.431  1.0761 -0.6247 -1.0949
 8724WAT     H235603   3.626   7.919   7.454  0.5955  0.1124  0.6112
 8724WAT    EPW35604   3.641   7.990   7.423 -0.4019  0.5195  0.0431
 8725WAT      O35605   3.727   6.551   6.339  0.0481  0.1314 -0.1543
 8725WAT     H135606   3.651   6.574   6.304 -1.7892 -0.5107  3.0065
 8725WAT     H235607   3.778   6.621   6.324 -2.4220  2.3695  0.9833
 8725WAT    EPW35608   3.724   6.565   6.332 -0.2660  1.2453  0.7426
 8726WAT      O35609   1.897   7.625   6.408 -0.2819  0.3154 -0.0577
 8726WAT     H135610   1.935   7.628   6.329 -0.2062 -0.0237 -0.0356
 8726WAT     H235611   1.839   7.561   6.400  2.5702 -2.7576  1.3882
 8726WAT    EPW35612   1.894   7.616   6.395 -0.1435 -0.9795 -0.7210
 8727WAT      O35613   2.340   0.248   5.998  0.8323 -0.1139 -0.3990
 8727WAT     H135614   2.351   0.175   6.045  0.6587 -0.4523 -0.8728
 8727WAT     H235615   2.347   0.220   5.915 -0.5711  0.1691 -0.6339
 8727WAT    EPW35616   2.343   0.233   5.992  0.2835 -0.3545 -0.0615
 8728WAT      O35617   4.642   0.029   7.170  0.0302  0.2903  0.4156
 8728WAT     H135618   4.611   0.062   7.095 -5.3256 -3.5684  0.2590
 8728WAT     H235619   4.586   0.059   7.230  0.7420 -1.0255  1.8124
 8728WAT    EPW35620   4.629   0.038   7.168 -0.8537  0.0422 -0.4482
 8729WAT      O35621   2.896   5.749   7.097  0.1035  0.2063  0.5023
 8729WAT     H135622   2.819   5.777   7.127 -0.5481 -0.1304 -0.7717
 8729WAT     H235623   2.897   5.664   7.119  0.9386  0.5998  2.1042
 8729WAT    EPW35624   2.884   5.740   7.105  0.0661 -0.0882  0.0604
 8730WAT      O35625   2.713   5.752   3.360  0.3620 -0.1315 -0.4681
 8730WAT     H135626   2.644   5.801   3.379  0.9710  0.9811 -1.0319
 8730WAT     H235627   2.754   5.744   3.437  2.4184  3.7223 -0.9340
 8730WAT    EPW35628   2.709   5.758   3.374  0.9029 -0.4618  0.3294
 8731WAT      O35629   3.678   7.298   5.940 -0.1508 -0.2130  0.0260
 8731WAT     H135630   3.670   7.360   6.001 -1.2153  0.1064 -0.4114
 8731WAT     H235631   3.644   7.227   5.979 -1.2513  0.0995 -0.3242
 8731WAT    EPW35632   3.672   7.297   5.955 -0.2737  0.1704 -0.8034
 8732WAT      O35633   2.467   7.998   6.129  0.5146  0.4413 -0.6428
 8732WAT     H135634   2.384   7.985   6.152  0.8708 -1.1735 -0.1498
 8732WAT     H235635   2.505   8.021   6.204  0.4601  1.6496 -0.9560
 8732WAT    EPW35636   2.460   8.000   6.144 -0.1701 -0.0406 -0.4119
 8733WAT      O35637   3.226   7.485   0.250 -0.2040  0.9409 -0.4621
 8733WAT     H135638   3.258   7.464   0.328 -1.6280 -2.2787 -0.5871
 8733WAT     H235639   3.283   7.544   0.220  1.8894  0.2985  1.8868
 8733WAT    EPW35640   3.240   7.491   0.257  0.2470 -1.0151 -0.0463
 8734WAT      O35641   2.298   0.092   4.297 -0.0453 -0.2091 -0.3293
 8734WAT     H135642   2.224   0.112   4.339 -0.7807 -1.0112 -1.1992
 8734WAT     H235643   2.358   0.144   4.334 -1.0590  0.5115  0.3301
 8734WAT    EPW35644   2.296   0.102   4.309 -0.4039 -0.2235 -0.8806
 8735WAT      O35645   3.866   7.310   6.685 -0.4353 -0.0001 -0.6242
 8735WAT     H135646   3.875   7.228   6.713 -0.2207 -0.0032 -0.7028
 8735WAT     H235647   3.948   7.338   6.677 -0.4966  0.8207  1.1615
 8735WAT    EPW35648   3.880   7.302   6.688  0.6549 -0.9760  0.2665
 8736WAT      O35649   2.002   6.321   5.906  0.2384  0.2555 -0.3660
 8736WAT     H135650   2.016   6.384   5.965 -0.7235  1.4206 -1.3148
 8736WAT     H235651   2.077   6.276   5.906  0.9152  1.3266  0.4451
 8736WAT    EPW35652   2.015   6.324   5.915  0.0324  0.5975  0.2173
 8737WAT      O35653   3.258   7.910   4.619  1.0215 -0.1040 -0.1920
 8737WAT     H135654   3.293   7.972   4.569  1.4895  0.4400  0.7816
 8737WAT     H235655   3.206   7.866   4.564  3.5038 -1.2185 -1.8506
 8737WAT    EPW35656   3.256   7.913   4.603  0.2856  0.3524 -0.8838
 8738WAT      O35657   4.287   7.307   7.297 -0.0636 -0.6331  0.0586
 8738WAT     H135658   4.269   7.386   7.265 -2.1370 -1.0027  0.1650
 8738WAT     H235659   4.334   7.323   7.368 -0.3271  0.4951 -0.0058
 8738WAT    EPW35660   4.291   7.321   7.303  0.8573 -1.2388 -0.7217
 8739WAT      O35661   2.725   6.817   7.058 -0.6738 -0.2923 -0.1728
 8739WAT     H135662   2.642   6.807   7.083 -0.7826 -0.2830 -0.5233
 8739WAT     H235663   2.734   6.761   6.991 -0.4241 -0.2302 -0.1954
 8739WAT    EPW35664   2.714   6.807   7.052  0.4077  0.0304 -0.2474
 8740WAT      O35665   2.535   6.149   6.670 -0.1180 -0.8161 -0.7771
 8740WAT     H135666   2.535   6.216   6.726 -1.2164  0.7179 -2.4646
 8740WAT     H235667   2.483   6.090   6.708 -0.3028 -0.1042  0.1139
 8740WAT    EPW35668   2.527   6.150   6.684 -0.4201  0.8715 -0.2088
 8741WAT      O35669   3.880   6.644   7.900 -0.5098 -0.3551 -1.3320
 8741WAT     H135670   3.830   6.675   7.835  0.1522 -0.3778 -1.8644
 8741WAT     H235671   3.957   6.631   7.861 -0.2444 -0.8390 -0.6521
 8741WAT    EPW35672   3.884   6.647   7.884  0.2992 -0.0478 -0.3173
 8742WAT      O35673   2.935   5.342   7.518 -0.1308  0.0991  0.0787
 8742WAT     H135674   2.977   5.282   7.469 -0.2366 -0.0409  0.1575
 8742WAT     H235675   2.913   5.404   7.461  1.4422  0.8711  0.2588
 8742WAT    EPW35676   2.938   5.342   7.502  0.2215 -0.2164 -0.2334
 8743WAT      O35677   3.404   7.571   6.282 -0.0785 -0.1310 -0.1629
 8743WAT     H135678   3.347   7.634   6.300 -0.4693 -0.1496 -1.2441
 8743WAT     H235679   3.481   7.611   6.289 -0.2221 -0.0104  0.9416
 8743WAT    EPW35680   3.407   7.586   6.286 -0.4504  0.2022 -0.4083
 8744WAT      O35681   2.837   1.273   5.782  0.5721 -0.2099  0.4552
 8744WAT     H135682   2.797   1.220   5.839 -1.0007  0.5974  0.1484
 8744WAT     H235683   2.895   1.315   5.831 -0.3539  0.0503  1.3617
 8744WAT    EPW35684   2.840   1.271   5.798 -0.8533 -0.6882  0.3792
 8745WAT      O35685   3.107   5.915   6.239 -0.4064 -0.1037  0.5611
 8745WAT     H135686   3.172   5.863   6.266 -0.5494 -1.0703 -0.8074
 8745WAT     H235687   3.139   5.952   6.167 -1.4506 -0.8294 -0.3078
 8745WAT    EPW35688   3.121   5.913   6.232 -0.0032  0.6733 -0.6491
 8746WAT      O35689   4.326   6.530   6.205  0.2614  0.1178 -0.4564
 8746WAT     H135690   4.341   6.615   6.217  1.9755 -0.2051 -0.0084
 8746WAT     H235691   4.242   6.526   6.184 -0.1422  1.8095  0.6994
 8746WAT    EPW35692   4.316   6.542   6.203 -0.9973 -0.8714 -0.1660
 8747WAT      O35693   3.072   7.079   6.860 -0.7269  0.0619  0.3035
 8747WAT     H135694   3.129   7.140   6.886  0.0651 -0.1690 -0.8302
 8747WAT     H235695   3.060   7.097   6.776  0.8209 -2.3129 -0.5145
 8747WAT    EPW35696   3.078   7.090   6.851  0.1080 -0.3572 -0.1520
 8748WAT      O35697   4.172   6.929   6.771  0.5149 -0.3476  0.3130
 8748WAT     H135698   4.228   6.926   6.838 -0.5101 -0.3834  1.1987
 8748WAT     H235699   4.095   6.945   6.810 -0.1352 -0.5885 -0.8404
 8748WAT    EPW35700   4.169   6.931   6.787 -0.4764  0.3404 -0.1943
 8749WAT      O35701   3.004   0.947   6.722 -0.4172  0.1969  0.1627
 8749WAT     H135702   2.995   0.906   6.799  0.9751  1.3721  0.9942
 8749WAT     H235703   2.962   1.023   6.734 -0.9394  0.0311 -0.5546
 8749WAT    EPW35704   2.997   0.952   6.735 -0.5984  0.7168 -0.7781
 8750WAT      O35705   3.221   6.608   5.025 -0.2146  0.3292  0.3600
 8750WAT     H135706   3.307   6.598   5.024 -0.2597 -0.2182  1.0065
 8750WAT     H235707   3.210   6.690   5.053  0.0933  0.0001  1.5163
 8750WAT    EPW35708   3.232   6.619   5.029 -0.0519 -0.4320  0.7633
 8751WAT      O35709   1.659   7.557   7.561  0.0436 -0.1813  0.0927
 8751WAT     H135710   1.675   7.522   7.639 -1.3239 -2.0801 -0.4068
 8751WAT     H235711   1.717   7.519   7.509 -0.2020 -0.2511 -0.1308
 8751WAT    EPW35712   1.670   7.546   7.565 -0.0389  0.3943 -0.4932
 8752WAT      O35713   3.213   6.884   5.047 -0.2479  0.1026  0.3176
 8752WAT     H135714   3.185   6.963   5.071 -1.6104 -0.6590  1.2982
 8752WAT     H235715   3.267   6.902   4.980 -1.3040  1.7791 -0.1427
 8752WAT    EPW35716   3.217   6.898   5.041  0.5078  0.3007 -0.6847
 8753WAT      O35717   2.597   7.665   4.339  0.0608  0.4871  0.1993
 8753WAT     H135718   2.538   7.725   4.361  1.2592  0.9222  2.4915
 8753WAT     H235719   2.564   7.591   4.371 -0.5394  0.1915 -1.0263
 8753WAT    EPW35720   2.583   7.663   4.347 -0.1255  0.6029  0.2480
 8754WAT      O35721   2.024   7.534   4.343  0.9925 -0.3036  0.5230
 8754WAT     H135722   1.985   7.522   4.420  2.0100 -1.7992  0.8368
 8754WAT     H235723   1.970   7.494   4.287  0.8317 -0.2166  0.6158
 8754WAT    EPW35724   2.010   7.526   4.346  0.4923  0.2355 -0.3312
 8755WAT      O35725   3.601   0.151   5.712  0.3121 -0.4955 -0.3211
 8755WAT     H135726   3.519   0.173   5.692 -0.2068 -3.5566 -2.1266
 8755WAT     H235727   3.646   0.174   5.642  0.9842  0.8545  0.5266
 8755WAT    EPW35728   3.595   0.157   5.699  0.6734 -0.5923 -0.3260
 8756WAT      O35729   2.405   6.487   4.741 -0.1835 -0.0396 -0.4670
 8756WAT     H135730   2.459   6.459   4.804 -0.6121 -1.5235 -0.7367
 8756WAT     H235731   2.439   6.454   4.668  0.2976  1.6524 -1.0593
 8756WAT    EPW35732   2.418   6.478   4.740  0.5536 -0.0504 -0.2986
 8757WAT      O35733   4.289   6.095   6.451  0.0023 -0.9007 -0.3339
 8757WAT     H135734   4.253   6.073   6.374  1.2070 -1.5708 -0.7363
 8757WAT     H235735   4.371   6.116   6.430  0.1136 -0.2801  0.6707
 8757WAT    EPW35736   4.296   6.095   6.437 -0.3542 -0.0371 -0.8196
 8758WAT      O35737   4.054   5.755   6.414  0.0779  0.2326 -0.1561
 8758WAT     H135738   4.127   5.770   6.458 -0.4737  0.6810  0.6237
 8758WAT     H235739   4.076   5.691   6.358  0.9859  0.1998  0.2324
 8758WAT    EPW35740   4.068   5.748   6.412 -0.6306 -0.2318 -0.1033
 8759WAT      O35741   3.065   7.705   6.665  0.0636 -0.3588  0.1242
 8759WAT     H135742   3.042   7.781   6.703 -0.1732  0.0260 -0.7741
 8759WAT     H235743   3.152   7.709   6.662  0.0571 -0.1640  0.1680
 8759WAT    EPW35744   3.074   7.717   6.670  0.3532  0.2112 -0.5202
 8760WAT      O35745   1.602   6.141   3.518 -0.3926 -0.1533 -0.1132
 8760WAT     H135746   1.555   6.081   3.559 -1.6205 -0.4822 -1.8791
 8760WAT     H235747   1.612   6.204   3.578 -0.7282 -1.2781  1.1623
 8760WAT    EPW35748   1.596   6.142   3.533  0.5614 -0.3708 -0.4311
 8761WAT      O35749   2.246   7.306   4.356  0.3749  0.2383 -0.2920
 8761WAT     H135750   2.232   7.241   4.298 -0.0482 -0.5889  0.7094
 8761WAT     H235751   2.184   7.364   4.336  0.5002  0.1521 -0.9503
 8761WAT    EPW35752   2.234   7.305   4.344  0.5324 -0.5479  0.3597
 8762WAT      O35753   3.286   0.127   6.523 -0.7316  0.5857  0.1193
 8762WAT     H135754   3.205   0.156   6.509 -0.7694  0.7998  0.7399
 8762WAT     H235755   3.305   0.083   6.450 -0.9673  1.5142 -0.5159
 8762WAT    EPW35756   3.277   0.125   6.510 -0.6921 -0.3079 -0.1187
 8763WAT      O35757   3.614   7.191   6.872  0.0182  0.4764 -0.3174
 8763WAT     H135758   3.541   7.143   6.877  1.0612 -1.2643 -0.7816
 8763WAT     H235759   3.637   7.185   6.788  0.7387  0.8989 -0.1592
 8763WAT    EPW35760   3.607   7.183   6.860  0.0633  0.3089 -0.5432
 8764WAT      O35761   2.549   7.788   5.670  0.2005  0.3024 -0.0060
 8764WAT     H135762   2.529   7.746   5.596  0.8778 -0.8846  0.4566
 8764WAT     H235763   2.502   7.745   5.730  1.9595 -0.7397  0.6858
 8764WAT    EPW35764   2.539   7.776   5.668 -0.0227 -0.1003  0.3360
 8765WAT      O35765   3.587   6.909   7.075  0.1632  0.0202  0.2415
 8765WAT     H135766   3.526   6.971   7.075  0.8043  0.6738  0.6937
 8765WAT     H235767   3.542   6.836   7.092 -0.8866  0.0125 -2.2278
 8765WAT    EPW35768   3.571   6.907   7.078  0.9969 -0.1571 -0.1237
 8766WAT      O35769   3.128   0.670   3.987 -0.3646  0.6741  0.8496
 8766WAT     H135770   3.080   0.738   4.011 -2.8287 -1.5609  2.9360
 8766WAT     H235771   3.068   0.611   3.962  1.6408 -0.7299 -0.9772
 8766WAT    EPW35772   3.112   0.671   3.987  0.5954 -0.9599 -0.1006
 8767WAT      O35773   2.592   0.551   5.295  0.9468  0.4374 -0.7052
 8767WAT     H135774   2.517   0.513   5.317 -0.1986  2.3884 -1.0226
 8767WAT     H235775   2.627   0.497   5.236  0.7017 -1.3886  0.7518
 8767WAT    EPW35776   2.586   0.538   5.289  0.1888  0.3033  0.6338
 8768WAT      O35777   4.464   0.244   7.278 -0.0399 -0.3950  0.1383
 8768WAT     H135778   4.418   0.263   7.206 -0.5829 -1.3603  0.2090
 8768WAT     H235779   4.503   0.319   7.298 -0.2781  0.0159 -0.8824
 8768WAT    EPW35780   4.463   0.258   7.270  0.3201 -0.5667  0.1528
 8769WAT      O35781   3.715   6.279   6.327  0.0126  0.4249  0.5919
 8769WAT     H135782   3.719   6.365   6.315 -1.1311  0.3500 -0.4443
 8769WAT     H235783   3.770   6.247   6.267 -0.9118  0.3585 -0.2336
 8769WAT    EPW35784   3.724   6.287   6.317 -1.1073  0.0374  0.3701
 8770WAT      O35785   1.648   6.281   5.425  0.1168 -0.2501 -0.7155
 8770WAT     H135786   1.676   6.242   5.498 -0.7688 -1.0820 -0.8062
 8770WAT     H235787   1.671   6.226   5.362  1.4431  0.7650 -1.1514
 8770WAT    EPW35788   1.655   6.267   5.427 -0.2654  0.6754 -0.6353
 8771WAT      O35789   3.585   7.283   7.297  0.1100 -0.4192  0.4249
 8771WAT     H135790   3.648   7.339   7.319 -1.3622  2.2319 -1.4690
 8771WAT     H235791   3.535   7.279   7.369  0.2257  0.8195  0.6053
 8771WAT    EPW35792   3.587   7.291   7.311  0.1938  0.3997 -0.2179
 8772WAT      O35793   0.836   6.750   3.117  0.5503 -0.1417  0.4399
 8772WAT     H135794   0.901   6.750   3.175  1.0867  1.2037 -0.1168
 8772WAT     H235795   0.810   6.833   3.115  1.7120  0.2839 -2.4467
 8772WAT    EPW35796   0.842   6.762   3.125  0.2443 -0.4775 -0.2317
 8773WAT      O35797   1.296   6.814   4.579 -0.1866  0.1083 -0.0513
 8773WAT     H135798   1.319   6.784   4.500  1.5648  0.1995  0.3828
 8773WAT     H235799   1.297   6.900   4.570  3.4371  0.3223  0.8228
 8773WAT    EPW35800   1.300   6.822   4.566 -0.0117 -0.6576 -0.1615
 8774WAT      O35801   1.835   7.102   3.133  0.5396 -0.4980 -0.1709
 8774WAT     H135802   1.884   7.105   3.204  1.3676  0.0937 -0.7462
 8774WAT     H235803   1.850   7.179   3.094  0.4186 -0.9647 -1.1837
 8774WAT    EPW35804   1.844   7.114   3.138 -0.4012 -0.2148  0.5136
 8775WAT      O35805   2.462   7.239   3.647 -0.2638 -0.8046 -0.7364
 8775WAT     H135806   2.412   7.299   3.687  0.7364 -0.4827  0.0751
 8775WAT     H235807   2.404   7.182   3.615 -1.2129  0.3091 -1.0594
 8775WAT    EPW35808   2.446   7.240   3.648  0.3895 -0.6531 -0.0418
 8776WAT      O35809   2.768   0.107   2.897 -0.1395  0.4047  0.7332
 8776WAT     H135810   2.825   0.165   2.928 -1.5912  2.1183  0.3503
 8776WAT     H235811   2.708   0.102   2.960 -0.5166  0.0607  0.3494
 8776WAT    EPW35812   2.768   0.115   2.911  0.5900  0.0207 -0.4470
 8777WAT      O35813   1.398   6.785   2.539 -1.2757 -0.4391  0.1812
 8777WAT     H135814   1.410   6.862   2.580 -1.7986 -0.3813  0.2269
 8777WAT     H235815   1.354   6.807   2.467  1.3437 -0.2512 -1.5087
 8777WAT    EPW35816   1.393   6.800   2.535 -0.1028 -0.2521 -0.1477
 8778WAT      O35817   1.544   0.552   3.961 -0.0442 -0.3090 -0.4908
 8778WAT     H135818   1.568   0.601   3.893 -1.6011 -0.2959 -1.0688
 8778WAT     H235819   1.515   0.478   3.924 -0.5612 -0.4477  0.1709
 8778WAT    EPW35820   1.543   0.548   3.945 -0.2276 -0.2840 -0.5053
 8779WAT      O35821   1.264   6.595   4.749 -0.7235 -0.4149 -0.2098
 8779WAT     H135822   1.307   6.611   4.822 -1.9284 -0.8765  0.6385
 8779WAT     H235823   1.271   6.669   4.704 -0.6099  0.1459  0.7109
 8779WAT    EPW35824   1.271   6.608   4.753  0.3190  0.0596 -0.0753
 8780WAT      O35825   0.641   7.040   3.448  0.2163  0.2954 -0.9463
 8780WAT     H135826   0.587   6.982   3.484 -0.2285  0.4561 -1.3361
 8780WAT     H235827   0.720   7.003   3.455 -0.0235 -0.2073 -0.9062
 8780WAT    EPW35828   0.645   7.026   3.454  0.3346  1.0812  0.7533
 8781WAT      O35829   3.576   7.394   3.944  0.3955 -0.0570  0.3978
 8781WAT     H135830   3.612   7.465   3.980  0.7577 -1.2746  2.5886
 8781WAT     H235831   3.637   7.368   3.887 -0.3133  2.0644 -1.4980
 8781WAT    EPW35832   3.590   7.401   3.941  1.3125  0.2798  0.0305
 8782WAT      O35833   2.198   7.040   2.792 -0.0044 -0.2728 -0.4629
 8782WAT     H135834   2.267   7.022   2.741  0.6784  0.6450  0.1102
 8782WAT     H235835   2.146   7.087   2.740  0.1085 -0.3855 -0.6831
 8782WAT    EPW35836   2.201   7.044   2.777 -0.2435 -0.2144  0.0119
 8783WAT      O35837   3.242   6.910   3.773 -0.0720 -0.9850 -0.4338
 8783WAT     H135838   3.323   6.880   3.785 -0.5299 -2.4520 -0.8488
 8783WAT     H235839   3.237   6.978   3.828  1.6393 -0.4687 -0.8765
 8783WAT    EPW35840   3.253   6.916   3.783  0.1435  0.0488  0.8831
 8784WAT      O35841   2.120   7.844   4.066 -0.4760  0.3427  0.7246
 8784WAT     H135842   2.204   7.859   4.050 -0.4786  0.7324  1.0593
 8784WAT     H235843   2.119   7.816   4.149 -0.7930  1.6356  1.1945
 8784WAT    EPW35844   2.132   7.842   4.076  0.0273  0.6747 -0.6811
 8785WAT      O35845   2.834   7.074   2.320  0.5343  0.8434  0.3842
 8785WAT     H135846   2.830   7.000   2.366 -0.0582 -0.0019 -0.9443
 8785WAT     H235847   2.860   7.046   2.241 -2.4634  1.6030 -0.9876
 8785WAT    EPW35848   2.838   7.059   2.315  0.5786  0.2301 -0.0296
 8786WAT      O35849   2.685   6.591   3.799  0.4350  0.2229  0.3522
 8786WAT     H135850   2.727   6.537   3.746 -1.9984 -0.3636 -1.1689
 8786WAT     H235851   2.655   6.653   3.745 -1.9709 -0.3016  0.9645
 8786WAT    EPW35852   2.687   6.592   3.783  0.6227 -0.0360 -0.8338
 8787WAT      O35853   2.743   6.300   3.262  0.1430  0.2422  0.0162
 8787WAT     H135854   2.722   6.334   3.185 -1.5685  0.2147  0.4396
 8787WAT     H235855   2.669   6.263   3.290  0.6290  0.5010  1.8002
 8787WAT    EPW35856   2.729   6.299   3.255 -0.7232 -0.1921 -0.0529
 8788WAT      O35857   2.402   5.599   3.465  0.3744 -0.5228 -0.0912
 8788WAT     H135858   2.423   5.681   3.487  1.8550 -1.1892  1.2017
 8788WAT     H235859   2.468   5.574   3.414 -0.3114 -0.7843 -0.8800
 8788WAT    EPW35860   2.415   5.607   3.461 -0.2891 -0.3890  0.4449
 8789WAT      O35861   2.784   7.904   2.795  0.6305  0.0161  0.2197
 8789WAT     H135862   2.847   7.867   2.843  0.0399 -0.7395  0.4422
 8789WAT     H235863   2.774   7.983   2.831  0.4290 -0.4130  1.1421
 8789WAT    EPW35864   2.792   7.910   2.808  0.0053  0.4668 -0.9951
 8790WAT      O35865   2.184   6.191   3.909  0.4118 -0.1627  0.1596
 8790WAT     H135866   2.196   6.106   3.927  1.4707 -0.8218 -2.9571
 8790WAT     H235867   2.256   6.229   3.940  0.3585 -0.5477  0.7692
 8790WAT    EPW35868   2.196   6.184   3.916  0.0165 -0.0937 -0.4701
 8791WAT      O35869   2.843   5.621   3.165  0.1412 -0.6727  0.2851
 8791WAT     H135870   2.920   5.660   3.150  0.7476 -1.3975  1.3732
 8791WAT     H235871   2.813   5.662   3.236  0.8412 -2.1855  1.5146
 8791WAT    EPW35872   2.850   5.633   3.174 -0.2454 -0.1675  0.6793
 8792WAT      O35873   2.782   7.490   3.178 -0.1348 -0.3536  0.3078
 8792WAT     H135874   2.816   7.433   3.236  1.3573 -0.8132 -0.9617
 8792WAT     H235875   2.722   7.532   3.225 -0.0926 -1.7980  1.7672
 8792WAT    EPW35876   2.778   7.488   3.194 -0.1039  0.4509  0.4007
 8793WAT      O35877   1.853   7.734   2.662  0.5884 -0.0455  0.0224
 8793WAT     H135878   1.791   7.720   2.723  0.2114  1.4120  0.0044
 8793WAT     H235879   1.901   7.798   2.696  1.1041 -0.0476 -0.6863
 8793WAT    EPW35880   1.851   7.741   2.676 -0.5739 -0.4593  0.1247
 8794WAT      O35881   3.455   7.090   3.077 -0.8140 -0.4403  0.1357
 8794WAT     H135882   3.532   7.118   3.105 -0.8731  0.3436 -0.4605
 8794WAT     H235883   3.417   7.058   3.149  0.3695 -1.5779  0.2941
 8794WAT    EPW35884   3.460   7.089   3.091  0.3166 -1.0719  1.1995
 8795WAT      O35885   1.250   5.977   3.507  0.5459 -0.3291  0.5946
 8795WAT     H135886   1.271   5.959   3.425  1.3004  1.2427  0.3915
 8795WAT     H235887   1.322   5.956   3.552 -0.4624 -2.8895  1.1837
 8795WAT    EPW35888   1.264   5.971   3.502  0.2333 -0.3490  0.0500
 8796WAT      O35889   1.945   7.357   1.761  0.1812 -0.5667 -0.1851
 8796WAT     H135890   2.017   7.397   1.789 -1.8954  2.1895  1.7602
 8796WAT     H235891   1.930   7.395   1.684  0.4637 -0.7077 -0.3118
 8796WAT    EPW35892   1.953   7.369   1.754  0.2080 -0.4333  0.7521
 8797WAT      O35893   1.784   7.408   3.422  0.6340  0.4003 -0.1824
 8797WAT     H135894   1.844   7.429   3.363  0.5028 -1.7008 -1.1559
 8797WAT     H235895   1.709   7.435   3.386  0.4665 -1.5020 -1.4216
 8797WAT    EPW35896   1.782   7.415   3.408  0.8140 -0.0366 -0.3932
 8798WAT      O35897   2.836   5.841   2.707 -0.1190 -0.2621 -0.0753
 8798WAT     H135898   2.838   5.762   2.743 -0.5116 -0.8522 -1.2941
 8798WAT     H235899   2.767   5.880   2.744 -0.8561 -1.0610 -0.5739
 8798WAT    EPW35900   2.826   5.835   2.717  0.4940  0.2909 -0.2543
 8799WAT      O35901   2.057   6.798   1.574  0.3182  0.1578  0.4133
 8799WAT     H135902   2.076   6.754   1.501 -1.9996  2.2474 -1.6519
 8799WAT     H235903   2.010   6.741   1.621  1.1466 -0.9488 -0.0414
 8799WAT    EPW35904   2.053   6.783   1.570  0.0866 -0.9590 -0.1717
 8800WAT      O35905   2.236   7.150   3.065  0.1196 -0.1580  0.0463
 8800WAT     H135906   2.163   7.192   3.087  1.0663  2.1648 -0.9744
 8800WAT     H235907   2.218   7.120   2.984 -0.0404 -0.4858  0.1997
 8800WAT    EPW35908   2.222   7.152   3.056 -0.2867 -0.5369  0.3737
 8801WAT      O35909   1.527   5.070   1.942 -0.1133  0.0025 -0.7618
 8801WAT     H135910   1.591   5.020   1.973 -0.2851  2.1352  3.7572
 8801WAT     H235911   1.569   5.141   1.913 -0.2720 -0.2754 -1.7370
 8801WAT    EPW35912   1.543   5.073   1.942 -0.6439 -1.1406 -0.2578
 8802WAT      O35913   3.099   6.656   3.532  0.0891  0.0565  0.0505
 8802WAT     H135914   3.180   6.687   3.530  0.0496  0.2698  1.0108
 8802WAT     H235915   3.092   6.609   3.460  1.9049 -2.0127  1.1374
 8802WAT    EPW35916   3.110   6.654   3.521 -0.2774  0.4640 -0.1927
 8803WAT      O35917   2.849   5.598   4.172  0.1582  0.3812  0.1583
 8803WAT     H135918   2.776   5.644   4.167 -0.3354 -0.3109  0.7168
 8803WAT     H235919   2.910   5.651   4.139 -0.4307  1.3302  0.5592
 8803WAT    EPW35920   2.847   5.613   4.167 -0.2608  0.1838  0.0299
 8804WAT      O35921   3.057   0.072   4.466  0.2176  0.1573  0.2275
 8804WAT     H135922   3.141   0.093   4.456  0.0250  0.8504  0.0314
 8804WAT     H235923   3.061  -0.006   4.505  0.9512 -0.0787 -0.2898
 8804WAT    EPW35924   3.070   0.064   4.470  0.1870 -0.9459  0.2470
 8805WAT      O35925   1.170   6.239   3.441 -0.1944 -0.0770  0.2389
 8805WAT     H135926   1.083   6.239   3.433 -0.2163 -0.2747  0.4512
 8805WAT     H235927   1.189   6.154   3.450  0.1382 -0.1455 -0.9991
 8805WAT    EPW35928   1.160   6.226   3.441  0.1612 -0.1305  0.6726
 8806WAT      O35929   2.459   7.731   2.643  0.4996  0.1426  0.3191
 8806WAT     H135930   2.391   7.679   2.661  0.6921 -0.2355 -0.0366
 8806WAT     H235931   2.522   7.676   2.621  1.3725  0.4002  2.0443
 8806WAT    EPW35932   2.458   7.716   2.642 -0.2527  0.2695 -0.2514
 8807WAT      O35933   0.610   6.057   4.279 -0.1198  0.1904  0.0224
 8807WAT     H135934   0.533   6.017   4.273  0.1844 -0.4919  0.5271
 8807WAT     H235935   0.651   6.013   4.343  0.7699  0.3962 -0.3882
 8807WAT    EPW35936   0.605   6.044   4.287 -0.6098  0.1584 -0.1380
 8808WAT      O35937   2.926   6.880   3.473  0.2761  0.0600 -0.1564
 8808WAT     H135938   2.980   6.814   3.493 -0.1359 -0.0895  0.4897
 8808WAT     H235939   2.973   6.928   3.418  0.4406 -0.9796 -0.9617
 8808WAT    EPW35940   2.941   6.877   3.468  0.4240  0.3962  0.3176
 8809WAT      O35941   2.645   6.451   3.514  0.2937  0.1613  0.2861
 8809WAT     H135942   2.690   6.428   3.443 -2.4702 -1.2959 -1.1270
 8809WAT     H235943   2.684   6.407   3.579  0.8152 -1.1426 -0.8813
 8809WAT    EPW35944   2.657   6.441   3.513  0.1152 -0.6504  0.3424
 8810WAT      O35945   2.683   6.468   3.028 -0.5606  0.4837  0.1860
 8810WAT     H135946   2.668   6.553   3.044 -0.1804  0.5519  0.1710
 8810WAT     H235947   2.761   6.468   2.990  0.8222 -0.1084  2.7734
 8810WAT    EPW35948   2.692   6.481   3.025  0.1728 -0.9868  0.8080
 8811WAT      O35949   4.682   0.255   2.402 -0.3671 -0.0538 -0.0446
 8811WAT     H135950   4.763   0.266   2.370 -1.2644  1.9748 -1.8771
 8811WAT     H235951   4.631   0.296   2.344 -2.7742 -1.4801  0.9117
 8811WAT    EPW35952   4.686   0.263   2.389  0.7826 -0.2344 -0.1260
 8812WAT      O35953   2.383   7.573   3.351 -0.3649  0.3932  0.3452
 8812WAT     H135954   2.465   7.595   3.329  0.5646 -2.7949  0.1148
 8812WAT     H235955   2.337   7.591   3.279  0.8617 -1.0166 -0.8620
 8812WAT    EPW35956   2.388   7.579   3.337  0.5485 -0.7530  0.5794
 8813WAT      O35957   3.636   0.282   4.303 -0.0758 -0.3932 -0.2896
 8813WAT     H135958   3.615   0.359   4.268 -0.8976  0.4348  1.8986
 8813WAT     H235959   3.722   0.289   4.318 -0.2332  0.3087  0.3390
 8813WAT    EPW35960   3.646   0.295   4.300 -0.1060 -0.2698 -0.4002
 8814WAT      O35961   1.888   6.201   3.277 -0.3666  0.4068 -0.0542
 8814WAT     H135962   1.892   6.116   3.293 -2.0898  0.5976  1.6381
 8814WAT     H235963   1.956   6.215   3.224  0.5361 -1.8254  0.4264
 8814WAT    EPW35964   1.899   6.191   3.271 -0.1226 -0.8275  0.1498
 8815WAT      O35965   3.093   7.865   4.102 -0.0582  0.6112 -0.2310
 8815WAT     H135966   3.080   7.944   4.137 -3.9875  0.5841 -1.1719
 8815WAT     H235967   3.065   7.811   4.164  0.1546  0.0997 -0.5769
 8815WAT    EPW35968   3.087   7.869   4.116 -0.4946  0.0163  0.0558
 8816WAT      O35969   0.212   7.573   3.622 -0.3679  0.3501  0.4465
 8816WAT     H135970   0.169   7.609   3.689 -2.6903  0.3742 -0.9297
 8816WAT     H235971   0.233   7.494   3.652 -0.6036  0.6646  1.4919
 8816WAT    EPW35972   0.209   7.566   3.636  0.2886 -0.4059 -0.7965
 8817WAT      O35973   1.486   7.540   3.635 -0.6500 -0.0360 -0.2548
 8817WAT     H135974   1.456   7.458   3.642 -1.4490  0.1328 -1.5370
 8817WAT     H235975   1.527   7.553   3.711  0.4001 -1.9915 -0.4252
 8817WAT    EPW35976   1.488   7.530   3.647 -0.8688 -0.1122  0.0134
 8818WAT      O35977   1.671   7.517   4.295  0.0016 -0.3290  0.4867
 8818WAT     H135978   1.715   7.588   4.316  0.9582 -0.6842 -0.2525
 8818WAT     H235979   1.601   7.548   4.252  1.1327  0.1407 -1.1129
 8818WAT    EPW35980   1.667   7.532   4.292  0.6061  0.6501 -0.4887
 8819WAT      O35981   1.920   6.097   4.009  0.2305 -0.2085 -0.2683
 8819WAT     H135982   1.991   6.143   3.988 -0.0279  0.2836 -0.1074
 8819WAT     H235983   1.855   6.154   3.995 -0.1783 -0.8212 -0.9266
 8819WAT    EPW35984   1.921   6.112   4.004  1.0664 -1.1439 -0.9932
 8820WAT      O35985   2.638   7.217   3.864  0.3484  0.2124  0.4913
 8820WAT     H135986   2.669   7.298   3.851  1.0839 -0.1633 -0.2005
 8820WAT     H235987   2.592   7.201   3.791  0.8465 -0.2758  0.2807
 8820WAT    EPW35988   2.636   7.227   3.851 -0.8315  0.1861 -1.2092
 8821WAT      O35989   3.852   6.676   4.225  0.1754 -0.0258  0.0454
 8821WAT     H135990   3.892   6.691   4.301 -2.9505  0.0595  1.8461
 8821WAT     H235991   3.858   6.589   4.216  0.3308 -0.0718  0.5317
 8821WAT    EPW35992   3.859   6.665   4.235 -0.6074  1.0787 -1.1411
 8822WAT      O35993   2.695   7.192   2.009 -0.3335 -0.6808  0.3808
 8822WAT     H135994   2.781   7.177   2.009  0.1294  1.3821  2.2411
 8822WAT     H235995   2.668   7.161   1.932  1.8455 -2.4762  0.2620
 8822WAT    EPW35996   2.704   7.185   1.997 -0.7829  0.1483 -0.0815
 8823WAT      O35997   1.630   6.696   2.667 -0.3626 -0.4902 -0.2339
 8823WAT     H135998   1.592   6.631   2.711 -1.2887  0.4826  0.4650
 8823WAT     H235999   1.565   6.731   2.621  0.4166 -0.9148 -1.7034
 8823WAT    EPW36000   1.615   6.692   2.667  0.4295 -0.4164  0.3702
 8824WAT      O36001   2.974   5.868   3.848  0.0790  0.5282 -0.0847
 8824WAT     H136002   2.889   5.848   3.843  0.1571  0.5461 -2.6417
 8824WAT     H236003   2.975   5.955   3.847  0.1066  0.6243  2.2749
 8824WAT    EPW36004   2.962   5.878   3.847  0.2258  0.0728  0.5133
 8825WAT      O36005   2.545   6.767   2.833 -0.3258 -0.3348 -0.6366
 8825WAT     H136006   2.482   6.707   2.847 -0.8275 -0.0290 -1.4690
 8825WAT     H236007   2.509   6.820   2.774  0.4093  0.3471 -0.4847
 8825WAT    EPW36008   2.530   6.766   2.826  0.7605  0.5825 -0.4454
 8826WAT      O36009   2.723   6.632   2.695 -0.3600 -0.1119  0.4552
 8826WAT     H136010   2.665   6.681   2.739 -0.0606 -0.8720  1.7439
 8826WAT     H236011   2.743   6.682   2.625 -0.2325  1.5076  1.5844
 8826WAT    EPW36012   2.717   6.647   2.691 -0.1071 -0.4123  0.9068
 8827WAT      O36013   4.011   1.714   2.969  0.1807  0.2361  0.8299
 8827WAT     H136014   3.995   1.631   2.949  0.5991  0.3178  0.1336
 8827WAT     H236015   4.074   1.737   2.913 -2.5496  2.1837 -1.7381
 8827WAT    EPW36016   4.018   1.705   2.958  0.7728  0.3087 -0.4937
 8828WAT      O36017   1.719   7.093   3.784  0.0809 -0.1592  0.1064
 8828WAT     H136018   1.727   7.093   3.697 -1.7600 -1.5253 -0.1363
 8828WAT     H236019   1.799   7.074   3.812  1.0354  1.6374 -1.1935
 8828WAT    EPW36020   1.732   7.090   3.775  0.3768 -0.2803 -0.1949
 8829WAT      O36021   1.669   8.023   2.517 -0.7325 -0.1766  0.0708
 8829WAT     H136022   1.693   8.063   2.443  2.8430 -2.8852 -0.4844
 8829WAT     H236023   1.724   8.056   2.577 -0.8838 -0.9078  0.6255
 8829WAT    EPW36024   1.681   8.034   2.515  0.7221 -0.2386 -0.0466
 8830WAT      O36025   2.934   1.820   2.616  0.3799  0.7925 -0.2964
 8830WAT     H136026   3.014   1.790   2.631 -0.0341 -1.1168 -1.5926
 8830WAT     H236027   2.948   1.894   2.571  1.3911  1.0708  0.4425
 8830WAT    EPW36028   2.948   1.827   2.612  0.7214  0.0001  0.4286
 8831WAT      O36029   2.784   6.803   2.474 -0.1316 -1.1427  0.8859
 8831WAT     H136030   2.699   6.812   2.457  0.2860  1.2197 -0.2998
 8831WAT     H236031   2.810   6.745   2.414 -0.4090  0.2515 -0.6264
 8831WAT    EPW36032   2.775   6.796   2.463  0.0816  0.7272  0.0698
 8832WAT      O36033   1.473   0.383   3.596 -0.3398 -0.1995 -0.6208
 8832WAT     H136034   1.460   0.394   3.510  1.0531 -1.8686 -1.1104
 8832WAT     H236035   1.558   0.364   3.601 -0.4134 -0.1814  1.1350
 8832WAT    EPW36036   1.484   0.381   3.584  0.1426 -0.4601  0.2219
 8833WAT      O36037   1.416   6.930   2.941  0.1114  0.0312 -0.3710
 8833WAT     H136038   1.480   6.894   2.988 -0.6766 -0.6377  0.2343
 8833WAT     H236039   1.408   7.010   2.975  0.3894 -0.0069 -0.2129
 8833WAT    EPW36040   1.424   6.937   2.953 -0.3228  0.8265  0.8582
 8834WAT      O36041   3.042   7.287   2.554  0.1496 -0.5063 -0.0049
 8834WAT     H136042   3.029   7.201   2.542 -2.5327 -0.1731 -0.0082
 8834WAT     H236043   2.980   7.309   2.611  0.6782  1.4853 -0.1425
 8834WAT    EPW36044   3.031   7.277   2.561  0.1871 -1.0542 -1.1184
 8835WAT      O36045   1.795   6.691   3.959  0.3540 -0.0234  0.1172
 8835WAT     H136046   1.757   6.653   3.890  1.9176 -0.9673 -0.2845
 8835WAT     H236047   1.731   6.692   4.019  0.0086 -2.7950 -0.0543
 8835WAT    EPW36048   1.780   6.685   3.958 -0.0475 -0.8058 -0.4624
 8836WAT      O36049   2.632   7.977   4.652  0.0167  0.1118  0.4144
 8836WAT     H136050   2.711   7.959   4.686  2.1483  3.9255 -1.8114
 8836WAT     H236051   2.628   7.924   4.582  0.5732 -0.1972  0.6073
 8836WAT    EPW36052   2.643   7.966   4.646 -0.6219 -0.1100 -0.8834
 8837WAT      O36053   1.629   7.583   2.789  0.4934 -0.0345 -0.0910
 8837WAT     H136054   1.592   7.519   2.743  3.1719 -1.2726 -0.6752
 8837WAT     H236055   1.588   7.655   2.760 -1.0507 -1.2212 -1.0284
 8837WAT    EPW36056   1.617   7.584   2.778 -0.4261  0.9112 -0.5078
 8838WAT      O36057   2.276   7.054   3.559 -0.1996 -0.0049 -0.5066
 8838WAT     H136058   2.283   7.047   3.472 -0.1332 -1.8982 -0.3802
 8838WAT     H236059   2.196   7.024   3.575 -0.5010  1.0327  0.0531
 8838WAT    EPW36060   2.265   7.049   3.549  0.2368  0.4009 -0.1758
 8839WAT      O36061   2.874   7.663   2.364  0.0450  0.1149 -0.8180
 8839WAT     H136062   2.927   7.594   2.357  0.3466  0.5363 -3.2607
 8839WAT     H236063   2.803   7.629   2.402  0.9356 -1.0610 -0.1067
 8839WAT    EPW36064   2.871   7.647   2.369  0.1277  0.6611  0.3514
 8840WAT      O36065   3.976   7.058   3.677  0.3808  0.4704 -0.2679
 8840WAT     H136066   3.963   7.101   3.603 -0.0081  2.4004  0.8625
 8840WAT     H236067   3.898   7.059   3.716  1.1419  1.8502  1.3368
 8840WAT    EPW36068   3.963   7.064   3.672 -0.0397 -0.1335 -0.0932
 8841WAT      O36069   2.415   7.994   2.545 -0.2288 -0.1238 -0.6100
 8841WAT     H136070   2.461   7.985   2.471 -1.4697 -0.3626 -1.3831
 8841WAT     H236071   2.436   7.922   2.590 -0.4601 -0.6549 -1.3176
 8841WAT    EPW36072   2.425   7.982   2.541 -1.5020 -0.5253 -0.2033
 8842WAT      O36073   3.891   7.612   5.276  0.1775 -0.0575 -0.5684
 8842WAT     H136074   3.928   7.538   5.249 -0.2159 -0.4221 -0.1283
 8842WAT     H236075   3.806   7.595   5.272 -0.0225  1.1516 -2.6655
 8842WAT    EPW36076   3.884   7.598   5.272 -0.0164 -0.9135  0.1736
 8843WAT      O36077   0.482   7.493   3.445  0.4025  0.1842 -0.3084
 8843WAT     H136078   0.552   7.455   3.480  1.7207  1.8216 -1.0369
 8843WAT     H236079   0.438   7.523   3.514  1.9056  1.5799  0.1025
 8843WAT    EPW36080   0.485   7.492   3.460 -0.3527 -0.7173 -0.3592
 8844WAT      O36081   1.983   7.329   3.052 -0.0012  0.1304  0.3121
 8844WAT     H136082   1.997   7.372   2.977 -0.4800 -1.0404 -0.4828
 8844WAT     H236083   2.001   7.388   3.113  0.3151  1.1511 -0.7272
 8844WAT    EPW36084   1.988   7.344   3.050 -0.5727  1.3972  0.0473
 8845WAT      O36085   2.988   7.250   3.723  0.0075 -0.2383  0.4615
 8845WAT     H136086   2.933   7.203   3.675  0.7493 -1.5786  0.8846
 8845WAT     H236087   2.988   7.210   3.800  0.9754  0.2032  0.7066
 8845WAT    EPW36088   2.980   7.237   3.727  1.1041 -0.2893 -1.0567
 8846WAT      O36089   3.148   7.951   2.166 -0.4190  0.4885  0.1247
 8846WAT     H136090   3.233   7.966   2.153 -0.5021 -0.3851 -1.7054
 8846WAT     H236091   3.140   7.955   2.253  1.9397 -1.6598  0.5736
 8846WAT    EPW36092   3.159   7.954   2.177 -0.0276  0.2365 -0.0497
 8847WAT      O36093   4.359   0.055   2.461 -0.1523  0.7890  0.0589
 8847WAT     H136094   4.341   0.135   2.489  1.2991  0.2933  2.6652
 8847WAT     H236095   4.444   0.057   2.442 -0.2842  0.0685 -0.7275
 8847WAT    EPW36096   4.369   0.067   2.462  0.8531 -0.5269 -0.5473
 8848WAT      O36097   3.691   6.784   4.904  0.0182  0.0295 -0.5949
 8848WAT     H136098   3.725   6.863   4.886 -0.3303  0.3816  0.2248
 8848WAT     H236099   3.664   6.756   4.826  2.4384 -0.4170 -1.3457
 8848WAT    EPW36100   3.692   6.792   4.890 -0.0921  0.6778  0.7778
 8849WAT      O36101   2.809   6.900   2.926  0.2635 -0.4941  0.6500
 8849WAT     H136102   2.725   6.920   2.913  0.4258 -0.6283 -0.7284
 8849WAT     H236103   2.806   6.828   2.974 -0.4596 -1.3658 -0.6446
 8849WAT    EPW36104   2.796   6.893   2.931  1.0913  0.1235 -0.1752
 8850WAT      O36105   2.407   5.330   3.951 -0.6063 -0.5524  0.2674
 8850WAT     H136106   2.332   5.316   3.910 -0.1361 -1.5015 -0.3131
 8850WAT     H236107   2.438   5.250   3.965  0.1542 -0.1829  0.7633
 8850WAT    EPW36108   2.401   5.316   3.947 -0.1674  0.2159 -0.3577
 8851WAT      O36109   3.741   7.208   4.322  0.7096  0.9551  0.1034
 8851WAT     H136110   3.683   7.233   4.382  1.1216 -0.8409  1.2959
 8851WAT     H236111   3.721   7.125   4.307  1.3778  1.0360 -1.3848
 8851WAT    EPW36112   3.730   7.200   4.329  0.9830  0.1739 -0.0853
 8852WAT      O36113   3.205   7.166   3.934 -0.0469  0.7644 -0.2390
 8852WAT     H136114   3.220   7.242   3.894 -1.1163  0.6988 -0.7851
 8852WAT     H236115   3.170   7.191   4.011  0.3889  0.8392 -0.0607
 8852WAT    EPW36116   3.202   7.181   3.940 -0.4633  0.1809  0.0190
 8853WAT      O36117   2.139   6.953   2.246  0.2696  0.4199 -0.1672
 8853WAT     H136118   2.057   6.949   2.274  0.2976  1.6061  0.1206
 8853WAT     H236119   2.175   7.015   2.296  1.3837 -0.2053 -0.1720
 8853WAT    EPW36120   2.132   6.962   2.257  0.3185 -0.0389 -0.1939
 8854WAT      O36121   1.493   0.213   3.144  0.7430 -0.0414 -0.3904
 8854WAT     H136122   1.508   0.208   3.058  0.3411  0.0381 -0.4693
 8854WAT     H236123   1.515   0.134   3.174 -0.0169 -0.3849 -0.7162
 8854WAT    EPW36124   1.498   0.200   3.136 -0.1278  0.6155 -0.2395
 8855WAT      O36125   0.660   5.609   3.899  0.9673 -0.0019  0.2297
 8855WAT     H136126   0.745   5.625   3.891  0.8162  0.1191 -1.3624
 8855WAT     H236127   0.623   5.664   3.842 -0.0264 -1.3968 -0.5408
 8855WAT    EPW36128   0.667   5.620   3.890  0.5108 -0.4919  0.4340
 8856WAT      O36129   2.390   7.602   4.648  0.7589  0.0200  0.2075
 8856WAT     H136130   2.463   7.584   4.693  1.4600  0.0083 -0.8987
 8856WAT     H236131   2.396   7.551   4.578 -0.6869 -0.5074  0.4392
 8856WAT    EPW36132   2.402   7.592   4.645 -0.2750 -0.5521 -0.0079
 8857WAT      O36133   2.342   7.868   3.738 -0.3374 -0.0927  0.1156
 8857WAT     H136134   2.374   7.949   3.737 -2.1156  0.6352 -0.2193
 8857WAT     H236135   2.337   7.849   3.824  0.0475  0.1556  0.1953
 8857WAT    EPW36136   2.346   7.877   3.751  0.7415 -0.3203 -0.2538
 8858WAT      O36137   2.622   7.313   3.429  0.3395 -0.1632 -0.3215
 8858WAT     H136138   2.583   7.282   3.501 -0.5239 -0.4706 -0.8961
 8858WAT     H236139   2.638   7.396   3.448 -2.2340  0.5014 -0.6540
 8858WAT    EPW36140   2.619   7.321   3.443  0.6311 -0.2267  0.0599
 8859WAT      O36141   2.109   5.598   2.897 -0.0994  0.2630  0.1812
 8859WAT     H136142   2.112   5.527   2.847 -1.5010  1.2959 -1.4808
 8859WAT     H236143   2.059   5.653   2.852 -1.1688  1.4061  2.5728
 8859WAT    EPW36144   2.102   5.596   2.883  0.3658  0.6757 -0.3154
 8860WAT      O36145   1.428   6.009   2.446  0.0680  0.6260  1.0988
 8860WAT     H136146   1.498   5.971   2.482  0.2196  1.4853  1.7394
 8860WAT     H236147   1.370   6.011   2.511 -0.1360  0.9497  0.9088
 8860WAT    EPW36148   1.430   6.004   2.461  0.0864  0.5873 -0.2624
 8861WAT      O36149   4.718   7.335   2.773  0.2163 -0.0256  0.0580
 8861WAT     H136150   4.740   7.394   2.834 -1.1556 -0.3056  0.8754
 8861WAT     H236151   4.668   7.278   2.817  1.2286 -1.6481 -0.7797
 8861WAT    EPW36152   4.714   7.335   2.789  0.8047  0.1688 -1.0485
 8862WAT      O36153   2.217   7.285   3.885 -0.4382  0.2527 -0.0353
 8862WAT     H136154   2.261   7.267   3.958  2.9258 -0.9078 -2.1016
 8862WAT     H236155   2.234   7.370   3.872  0.6312 -0.0103 -0.4344
 8862WAT    EPW36156   2.226   7.295   3.894  0.4457 -0.4536  0.3245
 8863WAT      O36157   1.113   6.527   2.823  0.1760 -0.1789 -0.1838
 8863WAT     H136158   1.032   6.502   2.799 -0.7857  1.9349  0.6017
 8863WAT     H236159   1.132   6.473   2.889 -1.0385 -0.0808  0.2742
 8863WAT    EPW36160   1.104   6.515   2.829  0.1797  0.2557  0.2107
 8864WAT      O36161   3.475   0.155   3.899  0.3176  0.0504 -0.0917
 8864WAT     H136162   3.519   0.209   3.847 -0.8062  1.4680  0.3845
 8864WAT     H236163   3.428   0.107   3.844  0.3697  0.4123 -0.4531
 8864WAT    EPW36164   3.475   0.156   3.884  0.4934 -0.6869 -0.4396
 8865WAT      O36165   2.291   0.129   3.208 -0.5317 -0.1456  0.0878
 8865WAT     H136166   2.330   0.054   3.227  1.4491 -0.1780 -3.3823
 8865WAT     H236167   2.242   0.110   3.139  1.0709  1.9142 -1.7431
 8865WAT    EPW36168   2.290   0.115   3.201  0.1268  0.4678 -0.2366
 8866WAT      O36169   3.561   0.195   5.037  0.4200  0.3013  0.1588
 8866WAT     H136170   3.534   0.271   5.004  1.3069  0.3093 -0.5814
 8866WAT     H236171   3.632   0.175   4.990 -0.1878 -1.3422 -0.1452
 8866WAT    EPW36172   3.568   0.203   5.025  0.7337  1.1452 -1.2941
 8867WAT      O36173   2.327   6.924   4.230 -0.2207  0.1878  0.7605
 8867WAT     H136174   2.266   6.862   4.235 -2.1974  2.0331  1.3932
 8867WAT     H236175   2.280   6.998   4.223  1.9622  1.4985 -2.8400
 8867WAT    EPW36176   2.311   6.926   4.230  0.9271  0.1254 -0.0099
 8868WAT      O36177   2.204   7.019   5.760 -0.9293  0.5977 -0.0618
 8868WAT     H136178   2.266   7.079   5.743 -1.2092  0.6758 -0.8582
 8868WAT     H236179   2.167   7.048   5.833  1.2765 -0.5057  1.6045
 8868WAT    EPW36180   2.208   7.032   5.768  0.9188 -0.3056  0.1519
 8869WAT      O36181   3.417  -0.000   2.146  0.1101 -0.4572  0.4334
 8869WAT     H136182   3.465   0.072   2.136  0.0681 -0.5520 -0.5993
 8869WAT     H236183   3.446  -0.052   2.082 -0.5329 -0.9720  0.5590
 8869WAT    EPW36184   3.428   0.003   2.135 -0.1523  0.1363 -0.2883
 8870WAT      O36185   3.019   5.354   5.127 -0.0849 -0.0778  0.5824
 8870WAT     H136186   3.083   5.313   5.083  1.0324 -0.0071  2.0558
 8870WAT     H236187   3.060   5.385   5.197 -0.7360  3.9368 -0.5449
 8870WAT    EPW36188   3.035   5.353   5.131 -0.0843  0.7430 -0.2071
 8871WAT      O36189   2.528   5.399   4.190  0.3166  0.4796 -0.2820
 8871WAT     H136190   2.515   5.411   4.104  3.1610 -0.5277 -0.9619
 8871WAT     H236191   2.613   5.382   4.195  0.0583 -0.3708  2.6755
 8871WAT    EPW36192   2.539   5.398   4.178  0.5294 -0.3098  0.2665
 8872WAT      O36193   2.499   7.812   2.904 -0.5164 -0.8537 -0.2528
 8872WAT     H136194   2.496   7.774   2.826 -0.9554 -0.0545 -0.6335
 8872WAT     H236195   2.583   7.834   2.913 -0.4437 -1.0549 -0.4495
 8872WAT    EPW36196   2.511   7.810   2.894 -0.2205  0.3400  0.2138
 8873WAT      O36197   1.917   7.472   2.818 -0.1619  0.0624  0.5231
 8873WAT     H136198   1.903   7.543   2.769 -0.7512 -1.5633 -1.8326
 8873WAT     H236199   1.836   7.447   2.840  0.0341 -0.0222  1.1615
 8873WAT    EPW36200   1.903   7.479   2.814  0.6163  0.3386  0.0457
 8874WAT      O36201   3.588   6.354   3.567  0.0021 -1.0075  0.1982
 8874WAT     H136202   3.598   6.269   3.547  1.2980 -0.9064  0.3507
 8874WAT     H236203   3.539   6.384   3.501 -0.0501 -1.7586 -0.1199
 8874WAT    EPW36204   3.582   6.346   3.554  0.6800 -0.1624  0.8354
 8875WAT      O36205   2.642   6.710   3.132 -0.7873  0.1165 -0.2140
 8875WAT     H136206   2.666   6.749   3.206  0.1677  1.5110 -1.1980
 8875WAT     H236207   2.563   6.745   3.116 -1.4011 -0.8539  0.5587
 8875WAT    EPW36208   2.634   6.721   3.141 -0.1773  0.8531  0.2161
 8876WAT      O36209   2.433   6.454   3.799 -0.1468 -0.4550  0.2437
 8876WAT     H136210   2.516   6.479   3.810  0.3718 -1.9733 -0.0104
 8876WAT     H236211   2.400   6.455   3.880 -0.4083  1.7224  0.1818
 8876WAT    EPW36212   2.440   6.458   3.813  0.4836  0.1570  0.1469
 8877WAT      O36213   3.922   7.150   3.428  0.4560  0.4742 -0.0638
 8877WAT     H136214   3.896   7.071   3.402 -1.7577  0.6025  1.4959
 8877WAT     H236215   3.986   7.170   3.371 -0.2296 -1.5840 -1.6981
 8877WAT    EPW36216   3.928   7.142   3.416  0.3536 -0.4247 -0.4839
 8878WAT      O36217   2.376   6.597   3.464 -0.1092 -0.1341 -0.2569
 8878WAT     H136218   2.447   6.546   3.473 -0.6927 -0.6100  2.3376
 8878WAT     H236219   2.403   6.674   3.495 -0.3350  0.0850 -0.6031
 8878WAT    EPW36220   2.391   6.600   3.470  0.5614  0.6833  0.3560
 8879WAT      O36221   1.175   6.150   4.745 -0.2826 -0.0555 -0.2277
 8879WAT     H136222   1.119   6.187   4.690 -2.6982  0.1121  2.1669
 8879WAT     H236223   1.153   6.065   4.744 -0.6099  0.0021  0.6876
 8879WAT    EPW36224   1.164   6.143   4.737 -0.4093 -0.1935  0.2384
 8880WAT      O36225   3.101   6.492   3.318  0.1965 -0.2302  0.0417
 8880WAT     H136226   3.060   6.415   3.310  1.5383 -0.9764  0.1813
 8880WAT     H236227   3.124   6.512   3.236 -2.4616  1.3987 -0.4418
 8880WAT    EPW36228   3.098   6.484   3.305 -0.5983  0.6245 -0.3130
 8881WAT      O36229   2.964   5.654   3.545 -0.1087  0.3140 -0.2181
 8881WAT     H136230   2.894   5.626   3.589 -1.7242  1.0265 -2.1491
 8881WAT     H236231   2.990   5.584   3.501  0.9019 -0.1449  1.0614
 8881WAT    EPW36232   2.957   5.640   3.545  0.5394  0.0921  0.4952
 8882WAT      O36233   3.913   0.547   3.428  0.0333  0.0496  0.0813
 8882WAT     H136234   3.846   0.601   3.409  0.0453 -0.4349 -1.4930
 8882WAT     H236235   3.983   0.599   3.425 -0.0249  0.0908 -0.7785
 8882WAT    EPW36236   3.913   0.563   3.424  0.8390 -1.2300 -0.5510
 8883WAT      O36237   2.059   5.506   3.167 -0.3075  0.3197 -0.6158
 8883WAT     H136238   2.065   5.545   3.089  1.3419  0.9993 -0.2008
 8883WAT     H236239   2.068   5.572   3.223 -1.4741 -0.1666  0.1663
 8883WAT    EPW36240   2.061   5.522   3.163  0.7566  1.0960 -1.5965
 8884WAT      O36241   1.487   5.647   3.386 -0.3405 -0.3853  0.1600
 8884WAT     H136242   1.517   5.648   3.468 -1.6821  1.0687  0.6744
 8884WAT     H236243   1.479   5.561   3.369  0.1143 -0.7270  1.4761
 8884WAT    EPW36244   1.490   5.634   3.396 -0.5079  0.5985 -0.7530
 8885WAT      O36245   2.846   6.245   2.850  0.2589 -0.4816  0.0415
 8885WAT     H136246   2.787   6.278   2.794 -0.4621  0.6405  1.3944
 8885WAT     H236247   2.799   6.195   2.903  0.5710  0.0697  0.8644
 8885WAT    EPW36248   2.831   6.243   2.849 -0.1316  0.7005  1.0235
 8886WAT      O36249   2.667   6.852   3.377  0.3062 -0.8831 -0.2234
 8886WAT     H136250   2.745   6.849   3.415  0.0236 -0.1324  0.4501
 8886WAT     H236251   2.612   6.852   3.445 -0.2426 -0.4548 -0.6652
 8886WAT    EPW36252   2.670   6.851   3.393  0.1454 -0.2472 -0.2376
 8887WAT      O36253   1.099   6.501   4.320  0.3759 -0.5948  0.1223
 8887WAT     H136254   1.062   6.569   4.361 -0.5914 -1.3175  0.4889
 8887WAT     H236255   1.052   6.492   4.248 -0.1123 -1.4520  0.5329
 8887WAT    EPW36256   1.087   6.510   4.316  0.3267 -0.2825 -0.1485
 8888WAT      O36257   3.317   7.405   3.806 -0.8266 -0.8828  0.1500
 8888WAT     H136258   3.388   7.395   3.856 -0.9898 -0.7391  0.4106
 8888WAT     H236259   3.287   7.484   3.828 -0.9811 -0.8779 -0.0722
 8888WAT    EPW36260   3.323   7.415   3.816 -0.2678 -0.4138 -0.1874
 8889WAT      O36261   3.146   6.892   2.318  1.0263  0.7305 -0.0626
 8889WAT     H136262   3.095   6.904   2.249  2.0142  0.6112 -0.8296
 8889WAT     H236263   3.095   6.916   2.385 -0.6189 -0.9838 -0.6056
 8889WAT    EPW36264   3.131   6.897   2.318 -0.4283  0.1596 -0.4167
 8890WAT      O36265   1.199   6.896   3.545 -0.8421 -0.7323 -0.5165
 8890WAT     H136266   1.237   6.923   3.472 -0.2791 -0.8907 -0.2821
 8890WAT     H236267   1.166   6.818   3.523  1.7182 -2.0931  0.1353
 8890WAT    EPW36268   1.200   6.888   3.531 -0.0326 -0.1695 -0.4907
 8891WAT      O36269   2.469   6.294   3.084  0.1305  0.1025 -0.1779
 8891WAT     H136270   2.403   6.325   3.131 -0.1882  0.1250 -0.6427
 8891WAT     H236271   2.530   6.356   3.090  0.2867 -0.1134  0.6194
 8891WAT    EPW36272   2.468   6.307   3.092  0.3564 -1.1604 -0.2723
 8892WAT      O36273   2.010   6.325   3.764 -0.4603  0.2471  0.0436
 8892WAT     H136274   2.049   6.396   3.732 -0.6196  0.6177  0.6584
 8892WAT     H236275   2.074   6.283   3.806 -0.4454  0.2010 -0.0239
 8892WAT    EPW36276   2.025   6.329   3.766 -0.7719 -0.2050  0.5153
 8893WAT      O36277   1.354   5.665   4.380 -0.6630 -0.3558 -0.1252
 8893WAT     H136278   1.432   5.631   4.362 -0.6482  0.5759 -2.0734
 8893WAT     H236279   1.367   5.709   4.454  0.2090 -1.5244  0.4507
 8893WAT    EPW36280   1.367   5.666   4.389 -0.5162  0.3254 -0.0900
 8894WAT      O36281   3.285   7.860   3.877 -0.7079 -0.2213 -0.1983
 8894WAT     H136282   3.271   7.783   3.838 -0.1016 -0.4442  0.0172
 8894WAT     H236283   3.209   7.876   3.917 -0.6068 -1.0685  0.3664
 8894WAT    EPW36284   3.271   7.851   3.877  0.6905 -0.9452 -0.2190
 8895WAT      O36285   2.595   7.761   1.120  0.1874  0.1290  0.2165
 8895WAT     H136286   2.628   7.690   1.158  2.7124  0.9862 -0.2317
 8895WAT     H236287   2.586   7.736   1.036 -2.0841 -0.6323  0.6024
 8895WAT    EPW36288   2.598   7.747   1.113  0.9241  0.0462 -0.0389
 8896WAT      O36289   1.545   7.410   2.592 -0.6136 -0.1727  0.2541
 8896WAT     H136290   1.516   7.481   2.550  0.5447 -1.2858 -2.6698
 8896WAT     H236291   1.479   7.353   2.584 -0.1202 -0.6251 -0.7993
 8896WAT    EPW36292   1.531   7.412   2.585  0.5541  0.4522 -0.1805
 8897WAT      O36293   1.874   6.193   2.946 -0.3302  0.0168  0.2975
 8897WAT     H136294   1.796   6.176   2.982  0.1613 -0.1849  1.2969
 8897WAT     H236295   1.923   6.125   2.970  0.3523  0.5062  0.3054
 8897WAT    EPW36296   1.870   6.181   2.955  0.3665  0.3428  0.6177
 8898WAT      O36297   1.048   6.620   2.100 -0.4707 -0.3270 -0.1546
 8898WAT     H136298   1.016   6.542   2.077  0.3925 -0.3775 -1.2602
 8898WAT     H236299   1.016   6.632   2.180 -1.1879 -1.4975 -0.2390
 8898WAT    EPW36300   1.039   6.610   2.108  0.1551 -0.3472 -0.8181
 8899WAT      O36301   0.061   7.373   1.079  0.2111  0.2590 -0.0208
 8899WAT     H136302   0.142   7.402   1.062  1.6441 -2.4005  1.4742
 8899WAT     H236303   0.031   7.350   1.000  0.9195  1.2879 -0.6116
 8899WAT    EPW36304   0.069   7.374   1.065  0.2953 -0.1094 -0.1542
 8900WAT      O36305   2.061   6.781   2.873  0.1441  0.0352  0.6755
 8900WAT     H136306   2.046   6.835   2.806 -0.5853 -0.0269  0.7847
 8900WAT     H236307   2.128   6.818   2.914 -0.4806  0.9764  0.8655
 8900WAT    EPW36308   2.069   6.794   2.869  0.5759 -0.3346  0.8918
 8901WAT      O36309   2.018   7.877   2.042  0.5407  0.9497 -0.0330
 8901WAT     H136310   2.085   7.841   2.000  0.9864  1.2144  0.4380
 8901WAT     H236311   2.048   7.956   2.066  0.8604  0.2496  2.0967
 8901WAT    EPW36312   2.033   7.883   2.040  0.0676  0.2126  0.6823
 8902WAT      O36313   2.782   6.144   2.027  0.0939  0.0229 -0.1511
 8902WAT     H136314   2.788   6.143   2.114 -0.0424 -3.5021 -0.0625
 8902WAT     H236315   2.839   6.207   2.004 -0.0231  1.2292  2.4215
 8902WAT    EPW36316   2.791   6.153   2.036 -0.4884 -0.0384  0.2400
 8903WAT      O36317   0.872   7.115   2.567 -0.1528 -0.2025 -0.0478
 8903WAT     H136318   0.896   7.032   2.562  2.7559  0.5264 -0.0490
 8903WAT     H236319   0.901   7.140   2.646 -0.2235  1.0037 -0.3798
 8903WAT    EPW36320   0.880   7.107   2.578 -0.0483 -0.2707 -0.7645
 8904WAT      O36321   3.020   0.358   2.197 -0.1610  0.3336  0.0343
 8904WAT     H136322   3.040   0.316   2.271  1.3081 -0.3553 -0.7126
 8904WAT     H236323   2.934   0.344   2.189  0.0061 -1.3247  0.5798
 8904WAT    EPW36324   3.010   0.349   2.207  0.5869 -0.2414 -0.5185
 8905WAT      O36325   1.412   7.796   7.876  0.3999 -0.4156  0.1230
 8905WAT     H136326   1.332   7.823   7.900 -0.1093 -2.7858  1.4810
 8905WAT     H236327   1.409   7.797   7.789  1.5645  6.4785 -0.3474
 8905WAT    EPW36328   1.400   7.800   7.867  0.0857  0.6283  0.2396
 8906WAT      O36329   1.389   6.062   1.230 -0.3002  0.1777  0.1111
 8906WAT     H136330   1.388   5.985   1.189  2.3370  0.3465 -0.4649
 8906WAT     H236331   1.383   6.041   1.314 -1.5929 -0.4858 -0.1251
 8906WAT    EPW36332   1.388   6.047   1.236  0.7330  0.0992  0.3398
 8907WAT      O36333   0.455   7.088   1.108 -0.2961 -0.5337  0.5842
 8907WAT     H136334   0.517   7.102   1.168  0.9592 -1.3079 -0.4902
 8907WAT     H236335   0.457   7.160   1.059 -0.6037 -0.3404  0.8553
 8907WAT    EPW36336   0.465   7.101   1.110  0.6372 -0.7050 -0.4295
 8908WAT      O36337   1.656   6.180   1.227 -0.1024  0.9717  0.3180
 8908WAT     H136338   1.707   6.138   1.283 -1.7866  1.1726  2.1312
 8908WAT     H236339   1.584   6.130   1.223 -1.1354  2.3556  0.5709
 8908WAT    EPW36340   1.653   6.167   1.234  0.7984  0.9870  0.0572
 8909WAT      O36341   1.779   7.140   3.528 -0.0309  0.2719 -0.0110
 8909WAT     H136342   1.852   7.112   3.490  1.1217  1.1479  1.4332
 8909WAT     H236343   1.782   7.227   3.517 -1.4195  0.2314 -0.8614
 8909WAT    EPW36344   1.790   7.149   3.521  0.2240  0.0832 -0.5377
 8910WAT      O36345   0.446   6.707   1.409 -0.5987  0.1226  0.2806
 8910WAT     H136346   0.503   6.681   1.348 -0.3696 -0.8332  0.8875
 8910WAT     H236347   0.395   6.764   1.366  1.1948  1.5497 -0.1134
 8910WAT    EPW36348   0.447   6.712   1.394 -0.0296 -0.0346 -0.0484
 8911WAT      O36349   0.656   6.172   0.252  0.4571  0.0975 -0.2985
 8911WAT     H136350   0.712   6.210   0.198 -1.5761  1.3001 -1.6934
 8911WAT     H236351   0.611   6.118   0.201 -0.9267  0.5955  0.3332
 8911WAT    EPW36352   0.658   6.170   0.237  0.4623  0.1651 -0.3839
 8912WAT      O36353   1.890   6.525   1.418  0.7308  0.1217  0.5077
 8912WAT     H136354   1.810   6.499   1.393  0.9751 -2.8012  2.3400
 8912WAT     H236355   1.877   6.606   1.446 -0.8283  1.0417 -2.4260
 8912WAT    EPW36356   1.876   6.533   1.418  0.0926  0.2784 -0.5251
 8913WAT      O36357   0.495   6.421   3.934  0.0222  0.1733  0.0490
 8913WAT     H136358   0.420   6.419   3.890  0.4212  3.0504 -1.0337
 8913WAT     H236359   0.555   6.401   3.874  0.2058 -2.1262  0.9118
 8913WAT    EPW36360   0.493   6.418   3.919  0.3639  0.1991  0.0080
 8914WAT      O36361   2.425   6.520   2.857  0.3431 -0.8497  0.0997
 8914WAT     H136362   2.497   6.478   2.882  0.4468 -0.0217  1.2366
 8914WAT     H236363   2.361   6.464   2.877  0.6538 -1.6848 -1.1305
 8914WAT    EPW36364   2.426   6.505   2.864 -0.3214 -0.0292 -1.0738
 8915WAT      O36365   0.906   6.893   2.321 -0.0546 -0.3256 -0.0868
 8915WAT     H136366   0.991   6.911   2.332  0.5128 -1.3726 -2.2067
 8915WAT     H236367   0.891   6.917   2.238 -2.1758  0.9472  0.5799
 8915WAT    EPW36368   0.916   6.899   2.310 -0.6610  0.4738 -0.0341
 8916WAT      O36369   1.035   7.683   0.331  0.1668 -0.6935  0.4351
 8916WAT     H136370   1.020   7.608   0.373  0.9979 -0.7245  0.6992
 8916WAT     H236371   1.034   7.661   0.247 -2.8197 -0.4057  0.2867
 8916WAT    EPW36372   1.033   7.669   0.325 -0.1431  0.1930 -0.1522
 8917WAT      O36373   2.792   0.015   1.638 -0.3793 -0.4283 -0.5091
 8917WAT     H136374   2.851   0.054   1.588  0.6849 -0.8579  0.3858
 8917WAT     H236375   2.834  -0.054   1.671 -1.8305 -1.6592 -1.0734
 8917WAT    EPW36376   2.807   0.010   1.635  1.2672  0.2592 -0.4048
 8918WAT      O36377   0.693   8.032   3.197  0.0185 -0.0491 -0.4588
 8918WAT     H136378   0.770   8.068   3.182 -0.0063  1.3520  2.1583
 8918WAT     H236379   0.711   7.966   3.252 -0.5291 -0.3822 -0.6653
 8918WAT    EPW36380   0.707   8.027   3.203  0.4170 -0.6477  0.0336
 8919WAT      O36381   1.499   7.014   2.171 -0.0925  0.2819 -0.0712
 8919WAT     H136382   1.511   7.092   2.208 -1.0573  0.4735 -0.1230
 8919WAT     H236383   1.565   7.007   2.115  0.2307  0.8821  0.2328
 8919WAT    EPW36384   1.510   7.024   2.168 -0.2196  0.0792  0.6674
 8920WAT      O36385   1.047   7.595   1.567  0.0401  0.2116 -0.4223
 8920WAT     H136386   1.073   7.533   1.511  0.8195  0.0290  0.1177
 8920WAT     H236387   0.961   7.599   1.555 -0.1378 -1.4648 -0.0073
 8920WAT    EPW36388   1.038   7.586   1.557 -0.0636 -0.8675  0.5775
 8921WAT      O36389   1.720   1.030   2.423 -0.2231  0.4891 -0.4512
 8921WAT     H136390   1.661   1.003   2.482  0.2923  2.4164  1.0408
 8921WAT     H236391   1.688   0.999   2.348 -1.3756 -1.3159  0.6811
 8921WAT    EPW36392   1.706   1.021   2.421  0.1752  0.6984  0.0902
 8922WAT      O36393   1.049   6.966   0.733 -0.2042 -0.2549 -0.3538
 8922WAT     H136394   1.040   7.052   0.743  1.0498 -0.2214  0.9389
 8922WAT     H236395   1.008   6.933   0.803  0.8223 -0.5812  0.1209
 8922WAT    EPW36396   1.042   6.974   0.745 -0.1894 -0.9704 -0.4065
 8923WAT      O36397   1.026   7.181   0.059 -0.1242  0.2468  0.2867
 8923WAT     H136398   0.941   7.169   0.070 -0.1545 -0.6813 -0.7178
 8923WAT     H236399   1.032   7.265   0.035 -0.7009  0.4378  0.7891
 8923WAT    EPW36400   1.014   7.191   0.057 -1.7154 -0.2197 -0.3140
 8924WAT      O36401   1.694   6.448   0.592  0.0528 -0.2793 -0.1389
 8924WAT     H136402   1.622   6.477   0.552  1.1745  1.3814 -1.0478
 8924WAT     H236403   1.668   6.372   0.627 -2.4640  0.8262  0.6260
 8924WAT    EPW36404   1.679   6.441   0.591  0.3118 -0.0076 -0.6377
 8925WAT      O36405   0.292   7.414   2.109 -0.1913  0.1609  0.1863
 8925WAT     H136406   0.234   7.349   2.114 -0.5895  0.4421 -0.5271
 8925WAT     H236407   0.339   7.406   2.182  0.1509 -1.2812 -0.1663
 8925WAT    EPW36408   0.290   7.403   2.121 -0.3190 -0.7246  0.1044
 8926WAT      O36409   1.237   7.842   0.401 -0.1158  0.0809  0.9010
 8926WAT     H136410   1.268   7.822   0.481  0.7725  2.2413  1.1517
 8926WAT     H236411   1.185   7.774   0.383  1.3216 -1.5272  2.3792
 8926WAT    EPW36412   1.234   7.829   0.410  0.0366 -1.2158  0.2576
 8927WAT      O36413   1.782   6.909   7.720  0.2358 -0.4272  0.1863
 8927WAT     H136414   1.835   6.922   7.788  2.2942 -1.0475 -1.2068
 8927WAT     H236415   1.772   6.989   7.687  0.1327 -0.2731  0.5846
 8927WAT    EPW36416   1.788   6.923   7.725 -0.4718 -0.2825  0.2538
 8928WAT      O36417   2.770   0.215   2.232  0.1480  0.7109 -0.0147
 8928WAT     H136418   2.816   0.174   2.171 -0.7638 -0.2309 -0.1072
 8928WAT     H236419   2.783   0.166   2.303 -2.2569 -0.8035 -0.4973
 8928WAT    EPW36420   2.779   0.201   2.234  0.1903  0.2726 -0.0895
 8929WAT      O36421   1.885   7.097   0.600 -0.5054  0.6617 -0.8386
 8929WAT     H136422   1.929   7.171   0.613  0.0458  0.5351 -1.8570
 8929WAT     H236423   1.889   7.057   0.677 -1.5079  2.0385 -0.0265
 8929WAT    EPW36424   1.892   7.102   0.613  0.2796  0.3776 -0.3299
 8930WAT      O36425   1.157   7.768   3.317 -0.1344 -0.3292  0.2287
 8930WAT     H136426   1.135   7.835   3.369 -0.1163 -1.0211  1.1581
 8930WAT     H236427   1.172   7.703   3.373 -1.6616 -1.5749 -0.7036
 8930WAT    EPW36428   1.156   7.768   3.333  0.6849 -0.0845  0.2017
 8931WAT      O36429   2.564   1.493   0.973 -0.3732  0.8324  0.3817
 8931WAT     H136430   2.556   1.426   1.028 -1.2831  0.1696 -0.5140
 8931WAT     H236431   2.511   1.472   0.907  0.2321  1.8799 -0.4806
 8931WAT    EPW36432   2.555   1.480   0.971  0.0868 -0.1063 -1.0651
 8932WAT      O36433   2.555   6.567   0.579 -0.1442 -0.7177 -0.1092
 8932WAT     H136434   2.501   6.539   0.517  0.7437 -0.1626 -1.1575
 8932WAT     H236435   2.515   6.638   0.611 -1.0096 -1.4786  0.5818
 8932WAT    EPW36436   2.541   6.573   0.575  0.4685  0.2952 -0.3817
 8933WAT      O36437   1.553   6.903   1.746  0.4280 -0.0892  0.3214
 8933WAT     H136438   1.586   6.957   1.806  0.2301  0.9746 -0.4940
 8933WAT     H236439   1.591   6.930   1.672 -1.8401  0.8313 -0.5687
 8933WAT    EPW36440   1.564   6.915   1.744 -0.0530 -0.4867  0.4711
 8934WAT      O36441   4.475   8.018   2.940 -1.0151 -0.0975 -0.2475
 8934WAT     H136442   4.511   7.963   2.883 -3.0597  0.4873 -2.2102
 8934WAT     H236443   4.543   8.065   2.968  0.2487 -1.3192 -1.1316
 8934WAT    EPW36444   4.491   8.017   2.936 -0.3412 -0.4779 -0.9184
 8935WAT      O36445   0.844   7.231   2.171 -0.3836 -0.4286 -0.4114
 8935WAT     H136446   0.766   7.192   2.181 -0.4553 -0.2286 -0.1861
 8935WAT     H236447   0.843   7.257   2.087  1.7182 -5.4365 -2.4066
 8935WAT    EPW36448   0.832   7.229   2.160 -0.4902 -0.5526  0.0315
 8936WAT      O36449   0.937   7.044   0.475  0.2239  0.0930  0.2417
 8936WAT     H136450   0.862   7.068   0.514  0.3624  0.6210  0.1818
 8936WAT     H236451   0.990   7.028   0.543  0.3508  0.6549  0.2810
 8936WAT    EPW36452   0.933   7.045   0.491  0.2218  0.2937 -0.3617
 8937WAT      O36453   0.826   7.854   0.440 -0.1780  0.0787 -0.9447
 8937WAT     H136454   0.906   7.824   0.424  0.7711  2.4389 -1.0708
 8937WAT     H236455   0.819   7.851   0.527  0.2036  0.1854 -0.9101
 8937WAT    EPW36456   0.837   7.849   0.451 -0.5697  0.8746 -0.8433
 8938WAT      O36457   0.106   0.112   1.294  0.4103 -0.2125  0.0346
 8938WAT     H136458   0.021   0.095   1.301  0.4773 -0.4327  0.3415
 8938WAT     H236459   0.119   0.118   1.208 -0.0646  0.5946  0.0096
 8938WAT    EPW36460   0.095   0.110   1.283 -0.7724 -0.8601  0.4865
 8939WAT      O36461   2.004   7.502   3.284  0.4967 -0.3310  0.3073
 8939WAT     H136462   2.077   7.463   3.310  0.3806 -1.7084 -1.2388
 8939WAT     H236463   2.027   7.586   3.276  0.9319 -0.1066  3.1244
 8939WAT    EPW36464   2.018   7.508   3.286 -0.5711  0.7171 -0.8019
 8940WAT      O36465   0.873   7.621   2.545 -0.4370  0.4338  0.4486
 8940WAT     H136466   0.912   7.563   2.597 -0.3444  0.1415  0.0477
 8940WAT     H236467   0.841   7.573   2.480 -1.4491  0.6659  0.7558
 8940WAT    EPW36468   0.874   7.605   2.543 -0.3341 -0.2398 -0.2054
 8941WAT      O36469   1.515   7.658   2.026 -0.2263  0.0642 -0.0282
 8941WAT     H136470   1.447   7.698   1.989 -0.6285 -1.6553 -1.3266
 8941WAT     H236471   1.582   7.711   2.010 -0.7454  0.3056 -1.6072
 8941WAT    EPW36472   1.515   7.672   2.018 -1.0920  0.8178 -0.1687
 8942WAT      O36473   0.345   0.101   0.797  0.3274  0.3863 -0.0075
 8942WAT     H136474   0.293   0.064   0.737  0.5025 -0.0819  0.1250
 8942WAT     H236475   0.410   0.043   0.805  1.6235  1.6022 -1.2063
 8942WAT    EPW36476   0.347   0.087   0.789  0.7083  0.0119  0.0780
 8943WAT      O36477   1.650   0.364   2.392 -0.0664 -0.1315  0.0279
 8943WAT     H136478   1.619   0.327   2.465 -0.8395  1.2859  0.4694
 8943WAT     H236479   1.730   0.392   2.416 -0.3536  0.4115  0.3843
 8943WAT    EPW36480   1.657   0.363   2.407 -0.0030 -0.5726 -0.0956
 8944WAT      O36481   2.456   6.443   2.341  0.1791 -0.5355  0.2079
 8944WAT     H136482   2.443   6.496   2.409 -1.0174  0.0168 -0.4280
 8944WAT     H236483   2.468   6.365   2.378  1.2649  0.0389  1.1246
 8944WAT    EPW36484   2.456   6.439   2.357 -0.2090  0.6725 -0.3865
 8945WAT      O36485   1.675   7.034   1.548  0.4829  0.0050 -0.2762
 8945WAT     H136486   1.754   7.068   1.558 -0.1398  1.2805  0.5906
 8945WAT     H236487   1.632   7.092   1.499 -0.2820 -0.0374  0.3155
 8945WAT    EPW36488   1.680   7.047   1.543 -0.3056 -0.0472 -0.7134
 8946WAT      O36489   2.386   0.846   1.899  0.0396 -0.1951  0.5088
 8946WAT     H136490   2.302   0.825   1.903 -0.3278  1.2771  1.1197
 8946WAT     H236491   2.417   0.823   1.977 -0.0576  0.2477  0.6828
 8946WAT    EPW36492   2.378   0.839   1.911 -0.1428 -0.4434  0.0333
 8947WAT      O36493   2.383   7.953   1.501 -0.2265 -0.4446  0.3503
 8947WAT     H136494   2.456   7.917   1.533 -0.3083  0.2902  1.4277
 8947WAT     H236495   2.367   7.907   1.429  2.0589  0.2337 -0.6922
 8947WAT    EPW36496   2.392   7.941   1.495  1.3205 -0.2552 -1.1323
 8948WAT      O36497   1.006   7.569   0.700  0.1974  0.1659  0.5249
 8948WAT     H136498   1.079   7.529   0.724 -0.2058 -0.7314  0.3001
 8948WAT     H236499   0.945   7.535   0.752 -0.5205 -1.1131 -1.0469
 8948WAT    EPW36500   1.008   7.558   0.711 -0.0129  0.1759 -0.3632
 8949WAT      O36501   0.795   7.828   0.177  0.4028 -0.3528 -0.1452
 8949WAT     H136502   0.848   7.765   0.146 -0.7031 -1.3984  0.0008
 8949WAT     H236503   0.811   7.827   0.263 -0.4724 -1.3165  0.0309
 8949WAT    EPW36504   0.805   7.818   0.185  0.8973  0.6757 -0.2652
 8950WAT      O36505   2.883   0.730   1.222  0.0794  0.4861 -0.0239
 8950WAT     H136506   2.816   0.785   1.233  1.5812  2.5841 -0.6880
 8950WAT     H236507   2.897   0.732   1.136  0.7081 -0.2674  0.0551
 8950WAT    EPW36508   2.875   0.738   1.211  0.0961  0.8740  0.0967
 8951WAT      O36509   2.861   6.378   2.515  0.1714 -0.1596 -0.1539
 8951WAT     H136510   2.830   6.300   2.495 -0.5737  0.3841 -1.2103
 8951WAT     H236511   2.931   6.360   2.564 -0.2643 -1.4589  0.0308
 8951WAT    EPW36512   2.867   6.364   2.519 -0.2260 -0.0310 -0.3037
 8952WAT      O36513   2.121   0.197   1.589 -0.0741 -0.1723  0.0126
 8952WAT     H136514   2.206   0.194   1.604 -0.3308 -1.1504  1.4336
 8952WAT     H236515   2.088   0.137   1.643 -1.7802  0.9904  0.3395
 8952WAT    EPW36516   2.128   0.188   1.599 -0.5709  0.5587  0.1450
 8953WAT      O36517   2.847   7.649   1.455  0.0125  0.7612 -0.1731
 8953WAT     H136518   2.933   7.639   1.465 -0.0180 -0.0854 -0.6322
 8953WAT     H236519   2.816   7.568   1.466 -0.6015  0.8544 -1.1548
 8953WAT    EPW36520   2.855   7.635   1.458  0.0489  0.3458  0.0948
 8954WAT      O36521   1.794   6.542   7.147  0.1793 -0.5033  0.3358
 8954WAT     H136522   1.800   6.499   7.072 -0.2358 -0.5091  0.3037
 8954WAT     H236523   1.723   6.591   7.137 -1.4514 -2.4265  1.6683
 8954WAT    EPW36524   1.785   6.543   7.135 -0.1992 -0.1221 -0.2165
 8955WAT      O36525   1.067   0.064   0.394 -0.2396 -0.0276 -0.6611
 8955WAT     H136526   1.125  -0.000   0.408  1.7207  1.7284 -0.2142
 8955WAT     H236527   1.039   0.048   0.312  1.5405 -0.4734 -1.2420
 8955WAT    EPW36528   1.071   0.052   0.384  0.6099  0.2611  1.0059
 8956WAT      O36529   0.062   6.913   0.678  0.2684  0.7833  0.4532
 8956WAT     H136530   0.024   6.839   0.707 -1.9612  1.2734 -0.9739
 8956WAT     H236531   0.060   6.904   0.591  0.3892  2.3302  0.2682
 8956WAT    EPW36532   0.056   6.901   0.669 -0.2394  0.2437 -0.2475
 8957WAT      O36533   0.897   6.732   0.931 -0.6493  0.0665  0.5722
 8957WAT     H136534   0.813   6.755   0.922 -0.9978 -1.0250  0.8182
 8957WAT     H236535   0.892   6.655   0.973  0.3954 -0.7811 -0.7828
 8957WAT    EPW36536   0.884   6.724   0.936 -0.4866 -0.3365  0.1021
 8958WAT      O36537   2.070   7.373   2.098 -0.0022  0.3734  0.1880
 8958WAT     H136538   2.058   7.447   2.142 -0.6191 -0.0350  0.7100
 8958WAT     H236539   2.032   7.312   2.147 -0.2463 -0.1699 -0.6482
 8958WAT    EPW36540   2.063   7.375   2.112 -0.3105  0.6339 -0.0617
 8959WAT      O36541   1.913   6.650   1.766  0.7651 -0.3379 -0.0171
 8959WAT     H136542   1.960   6.594   1.814  1.4925  1.7966  1.9448
 8959WAT     H236543   1.831   6.627   1.783  1.0165 -0.1369  1.6970
 8959WAT    EPW36544   1.908   6.638   1.776 -0.0139  0.0442 -0.2835
 8960WAT      O36545   0.974   0.488   3.484  0.1002 -0.1463 -0.6211
 8960WAT     H136546   0.906   0.449   3.522  1.1575  1.0842  2.9139
 8960WAT     H236547   1.030   0.422   3.471 -1.0045 -0.8898 -1.9669
 8960WAT    EPW36548   0.972   0.472   3.487  0.1514 -0.4703 -1.1747
 8961WAT      O36549   1.995   0.711   2.263  0.0937 -0.5167 -0.0835
 8961WAT     H136550   2.065   0.664   2.284  2.0407  2.0611 -0.3002
 8961WAT     H236551   1.954   0.720   2.340  0.3969 -1.4162  0.2019
 8961WAT    EPW36552   1.999   0.706   2.278  0.0537 -0.0381 -0.0779
 8962WAT      O36553   1.574   7.496   1.811 -0.1188  0.0525 -0.5041
 8962WAT     H136554   1.623   7.432   1.841 -1.4523 -1.1706 -0.8282
 8962WAT     H236555   1.542   7.534   1.883 -2.0284 -1.8455 -0.2721
 8962WAT    EPW36556   1.576   7.492   1.826  0.8696 -0.2823 -0.7847
 8963WAT      O36557   0.972   0.213   1.420  0.2245  0.3745  0.1480
 8963WAT     H136558   0.992   0.128   1.425  0.7112  0.5028  0.4977
 8963WAT     H236559   0.885   0.214   1.425  0.1094 -0.2041 -1.3551
 8963WAT    EPW36560   0.962   0.200   1.422 -0.1101  0.7467 -0.0644
 8964WAT      O36561   0.789   7.016   3.096  0.4195  0.0328 -0.0816
 8964WAT     H136562   0.710   7.042   3.122  0.3037 -0.3385 -0.0605
 8964WAT     H236563   0.843   7.058   3.151  0.1573 -1.1937  1.1838
 8964WAT    EPW36564   0.785   7.026   3.108 -0.9793 -0.3351  0.2327
 8965WAT      O36565   2.490   7.210   1.346  0.0925 -0.0724 -0.8580
 8965WAT     H136566   2.550   7.147   1.341  1.4395  1.1865 -1.2401
 8965WAT     H236567   2.448   7.192   1.420  0.7154 -1.1875 -0.7522
 8965WAT    EPW36568   2.493   7.198   1.356 -0.1670 -0.2375  0.7258
 8966WAT      O36569   0.811   0.047   4.097 -0.0411  0.4191  0.0481
 8966WAT     H136570   0.866  -0.016   4.123 -0.5621  0.1889  0.6241
 8966WAT     H236571   0.850   0.121   4.124  0.4601  0.3349 -0.4265
 8966WAT    EPW36572   0.825   0.049   4.105 -0.0179  0.3920 -0.2089
 8967WAT      O36573   3.282   6.861   2.026 -0.0245  0.1825 -0.2599
 8967WAT     H136574   3.351   6.901   2.061 -0.3424 -0.0784  0.6977
 8967WAT     H236575   3.218   6.877   2.084 -0.4110 -0.8056 -0.4047
 8967WAT    EPW36576   3.283   6.870   2.040 -0.0073 -0.0835 -0.3815
 8968WAT      O36577   3.995   0.135   3.105  0.3587 -0.0079 -0.3142
 8968WAT     H136578   3.959   0.154   3.028  0.7972  2.7740  0.0684
 8968WAT     H236579   4.061   0.081   3.084  0.2462  0.3986 -1.8216
 8968WAT    EPW36580   4.000   0.130   3.091  0.6096  0.2666 -1.2183
 8969WAT      O36581   2.185   6.493   3.656  0.6002  0.2264  0.2244
 8969WAT     H136582   2.214   6.536   3.586  2.0236  0.3798  0.8564
 8969WAT     H236583   2.259   6.475   3.700 -0.2156 -0.2802  1.4332
 8969WAT    EPW36584   2.200   6.497   3.652 -0.3452 -0.0612  0.4054
 8970WAT      O36585   3.283   7.074   1.338  1.0719 -0.3285 -0.6427
 8970WAT     H136586   3.366   7.069   1.312  0.6952 -1.6102 -1.7015
 8970WAT     H236587   3.254   7.145   1.296  0.8080 -1.6888 -2.9548
 8970WAT    EPW36588   3.291   7.084   1.328 -0.4681 -0.4940 -0.1609
 8971WAT      O36589   2.241   7.722   1.923  0.0814 -0.0130  0.2506
 8971WAT     H136590   2.235   7.754   1.842 -0.1322 -2.3487 -0.7548
 8971WAT     H236591   2.323   7.741   1.946 -0.3171  2.0237  0.1449
 8971WAT    EPW36592   2.252   7.729   1.914  0.4972 -1.0359  1.5009
 8972WAT      O36593   1.355   7.472   1.639  0.1479  0.0618 -0.3377
 8972WAT     H136594   1.408   7.495   1.704 -0.8974  1.2878  0.1336
 8972WAT     H236595   1.278   7.460   1.679 -0.1237 -0.8647 -1.1106
 8972WAT    EPW36596   1.351   7.474   1.654 -0.0906  0.1201 -0.6874
 8973WAT      O36597   2.549   7.512   2.009 -0.4154  0.2637 -0.4341
 8973WAT     H136598   2.609   7.567   1.976  0.2707 -0.8480 -1.0936
 8973WAT     H236599   2.596   7.461   2.062 -0.4644 -1.5158 -1.9912
 8973WAT    EPW36600   2.565   7.513   2.012  0.3603  0.1349  0.3009
 8974WAT      O36601   2.353   7.673   2.235  0.1749 -0.1613  0.7493
 8974WAT     H136602   2.363   7.586   2.229 -2.1663 -0.4285 -0.5628
 8974WAT     H236603   2.399   7.694   2.306  0.6971 -2.4955  1.1881
 8974WAT    EPW36604   2.362   7.663   2.244  0.0897  0.8756  0.8586
 8975WAT      O36605   1.160   7.431   1.365 -0.3943 -0.5040 -0.1859
 8975WAT     H136606   1.216   7.370   1.394 -0.1071 -0.8299 -1.3660
 8975WAT     H236607   1.207   7.475   1.306 -1.2756 -0.5605 -0.9457
 8975WAT    EPW36608   1.175   7.428   1.360  0.6430 -0.0037 -0.2920
 8976WAT      O36609   3.698   6.657   0.718 -0.0480  0.0093  0.2699
 8976WAT     H136610   3.721   6.672   0.801  0.4363  1.6449 -0.1261
 8976WAT     H236611   3.701   6.570   0.711  0.4621 -0.1186  1.8132
 8976WAT    EPW36612   3.702   6.646   0.729 -0.5748 -0.1222  0.0568
 8977WAT      O36613   1.811   7.967   7.284  0.6286  0.3558 -0.3957
 8977WAT     H136614   1.762   7.910   7.328  1.9244 -0.9711 -0.5950
 8977WAT     H236615   1.814   8.037   7.337 -1.2489  0.4153 -0.2904
 8977WAT    EPW36616   1.804   7.969   7.299  0.1898  0.5688 -0.1066
 8978WAT      O36617   1.433   0.091   2.632  0.0054  0.1361 -0.2636
 8978WAT     H136618   1.502   0.046   2.604  1.4030  2.0174 -0.0552
 8978WAT     H236619   1.395   0.117   2.558  0.9490  1.1220 -0.4222
 8978WAT    EPW36620   1.438   0.088   2.617 -0.3643  0.6373 -0.4308
 8979WAT      O36621   1.138   7.926   3.569  1.0646  0.0162  0.0273
 8979WAT     H136622   1.190   7.871   3.614 -0.1774 -1.1016  0.1433
 8979WAT     H236623   1.174   8.004   3.585  1.9888 -0.5858  1.1151
 8979WAT    EPW36624   1.151   7.929   3.578  1.1258  0.2654 -0.1483
 8980WAT      O36625   2.192   1.341   2.221  0.3595  0.4694 -0.3548
 8980WAT     H136626   2.105   1.343   2.224  0.3074  0.0550 -1.1635
 8980WAT     H236627   2.215   1.303   2.296 -0.1019  1.5039  0.3249
 8980WAT    EPW36628   2.182   1.336   2.232  0.3907 -0.2286 -0.8520
 8981WAT      O36629   2.267   7.501   8.007  0.1778 -0.0613 -0.0236
 8981WAT     H136630   2.324   7.489   8.072 -0.1519 -0.9513  0.1227
 8981WAT     H236631   2.317   7.523   7.939  0.8051 -1.5937 -0.1044
 8981WAT    EPW36632   2.282   7.502   8.007  0.0662  0.1329 -0.2488
 8982WAT      O36633   1.487   6.342   7.976 -0.2273 -0.2357 -0.6701
 8982WAT     H136634   1.425   6.378   7.926 -1.7116 -0.5002  0.8951
 8982WAT     H236635   1.454   6.347   8.057  1.9646 -0.0555  0.2873
 8982WAT    EPW36636   1.473   6.348   7.980 -0.4982 -1.6758 -0.9196
 8983WAT      O36637   2.753   0.092   0.914 -0.1290  0.4096 -0.8895
 8983WAT     H136638   2.683   0.065   0.871 -0.4135  0.6724 -0.6072
 8983WAT     H236639   2.757   0.178   0.896  0.3497  0.3201 -1.2203
 8983WAT    EPW36640   2.743   0.101   0.905 -0.3837  0.7095  0.0683
 8984WAT      O36641   1.797   0.052   0.058  0.0696 -0.1863  0.1881
 8984WAT     H136642   1.759   0.004  -0.005  3.1927 -1.7207 -0.6969
 8984WAT     H236643   1.832   0.119   0.014  0.9822 -0.4475  0.5012
 8984WAT    EPW36644   1.796   0.055   0.042 -0.0043 -0.1888  0.1517
 8985WAT      O36645   1.679   6.105   2.091  0.0308 -0.3061  0.3791
 8985WAT     H136646   1.760   6.137   2.085  0.4678 -1.5073 -0.5638
 8985WAT     H236647   1.645   6.147   2.159  1.4477  0.2158  0.7932
 8985WAT    EPW36648   1.686   6.116   2.100 -0.3565  0.5093  0.1632
 8986WAT      O36649   2.039   0.020   1.777 -0.0187 -0.0637  0.1070
 8986WAT     H136650   2.033   0.044   1.861 -0.2515  1.0410 -0.2138
 8986WAT     H236651   1.956   0.001   1.756  0.1019 -0.7591  0.2376
 8986WAT    EPW36652   2.025   0.021   1.787  0.4367 -0.4465 -0.1663
 8987WAT      O36653   3.172   7.224   0.595  0.2530  0.0611 -0.3997
 8987WAT     H136654   3.139   7.247   0.673  0.5657 -0.8094 -0.0008
 8987WAT     H236655   3.147   7.141   0.586 -0.3344  0.3348 -1.5310
 8987WAT    EPW36656   3.163   7.215   0.605 -0.4924 -0.5163 -0.4677
 8988WAT      O36657   1.694   7.020   1.943 -0.6470  0.1616  0.1097
 8988WAT     H136658   1.719   7.103   1.934  1.0398 -0.0125  2.2043
 8988WAT     H236659   1.769   6.977   1.948 -1.4936 -1.4261 -0.2880
 8988WAT    EPW36660   1.709   7.026   1.943  0.3160  0.5119 -0.9322
 8989WAT      O36661   1.752   7.875   1.964 -0.0223 -0.1552  0.0173
 8989WAT     H136662   1.748   7.923   1.892 -0.6335  0.2439  0.3054
 8989WAT     H236663   1.834   7.885   1.991  0.5028 -1.1143 -1.1467
 8989WAT    EPW36664   1.763   7.883   1.958  0.2687  0.4701 -0.1809
 8990WAT      O36665   1.862   0.918   3.416 -0.0465  0.5332 -0.1191
 8990WAT     H136666   1.881   0.875   3.489  0.6595 -0.1933 -0.7037
 8990WAT     H236667   1.775   0.919   3.414 -0.0698  0.4695  0.6665
 8990WAT    EPW36668   1.852   0.912   3.426 -0.1525  0.0158  0.1346
 8991WAT      O36669   1.277   0.360   2.604  0.1670  0.2245  0.4445
 8991WAT     H136670   1.224   0.354   2.673 -0.2548 -0.2367  0.0892
 8991WAT     H236671   1.322   0.434   2.619 -0.8860  0.8710  0.5470
 8991WAT    EPW36672   1.276   0.370   2.616  0.0147 -0.3740  0.8578
 8992WAT      O36673   3.090   6.586   1.002 -0.0829 -0.2097  0.1999
 8992WAT     H136674   3.035   6.525   1.028 -0.1518 -1.5566 -2.6881
 8992WAT     H236675   3.165   6.566   1.043 -1.0239  0.1288  2.1895
 8992WAT    EPW36676   3.093   6.574   1.012  0.9508 -0.7657  0.6320
 8993WAT      O36677   2.076   7.949   2.521  0.2112  0.1109 -0.0882
 8993WAT     H136678   2.018   7.921   2.463  0.6530  0.7995 -0.8907
 8993WAT     H236679   2.150   7.953   2.475  0.7762 -0.2394  0.7741
 8993WAT    EPW36680   2.079   7.946   2.506  0.2167 -0.4062 -0.3614
 8994WAT      O36681   2.433   0.506   2.070  0.0203 -0.4532  0.0153
 8994WAT     H136682   2.410   0.501   1.986 -0.0183 -1.6743  0.0774
 8994WAT     H236683   2.357   0.509   2.112  0.0407  0.7724 -0.0038
 8994WAT    EPW36684   2.418   0.505   2.064  0.3155  0.0875  0.0694
 8995WAT      O36685   1.398   0.225   1.472 -0.8572  0.2628 -0.0676
 8995WAT     H136686   1.338   0.281   1.498  1.1028  2.6902 -0.3699
 8995WAT     H236687   1.461   0.232   1.531 -0.1085 -0.8660 -0.6757
 8995WAT    EPW36688   1.399   0.234   1.484  0.0740 -0.2663  0.4357
 8996WAT      O36689   7.591   6.138   1.771  0.1959  0.2282  0.1307
 8996WAT     H136690   7.539   6.083   1.728  2.6342 -1.1194 -1.3590
 8996WAT     H236691   7.562   6.134   1.853 -0.4031 -2.5104 -0.1187
 8996WAT    EPW36692   7.579   6.129   1.777 -0.1194  0.0797 -0.0482
 8997WAT      O36693   2.475   6.699   1.686  0.3637  0.0372  0.2074
 8997WAT     H136694   2.402   6.651   1.685  0.0236  0.5437  0.0332
 8997WAT     H236695   2.538   6.641   1.700  0.0722 -0.6106 -1.0485
 8997WAT    EPW36696   2.473   6.684   1.688  0.6329  0.3745  0.6327
 8998WAT      O36697   2.286   6.545   2.048 -0.2856 -0.1647  0.2113
 8998WAT     H136698   2.306   6.591   1.977 -2.9212 -0.2830 -0.6939
 8998WAT     H236699   2.288   6.604   2.112 -1.1265  0.6878 -0.5251
 8998WAT    EPW36700   2.289   6.560   2.047  0.3935 -0.4017  0.3112
 8999WAT      O36701   1.814   0.503   2.936  0.0515  0.3667  0.2406
 8999WAT     H136702   1.899   0.491   2.919  0.3486  1.8279  0.5930
 8999WAT     H236703   1.802   0.587   2.919 -1.2919  0.2222  0.4095
 8999WAT    EPW36704   1.825   0.513   2.931  0.9150 -0.2414 -0.6720
 9000WAT      O36705   2.902   7.722   0.904  0.3649 -0.2967 -0.1291
 9000WAT     H136706   2.972   7.714   0.853  0.4108  0.7790 -0.2573
 9000WAT     H236707   2.909   7.803   0.936 -0.3069 -0.5268  0.6274
 9000WAT    EPW36708   2.913   7.733   0.901 -0.2472 -1.2532 -0.6796
 9001WAT      O36709   2.190   7.846   1.683 -0.1719  0.5803 -0.1020
 9001WAT     H136710   2.247   7.882   1.628  0.8030  1.1885  1.2671
 9001WAT     H236711   2.149   7.915   1.718 -0.1393  0.2426  0.6087
 9001WAT    EPW36712   2.192   7.861   1.680 -0.7003 -0.1139 -0.3535
 9002WAT      O36713   1.524   6.820   0.627 -0.8439  0.3221  0.2308
 9002WAT     H136714   1.609   6.815   0.645 -0.9066  1.2579  0.8389
 9002WAT     H236715   1.518   6.888   0.573 -1.2596  0.6074  0.6284
 9002WAT    EPW36716   1.536   6.829   0.622  0.0719 -0.8224  0.6980
 9003WAT      O36717   2.800   6.129   2.315  0.6906  0.2508  0.3539
 9003WAT     H136718   2.886   6.123   2.324  0.6743  1.7753  1.8946
 9003WAT     H236719   2.775   6.046   2.303  2.3011 -0.2664  0.3502
 9003WAT    EPW36720   2.809   6.116   2.315 -1.1403 -0.3331 -0.4746
 9004WAT      O36721   2.169   0.513   1.956  0.1445 -0.0894  0.0663
 9004WAT     H136722   2.096   0.492   1.999  0.1243 -3.1264 -1.1760
 9004WAT     H236723   2.160   0.598   1.941 -2.5530 -0.1054  1.0018
 9004WAT    EPW36724   2.156   0.522   1.960  0.0884 -0.3546 -0.0921
 9005WAT      O36725   1.219   0.648   3.197  0.0591  0.0853  0.2335
 9005WAT     H136726   1.179   0.675   3.270  0.3679 -3.7883  2.0737
 9005WAT     H236727   1.304   0.662   3.214  0.0389  1.2502 -0.4541
 9005WAT    EPW36728   1.226   0.654   3.210 -0.0819 -0.3593  0.4270
 9006WAT      O36729   1.091   6.288   2.535 -0.0023 -0.3110  0.2489
 9006WAT     H136730   1.143   6.353   2.508  1.1912 -1.1581  0.4968
 9006WAT     H236731   1.041   6.326   2.596  1.1228  0.2193  0.8583
 9006WAT    EPW36732   1.091   6.303   2.540  0.5547  0.8770  0.5093
 9007WAT      O36733   1.374   6.416   2.325  0.6373 -0.0460  0.2412
 9007WAT     H136734   1.313   6.366   2.289 -0.5223  1.2465  0.3678
 9007WAT     H236735   1.358   6.409   2.411  0.4511  0.5517  0.2582
 9007WAT    EPW36736   1.363   6.407   2.333 -0.3530  0.0816 -0.6494
 9008WAT      O36737   1.549   7.111   3.208  0.3739  0.5800 -0.1682
 9008WAT     H136738   1.631   7.084   3.194 -0.1840 -0.8280 -1.0596
 9008WAT     H236739   1.558   7.190   3.243  2.1283 -0.1442  1.1265
 9008WAT    EPW36740   1.563   7.118   3.211  0.0382  0.8412  0.3379
 9009WAT      O36741   2.373   0.550   7.957  0.5812 -0.3739 -0.3886
 9009WAT     H136742   2.452   0.524   7.930  1.2606 -0.5694  1.6293
 9009WAT     H236743   2.382   0.558   8.043 -1.9397 -1.5637  0.0809
 9009WAT    EPW36744   2.386   0.547   7.965  0.1153 -0.0804 -0.8772
 9010WAT      O36745   1.219   7.832   1.686 -0.1197  0.1536  0.4002
 9010WAT     H136746   1.192   7.760   1.646  0.0328  0.0495  0.4840
 9010WAT     H236747   1.155   7.889   1.671 -0.4282 -0.1179  0.6717
 9010WAT    EPW36748   1.206   7.830   1.678 -1.2221  0.0151  0.9278
 9011WAT      O36749   2.155   0.097   7.560 -0.2424 -0.0383  0.0298
 9011WAT     H136750   2.071   0.078   7.545  0.0212 -1.6129  0.3486
 9011WAT     H236751   2.191   0.094   7.481 -0.0385 -1.9999  0.1343
 9011WAT    EPW36752   2.148   0.094   7.546  0.3997  0.3532  0.0146
 9012WAT      O36753   2.391   7.898   7.715 -0.0843  0.2795  0.3059
 9012WAT     H136754   2.402   7.887   7.801 -0.1406  1.2216  0.4376
 9012WAT     H236755   2.427   7.975   7.699 -0.4527  0.3039 -0.4487
 9012WAT    EPW36756   2.398   7.907   7.726 -0.0295 -0.7622  0.1760
 9013WAT      O36757   2.798   7.078   3.611  0.1057 -0.4318  0.4083
 9013WAT     H136758   2.843   7.013   3.575  1.3319 -0.1566  1.3365
 9013WAT     H236759   2.745   7.038   3.668  1.6352 -0.6118  1.7778
 9013WAT    EPW36760   2.797   7.063   3.614 -0.6936  0.1596  1.2832
 9014WAT      O36761   2.599   7.108   2.980  0.0636 -0.1717 -0.0737
 9014WAT     H136762   2.619   7.192   2.970  0.8997 -0.5291 -1.6387
 9014WAT     H236763   2.580   7.102   3.065 -0.7229  1.7312 -0.0599
 9014WAT    EPW36764   2.599   7.119   2.991 -0.4985 -0.2022  0.4933
 9015WAT      O36765   3.147   6.498   3.047  0.3281  0.6428  0.2301
 9015WAT     H136766   3.074   6.517   3.003 -0.0064  0.1879  0.5876
 9015WAT     H236767   3.190   6.444   2.993  0.2409  0.6375  0.1655
 9015WAT    EPW36768   3.142   6.493   3.032 -0.7831 -1.2296  0.2702
 9016WAT      O36769   0.967   7.904   2.589 -0.0600  0.1344  0.7522
 9016WAT     H136770   1.054   7.915   2.589 -0.2690  2.1576  0.8616
 9016WAT     H236771   0.957   7.819   2.571  1.9000  0.2084 -1.0211
 9016WAT    EPW36772   0.978   7.893   2.586  0.2264  0.9627 -0.5927
 9017WAT      O36773   2.423   7.953   3.284  0.1754 -0.1026 -0.2910
 9017WAT     H136774   2.431   7.876   3.244 -0.2883 -0.2830 -0.0426
 9017WAT     H236775   2.452   7.936   3.365  0.6936  0.1505 -0.4194
 9017WAT    EPW36776   2.428   7.939   3.290  0.4715 -0.2725 -0.4858
 9018WAT      O36777   2.080   7.180   0.071 -0.5381 -0.1911  0.1080
 9018WAT     H136778   2.163   7.166   0.048 -1.0996 -1.3982 -1.4142
 9018WAT     H236779   2.085   7.241   0.133  1.3511  1.1063 -1.2201
 9018WAT    EPW36780   2.093   7.187   0.076 -0.5166  0.1513  0.3180
 9019WAT      O36781   2.219   7.543   1.414 -0.3269 -0.3031  0.0310
 9019WAT     H136782   2.159   7.591   1.456  1.3120  1.5275  0.4533
 9019WAT     H236783   2.258   7.601   1.362  1.0931 -1.4081 -0.1885
 9019WAT    EPW36784   2.216   7.559   1.413  0.3810 -0.3274 -0.1259
 9020WAT      O36785   2.262   0.520   1.349  0.2332  0.0507 -0.6164
 9020WAT     H136786   2.183   0.516   1.311  0.2209 -1.4559 -0.4939
 9020WAT     H236787   2.310   0.465   1.302  0.7078 -0.4713  0.4504
 9020WAT    EPW36788   2.258   0.511   1.336 -0.5224  0.0308 -0.3575
 9021WAT      O36789   2.128   7.419   7.513  0.0805  0.2070 -0.2257
 9021WAT     H136790   2.169   7.494   7.531  1.1165 -0.5433  0.7065
 9021WAT     H236791   2.135   7.374   7.588  1.2996 -1.6334 -1.3784
 9021WAT    EPW36792   2.135   7.424   7.527  0.1289  0.7811 -0.8801
 9022WAT      O36793   1.215   0.359   7.938  0.3557  0.6503  0.0263
 9022WAT     H136794   1.272   0.313   7.891  1.2234 -2.1774  3.3946
 9022WAT     H236795   1.139   0.320   7.924  0.1209  1.3648 -0.7880
 9022WAT    EPW36796   1.212   0.347   7.929 -0.0267 -0.0491 -0.2082
 9023WAT      O36797   0.211   0.426   0.396 -0.0529 -0.0901 -0.2807
 9023WAT     H136798   0.296   0.409   0.407  0.0360  0.5680  0.1226
 9023WAT     H236799   0.203   0.439   0.311  1.0451  3.7054  0.0406
 9023WAT    EPW36800   0.222   0.425   0.385  1.6297  0.1632 -0.3774
 9024WAT      O36801   1.384   7.250   1.468  0.2735 -0.4683 -0.2932
 9024WAT     H136802   1.421   7.312   1.516  0.5024  1.1014 -2.3372
 9024WAT     H236803   1.444   7.233   1.406 -1.0645 -0.2605 -1.7216
 9024WAT    EPW36804   1.398   7.257   1.466 -0.2987  0.1475 -0.3033
 9025WAT      O36805   0.989   7.432   0.456  0.1879  0.1887  0.2572
 9025WAT     H136806   1.000   7.484   0.524  1.5013  1.7432 -1.0740
 9025WAT     H236807   1.070   7.418   0.426 -0.3998  0.7155 -1.7762
 9025WAT    EPW36808   1.003   7.437   0.462  0.6478 -0.1268 -0.8891
 9026WAT      O36809   2.117   7.231   7.728 -0.3608 -0.1265  0.1121
 9026WAT     H136810   2.204   7.238   7.723 -0.3773  1.0102  0.9726
 9026WAT     H236811   2.097   7.281   7.797 -1.4505 -2.4174  1.6011
 9026WAT    EPW36812   2.127   7.239   7.738 -0.1213 -0.0144 -0.4641
 9027WAT      O36813   1.703   0.137   0.318  0.0463  0.1400  0.0179
 9027WAT     H136814   1.710   0.111   0.235  1.6557  1.2282 -0.2390
 9027WAT     H236815   1.783   0.168   0.336 -0.2908 -0.0235  1.9594
 9027WAT    EPW36816   1.716   0.138   0.308  0.2006  0.1255  1.1080
 9028WAT      O36817   0.598   0.089   1.237  0.1244  0.0522  0.2719
 9028WAT     H136818   0.526   0.078   1.286  1.8790 -0.9448  2.8121
 9028WAT     H236819   0.598   0.018   1.186 -1.3349  0.7445 -0.7997
 9028WAT    EPW36820   0.587   0.077   1.237  0.5098 -0.0997 -0.1014
 9029WAT      O36821   0.615   6.980   7.992  0.5269  0.9819 -0.3064
 9029WAT     H136822   0.666   7.033   8.039  1.1756  1.0324 -1.0604
 9029WAT     H236823   0.670   6.939   7.939  0.0556 -0.5994  0.3744
 9029WAT    EPW36824   0.630   6.982   7.991 -0.2494 -0.0365 -0.6475
 9030WAT      O36825   0.942   6.402   7.289 -0.4118  0.6247  0.3305
 9030WAT     H136826   1.004   6.464   7.291  0.6224 -0.3706  0.5616
 9030WAT     H236827   0.980   6.337   7.245 -0.9739 -0.3322  1.2105
 9030WAT    EPW36828   0.957   6.401   7.283  0.5591  0.6610  0.1971
 9031WAT      O36829   1.577   6.334   1.614  0.0148  0.5464 -0.4542
 9031WAT     H136830   1.530   6.373   1.677  0.7320  0.0723  0.3960
 9031WAT     H236831   1.651   6.380   1.612  0.6526 -0.4186  0.1923
 9031WAT    EPW36832   1.581   6.347   1.623 -0.0497 -0.7226  0.0734
 9032WAT      O36833   0.843   5.851   0.497  0.5573  0.2139 -0.5635
 9032WAT     H136834   0.838   5.912   0.558  0.1663 -0.3680 -0.0045
 9032WAT     H236835   0.867   5.895   0.425 -1.3032  1.2821 -0.5724
 9032WAT    EPW36836   0.846   5.867   0.495 -0.2475 -0.1407 -0.7195
 9033WAT      O36837   4.041   7.297   0.709  0.4127 -0.1258  0.2462
 9033WAT     H136838   4.004   7.327   0.636 -0.3886 -0.4906  0.4798
 9033WAT     H236839   4.107   7.352   0.724  1.2079 -0.6132 -1.2843
 9033WAT    EPW36840   4.045   7.309   0.701 -0.3854  0.1960  0.6848
 9034WAT      O36841   2.838   7.100   0.315  0.0713 -0.1586 -0.3829
 9034WAT     H136842   2.903   7.048   0.339 -0.4228 -1.2684 -1.3629
 9034WAT     H236843   2.841   7.098   0.227 -2.3370 -1.6779 -0.5201
 9034WAT    EPW36844   2.848   7.092   0.305  0.4919 -1.1636 -0.5289
 9035WAT      O36845   1.542   8.002   2.114  0.8984  0.3321 -0.3422
 9035WAT     H136846   1.599   7.967   2.059 -1.8524 -2.5396 -1.7147
 9035WAT     H236847   1.507   8.067   2.068  1.9117  1.0832 -0.0810
 9035WAT    EPW36848   1.545   8.006   2.099  0.5401  0.1148 -0.0034
 9036WAT      O36849   1.249   7.993   7.606 -0.3293 -0.8254 -0.1145
 9036WAT     H136850   1.202   7.999   7.532 -1.2100 -0.6863  0.4431
 9036WAT     H236851   1.306   7.929   7.589 -0.3959 -0.6750 -0.9751
 9036WAT    EPW36852   1.251   7.984   7.593  0.8107 -0.7674  0.2659
 9037WAT      O36853   2.986   6.407   0.456  0.7130 -0.2820 -0.2053
 9037WAT     H136854   2.988   6.468   0.394  3.5694 -0.8323 -0.7975
 9037WAT     H236855   2.917   6.358   0.434  0.6123  0.5482 -1.9093
 9037WAT    EPW36856   2.976   6.409   0.444 -0.2023 -0.5841  0.0074
 9038WAT      O36857   2.208   6.438   0.094 -0.2114 -0.1344  0.3672
 9038WAT     H136858   2.121   6.436   0.089 -0.1386 -0.7703 -1.1291
 9038WAT     H236859   2.233   6.456   0.012  1.0793 -0.7193  0.6020
 9038WAT    EPW36860   2.199   6.440   0.081 -0.1832  0.5195 -0.9625
 9039WAT      O36861   1.942   7.107   1.647 -0.4123 -0.2567 -0.5567
 9039WAT     H136862   1.946   7.049   1.713  0.5875  0.3925 -0.0343
 9039WAT     H236863   1.938   7.184   1.688  2.9036  0.3784 -1.1573
 9039WAT    EPW36864   1.942   7.110   1.663 -0.4293 -0.4577  0.5121
 9040WAT      O36865   1.822   6.946   0.851  0.1782 -0.0011  0.2376
 9040WAT     H136866   1.782   6.870   0.835  0.9349 -0.5546  0.9083
 9040WAT     H236867   1.759   6.995   0.887 -0.3135 -0.3036 -0.1931
 9040WAT    EPW36868   1.807   6.942   0.854  0.1999  0.6132  0.1183
 9041WAT      O36869   3.348   7.864   0.623 -0.5369 -0.2622 -0.0664
 9041WAT     H136870   3.382   7.890   0.547 -0.0609 -1.6994 -0.3831
 9041WAT     H236871   3.362   7.932   0.677  0.2896  0.2668 -0.9280
 9041WAT    EPW36872   3.355   7.878   0.620 -0.5123 -0.3708  0.6831
 9042WAT      O36873   3.183   6.749   0.359  0.5291 -0.1707 -0.2048
 9042WAT     H136874   3.230   6.757   0.286  0.3905 -1.0041 -0.3908
 9042WAT     H236875   3.115   6.700   0.334 -1.2548  2.1786 -0.3170
 9042WAT    EPW36876   3.180   6.743   0.344  0.5574 -0.1121 -0.1558
 9043WAT      O36877   1.889   0.025   0.843  0.0567  0.0066  0.4014
 9043WAT     H136878   1.855   0.062   0.914  1.4585 -0.5384  1.4082
 9043WAT     H236879   1.918   0.093   0.797 -3.1461  0.5904 -1.0147
 9043WAT    EPW36880   1.888   0.041   0.847  0.6781  0.1194 -0.2429
 9044WAT      O36881   2.517   7.293   0.296  0.4694 -0.2960  0.1927
 9044WAT     H136882   2.464   7.224   0.296  2.2551 -1.7921 -1.7266
 9044WAT     H236883   2.544   7.298   0.213  0.3112  2.8484  0.2016
 9044WAT    EPW36884   2.513   7.284   0.283 -0.3866 -0.5928 -0.9336
 9045WAT      O36885   1.577   0.401   0.229 -0.2934 -0.1863 -0.8729
 9045WAT     H136886   1.583   0.469   0.283 -0.3619 -0.2326 -0.8058
 9045WAT     H236887   1.628   0.340   0.265  0.6599  0.2052 -1.5205
 9045WAT    EPW36888   1.585   0.402   0.242  0.0710  0.7791 -0.6379
 9046WAT      O36889   3.170   7.398   8.040 -0.0690  0.9144  0.3805
 9046WAT     H136890   3.153   7.427   8.120 -2.4423 -2.5345  1.3540
 9046WAT     H236891   3.091   7.377   8.008  1.0708 -1.3789 -1.2763
 9046WAT    EPW36892   3.156   7.399   8.047  0.3880  0.1007  0.0960
 9047WAT      O36893   4.609   7.518   0.105 -0.6377 -0.0233  0.4777
 9047WAT     H136894   4.679   7.477   0.137 -0.9131 -1.6917 -0.8715
 9047WAT     H236895   4.545   7.459   0.117 -1.2300  0.3413 -0.7918
 9047WAT    EPW36896   4.610   7.503   0.112 -0.0728 -0.0023 -1.1466
 9048WAT      O36897   1.406   0.073   0.058 -0.0418 -0.2178  0.3073
 9048WAT     H136898   1.432   0.092  -0.023  0.3384 -1.4523  0.1142
 9048WAT     H236899   1.396   0.152   0.095  0.2287  0.3598 -0.7892
 9048WAT    EPW36900   1.408   0.088   0.051  0.1457  0.3858 -0.3887
 9049WAT      O36901   2.569   7.082   7.850  0.1180  0.4812  0.0074
 9049WAT     H136902   2.628   7.146   7.851 -0.1880  0.7734 -0.0968
 9049WAT     H236903   2.611   7.014   7.816  0.7185  0.3582  0.9671
 9049WAT    EPW36904   2.584   7.081   7.845  0.5880 -0.3204 -0.4599
 9050WAT      O36905   1.403   7.353   0.959  0.1229  0.2835  0.0645
 9050WAT     H136906   1.370   7.274   0.974  0.1619  0.2975  0.2199
 9050WAT     H236907   1.483   7.349   0.995  0.0442  0.4636  0.2587
 9050WAT    EPW36908   1.410   7.341   0.966  0.1714 -0.9114 -0.0734
 9051WAT      O36909   4.944   7.927   1.140 -0.6208 -0.1720 -0.1712
 9051WAT     H136910   4.994   7.939   1.211  1.0723 -1.9844 -0.9346
 9051WAT     H236911   4.938   8.006   1.105  0.7711  0.3292  0.6220
 9051WAT    EPW36912   4.951   7.940   1.145 -0.0655 -0.7250  0.2397
 9052WAT      O36913   0.922   5.610   7.623  0.4922 -0.4784  0.0465
 9052WAT     H136914   0.886   5.537   7.654  2.4631 -1.1044  1.0260
 9052WAT     H236915   0.972   5.581   7.557  0.9631  0.0269  0.1755
 9052WAT    EPW36916   0.924   5.595   7.618 -0.2748  0.1908  0.9704
 9053WAT      O36917   1.714   0.310   1.429  0.2627  0.6501  0.2578
 9053WAT     H136918   1.697   0.373   1.486  0.8503  1.1084 -0.0582
 9053WAT     H236919   1.686   0.342   1.353  0.5936  0.5547  0.0895
 9053WAT    EPW36920   1.708   0.324   1.426 -0.6951 -1.0027  0.3820
 9054WAT      O36921   1.094   0.077   7.997 -0.1297 -0.7345  0.3383
 9054WAT     H136922   1.045   0.071   8.069 -0.3545 -1.0790  0.1601
 9054WAT     H236923   1.176   0.076   8.027 -0.2292 -0.5189  0.6130
 9054WAT    EPW36924   1.099   0.076   8.012 -0.7745  0.4747  0.0524
 9055WAT      O36925   2.727   7.992   1.165  0.4696 -0.7439  0.0441
 9055WAT     H136926   2.721   8.017   1.082 -0.0461  0.7225  0.4977
 9055WAT     H236927   2.691   7.912   1.165 -0.6178 -0.2876 -0.9337
 9055WAT    EPW36928   2.721   7.984   1.153  0.1765  0.3721  0.0326
 9056WAT      O36929   0.607   6.897   0.942 -0.2872  0.0407  0.1485
 9056WAT     H136930   0.531   6.875   0.904  1.0666  0.7623 -3.3671
 9056WAT     H236931   0.582   6.944   1.011 -3.0173 -1.6755  0.4836
 9056WAT    EPW36932   0.592   6.901   0.947 -0.4508 -0.2909  0.0379
 9057WAT      O36933   1.944   1.083   7.743  0.5820  0.1660  0.3909
 9057WAT     H136934   1.941   1.085   7.656 -0.2451  0.8018  0.4181
 9057WAT     H236935   1.899   1.154   7.767  2.9650  1.4765  1.3204
 9057WAT    EPW36936   1.936   1.094   7.734 -0.5267 -0.2608 -0.7531
 9058WAT      O36937   2.574   7.732   7.545 -0.7091  0.4448 -0.3207
 9058WAT     H136938   2.525   7.769   7.606  1.7932 -0.1495  2.2648
 9058WAT     H236939   2.567   7.647   7.561  2.1943  0.3668  1.1971
 9058WAT    EPW36940   2.566   7.725   7.556  0.0345  0.0628  0.5588
 9059WAT      O36941   2.561   6.965   2.106 -0.1571 -0.0122 -0.4542
 9059WAT     H136942   2.519   6.916   2.047  1.1184 -0.4313 -1.0598
 9059WAT     H236943   2.594   7.030   2.060 -0.0506  0.2526 -0.0137
 9059WAT    EPW36944   2.560   6.967   2.091 -0.2775  0.9892 -0.8622
 9060WAT      O36945   2.328   7.623   0.457  0.5074 -0.7417 -0.2105
 9060WAT     H136946   2.255   7.659   0.489  0.5268 -0.6934 -0.2219
 9060WAT     H236947   2.312   7.537   0.463  0.3251 -0.7296 -0.4902
 9060WAT    EPW36948   2.315   7.616   0.462  0.0137  0.2748 -0.8772
 9061WAT      O36949   0.857   6.432   1.116 -0.1771 -0.1398 -0.1771
 9061WAT     H136950   0.884   6.412   1.197 -0.9266  1.2352  0.4465
 9061WAT     H236951   0.801   6.368   1.097 -0.2214 -0.3222  0.5175
 9061WAT    EPW36952   0.853   6.420   1.125 -0.4845  0.5496  0.7048
 9062WAT      O36953   3.720   7.243   1.250 -0.2326 -0.1048  0.1284
 9062WAT     H136954   3.779   7.291   1.293 -1.4995  3.0928 -1.3547
 9062WAT     H236955   3.761   7.221   1.176  0.2200 -1.0844  0.6450
 9062WAT    EPW36956   3.735   7.247   1.245  0.2441 -0.0957  0.2987
 9063WAT      O36957   3.346   7.940   7.660 -0.3733 -0.1989  0.0551
 9063WAT     H136958   3.343   7.936   7.572 -0.1884  1.2704 -0.0329
 9063WAT     H236959   3.282   7.996   7.680  0.5456  0.6341  0.7470
 9063WAT    EPW36960   3.336   7.947   7.650  0.0784 -0.8155 -0.2591
 9064WAT      O36961   0.941   6.500   7.563 -0.1723  0.2730  0.5033
 9064WAT     H136962   0.926   6.516   7.479  1.1738  0.5885  0.3032
 9064WAT     H236963   0.866   6.521   7.602 -1.5598 -1.8510 -0.8232
 9064WAT    EPW36964   0.928   6.506   7.556 -0.3709  0.1785  0.6364
 9065WAT      O36965   1.155   7.870   7.904  0.0420 -0.1665  0.4641
 9065WAT     H136966   1.131   7.949   7.931  1.5423  0.5711 -0.2195
 9065WAT     H236967   1.158   7.878   7.817 -1.2967 -1.4535  0.2625
 9065WAT    EPW36968   1.152   7.883   7.895  0.5015  0.1971  0.2637
 9066WAT      O36969   0.461   6.993   0.280  0.0006  0.0446  0.7835
 9066WAT     H136970   0.403   7.002   0.215  1.1500  0.7360 -0.1653
 9066WAT     H236971   0.411   6.997   0.352 -1.7039 -3.3660  0.0184
 9066WAT    EPW36972   0.445   6.995   0.281  0.3213 -0.0133 -0.1786
 9067WAT      O36973   0.781   6.015   7.899  0.0351 -0.1445  0.6256
 9067WAT     H136974   0.772   5.959   7.833  0.7728  2.4176 -1.8194
 9067WAT     H236975   0.857   5.991   7.936  0.9166 -0.1436 -1.0866
 9067WAT    EPW36976   0.791   6.003   7.895 -0.0852 -0.5798  0.7210
 9068WAT      O36977   1.525   0.030   0.523  0.3710 -0.0791 -0.7512
 9068WAT     H136978   1.547  -0.054   0.535 -1.8669 -0.6427 -0.1468
 9068WAT     H236979   1.551   0.046   0.441 -0.1022 -1.6960 -1.2506
 9068WAT    EPW36980   1.532   0.020   0.513  0.7297 -0.8266 -0.2537
 9069WAT      O36981   1.110   6.565   1.145  0.5475 -0.1289  0.4280
 9069WAT     H136982   1.063   6.492   1.146  0.7961 -0.3067 -0.4147
 9069WAT     H236983   1.130   6.576   1.061  0.7742  0.7421  0.5814
 9069WAT    EPW36984   1.106   6.556   1.133  0.7194 -0.1553 -0.0072
 9070WAT      O36985   1.652   0.155   0.735  0.0011 -0.0075  0.5712
 9070WAT     H136986   1.614   0.122   0.664 -2.1403 -0.5721  1.8957
 9070WAT     H236987   1.716   0.098   0.752 -0.1363 -0.4385 -0.3011
 9070WAT    EPW36988   1.656   0.142   0.727 -0.1050 -0.0875  0.3191
 9071WAT      O36989   1.894   5.451   0.830  0.2287 -0.4253  0.1466
 9071WAT     H136990   1.858   5.520   0.791  0.9700 -0.9713 -1.5819
 9071WAT     H236991   1.865   5.383   0.783 -0.5062 -1.3438  1.8200
 9071WAT    EPW36992   1.884   5.451   0.817  0.1112  0.2733  0.0961
 9072WAT      O36993   2.883   0.186   0.153  0.1101  0.6524  0.0656
 9072WAT     H136994   2.818   0.133   0.130 -0.1309  1.8807 -2.4787
 9072WAT     H236995   2.953   0.133   0.155 -0.3963 -0.0784 -0.7270
 9072WAT    EPW36996   2.884   0.170   0.150 -0.5408  0.5423  1.4865
 9073WAT      O36997   1.059   0.618   0.191 -0.1525  0.3717  0.2842
 9073WAT     H136998   1.104   0.607   0.117  0.3114  1.1408  0.4342
 9073WAT     H236999   1.100   0.685   0.230  0.4913 -0.8757  1.8991
 9073WAT    EPW37000   1.072   0.626   0.186  0.5153  0.0850 -0.1430
 9074WAT      O37001   2.303   5.826   0.109  0.5084 -0.2394 -0.3509
 9074WAT     H137002   2.360   5.789   0.055  0.7116 -1.4323  0.6407
 9074WAT     H237003   2.336   5.906   0.123  0.5421  0.0281 -1.8034
 9074WAT    EPW37004   2.316   5.833   0.103  0.0475 -0.0657  0.6589
 9075WAT      O37005   1.926   7.671   7.660  0.2018 -0.0791 -0.3311
 9075WAT     H137006   1.891   7.592   7.670  0.0534  0.1926  1.8020
 9075WAT     H237007   2.002   7.655   7.620 -0.6419 -1.0730 -1.5931
 9075WAT    EPW37008   1.932   7.657   7.656 -0.8368  0.4427 -0.5747
 9076WAT      O37009   2.554   7.957   0.810 -0.2650  0.1553 -0.0123
 9076WAT     H137010   2.468   7.960   0.826 -0.0149  0.2982  1.4066
 9076WAT     H237011   2.573   7.872   0.821 -0.4655 -0.1602 -1.8218
 9076WAT    EPW37012   2.544   7.945   0.814  1.0715  0.5769  0.0693
 9077WAT      O37013   7.537   6.979   0.871 -0.3415 -0.0375  0.0989
 9077WAT     H137014   7.558   6.901   0.902  0.9420  0.3384  0.2356
 9077WAT     H237015   7.473   7.006   0.924 -3.6362 -2.5022 -2.1587
 9077WAT    EPW37016   7.530   6.972   0.883  0.0829 -0.5158 -0.1662
 9078WAT      O37017   1.464   6.576   0.492 -0.0423 -0.0383 -0.2009
 9078WAT     H137018   1.442   6.597   0.410 -0.4626 -0.4727 -0.2022
 9078WAT     H237019   1.470   6.653   0.532 -0.8083  0.1338 -0.3958
 9078WAT    EPW37020   1.462   6.591   0.486 -0.8658 -0.6728  0.4846
 9079WAT      O37021   2.824   5.827   0.478 -0.2921  0.4391  0.2962
 9079WAT     H137022   2.908   5.851   0.484  0.1087 -0.8015 -0.1791
 9079WAT     H237023   2.810   5.782   0.551 -0.8301  1.4134  0.8197
 9079WAT    EPW37024   2.834   5.824   0.489 -0.3281 -0.6375  0.2152
 9080WAT      O37025   2.697   7.719   1.854  0.4917  0.6066  0.2626
 9080WAT     H137026   2.752   7.784   1.872 -0.5552  1.2802  1.1870
 9080WAT     H237027   2.676   7.732   1.770  2.2250 -0.0659 -0.3071
 9080WAT    EPW37028   2.702   7.731   1.844  0.4145  0.2980  0.1191
 9081WAT      O37029   1.920   7.014   7.263  0.1819  0.3302 -0.4259
 9081WAT     H137030   1.969   6.941   7.264 -0.6562 -0.3308 -2.5476
 9081WAT     H237031   1.937   7.051   7.341  2.8104 -0.6639 -0.4213
 9081WAT    EPW37032   1.930   7.009   7.275  0.6282 -0.7073  0.3687
 9082WAT      O37033   0.653   6.525   0.302  0.3797 -0.2394  0.4808
 9082WAT     H137034   0.632   6.594   0.254 -1.4417 -1.6595 -0.9268
 9082WAT     H237035   0.740   6.532   0.313  0.4890  1.3074 -1.1073
 9082WAT    EPW37036   0.663   6.536   0.297  0.6566  0.2579  0.3003
 9083WAT      O37037   2.594   7.709   0.171 -0.3415 -0.2555 -0.6894
 9083WAT     H137038   2.529   7.652   0.162 -0.1402 -0.6319  0.1734
 9083WAT     H237039   2.604   7.717   0.257 -0.8325  1.6365 -0.7547
 9083WAT    EPW37040   2.586   7.702   0.182 -0.2483 -0.1550 -0.3319
 9084WAT      O37041   3.115   5.188   7.371 -0.0250 -0.3260 -0.8347
 9084WAT     H137042   3.129   5.102   7.371 -1.4252 -0.6158  0.9402
 9084WAT     H237043   3.176   5.219   7.425 -1.3187 -0.6520  0.9254
 9084WAT    EPW37044   3.126   5.180   7.379  0.2200  0.2159 -0.3235
 9085WAT      O37045   1.518   5.440   6.801  0.4354  0.2931  0.5832
 9085WAT     H137046   1.440   5.451   6.839  0.3788 -0.6038  0.7591
 9085WAT     H237047   1.531   5.514   6.758 -0.5672  0.4132  0.4692
 9085WAT    EPW37048   1.508   5.452   6.800  0.4483 -0.8917  0.4324
 9086WAT      O37049   2.684   7.417   7.360 -0.7328  0.6358  0.0758
 9086WAT     H137050   2.714   7.360   7.300  1.0135  0.2506  1.2206
 9086WAT     H237051   2.752   7.471   7.372 -1.8123  2.0266  0.1674
 9086WAT    EPW37052   2.699   7.417   7.353  0.2911 -0.1032 -0.0665
 9087WAT      O37053   3.399   5.041   7.059  0.4298  0.3384 -0.2378
 9087WAT     H137054   3.423   5.011   6.981 -0.8315 -2.7607  0.3996
 9087WAT     H237055   3.389   4.968   7.106 -2.7629  1.7649  1.6095
 9087WAT    EPW37056   3.401   5.026   7.054 -0.4070 -0.4656 -0.2455
 9088WAT      O37057   2.947   5.971   6.911 -0.5356  0.0699 -0.5832
 9088WAT     H137058   2.935   5.887   6.933  0.4908 -0.3639 -1.5643
 9088WAT     H237059   2.870   6.008   6.928 -0.8056 -0.9265  0.4941
 9088WAT    EPW37060   2.934   5.964   6.916  0.0274 -0.7866 -0.2097
 9089WAT      O37061   2.706   5.937   0.260  0.4117 -0.0522 -0.1698
 9089WAT     H137062   2.737   5.900   0.333 -0.8170 -0.7145  0.0504
 9089WAT     H237063   2.729   5.881   0.198 -1.0816 -1.0321  0.1109
 9089WAT    EPW37064   2.714   5.923   0.262  0.2175 -0.0771  0.3334
 9090WAT      O37065   1.759   5.823   7.450  0.2767 -0.1998  0.0388
 9090WAT     H137066   1.753   5.849   7.368 -0.7992  2.1628  0.7833
 9090WAT     H237067   1.827   5.767   7.449  0.5820  0.1119 -2.3161
 9090WAT    EPW37068   1.768   5.818   7.438 -0.5773  0.1141  0.3167
 9091WAT      O37069   3.312   5.519   7.693  0.6664  0.2214 -0.2735
 9091WAT     H137070   3.231   5.528   7.724  1.4922  0.9300  1.8391
 9091WAT     H237071   3.322   5.589   7.642  0.6583  1.3083  1.1827
 9091WAT    EPW37072   3.302   5.531   7.690  0.1415  0.2746 -0.0622
 9092WAT      O37073   1.763   6.233   5.960  0.1193  0.1897  0.1101
 9092WAT     H137074   1.715   6.299   5.991  0.4757  1.0071 -1.0065
 9092WAT     H237075   1.836   6.271   5.932  0.3643 -0.6788 -0.4930
 9092WAT    EPW37076   1.766   6.249   5.960  0.8022 -0.0364  0.3277
 9093WAT      O37077   1.401   4.097   7.983 -0.2031 -0.0135 -0.6336
 9093WAT     H137078   1.435   4.105   7.903  0.7805 -0.6755 -0.2988
 9093WAT     H237079   1.351   4.168   7.991 -0.9326 -0.3160 -2.1289
 9093WAT    EPW37080   1.399   4.109   7.972  0.4897 -0.4808 -0.1464
 9094WAT      O37081   3.545   5.904   7.107 -0.4215 -0.6987 -0.0517
 9094WAT     H137082   3.513   5.984   7.114 -0.3817 -0.6968  0.1039
 9094WAT     H237083   3.605   5.900   7.169  0.6714 -0.3272 -1.0490
 9094WAT    EPW37084   3.549   5.915   7.117 -0.4226  0.6756 -0.6650
 9095WAT      O37085   3.534   6.280   6.785  0.0129  0.1146 -0.3855
 9095WAT     H137086   3.502   6.238   6.716  0.2471  0.1813 -0.5331
 9095WAT     H237087   3.587   6.340   6.751 -1.0180  1.1415 -0.2282
 9095WAT    EPW37088   3.537   6.283   6.770  0.2694  0.3976 -0.0622
 9096WAT      O37089   2.222   6.835   7.203  0.2587 -0.5151  0.0960
 9096WAT     H137090   2.200   6.901   7.150 -2.2609  0.4200  2.0879
 9096WAT     H237091   2.149   6.788   7.207  1.3039 -2.1643  0.5460
 9096WAT    EPW37092   2.208   6.838   7.195 -0.3294 -0.5541  0.7138
 9097WAT      O37093   2.840   5.613   6.797 -0.1209 -0.0230 -0.2733
 9097WAT     H137094   2.907   5.636   6.848 -1.3850  0.8124  1.1134
 9097WAT     H237095   2.795   5.687   6.789 -1.8834 -0.9521  0.4753
 9097WAT    EPW37096   2.843   5.628   6.804  0.1028 -0.4435 -0.5809
 9098WAT      O37097   2.712   5.407   7.729 -0.1048 -0.1218  0.2284
 9098WAT     H137098   2.739   5.326   7.748 -1.2486  0.0573  3.1259
 9098WAT     H237099   2.785   5.447   7.701  0.8215 -1.7010  0.2662
 9098WAT    EPW37100   2.727   5.401   7.727 -0.7140  0.4479  0.5785
 9099WAT      O37101   2.595   5.462   6.885 -0.0202  0.2365 -0.1531
 9099WAT     H137102   2.616   5.380   6.862  1.9091  0.5726  0.1748
 9099WAT     H237103   2.667   5.507   6.865 -0.9688  1.8303 -0.1177
 9099WAT    EPW37104   2.609   5.456   6.879 -0.0016  0.1644 -1.0823
 9100WAT      O37105   7.990   5.276   7.504 -0.1384  0.0148 -0.2264
 9100WAT     H137106   8.042   5.332   7.463 -1.5692  0.7998 -1.0698
 9100WAT     H237107   7.963   5.321   7.574 -1.3431  0.4624 -0.9393
 9100WAT    EPW37108   7.994   5.291   7.509  0.7749 -0.3763 -0.7797
 9101WAT      O37109   2.616   4.806   7.996  0.3192  0.7019  0.1252
 9101WAT     H137110   2.641   4.727   7.970  0.8432  0.2655  1.8027
 9101WAT     H237111   2.570   4.836   7.928  1.8171 -0.1892 -1.3555
 9101WAT    EPW37112   2.613   4.799   7.982  0.3191  0.3202 -0.4685
 9102WAT      O37113   1.599   7.021   0.235 -0.0440  0.7571 -0.2131
 9102WAT     H137114   1.661   6.982   0.282 -0.1604 -0.0610 -0.7176
 9102WAT     H237115   1.526   7.006   0.281 -0.2978 -0.8137 -1.0536
 9102WAT    EPW37116   1.598   7.013   0.249 -0.2537 -0.2518  0.2766
 9103WAT      O37117   3.050   6.534   6.098 -0.2212 -0.0199  0.2087
 9103WAT     H137118   3.133   6.514   6.084 -0.0938 -0.1494  1.1283
 9103WAT     H237119   3.030   6.493   6.172 -1.1229 -0.0426 -0.0285
 9103WAT    EPW37120   3.059   6.525   6.107 -1.1014  0.4809 -0.5911
 9104WAT      O37121   2.803   6.725   0.048  0.0123 -0.2689  0.0949
 9104WAT     H137122   2.722   6.700   0.028  0.2898 -0.6089 -0.6253
 9104WAT     H237123   2.854   6.676  -0.004  0.6597  0.2748  0.1926
 9104WAT    EPW37124   2.799   6.714   0.037 -0.3414 -0.2258  0.4556
 9105WAT      O37125   1.878   6.385   6.910 -0.3519  0.3373  0.3169
 9105WAT     H137126   1.934   6.327   6.944  0.3681  1.2739  0.7662
 9105WAT     H237127   1.836   6.339   6.848 -0.0207 -0.7387  0.8604
 9105WAT    EPW37128   1.880   6.369   6.906  0.1636 -0.0967 -0.4212
 9106WAT      O37129   3.881   6.117   7.298  0.2101  0.0295  0.0771
 9106WAT     H137130   3.881   6.195   7.338 -0.6738 -0.0132  0.1836
 9106WAT     H237131   3.955   6.080   7.326 -0.2611  0.0955  1.5275
 9106WAT    EPW37132   3.892   6.123   7.308 -1.7809  0.6784 -0.1645
 9107WAT      O37133   1.585   6.214   0.715  0.1314  0.3958 -1.2615
 9107WAT     H137134   1.619   6.246   0.788  0.0451  0.5120 -1.2714
 9107WAT     H237135   1.637   6.147   0.695 -1.0376 -0.9790  0.0556
 9107WAT    EPW37136   1.598   6.208   0.723 -0.2943  0.0834  0.1338
 9108WAT      O37137   3.088   6.872   7.730  0.1126 -0.3830  0.3928
 9108WAT     H137138   3.164   6.856   7.691  1.2464 -0.0177  2.3111
 9108WAT     H237139   3.096   6.954   7.759 -0.6066 -0.6490  1.4262
 9108WAT    EPW37140   3.100   6.882   7.729 -0.8303 -0.6018  0.5636
 9109WAT      O37141   2.364   5.674   1.038  0.6751 -0.3939  0.4012
 9109WAT     H137142   2.430   5.677   0.981  0.6539  1.4359  0.4001
 9109WAT     H237143   2.391   5.724   1.104 -0.1924 -0.6733  0.9938
 9109WAT    EPW37144   2.378   5.682   1.039 -0.2546  0.0198 -0.1293
 9110WAT      O37145   2.636   5.780   6.702  0.4678  0.3530  0.3135
 9110WAT     H137146   2.693   5.843   6.682 -2.4161  2.8598 -0.9635
 9110WAT     H237147   2.622   5.740   6.625  1.9406 -1.7129  1.0283
 9110WAT    EPW37148   2.642   5.784   6.688 -0.2286 -0.9842  0.0620
 9111WAT      O37149   4.513   6.165   7.394 -0.5137 -0.2380 -0.6924
 9111WAT     H137150   4.558   6.224   7.348  0.0724  0.9255  1.2770
 9111WAT     H237151   4.575   6.110   7.422 -0.2620  1.1249  1.6651
 9111WAT    EPW37152   4.529   6.166   7.391 -0.2836 -0.7860 -0.3604
 9112WAT      O37153   1.934   5.595   0.588 -0.0965  0.3882  0.6125
 9112WAT     H137154   2.020   5.592   0.605 -0.0510 -1.0074  0.2289
 9112WAT     H237155   1.928   5.655   0.525  1.1310 -2.0735 -2.0321
 9112WAT    EPW37156   1.946   5.604   0.581  0.0456  0.1155  0.2301
 9113WAT      O37157   4.569   5.292   7.488  0.0155  0.1955 -0.3743
 9113WAT     H137158   4.620   5.266   7.554  0.5593  0.3017 -0.7433
 9113WAT     H237159   4.625   5.303   7.422 -0.4360  0.6904 -0.6831
 9113WAT    EPW37160   4.585   5.290   7.488 -1.3287  0.1117  0.2559
 9114WAT      O37161   1.250   4.863   0.652 -0.4771  0.0893  0.6700
 9114WAT     H137162   1.318   4.836   0.604 -0.7529  0.6641 -0.0637
 9114WAT     H237163   1.208   4.917   0.598 -1.1286  0.2797  1.3649
 9114WAT    EPW37164   1.254   4.867   0.637 -0.1211 -0.8767  0.9512
 9115WAT      O37165   3.187   4.956   0.291 -0.0341 -0.5474 -0.2001
 9115WAT     H137166   3.206   4.882   0.251 -0.2570 -0.0773 -1.2133
 9115WAT     H237167   3.122   4.989   0.243  0.9840  0.9649 -0.6186
 9115WAT    EPW37168   3.180   4.950   0.278  0.1922  1.5030  0.2097
 9116WAT      O37169   3.597   4.395   6.494  0.4154 -0.1447  0.3388
 9116WAT     H137170   3.575   4.447   6.560 -0.4070 -0.2267  0.1419
 9116WAT     H237171   3.578   4.315   6.523  0.7595 -0.2486  0.2797
 9116WAT    EPW37172   3.591   4.391   6.508 -1.0099 -0.4480 -0.3510
 9117WAT      O37173   1.391   7.082   7.844  0.3075  0.6014 -0.7403
 9117WAT     H137174   1.336   7.053   7.905  2.9308  0.7172  1.9421
 9117WAT     H237175   1.439   7.012   7.824  0.7585  1.0182 -1.1443
 9117WAT    EPW37176   1.390   7.068   7.850 -0.0780 -0.1874 -0.2707
 9118WAT      O37177   1.767   5.998   0.971 -0.2201 -0.1341  0.1487
 9118WAT     H137178   1.844   6.027   1.000  1.0346 -2.0770 -1.0001
 9118WAT     H237179   1.729   5.967   1.042  0.4230  0.0790  0.5970
 9118WAT    EPW37180   1.773   5.998   0.986  0.4424 -0.1972  0.6400
 9119WAT      O37181   2.128   6.668   6.840 -0.0514 -0.6519  0.0744
 9119WAT     H137182   2.209   6.697   6.855  0.8151 -2.4816 -0.7915
 9119WAT     H237183   2.077   6.726   6.881  1.5982  1.4609 -0.7188
 9119WAT    EPW37184   2.132   6.681   6.848 -0.0154  0.3949  0.4124
 9120WAT      O37185   2.341   5.309   0.546  0.2625 -0.2864 -0.3063
 9120WAT     H137186   2.425   5.310   0.522  1.2506 -2.0744  2.5524
 9120WAT     H237187   2.318   5.226   0.534 -0.9417  0.0616 -0.4844
 9120WAT    EPW37188   2.350   5.297   0.541  0.1695 -0.2762 -0.8145
 9121WAT      O37189   1.938   4.277   7.911  0.4249  0.3944  0.1949
 9121WAT     H137190   1.960   4.200   7.876 -0.4728 -0.0294  0.5445
 9121WAT     H237191   1.877   4.308   7.857 -1.9201 -0.8543  1.9743
 9121WAT    EPW37192   1.932   4.270   7.898  0.1330 -0.8202 -0.6329
 9122WAT      O37193   1.161   4.560   0.125 -0.2715 -0.8853 -0.2616
 9122WAT     H137194   1.234   4.590   0.162 -0.9079  0.4300 -0.0171
 9122WAT     H237195   1.152   4.609   0.054 -0.5583 -1.4983 -0.6567
 9122WAT    EPW37196   1.170   4.571   0.120  0.0740 -0.3531 -0.4971
 9123WAT      O37197   4.329   7.579   7.169 -0.2782  0.4931  0.5092
 9123WAT     H137198   4.282   7.558   7.099  0.4147 -0.4921  0.3148
 9123WAT     H237199   4.274   7.626   7.218 -1.2953 -0.2073  0.0569
 9123WAT    EPW37200   4.314   7.583   7.166  0.4116 -0.0410 -0.3994
 9124WAT      O37201   2.150   6.429   1.415  0.4336  0.3791 -0.0790
 9124WAT     H137202   2.147   6.360   1.362  2.1502 -3.5058  4.2270
 9124WAT     H237203   2.067   6.437   1.443  0.4040 -0.6991  0.1699
 9124WAT    EPW37204   2.137   6.420   1.412  0.1726  0.8068  0.0129
 9125WAT      O37205   3.425   4.663   0.858 -0.5106  0.4843  0.0250
 9125WAT     H137206   3.352   4.646   0.812  0.3774  0.9833 -1.6705
 9125WAT     H237207   3.439   4.748   0.842  1.5703 -0.0629 -1.4680
 9125WAT    EPW37208   3.416   4.673   0.848  0.5168 -0.0848 -0.4335
 9126WAT      O37209   3.457   4.776   7.198  0.1677  0.1259 -0.1154
 9126WAT     H137210   3.495   4.719   7.145  0.3932 -0.5170  0.7181
 9126WAT     H237211   3.524   4.821   7.232  0.0649  0.1867  0.0125
 9126WAT    EPW37212   3.472   4.774   7.195  0.0495  0.1989 -0.3469
 9127WAT      O37213   2.297   5.065   7.444 -0.0559  0.2410 -0.1092
 9127WAT     H137214   2.358   5.113   7.484  0.5511 -0.5073 -0.1032
 9127WAT     H237215   2.340   4.991   7.423 -0.6051  0.2332 -1.2945
 9127WAT    EPW37216   2.313   5.061   7.447 -0.4270  0.0924 -0.4696
 9128WAT      O37217   2.127   4.553   0.245  0.0570  0.2441  0.0257
 9128WAT     H137218   2.150   4.637   0.240  1.4285 -0.1583 -0.9093
 9128WAT     H237219   2.201   4.512   0.265 -0.5806 -0.7512  0.4114
 9128WAT    EPW37220   2.141   4.560   0.247 -0.5546 -0.4978 -0.8604
 9129WAT      O37221   2.389   5.285   0.840  0.2995 -0.3110 -0.3204
 9129WAT     H137222   2.306   5.302   0.860 -0.1153 -2.4696  0.0221
 9129WAT     H237223   2.391   5.293   0.753  0.1784  1.3789 -0.2000
 9129WAT    EPW37224   2.377   5.289   0.830 -0.4237 -0.3320  0.4747
 9130WAT      O37225   1.506   5.723   7.594 -0.7492  0.2650 -0.2391
 9130WAT     H137226   1.482   5.701   7.675 -1.7670  1.2532 -0.2662
 9130WAT     H237227   1.587   5.753   7.604 -0.2739 -1.0656  0.1640
 9130WAT    EPW37228   1.515   5.724   7.607 -0.6294  0.1074 -0.3899
 9131WAT      O37229   2.733   3.360   0.606  0.1904 -0.5796 -0.6136
 9131WAT     H137230   2.666   3.332   0.654  0.3782  1.5605  1.0504
 9131WAT     H237231   2.695   3.407   0.543  0.0406  1.7273  1.0731
 9131WAT    EPW37232   2.717   3.363   0.603 -0.0111  0.0705 -0.4242
 9132WAT      O37233   2.336   7.179   8.025 -0.0582  0.1382  0.0777
 9132WAT     H137234   2.303   7.236   7.968  0.1098  0.8671  0.6950
 9132WAT     H237235   2.390   7.131   7.976 -2.8171 -1.8808 -1.2222
 9132WAT    EPW37236   2.339   7.180   8.010  0.3609  0.7389  0.0391
 9133WAT      O37237   2.615   6.572   7.328 -0.1501  0.8606 -0.0554
 9133WAT     H137238   2.677   6.524   7.291 -1.0080  1.5188 -2.5662
 9133WAT     H237239   2.601   6.533   7.405  2.7792  0.2846  0.2756
 9133WAT    EPW37240   2.622   6.559   7.334 -0.4861 -0.0904 -0.8135
 9134WAT      O37241   3.704   5.276   0.952  0.0269 -0.1035  0.2603
 9134WAT     H137242   3.689   5.359   0.932  1.0795 -0.0857 -0.5157
 9134WAT     H237243   3.644   5.233   0.905  0.2292  0.1507 -0.2351
 9134WAT    EPW37244   3.693   5.282   0.942 -0.1897 -0.9578 -0.2168
 9135WAT      O37245   2.066   4.992   6.824  0.5463 -0.6382  0.5039
 9135WAT     H137246   2.128   5.053   6.820  0.7500 -0.8074  1.0099
 9135WAT     H237247   2.027   5.008   6.900 -2.1851  1.5202 -1.1400
 9135WAT    EPW37248   2.069   5.003   6.835 -0.3185 -0.7040 -0.2583
 9136WAT      O37249   3.873   5.644   8.006  1.0163  0.2256 -0.3077
 9136WAT     H137250   3.936   5.683   8.052  0.6788  2.5815 -1.6928
 9136WAT     H237251   3.801   5.659   8.055  1.3016 -1.4800  0.7075
 9136WAT    EPW37252   3.871   5.652   8.020  0.2018 -0.3009 -0.1705
 9137WAT      O37253   3.007   5.312   7.782 -0.4377 -0.2493  0.8308
 9137WAT     H137254   2.985   5.309   7.698  0.1476 -0.3915  0.6747
 9137WAT     H237255   3.084   5.271   7.784  0.1869  0.8983  1.2240
 9137WAT    EPW37256   3.016   5.305   7.770  0.8280 -0.0123  0.4090
 9138WAT      O37257   2.009   6.757   0.563 -0.2398 -0.1693  0.4227
 9138WAT     H137258   2.043   6.679   0.543  0.2957 -0.1298  1.1285
 9138WAT     H237259   1.952   6.738   0.627  1.2409  0.2083  1.9336
 9138WAT    EPW37260   2.006   6.742   0.570 -0.2797 -0.2850 -0.1015
 9139WAT      O37261   2.564   5.388   7.429 -0.1503  0.0671 -0.2571
 9139WAT     H137262   2.535   5.343   7.499  0.1235 -0.8973 -0.7485
 9139WAT     H237263   2.490   5.414   7.390 -0.3105  0.1131  0.0673
 9139WAT    EPW37264   2.548   5.385   7.434 -0.9445  0.3645  0.3097
 9140WAT      O37265   2.382   5.727   7.776  0.3530 -0.4007  0.3645
 9140WAT     H137266   2.437   5.762   7.834  3.0791 -1.0490 -1.5781
 9140WAT     H237267   2.436   5.696   7.714 -2.1935 -2.4923 -0.9961
 9140WAT    EPW37268   2.398   5.728   7.775 -0.3256  0.3042 -0.4401
 9141WAT      O37269   3.991   5.090   0.365  0.1209 -0.2947  0.4360
 9141WAT     H137270   3.913   5.096   0.326  1.2798  0.5973 -1.8785
 9141WAT     H237271   3.990   5.010   0.400 -1.7805 -0.3346  0.3935
 9141WAT    EPW37272   3.979   5.079   0.365  0.2710 -0.3814 -0.4444
 9142WAT      O37273   1.991   6.452   1.170  0.0598  0.5452  0.2447
 9142WAT     H137274   1.984   6.365   1.168 -2.9956  0.6569 -1.6804
 9142WAT     H237275   1.949   6.474   1.243  1.9426  0.4520  1.4203
 9142WAT    EPW37276   1.983   6.442   1.180 -0.4215 -0.6037 -0.6129
 9143WAT      O37277   2.112   6.295   0.693 -0.0107 -0.6026 -0.5944
 9143WAT     H137278   2.195   6.306   0.717  0.4650  0.5962 -2.5560
 9143WAT     H237279   2.067   6.341   0.752  1.0922  2.2689 -1.8380
 9143WAT    EPW37280   2.118   6.303   0.705 -0.3560  0.1079  0.3872
 9144WAT      O37281   2.300   6.070   1.148  0.1376  0.5404  0.0745
 9144WAT     H137282   2.350   6.139   1.128  0.9895  0.8015  2.7068
 9144WAT     H237283   2.287   6.031   1.071 -1.1353  4.0727 -1.6971
 9144WAT    EPW37284   2.305   6.074   1.134 -0.0865  0.8410 -0.0889
 9145WAT      O37285   2.901   7.610   5.945  0.0372 -0.3990  0.2890
 9145WAT     H137286   2.863   7.679   5.981 -3.9399 -1.7591 -0.7931
 9145WAT     H237287   2.860   7.601   5.869  1.1875 -3.2572 -0.1289
 9145WAT    EPW37288   2.890   7.619   5.939 -0.3690 -0.4878  0.0367
 9146WAT      O37289   2.953   4.864   7.446 -0.8362 -0.3023  0.5298
 9146WAT     H137290   3.038   4.864   7.427 -1.0419 -1.9017 -0.5180
 9146WAT     H237291   2.926   4.786   7.419 -3.2242  1.2011 -1.7926
 9146WAT    EPW37292   2.962   4.853   7.439 -0.0253 -0.8015  0.4281
 9147WAT      O37293   1.333   7.605   0.188  0.1061 -0.2748  0.4249
 9147WAT     H137294   1.327   7.557   0.261 -0.3838  0.0274  0.5919
 9147WAT     H237295   1.418   7.611   0.173  0.2105 -0.2973  1.0040
 9147WAT    EPW37296   1.344   7.599   0.196  0.6866 -0.5028 -0.1669
 9148WAT      O37297   2.018   5.804   6.822  0.6309 -0.0789  0.4013
 9148WAT     H137298   1.973   5.732   6.803 -0.5265  0.3596  1.4188
 9148WAT     H237299   2.087   5.774   6.866 -0.4766 -0.5047  1.9295
 9148WAT    EPW37300   2.022   5.789   6.825 -0.7199 -0.2704  1.0543
 9149WAT      O37301   0.553   4.037   7.695 -0.2777  0.2658  0.5187
 9149WAT     H137302   0.557   4.081   7.620 -1.1690  0.4249  0.5513
 9149WAT     H237303   0.580   4.095   7.755  1.3196 -0.1362  0.2480
 9149WAT    EPW37304   0.558   4.052   7.693  0.4636 -0.6751  0.4384
 9150WAT      O37305   1.768   5.404   0.455  0.3765 -0.3926  0.1955
 9150WAT     H137306   1.701   5.460   0.454 -0.7738 -1.7125 -1.2061
 9150WAT     H237307   1.836   5.453   0.480 -0.9956  1.1072  1.1502
 9150WAT    EPW37308   1.768   5.419   0.459  0.1165  1.0052 -0.4361
 9151WAT      O37309   2.617   5.628   6.469  0.1455  0.5979  0.1879
 9151WAT     H137310   2.541   5.636   6.426 -0.2982  3.4303  1.2594
 9151WAT     H237311   2.677   5.640   6.407 -0.2663 -0.5996 -0.4825
 9151WAT    EPW37312   2.615   5.631   6.453 -0.1486  0.3287 -0.5467
 9152WAT      O37313   2.872   7.177   6.647  0.1792 -0.4425 -0.3496
 9152WAT     H137314   2.881   7.258   6.679 -1.0441 -0.4861  0.1698
 9152WAT     H237315   2.853   7.129   6.718 -2.3559 -0.5910 -1.0569
 9152WAT    EPW37316   2.871   7.182   6.662  0.4930  0.5820 -0.3524
 9153WAT      O37317   1.684   6.890   6.889  0.1369  0.6381  0.0390
 9153WAT     H137318   1.704   6.820   6.841 -2.0795 -0.0911  0.0408
 9153WAT     H237319   1.694   6.957   6.834  0.1026  0.0694 -0.6694
 9153WAT    EPW37320   1.688   6.890   6.874 -0.1019  0.5238  0.1178
 9154WAT      O37321   1.912   3.569   7.753 -0.2146  0.0624  0.3664
 9154WAT     H137322   1.985   3.579   7.707 -0.8779 -0.0977 -0.7647
 9154WAT     H237323   1.926   3.616   7.825  1.0134 -0.0128  0.1928
 9154WAT    EPW37324   1.925   3.577   7.757  0.5367  0.3558 -0.3627
 9155WAT      O37325   0.984   7.441   7.742 -0.1960 -0.2098  0.0137
 9155WAT     H137326   0.979   7.472   7.660  0.9541 -0.1961 -0.0692
 9155WAT     H237327   1.064   7.407   7.746  0.8346  2.0916  1.9006
 9155WAT    EPW37328   0.995   7.441   7.730  0.3281  0.6106 -0.1194
 9156WAT      O37329   1.334   3.878   0.087 -0.1632 -0.2826  0.1223
 9156WAT     H137330   1.335   3.952   0.040  0.0453 -0.4358 -0.1142
 9156WAT     H237331   1.411   3.841   0.068  1.3588  1.1277  2.9374
 9156WAT    EPW37332   1.345   3.883   0.077 -0.5473 -0.2446 -0.8356
 9157WAT      O37333   2.565   6.487   5.987 -0.3745  0.3103  0.0017
 9157WAT     H137334   2.629   6.436   5.957 -1.5118 -0.9323 -0.4145
 9157WAT     H237335   2.534   6.444   6.056 -0.5654  1.0501  0.3902
 9157WAT    EPW37336   2.570   6.473   5.992  0.9782  0.1530 -0.2466
 9158WAT      O37337   2.660   5.181   6.934 -0.2212  0.7823 -0.2148
 9158WAT     H137338   2.742   5.157   6.915 -1.0160 -1.1717 -1.5160
 9158WAT     H237339   2.667   5.218   7.013  1.8154  0.0465  0.0055
 9158WAT    EPW37340   2.673   5.183   6.943 -0.0380 -0.4445  0.0011
 9159WAT      O37341   2.443   4.385   6.837  0.6802  0.1501  0.3261
 9159WAT     H137342   2.447   4.409   6.921  1.3483 -0.2804  0.4236
 9159WAT     H237343   2.414   4.457   6.797 -0.3124  0.1505  1.0048
 9159WAT    EPW37344   2.439   4.399   6.844  0.6033 -1.5312  0.1844
 9160WAT      O37345   1.086   4.418   0.581  0.8282 -0.0175  0.2037
 9160WAT     H137346   1.051   4.485   0.539  0.8968 -0.8915 -1.3434
 9160WAT     H237347   1.090   4.445   0.664 -0.0996  1.4638 -0.1940
 9160WAT    EPW37348   1.081   4.432   0.587  0.0593  0.5496 -0.1891
 9161WAT      O37349   3.428   4.930   0.791 -0.2171  0.0752 -0.4877
 9161WAT     H137350   3.386   4.929   0.714  0.2582  2.1292 -0.8395
 9161WAT     H237351   3.485   4.996   0.782  1.8192 -1.4183  0.6483
 9161WAT    EPW37352   3.430   4.940   0.778  0.7410  0.8141  0.3213
 9162WAT      O37353   2.197   6.913   0.709  0.0487 -0.1280  0.0736
 9162WAT     H137354   2.128   6.861   0.694  0.1494  0.0954 -1.3233
 9162WAT     H237355   2.187   6.977   0.651  1.3782 -0.0343 -0.0824
 9162WAT    EPW37356   2.185   6.915   0.698 -0.0156  0.8207  0.7331
 9163WAT      O37357   2.019   5.526   7.649 -0.4524  0.4821  0.6140
 9163WAT     H137358   1.993   5.587   7.706 -0.6478  0.2418  0.7871
 9163WAT     H237359   2.076   5.479   7.695  0.3573  1.0537  0.2101
 9163WAT    EPW37360   2.023   5.528   7.664 -0.2034 -0.4203  0.0439
 9164WAT      O37361   2.835   6.362   7.329  0.1511  0.3423  0.1971
 9164WAT     H137362   2.781   6.304   7.364  0.3952 -0.0250 -0.0252
 9164WAT     H237363   2.886   6.386   7.396  0.2640  0.0559  0.2115
 9164WAT    EPW37364   2.835   6.357   7.344 -0.4748 -1.3904 -0.1857
 9165WAT      O37365   1.293   6.762   7.432 -0.6249 -0.4694 -0.1454
 9165WAT     H137366   1.231   6.703   7.414 -0.5433 -0.3746 -0.7761
 9165WAT     H237367   1.361   6.735   7.385  0.4475 -1.5939  1.9204
 9165WAT    EPW37368   1.294   6.749   7.422  0.3805 -1.6405  0.7469
 9166WAT      O37369   4.579   4.940   7.841 -0.1666  0.4128  0.5216
 9166WAT     H137370   4.582   4.995   7.773 -0.7215 -2.0065 -1.6499
 9166WAT     H237371   4.663   4.932   7.864  0.0635  1.1510 -0.0048
 9166WAT    EPW37372   4.592   4.947   7.834 -0.0614 -0.7600 -0.0627
 9167WAT      O37373   3.471   4.465   7.776  0.2556 -0.2985 -0.5063
 9167WAT     H137374   3.395   4.426   7.793 -0.5871  1.0942 -0.8613
 9167WAT     H237375   3.474   4.467   7.689  0.8426 -0.5968 -0.4953
 9167WAT    EPW37376   3.460   4.460   7.766 -0.2820  0.6216 -0.2968
 9168WAT      O37377   4.146   5.001   7.407 -0.5707 -0.0394  0.5487
 9168WAT     H137378   4.125   4.938   7.464 -0.4389 -0.2433  0.3700
 9168WAT     H237379   4.232   4.995   7.400 -0.6367 -0.3163 -0.0268
 9168WAT    EPW37380   4.155   4.991   7.415 -0.5802  0.3859 -0.0446
 9169WAT      O37381   3.902   4.458   0.546 -0.2510  0.0457 -0.8217
 9169WAT     H137382   3.918   4.489   0.466 -2.4110  1.9432 -0.6176
 9169WAT     H237383   3.816   4.448   0.547 -0.0506 -2.1617  0.5783
 9169WAT    EPW37384   3.892   4.461   0.534 -0.8474  0.0240  0.4093
 9170WAT      O37385   3.080   5.564   7.838  0.0591 -0.1965 -0.0033
 9170WAT     H137386   3.016   5.596   7.789  0.0549 -1.7601 -1.0751
 9170WAT     H237387   3.061   5.479   7.846  2.7727 -1.1003 -1.7351
 9170WAT    EPW37388   3.068   5.556   7.832  0.0204 -0.3408 -0.1240
 9171WAT      O37389   2.733   5.138   7.767  0.0928 -0.6490 -0.0586
 9171WAT     H137390   2.807   5.100   7.740  1.6429  0.6229  2.0995
 9171WAT     H237391   2.744   5.146   7.853 -0.8963  2.9553 -0.0941
 9171WAT    EPW37392   2.745   5.134   7.776 -0.8817 -0.0383 -0.3071
 9172WAT      O37393   3.954   4.534   0.268  0.4041  0.4613 -0.0628
 9172WAT     H137394   3.990   4.604   0.229 -0.4984  0.9268 -0.1131
 9172WAT     H237395   3.875   4.530   0.231  0.7354 -1.1179 -0.6857
 9172WAT    EPW37396   3.947   4.544   0.257  0.2260 -0.3840 -0.6463
 9173WAT      O37397   2.587   5.785   1.786 -0.1533 -0.8456  0.2063
 9173WAT     H137398   2.652   5.828   1.825 -0.5972 -1.4711  1.7169
 9173WAT     H237399   2.619   5.765   1.708  0.6424  0.7908  0.0777
 9173WAT    EPW37400   2.601   5.789   1.780  0.0529 -0.0619 -1.1227
 9174WAT      O37401   2.037   6.445   6.543  0.3846 -0.0154  0.5072
 9174WAT     H137402   2.114   6.482   6.563  0.1510  0.9279 -0.2271
 9174WAT     H237403   2.032   6.376   6.596 -0.0856  2.1342  3.5089
 9174WAT    EPW37404   2.048   6.440   6.554  0.2891 -0.6241  0.1447
 9175WAT      O37405   4.010   4.842   7.596 -0.4496  0.2918  0.1382
 9175WAT     H137406   4.009   4.780   7.658 -0.4957  1.5365  1.4449
 9175WAT     H237407   3.930   4.877   7.601 -0.0634  1.1857  0.2045
 9175WAT    EPW37408   3.998   4.838   7.606  0.2856  1.1149 -0.5387
 9176WAT      O37409   1.637   6.870   1.191  0.2591  1.0591  0.1621
 9176WAT     H137410   1.622   6.916   1.119  1.4749  1.7194  0.3064
 9176WAT     H237411   1.558   6.840   1.213 -0.0487  0.2816 -1.8041
 9176WAT    EPW37412   1.623   6.872   1.183 -0.5053  0.4294 -0.2066
 9177WAT      O37413   1.747   6.288   7.518 -0.1131  0.1132 -0.0904
 9177WAT     H137414   1.671   6.245   7.518 -0.1431  0.1688  0.3286
 9177WAT     H237415   1.783   6.266   7.594  1.7199 -2.4698 -1.5296
 9177WAT    EPW37416   1.741   6.278   7.529  0.1509 -0.6169 -0.4070
 9178WAT      O37417   2.762   4.467   0.509 -0.7809 -0.7739  0.2682
 9178WAT     H137418   2.771   4.385   0.480  0.0392 -0.8332  0.6546
 9178WAT     H237419   2.744   4.457   0.594 -0.9679 -0.5565  0.2548
 9178WAT    EPW37420   2.761   4.453   0.517 -0.1629 -0.5128  0.2212
 9179WAT      O37421   1.943   6.325   0.067 -0.1544  0.2483 -0.1040
 9179WAT     H137422   1.891   6.372   0.015 -1.2043 -1.7841 -0.9995
 9179WAT     H237423   1.890   6.298   0.130  0.2949 -0.2129  0.0830
 9179WAT    EPW37424   1.928   6.328   0.068 -0.2208 -0.0713 -0.1306
 9180WAT      O37425   2.762   5.003   7.303  0.1593 -0.6535  0.1296
 9180WAT     H137426   2.824   4.965   7.350 -0.9909 -0.4868  1.8436
 9180WAT     H237427   2.743   4.943   7.243  1.6684 -0.8508 -0.2093
 9180WAT    EPW37428   2.769   4.988   7.301  0.0168 -0.2574 -1.1184
 9181WAT      O37429   2.903   6.742   7.297 -0.2633 -0.3489  0.1678
 9181WAT     H137430   2.962   6.794   7.259  0.4648 -1.6268 -0.5145
 9181WAT     H237431   2.839   6.738   7.239 -0.8224  0.6374  0.6936
 9181WAT    EPW37432   2.903   6.749   7.283  0.6890 -0.0827  0.2936
 9182WAT      O37433   1.099   5.107   7.937  0.0342  0.3739  0.1605
 9182WAT     H137434   1.176   5.095   7.975 -0.3487  0.1129  0.8673
 9182WAT     H237435   1.054   5.036   7.959 -0.6233  0.8228  0.2896
 9182WAT    EPW37436   1.103   5.095   7.946  0.3155 -0.2056 -1.0290
 9183WAT      O37437   1.740   6.173   7.132 -0.2483  0.0363  0.2169
 9183WAT     H137438   1.769   6.236   7.185  1.2809  0.5965 -1.1658
 9183WAT     H237439   1.769   6.199   7.053  1.7910 -3.0841 -0.2440
 9183WAT    EPW37440   1.749   6.186   7.128  0.0765 -0.0073  0.3118
 9184WAT      O37441   3.738   5.133   0.209 -0.5522  0.2384 -0.1514
 9184WAT     H137442   3.692   5.122   0.136  0.3883 -1.4363 -0.5678
 9184WAT     H237443   3.678   5.131   0.272 -1.1201 -1.9612 -0.6629
 9184WAT    EPW37444   3.722   5.131   0.208  1.1818  0.0754  0.5646
 9185WAT      O37445   1.645   4.722   7.066  0.2355 -0.6713 -0.1528
 9185WAT     H137446   1.720   4.700   7.105  0.1259 -1.0764 -0.1638
 9185WAT     H237447   1.614   4.787   7.115 -0.5868 -2.0676  1.2684
 9185WAT    EPW37448   1.652   4.728   7.079 -0.1122  0.5835 -0.1503
 9186WAT      O37449   2.151   5.489   0.084 -0.0888  0.1078 -0.3497
 9186WAT     H137450   2.155   5.530   0.161  0.7807 -0.9757  0.2187
 9186WAT     H237451   2.076   5.445   0.089  0.3158 -0.5516  0.2238
 9186WAT    EPW37452   2.141   5.488   0.096 -0.7258  0.2961 -0.1212
 9187WAT      O37453   3.193   4.291   0.373 -0.2350 -0.4199 -0.5569
 9187WAT     H137454   3.188   4.362   0.423 -0.8889 -0.4866 -0.5207
 9187WAT     H237455   3.132   4.238   0.407 -0.5490 -0.5417 -1.2919
 9187WAT    EPW37456   3.183   4.294   0.385  0.1229 -0.1220 -0.6933
 9188WAT      O37457   1.665   5.105   0.989 -0.0671  0.1449 -0.4042
 9188WAT     H137458   1.744   5.078   0.963  0.2444  0.0431  0.6094
 9188WAT     H237459   1.667   5.095   1.075 -0.8591  1.0496 -0.2641
 9188WAT    EPW37460   1.677   5.099   0.998  0.2069 -0.8073  0.0143
 9189WAT      O37461   1.795   5.080   7.287  0.2626 -0.9105 -0.4205
 9189WAT     H137462   1.787   5.052   7.369 -0.0204 -0.8087 -0.4136
 9189WAT     H237463   1.793   5.167   7.295 -0.8057 -0.9032 -0.6366
 9189WAT    EPW37464   1.794   5.089   7.300 -0.0553 -0.4085  0.1591
 9190WAT      O37465   2.319   6.677   7.492 -0.1252  0.0155 -0.4731
 9190WAT     H137466   2.290   6.617   7.436  0.3930  1.1975 -2.0974
 9190WAT     H237467   2.250   6.731   7.502 -0.2574 -0.2611  0.1502
 9190WAT    EPW37468   2.304   6.676   7.485  0.1354  0.1100 -0.2397
 9191WAT      O37469   3.292   7.400   6.046  0.0128 -0.5218 -0.7643
 9191WAT     H137470   3.272   7.381   6.129 -1.7401 -1.3508 -1.3178
 9191WAT     H237471   3.308   7.485   6.047 -1.8664 -0.1345  0.1339
 9191WAT    EPW37472   3.291   7.410   6.058  0.1239  0.8058 -0.0423
 9192WAT      O37473   1.124   3.539   0.939 -0.1377 -0.0715  0.2405
 9192WAT     H137474   1.138   3.610   0.891  0.3300  0.8212  1.6569
 9192WAT     H237475   1.057   3.561   0.990  0.2733 -0.4809  0.9826
 9192WAT    EPW37476   1.116   3.553   0.940 -0.2916  1.3212  0.2079
 9193WAT      O37477   1.428   6.654   7.664 -0.1485  0.2159 -0.0379
 9193WAT     H137478   1.380   6.688   7.600 -0.8632 -1.2282 -0.2938
 9193WAT     H237479   1.508   6.649   7.630 -0.3522  0.2152 -0.5144
 9193WAT    EPW37480   1.433   6.658   7.650  0.5919 -0.5455  0.4892
 9194WAT      O37481   2.563   6.535   5.174 -0.1681  0.2807 -0.0884
 9194WAT     H137482   2.540   6.617   5.152  2.2504  1.4850  1.3951
 9194WAT     H237483   2.641   6.526   5.137  0.1535 -0.8877  0.8201
 9194WAT    EPW37484   2.571   6.546   5.165  0.2273 -0.6419 -0.5008
 9195WAT      O37485   3.607   4.714   6.173  0.6495  0.2231  0.3324
 9195WAT     H137486   3.619   4.787   6.218 -1.2057 -0.0475  1.3401
 9195WAT     H237487   3.643   4.732   6.095  2.0885  1.4211  1.2296
 9195WAT    EPW37488   3.614   4.727   6.168  0.3015  0.0281 -0.4521
 9196WAT      O37489   1.377   3.708   4.815 -0.3841 -0.0363  0.0718
 9196WAT     H137490   1.449   3.692   4.863  0.2988  3.3029  0.3954
 9196WAT     H237491   1.327   3.755   4.868 -0.9952  1.1084 -1.4577
 9196WAT    EPW37492   1.380   3.712   4.830  0.1995  0.2241  0.4492
 9197WAT      O37493   3.419   6.551   4.687 -0.2529 -0.0643 -0.3123
 9197WAT     H137494   3.341   6.514   4.697 -0.1326 -0.4893 -0.8719
 9197WAT     H237495   3.445   6.522   4.609  0.2727  0.4226 -0.3227
 9197WAT    EPW37496   3.411   6.541   4.677 -0.1273 -0.4419  0.3650
 9198WAT      O37497   1.132   5.885   4.728  0.0789  0.3062 -0.3624
 9198WAT     H137498   1.138   5.835   4.799  2.0151  0.7680 -0.1357
 9198WAT     H237499   1.208   5.871   4.686  0.1357  2.0227 -0.9468
 9198WAT    EPW37500   1.144   5.876   4.732  0.3071 -0.4309 -0.1114
 9199WAT      O37501   2.822   6.331   5.436  0.0596  0.4152 -0.1174
 9199WAT     H137502   2.747   6.357   5.470  0.7599  0.8673  1.1299
 9199WAT     H237503   2.798   6.288   5.364 -1.2153  3.3791 -1.6090
 9199WAT    EPW37504   2.808   6.328   5.430 -0.0854  0.2593 -0.2596
 9200WAT      O37505   3.037   5.228   4.020  0.0906 -0.5304  0.3324
 9200WAT     H137506   3.076   5.293   4.063 -1.7260 -0.5432  2.1236
 9200WAT     H237507   3.018   5.170   4.082 -2.0751 -0.8296 -0.5169
 9200WAT    EPW37508   3.040   5.229   4.035  0.2397 -0.4274 -0.5420
 9201WAT      O37509   1.487   6.048   5.113  0.0279 -0.5211  0.3921
 9201WAT     H137510   1.467   6.092   5.041  0.1996  1.0518  1.2526
 9201WAT     H237511   1.573   6.035   5.106 -0.2512 -2.1146 -0.5652
 9201WAT    EPW37512   1.497   6.053   5.102  0.2391 -0.1518  1.1978
 9202WAT      O37513   1.908   4.795   3.178 -0.5404  1.0380 -0.4982
 9202WAT     H137514   1.961   4.747   3.229 -0.4789 -0.5988 -2.0004
 9202WAT     H237515   1.911   4.874   3.215  1.5316  0.5703  0.5160
 9202WAT    EPW37516   1.916   4.800   3.191 -0.5871  0.9060 -0.1769
 9203WAT      O37517   0.543   5.451   2.688  0.1039 -0.3311 -0.4037
 9203WAT     H137518   0.527   5.526   2.646  1.1012  0.1453  0.0427
 9203WAT     H237519   0.596   5.474   2.753  0.8154 -1.4990 -0.5383
 9203WAT    EPW37520   0.548   5.465   2.692 -0.6339  0.4240 -0.4855
 9204WAT      O37521   2.020   5.726   6.392 -0.5545 -0.2402 -0.0623
 9204WAT     H137522   2.062   5.674   6.448  0.0900  0.3768  0.0420
 9204WAT     H237523   1.937   5.724   6.420 -0.5631 -1.2978 -0.1367
 9204WAT    EPW37524   2.014   5.718   6.404 -0.3788  0.4703 -0.5429
 9205WAT      O37525   3.673   6.969   6.313  0.1346  0.0341  0.0984
 9205WAT     H137526   3.733   6.909   6.290 -3.4745 -3.6751 -0.7857
 9205WAT     H237527   3.674   7.025   6.246  0.4150 -1.8216 -1.5460
 9205WAT    EPW37528   3.682   6.968   6.299 -0.6204  0.0827 -0.7782
 9206WAT      O37529   2.771   6.370   6.826 -0.1111  0.3358  0.2756
 9206WAT     H137530   2.692   6.392   6.858 -0.6220  1.6281 -1.6724
 9206WAT     H237531   2.752   6.338   6.747  1.2434 -0.7669  0.3663
 9206WAT    EPW37532   2.756   6.369   6.819  0.1519 -0.2085 -0.2137
 9207WAT      O37533   1.435   4.784   0.032  0.0333 -0.4665  0.2543
 9207WAT     H137534   1.471   4.719  -0.013 -1.2905 -1.2160  0.2260
 9207WAT     H237535   1.466   4.773   0.113 -1.4297 -2.1783  0.6421
 9207WAT    EPW37536   1.445   4.773   0.037 -0.0001 -0.5321 -0.6082
 9208WAT      O37537   3.052   6.399   6.807  0.0401  0.1771 -0.2293
 9208WAT     H137538   3.118   6.354   6.843  0.4690  1.2589  0.3895
 9208WAT     H237539   2.981   6.359   6.836  0.3439 -2.1457 -2.3221
 9208WAT    EPW37540   3.051   6.386   6.817  0.3714  0.2093 -0.6102
 9209WAT      O37541   2.361   4.866   4.930  0.6063  0.3009  0.7309
 9209WAT     H137542   2.410   4.925   4.971  0.7726  0.8399 -0.2251
 9209WAT     H237543   2.374   4.883   4.845 -0.1760 -0.4185  0.4504
 9209WAT    EPW37544   2.370   4.877   4.923 -0.1058  0.1069  0.1931
 9210WAT      O37545   2.551   7.388   6.001  0.3960  0.1137 -0.1760
 9210WAT     H137546   2.527   7.305   6.006  0.5865  0.1284  1.5126
 9210WAT     H237547   2.610   7.389   5.937 -1.7285 -0.4701 -2.3377
 9210WAT    EPW37548   2.556   7.376   5.992  0.0064  0.3051  0.2018
 9211WAT      O37549   3.734   6.936   5.381 -0.0714 -0.6059  0.0817
 9211WAT     H137550   3.813   6.920   5.347  0.1406  1.4320 -0.4941
 9211WAT     H237551   3.690   6.970   5.313 -1.3756 -1.4583  0.4707
 9211WAT    EPW37552   3.739   6.938   5.366  0.2984 -0.3819 -0.8426
 9212WAT      O37553   2.908   5.455   7.196  0.1215  0.1445 -0.1132
 9212WAT     H137554   2.855   5.386   7.201 -1.0042  0.7711 -2.2476
 9212WAT     H237555   2.936   5.453   7.114 -0.7773  2.7833 -0.5606
 9212WAT    EPW37556   2.904   5.444   7.185  0.0275  0.0976 -0.8954
 9213WAT      O37557   1.798   5.361   7.264 -0.1999 -0.5466  0.2451
 9213WAT     H137558   1.746   5.400   7.322  0.2989  0.8054 -0.1764
 9213WAT     H237559   1.772   5.394   7.187  1.5516  0.5224  0.0742
 9213WAT    EPW37560   1.786   5.372   7.261  0.1818 -0.0933  0.2523
 9214WAT      O37561   4.586   4.636   7.301  0.0015  0.5967 -0.3548
 9214WAT     H137562   4.498   4.636   7.299 -0.0394  1.2044  0.7448
 9214WAT     H237563   4.606   4.720   7.293  0.5333  0.4025 -1.2540
 9214WAT    EPW37564   4.576   4.648   7.299  0.4970  0.3093 -0.3381
 9215WAT      O37565   3.122   5.440   5.377 -0.0690 -0.2299  0.1449
 9215WAT     H137566   3.204   5.416   5.362  0.4589  2.1179 -1.0234
 9215WAT     H237567   3.124   5.471   5.459  0.4342  0.6308 -0.1813
 9215WAT    EPW37568   3.134   5.441   5.387  0.4984  0.5087  0.5035
 9216WAT      O37569   2.533   4.782   4.491 -0.9131 -0.1811 -0.2985
 9216WAT     H137570   2.615   4.774   4.519 -0.3410 -0.7118 -2.0290
 9216WAT     H237571   2.494   4.824   4.556  0.7339  0.1216  0.5548
 9216WAT    EPW37572   2.539   4.787   4.505 -0.0700 -0.3519 -0.3816
 9217WAT      O37573   2.435   6.111   6.003  0.0914  0.4421 -0.2649
 9217WAT     H137574   2.515   6.100   5.969  0.6074  2.2202  0.2722
 9217WAT     H237575   2.450   6.158   6.075 -1.2835 -0.7264  0.8379
 9217WAT    EPW37576   2.449   6.116   6.009  0.1490  0.6066 -0.3026
 9218WAT      O37577   2.090   6.813   4.409  0.0196  0.6172  0.0153
 9218WAT     H137578   2.151   6.764   4.447  1.0903  1.4789 -0.5496
 9218WAT     H237579   2.017   6.765   4.418  0.8057 -0.5300  0.5068
 9218WAT    EPW37580   2.088   6.798   4.416 -0.1055 -0.8462  0.5093
 9219WAT      O37581   3.475   5.132   3.488 -0.3379 -0.1016 -0.4920
 9219WAT     H137582   3.402   5.155   3.530 -0.9869 -1.3958 -0.8453
 9219WAT     H237583   3.446   5.103   3.411  0.7754  1.6487 -1.6473
 9219WAT    EPW37584   3.460   5.131   3.483 -0.0998 -0.2369 -0.3656
 9220WAT      O37585   3.424   6.222   4.926  0.1466 -0.5824 -0.3872
 9220WAT     H137586   3.350   6.246   4.885 -0.1027 -0.8743 -0.1192
 9220WAT     H237587   3.431   6.137   4.907  0.2186 -0.6380 -0.1176
 9220WAT    EPW37588   3.414   6.213   4.917  0.6073  0.0769 -0.4950
 9221WAT      O37589   2.727   7.211   4.208  0.0479 -0.0084 -0.2573
 9221WAT     H137590   2.686   7.140   4.237  2.1744 -1.5833 -0.8813
 9221WAT     H237591   2.750   7.253   4.281  0.1347 -0.7858  0.1698
 9221WAT    EPW37592   2.724   7.207   4.223 -0.9041  0.3665 -0.1452
 9222WAT      O37593   2.145   3.856   5.962  0.4266 -0.4603 -0.3780
 9222WAT     H137594   2.171   3.818   6.036  0.6514  0.9349  0.2901
 9222WAT     H237595   2.219   3.872   5.920  0.4530  0.5049  0.0067
 9222WAT    EPW37596   2.160   3.853   5.967 -0.3094  0.2950  0.6157
 9223WAT      O37597   2.467   6.309   6.194 -0.2028 -0.4756  0.5144
 9223WAT     H137598   2.405   6.359   6.231 -0.0843  0.3171 -0.3252
 9223WAT     H237599   2.540   6.336   6.232 -0.2608 -0.7551  0.8265
 9223WAT    EPW37600   2.469   6.320   6.205  0.2897  0.0067 -0.0685
 9224WAT      O37601   1.674   6.704   5.519  0.1088 -0.1921 -0.4013
 9224WAT     H137602   1.747   6.692   5.473  0.0689  0.0991 -0.5471
 9224WAT     H237603   1.646   6.623   5.534  0.1614 -0.2946 -0.8260
 9224WAT    EPW37604   1.681   6.691   5.514  0.2489  0.2209 -0.2997
 9225WAT      O37605   2.564   6.656   5.736 -0.7581  0.1288  0.6596
 9225WAT     H137606   2.577   6.596   5.673 -0.7722  2.1844 -1.4600
 9225WAT     H237607   2.551   6.609   5.807  1.4194 -2.3625 -0.4156
 9225WAT    EPW37608   2.564   6.640   5.737 -0.0127  0.1854 -0.2564
 9226WAT      O37609   4.851   6.019   5.502  0.2302 -0.2899 -0.3149
 9226WAT     H137610   4.878   6.084   5.553 -0.2147  0.8434 -1.4802
 9226WAT     H237611   4.912   5.957   5.514  1.4523  0.8764 -0.2562
 9226WAT    EPW37612   4.864   6.019   5.511 -0.4055 -0.1256  0.1507
 9227WAT      O37613   1.393   4.607   6.065  0.1724  0.1156  0.4737
 9227WAT     H137614   1.324   4.661   6.064  0.1924  0.1909  1.6145
 9227WAT     H237615   1.458   4.657   6.095  0.9205  0.2247 -1.2103
 9227WAT    EPW37616   1.392   4.622   6.069  0.2291 -0.2112 -0.0924
 9228WAT      O37617   2.185   6.312   5.079  0.1250  0.2520 -0.6214
 9228WAT     H137618   2.125   6.332   5.139  0.0460 -2.1810  0.2384
 9228WAT     H237619   2.171   6.370   5.016 -2.0248  0.8105  0.2724
 9228WAT    EPW37620   2.174   6.323   5.079  0.0332 -0.7514  0.3624
 9229WAT      O37621   3.572   6.681   5.262 -0.1224  1.1142 -0.0242
 9229WAT     H137622   3.526   6.755   5.265 -3.2113 -0.6111 -0.5526
 9229WAT     H237623   3.522   6.624   5.305  0.7885 -1.3099 -1.9404
 9229WAT    EPW37624   3.558   6.684   5.269 -0.6160 -0.5377 -0.9150
 9230WAT      O37625   1.940   5.075   7.725 -0.2751  0.0529 -0.0757
 9230WAT     H137626   1.958   5.025   7.794  1.2237  0.1534 -0.3645
 9230WAT     H237627   1.926   5.154   7.761 -2.7063 -0.4827  0.3864
 9230WAT    EPW37628   1.940   5.079   7.741  0.1373  0.4255  0.4813
 9231WAT      O37629   2.545   5.046   5.077 -1.0514  0.3676  0.8222
 9231WAT     H137630   2.593   5.050   5.004 -2.7965  0.4463 -0.3627
 9231WAT     H237631   2.509   5.125   5.082 -0.6241  0.5119  2.0457
 9231WAT    EPW37632   2.547   5.058   5.067  0.1429  0.0090 -1.6899
 9232WAT      O37633   1.475   4.597   4.647  0.3497  0.3067  0.3143
 9232WAT     H137634   1.400   4.555   4.664  1.1928 -1.9197 -0.9642
 9232WAT     H237635   1.533   4.532   4.639  2.1754  1.8812  0.0306
 9232WAT    EPW37636   1.472   4.581   4.648 -0.2115 -0.1864  0.0817
 9233WAT      O37637   3.940   7.596   6.101  0.5503 -0.9226  0.4320
 9233WAT     H137638   3.976   7.591   6.022  1.7325  2.2121  0.6034
 9233WAT     H237639   3.994   7.551   6.152  1.8666  0.0803 -0.0252
 9233WAT    EPW37640   3.953   7.589   6.097 -0.0740 -0.7252  0.2324
 9234WAT      O37641   2.463   5.606   7.067  0.4568 -0.4530 -0.2798
 9234WAT     H137642   2.414   5.550   7.112 -1.7351  0.9425 -0.7483
 9234WAT     H237643   2.513   5.555   7.018 -0.8430 -1.9989 -0.0853
 9234WAT    EPW37644   2.463   5.591   7.067 -0.1066  0.2534 -0.5924
 9235WAT      O37645   2.803   3.712   6.280 -0.1697 -0.0983  0.3722
 9235WAT     H137646   2.801   3.672   6.202 -2.1131  0.0125  0.2991
 9235WAT     H237647   2.734   3.678   6.322 -0.2273  1.1520  1.3519
 9235WAT    EPW37648   2.792   3.701   6.274  0.0797 -0.4696 -0.7994
 9236WAT      O37649   2.598   4.307   6.637  0.1821  0.8894 -1.0311
 9236WAT     H137650   2.547   4.330   6.704  1.5616  2.6871 -0.4898
 9236WAT     H237651   2.543   4.290   6.573 -1.1244  2.5692 -0.4235
 9236WAT    EPW37652   2.583   4.308   6.638  0.4962  0.3366 -0.9762
 9237WAT      O37653   2.573   5.646   7.563  0.0217 -0.1754  0.1100
 9237WAT     H137654   2.576   5.571   7.518 -0.0619 -0.3389  0.3770
 9237WAT     H237655   2.652   5.649   7.601  0.0416 -0.1041  0.0638
 9237WAT    EPW37656   2.585   5.636   7.562  0.1343 -0.3188 -0.0348
 9238WAT      O37657   1.717   6.561   3.684  0.4776  0.0835 -0.4876
 9238WAT     H137658   1.637   6.593   3.698  0.8899  0.2880  1.7629
 9238WAT     H237659   1.709   6.477   3.707  1.0882  0.3085  0.6072
 9238WAT    EPW37660   1.704   6.553   3.689 -0.0926 -1.0760 -0.5343
 9239WAT      O37661   2.665   4.362   5.646  0.0620  0.2603 -0.0674
 9239WAT     H137662   2.688   4.443   5.626 -0.4748  0.4955  0.2484
 9239WAT     H237663   2.581   4.358   5.621  0.1041 -0.2149 -0.1424
 9239WAT    EPW37664   2.656   4.373   5.639 -0.4517  0.2073  0.4305
 9240WAT      O37665   1.881   5.340   4.625  0.2884 -0.2352  0.3447
 9240WAT     H137666   1.822   5.291   4.583  0.8374 -0.0042 -0.7374
 9240WAT     H237667   1.941   5.356   4.563  1.5811 -0.6125  1.4575
 9240WAT    EPW37668   1.881   5.335   4.609  0.9239  0.2335  0.3027
 9241WAT      O37669   2.384   5.816   6.090 -0.0145 -0.2393  0.1982
 9241WAT     H137670   2.403   5.901   6.101 -1.5164  0.0809  0.6290
 9241WAT     H237671   2.459   5.782   6.063 -0.1387  1.8169 -3.3520
 9241WAT    EPW37672   2.398   5.824   6.088 -1.3059  0.4480 -0.3519
 9242WAT      O37673   2.350   5.886   5.615  0.3391 -0.3071  0.3009
 9242WAT     H137674   2.330   5.833   5.548 -1.2401 -0.9625  1.2353
 9242WAT     H237675   2.322   5.841   5.685  1.4071  0.6202  1.3526
 9242WAT    EPW37676   2.343   5.871   5.615 -0.1960  0.2823 -0.0616
 9243WAT      O37677   2.971   6.537   7.517  0.3215  0.2448  0.1384
 9243WAT     H137678   2.969   6.602   7.459 -2.4479 -0.5676 -0.8522
 9243WAT     H237679   2.961   6.578   7.594 -0.8356  1.0951 -0.4185
 9243WAT    EPW37680   2.969   6.553   7.520  0.6291  0.3536 -0.8039
 9244WAT      O37681   2.433   5.656   5.146 -0.1606 -0.0164 -0.2902
 9244WAT     H137682   2.399   5.721   5.100  0.9091  0.2253 -0.7527
 9244WAT     H237683   2.480   5.612   5.088  0.6444 -0.1110  0.4233
 9244WAT    EPW37684   2.435   5.659   5.131  1.1999  0.5276  0.5646
 9245WAT      O37685   2.267   6.309   4.304 -0.3851 -0.4639 -0.4652
 9245WAT     H137686   2.242   6.231   4.334 -0.2297  0.2643  1.7686
 9245WAT     H237687   2.201   6.362   4.326  0.5948  0.4580  0.4010
 9245WAT    EPW37688   2.254   6.306   4.312  0.0851  0.4420 -0.7855
 9246WAT      O37689   2.454   3.832   6.113 -0.0756  0.6944  0.0667
 9246WAT     H137690   2.493   3.865   6.042  0.7236  1.4321  0.8191
 9246WAT     H237691   2.406   3.898   6.143  1.2300  1.1124  1.3622
 9246WAT    EPW37692   2.453   3.847   6.107  0.1108  0.0671 -0.1606
 9247WAT      O37693   2.599   5.677   4.592  0.3461 -0.3460 -0.0879
 9247WAT     H137694   2.677   5.644   4.613  0.7422  1.2456  1.0745
 9247WAT     H237695   2.543   5.623   4.632  0.7944 -1.5250 -0.9667
 9247WAT    EPW37696   2.602   5.664   4.601  0.5976 -0.4101  0.4242
 9248WAT      O37697   2.267   7.385   5.872 -0.3089  0.2536  0.1819
 9248WAT     H137698   2.280   7.471   5.865 -0.3924  0.2703  0.2305
 9248WAT     H237699   2.331   7.350   5.823 -1.1851  0.3651 -1.0615
 9248WAT    EPW37700   2.279   7.392   5.864  0.3734  1.3649 -1.0793
 9249WAT      O37701   3.050   4.390   6.022 -0.4594 -0.2332 -0.4368
 9249WAT     H137702   2.998   4.356   6.083 -1.0586  0.9419 -0.2697
 9249WAT     H237703   3.130   4.371   6.051 -0.7479 -0.1382  0.4405
 9249WAT    EPW37704   3.054   4.382   6.035 -1.3320 -0.2668 -0.4123
 9250WAT      O37705   3.288   5.370   6.178  0.4013  0.2653  0.1536
 9250WAT     H137706   3.321   5.381   6.098  0.4967  1.2184  0.3109
 9250WAT     H237707   3.202   5.366   6.165  0.4940 -1.1812 -0.1500
 9250WAT    EPW37708   3.280   5.371   6.165 -0.0967 -0.1945  0.1218
 9251WAT      O37709   3.512   5.272   7.140 -0.2920  0.2309 -0.4712
 9251WAT     H137710   3.474   5.202   7.103 -1.8060  1.3955 -1.2174
 9251WAT     H237711   3.592   5.243   7.159 -0.7888 -1.6398 -0.9634
 9251WAT    EPW37712   3.518   5.257   7.137 -0.9462 -0.6986  0.6061
 9252WAT      O37713   1.202   4.060   5.625 -0.3123  0.3389 -0.3100
 9252WAT     H137714   1.198   4.147   5.634 -1.0062  0.2199  0.6955
 9252WAT     H237715   1.186   4.030   5.705  0.2027 -0.7208 -0.5892
 9252WAT    EPW37716   1.199   4.069   5.638  0.1827 -0.2870 -0.0116
 9253WAT      O37717   3.184   5.760   6.723  0.0041  0.2129  0.5680
 9253WAT     H137718   3.264   5.795   6.724  0.0808  0.0701  0.0900
 9253WAT     H237719   3.133   5.826   6.696  0.4928 -0.6001 -2.8626
 9253WAT    EPW37720   3.188   5.775   6.719 -0.4775  0.5724 -0.0032
 9254WAT      O37721   1.448   3.936   5.910 -0.0601 -0.2566 -0.6694
 9254WAT     H137722   1.530   3.925   5.882  0.6174 -1.3687  1.5144
 9254WAT     H237723   1.445   4.020   5.935  1.2322 -0.7645  1.4333
 9254WAT    EPW37724   1.459   3.947   5.910  0.5042 -0.5071 -0.4908
 9255WAT      O37725   2.058   5.976   6.613  0.1897  0.1659  0.2965
 9255WAT     H137726   2.090   5.936   6.542  0.8964 -0.0093  0.7024
 9255WAT     H237727   2.051   5.911   6.672 -0.0269  0.3772  0.5060
 9255WAT    EPW37728   2.061   5.961   6.611  0.3613 -0.4016  0.4127
 9256WAT      O37729   3.635   5.685   5.866 -0.3457  0.3985 -0.3285
 9256WAT     H137730   3.647   5.750   5.808 -0.4390  2.1052  1.4341
 9256WAT     H237731   3.677   5.714   5.937 -1.3355 -0.9739  0.8662
 9256WAT    EPW37732   3.643   5.699   5.868  0.3650 -0.1423 -0.6020
 9257WAT      O37733   2.392   7.000   4.625  0.3502  0.0538 -0.3150
 9257WAT     H137734   2.441   7.047   4.570  0.6545 -0.0126 -0.1042
 9257WAT     H237735   2.393   7.049   4.698 -0.0006  0.1133 -0.3503
 9257WAT    EPW37736   2.399   7.014   4.628  0.0137  0.6364  0.2290
 9258WAT      O37737   2.897   6.201   6.106 -0.3247  0.4159 -0.1296
 9258WAT     H137738   2.860   6.267   6.062  1.1472  1.4712  0.1136
 9258WAT     H237739   2.920   6.238   6.182 -1.3949 -0.9656  0.9046
 9258WAT    EPW37740   2.895   6.216   6.110  0.2859  0.8759 -0.0053
 9259WAT      O37741   2.786   6.352   5.882  0.3976 -0.4013 -0.2017
 9259WAT     H137742   2.804   6.293   5.821 -1.4872  0.1460 -1.3845
 9259WAT     H237743   2.838   6.419   5.862  1.4138 -1.0417  0.2029
 9259WAT    EPW37744   2.796   6.353   5.870 -0.0704  0.5042 -0.3588
 9260WAT      O37745   1.852   7.572   5.954 -0.5490  0.2999  0.2622
 9260WAT     H137746   1.790   7.632   5.942 -2.0221 -0.2319  3.8716
 9260WAT     H237747   1.926   7.616   5.941 -1.6145  2.4951  1.1288
 9260WAT    EPW37748   1.854   7.588   5.950  0.3326  0.1593 -0.0485
 9261WAT      O37749   1.838   3.438   7.035 -0.3134 -0.0537  0.0357
 9261WAT     H137750   1.789   3.445   7.107 -1.1629 -1.8696 -0.3060
 9261WAT     H237751   1.822   3.357   7.007  2.1263 -0.3971 -0.6653
 9261WAT    EPW37752   1.829   3.427   7.041  0.3101 -0.3622 -0.4777
 9262WAT      O37753   3.134   5.283   6.502 -0.2214  0.1046  0.4449
 9262WAT     H137754   3.182   5.216   6.475  0.0476  0.8692 -1.1398
 9262WAT     H237755   3.178   5.353   6.472 -1.6332  0.8779  0.0463
 9262WAT    EPW37756   3.147   5.284   6.494  0.0237  0.1159  0.3442
 9263WAT      O37757   2.840   5.422   5.793  0.0784  0.0706 -0.4845
 9263WAT     H137758   2.804   5.478   5.737 -0.5226 -1.0199 -1.2324
 9263WAT     H237759   2.778   5.408   5.853  0.6190  1.0162  0.3297
 9263WAT    EPW37760   2.826   5.428   5.794 -0.6294 -0.1476 -0.8942
 9264WAT      O37761   1.780   6.209   5.670 -0.0717 -0.3378 -0.1596
 9264WAT     H137762   1.760   6.206   5.755  1.2733  0.6795  0.2212
 9264WAT     H237763   1.817   6.132   5.655 -0.2733 -0.5060  0.1845
 9264WAT    EPW37764   1.783   6.197   5.680  0.4613 -0.1810 -0.3456
 9265WAT      O37765   2.700   6.153   4.950  0.0677 -0.1090 -0.0574
 9265WAT     H137766   2.675   6.137   5.032 -1.1365 -0.0985 -0.3901
 9265WAT     H237767   2.708   6.074   4.915 -0.8064 -0.1002 -0.2998
 9265WAT    EPW37768   2.697   6.139   4.957 -0.1161 -0.2279  0.0660
 9266WAT      O37769   3.358   6.193   6.598 -0.0767  0.1914 -0.4476
 9266WAT     H137770   3.279   6.157   6.604  0.9878 -2.3929 -0.5975
 9266WAT     H237771   3.348   6.254   6.536 -1.6176 -1.0766 -1.5288
 9266WAT    EPW37772   3.345   6.197   6.590  0.1908  0.8384 -0.5513
 9267WAT      O37773   4.238   5.523   6.642 -0.0326 -0.7127 -0.2566
 9267WAT     H137774   4.179   5.570   6.686 -2.2530 -1.0212 -2.6575
 9267WAT     H237775   4.297   5.583   6.617  0.0850 -0.1858  1.1959
 9267WAT    EPW37776   4.238   5.539   6.645 -0.4090 -0.6520  0.1631
 9268WAT      O37777   1.921   5.047   5.296  0.4658  0.4301 -0.2561
 9268WAT     H137778   1.923   5.026   5.211 -0.1849 -0.7656 -0.0073
 9268WAT     H237779   1.983   5.108   5.304  0.5822  0.5087 -1.5739
 9268WAT    EPW37780   1.930   5.053   5.284 -0.3215 -0.2621  0.0190
 9269WAT      O37781   2.744   4.632   5.584  0.0349 -0.0242  0.2887
 9269WAT     H137782   2.668   4.651   5.623 -0.2472  0.4702 -0.4677
 9269WAT     H237783   2.804   4.659   5.641 -0.3641  0.4589  0.4890
 9269WAT    EPW37784   2.741   4.639   5.598  0.7514  0.0430  0.3526
 9270WAT      O37785   2.438   6.798   5.137 -0.6019  0.2255 -0.0095
 9270WAT     H137786   2.392   6.770   5.068 -1.3021  1.6690 -0.1542
 9270WAT     H237787   2.474   6.872   5.109 -0.7284  0.7240  1.1033
 9270WAT    EPW37788   2.437   6.804   5.123 -0.2087  0.2879 -0.2232
 9271WAT      O37789   2.446   5.653   4.334 -0.2036  0.6201  0.1658
 9271WAT     H137790   2.465   5.570   4.317  0.8893  0.8779  0.0069
 9271WAT     H237791   2.457   5.660   4.420  2.8357  1.2735 -0.1610
 9271WAT    EPW37792   2.450   5.642   4.344 -0.0520 -0.6286 -0.8245
 9272WAT      O37793   2.955   7.071   5.298  0.5496  0.7985 -0.0046
 9272WAT     H137794   2.958   6.984   5.304  0.5293  0.7797 -0.2603
 9272WAT     H237795   2.982   7.098   5.376  2.0456  0.5778 -0.4255
 9272WAT    EPW37796   2.959   7.063   5.311  0.7860  0.8440 -0.3574
 9273WAT      O37797   2.228   4.766   6.893 -0.3611  0.2522 -0.2682
 9273WAT     H137798   2.180   4.835   6.873  0.0395  1.2787  1.9986
 9273WAT     H237799   2.248   4.731   6.815 -1.2923  2.1621 -1.4264
 9273WAT    EPW37800   2.224   4.771   6.879  0.6373  0.0365 -0.0481
 9274WAT      O37801   2.664   4.723   5.343 -0.0357 -0.8679 -0.1963
 9274WAT     H137802   2.579   4.703   5.352 -0.2222 -0.1377 -0.2694
 9274WAT     H237803   2.701   4.687   5.413 -0.2414 -2.0521 -0.6723
 9274WAT    EPW37804   2.657   4.715   5.355  0.1550 -0.5948 -1.0929
 9275WAT      O37805   2.925   5.295   6.682 -0.1851  0.1788  0.7048
 9275WAT     H137806   2.872   5.359   6.654 -0.4952  1.0693  3.1100
 9275WAT     H237807   2.988   5.293   6.622 -2.0821  0.1454 -1.4334
 9275WAT    EPW37808   2.927   5.304   6.669 -0.6832 -0.8157 -0.0967
 9276WAT      O37809   2.821   5.267   4.675  0.3809  0.0568 -0.2383
 9276WAT     H137810   2.891   5.216   4.688  0.4535  0.2036 -0.0451
 9276WAT     H237811   2.796   5.247   4.594  0.7049  0.0699 -0.3438
 9276WAT    EPW37812   2.828   5.256   4.665  0.3314 -0.2164  0.1817
 9277WAT      O37813   3.693   5.764   6.695  0.1133 -0.2576  0.1786
 9277WAT     H137814   3.673   5.755   6.610  1.8135 -0.5720 -0.2212
 9277WAT     H237815   3.625   5.727   6.736  0.0012 -1.5370 -1.0906
 9277WAT    EPW37816   3.680   5.757   6.688  0.9029  0.1547 -0.3600
 9278WAT      O37817   3.772   6.160   5.397 -0.0424 -0.0618  0.2599
 9278WAT     H137818   3.726   6.229   5.424 -1.1066 -0.5739 -0.2114
 9278WAT     H237819   3.775   6.170   5.311 -0.8225 -0.9746  0.1159
 9278WAT    EPW37820   3.766   6.172   5.389  0.0098  0.7251  0.1619
 9279WAT      O37821   2.468   6.048   0.187  0.2578 -0.0227 -0.5528
 9279WAT     H137822   2.420   6.076   0.254 -1.0350 -1.4641 -0.8252
 9279WAT     H237823   2.539   6.015   0.225 -0.8289 -1.5783  0.2054
 9279WAT    EPW37824   2.471   6.048   0.203 -0.3910 -0.2238 -0.2230
 9280WAT      O37825   2.152   5.910   5.297  0.2555 -0.6016  0.3940
 9280WAT     H137826   2.197   5.899   5.223  0.9813  2.3461  0.2947
 9280WAT     H237827   2.191   5.854   5.353  0.8976 -1.5276 -0.9258
 9280WAT    EPW37828   2.165   5.900   5.295 -0.5825  0.1069 -0.4656
 9281WAT      O37829   1.876   5.730   5.736 -0.3062 -0.0625  0.4955
 9281WAT     H137830   1.874   5.798   5.681  1.9625  0.1373  0.5317
 9281WAT     H237831   1.792   5.715   5.754 -0.9079  2.4552  0.1538
 9281WAT    EPW37832   1.864   5.738   5.730 -0.0559  0.2291  0.1968
 9282WAT      O37833   2.158   5.549   6.547 -0.3418 -0.0623  0.8955
 9282WAT     H137834   2.223   5.533   6.604  1.2954 -1.6544 -1.2455
 9282WAT     H237835   2.114   5.473   6.545 -0.5342  0.0643  0.2416
 9282WAT    EPW37836   2.161   5.535   6.555  0.1325 -0.4064  0.2260
 9283WAT      O37837   3.075   6.522   6.557  0.1375  0.7681 -0.3073
 9283WAT     H137838   3.008   6.576   6.545  0.8507  1.7142 -0.1679
 9283WAT     H237839   3.078   6.511   6.644  0.2585  0.8484 -0.3015
 9283WAT    EPW37840   3.066   6.528   6.568  0.9779 -0.4455  0.2703
 9284WAT      O37841   2.685   7.005   5.951 -0.4871  0.0527 -0.4097
 9284WAT     H137842   2.746   7.065   5.968 -0.0077 -0.7961  1.0321
 9284WAT     H237843   2.676   7.010   5.864  1.7659  0.0985 -0.7236
 9284WAT    EPW37844   2.693   7.014   5.940 -0.8132  0.4884  0.1685
 9285WAT      O37845   2.972   3.707   6.549  0.8887 -0.0182  0.1182
 9285WAT     H137846   2.929   3.683   6.477  0.7712  0.2442  0.1004
 9285WAT     H237847   2.930   3.666   6.613 -0.5079  1.5916  0.3139
 9285WAT    EPW37848   2.960   3.697   6.548  0.2955  0.1946 -0.1711
 9286WAT      O37849   1.355   3.562   7.791  0.4331  0.0415  0.2314
 9286WAT     H137850   1.392   3.489   7.820  1.5330 -0.3858 -2.0480
 9286WAT     H237851   1.422   3.616   7.778 -0.2265  0.9401  0.4268
 9286WAT    EPW37852   1.370   3.559   7.794 -0.8522  0.5321 -0.4145
 9287WAT      O37853   3.143   5.585   5.937  0.1591 -0.1977  0.0055
 9287WAT     H137854   3.109   5.529   5.879 -1.2106 -0.1111  0.6831
 9287WAT     H237855   3.228   5.586   5.917 -0.0638 -1.2030 -1.1170
 9287WAT    EPW37856   3.151   5.577   5.925 -0.3535 -1.1230 -0.4494
 9288WAT      O37857   1.805   7.322   6.837 -0.0851  0.4876 -0.0691
 9288WAT     H137858   1.816   7.387   6.781  0.0572  0.6059  0.0964
 9288WAT     H237859   1.755   7.357   6.900  2.4996  1.4029  1.6236
 9288WAT    EPW37860   1.799   7.337   6.838  0.0591  0.3311 -0.6246
 9289WAT      O37861   4.245   5.377   6.414  0.3702 -0.0203 -0.4335
 9289WAT     H137862   4.326   5.348   6.400  0.0024 -1.2395 -0.1112
 9289WAT     H237863   4.252   5.424   6.487  1.2123  1.8064 -1.6054
 9289WAT    EPW37864   4.258   5.380   6.423 -0.6260 -0.6140 -0.2829
 9290WAT      O37865   2.399   5.572   4.739 -0.7946  0.1253  0.3111
 9290WAT     H137866   2.333   5.626   4.761 -0.2771  0.5162  0.9320
 9290WAT     H237867   2.366   5.493   4.753 -1.7967  0.2319 -1.2437
 9290WAT    EPW37868   2.384   5.568   4.744  0.9335 -0.0706  0.0094
 9291WAT      O37869   3.096   0.100   7.380  0.0220  0.0278  0.4194
 9291WAT     H137870   3.122   0.114   7.298 -0.1085  1.0936  0.5344
 9291WAT     H237871   3.037   0.037   7.373 -0.8614  0.9139 -0.4801
 9291WAT    EPW37872   3.091   0.093   7.367 -0.2723  0.0789  0.3162
 9292WAT      O37873   0.635   6.753   3.930  0.1789 -0.2625 -0.3175
 9292WAT     H137874   0.712   6.764   3.892  0.3206  0.8765  0.2511
 9292WAT     H237875   0.633   6.668   3.949  2.1563  0.0234  1.4430
 9292WAT    EPW37876   0.646   6.742   3.927 -0.6241 -0.7972  0.3501
 9293WAT      O37877   2.891   6.706   6.538  0.2386 -0.4483 -0.3298
 9293WAT     H137878   2.831   6.712   6.475  0.0364 -0.2864 -0.1249
 9293WAT     H237879   2.947   6.770   6.520 -0.1369 -0.0277 -0.0141
 9293WAT    EPW37880   2.890   6.716   6.526 -0.1560  0.4385 -0.5677
 9294WAT      O37881   1.791   7.111   4.923 -0.3295  0.9126 -0.3278
 9294WAT     H137882   1.765   7.178   4.972 -0.5668 -0.8492  2.1251
 9294WAT     H237883   1.721   7.059   4.920  0.5760 -0.3976  0.0305
 9294WAT    EPW37884   1.777   7.113   4.930 -0.4511 -0.6318  0.1714
 9295WAT      O37885   2.546   4.487   6.356  0.3651 -0.0704  0.5725
 9295WAT     H137886   2.463   4.462   6.367 -0.0921  0.9193 -0.4002
 9295WAT     H237887   2.563   4.532   6.429 -1.0411  2.3865 -0.4790
 9295WAT    EPW37888   2.536   4.490   6.368 -1.1054  0.8975 -1.0553
 9296WAT      O37889   3.377   7.293   6.580 -0.4022 -0.1072  0.0517
 9296WAT     H137890   3.329   7.366   6.588  1.9372  1.5385 -0.0140
 9296WAT     H237891   3.400   7.292   6.496 -0.3722 -0.9256  0.0610
 9296WAT    EPW37892   3.373   7.304   6.569 -0.7346 -0.6493 -0.6298
 9297WAT      O37893   3.939   7.076   6.850  1.0950  0.3189  0.1199
 9297WAT     H137894   3.919   7.137   6.909 -0.0433  1.3275 -1.2443
 9297WAT     H237895   3.865   7.032   6.839  1.8024 -1.1078  0.8019
 9297WAT    EPW37896   3.925   7.079   6.857 -0.5499  0.5956 -0.2394
 9298WAT      O37897   3.444   6.633   6.268  0.0830 -0.2790 -0.4342
 9298WAT     H137898   3.389   6.700   6.272 -1.2650 -1.3895  0.2526
 9298WAT     H237899   3.418   6.580   6.332  2.7992 -0.2670  0.8474
 9298WAT    EPW37900   3.432   6.635   6.278  0.2254  0.1108  0.1667
 9299WAT      O37901   3.500   5.893   6.102  0.6009  0.3527 -0.3574
 9299WAT     H137902   3.570   5.843   6.118 -0.6040 -0.9285  1.2171
 9299WAT     H237903   3.444   5.872   6.165 -1.0831  1.6450 -1.3158
 9299WAT    EPW37904   3.502   5.883   6.114  0.1401  0.0654 -0.5934
 9300WAT      O37905   2.374   7.096   6.859 -0.0330 -0.1319  0.3616
 9300WAT     H137906   2.358   7.017   6.824 -0.0128  0.8212 -1.9701
 9300WAT     H237907   2.418   7.137   6.796 -1.6300  2.3567  0.7522
 9300WAT    EPW37908   2.378   7.090   6.844  0.4545  0.0566 -0.8731
 9301WAT      O37909   2.200   6.999   7.450 -0.2942  0.1955  0.5356
 9301WAT     H137910   2.196   6.953   7.375  0.3545 -0.9482  1.1775
 9301WAT     H237911   2.248   7.069   7.428  0.6074 -0.5478  0.0689
 9301WAT    EPW37912   2.207   7.003   7.435  0.4789 -0.4011 -0.0645
 9302WAT      O37913   2.356   6.124   5.242  0.0562 -0.1442 -0.4106
 9302WAT     H137914   2.293   6.068   5.263 -0.6744  0.6756 -0.3372
 9302WAT     H237915   2.313   6.191   5.206  0.7018  1.0778  0.9583
 9302WAT    EPW37916   2.341   6.126   5.240 -0.1699 -0.2881 -0.3556
 9303WAT      O37917   2.865   5.352   5.435  0.3629 -0.0482 -0.2686
 9303WAT     H137918   2.850   5.300   5.503  0.4140  1.2448  0.7574
 9303WAT     H237919   2.952   5.353   5.428  0.4803  1.4592  0.9971
 9303WAT    EPW37920   2.875   5.344   5.444 -0.0840  0.1418 -0.2260
 9304WAT      O37921   3.743   5.732   6.143 -0.0725  0.1061  0.4682
 9304WAT     H137922   3.758   5.648   6.161 -1.0419 -0.3635 -0.8116
 9304WAT     H237923   3.817   5.758   6.104  0.1235 -0.2312  0.6143
 9304WAT    EPW37924   3.757   5.723   6.140 -0.2293  0.6357 -0.2861
 9305WAT      O37925   1.854   5.191   4.248  0.1453 -0.1291  0.7389
 9305WAT     H137926   1.855   5.219   4.166  2.2170  0.3722  0.8828
 9305WAT     H237927   1.863   5.105   4.241  0.0325 -0.1145  0.4360
 9305WAT    EPW37928   1.856   5.183   4.235 -0.4042 -0.3081 -0.0670
 9306WAT      O37929   1.776   5.752   6.530  0.5037  0.3510 -0.2121
 9306WAT     H137930   1.778   5.838   6.546 -2.7085  0.7461 -1.2783
 9306WAT     H237931   1.742   5.746   6.450 -4.0043 -1.8614  1.5305
 9306WAT    EPW37932   1.771   5.764   6.520 -0.0236 -0.3801  0.6381
 9307WAT      O37933   3.207   7.124   5.954  1.0278  0.1345 -0.5600
 9307WAT     H137934   3.174   7.203   5.966  0.3210 -0.1442 -0.6048
 9307WAT     H237935   3.260   7.112   6.022  0.2252  0.1833  0.0876
 9307WAT    EPW37936   3.210   7.134   5.966 -0.8461  0.4128 -1.2549
 9308WAT      O37937   1.835   6.469   5.051 -0.5009  0.0755  0.1512
 9308WAT     H137938   1.799   6.446   5.127  1.0742 -0.3657  0.7926
 9308WAT     H237939   1.787   6.426   4.992 -2.7654  1.6497  0.6929
 9308WAT    EPW37940   1.822   6.460   5.053 -0.6507  0.0555  0.4609
 9309WAT      O37941   1.514   5.119   5.846 -0.7020  0.4358 -0.0165
 9309WAT     H137942   1.462   5.132   5.777  1.1657 -0.4476 -1.7037
 9309WAT     H237943   1.553   5.043   5.828  1.5009  1.2571  0.9213
 9309WAT    EPW37944   1.512   5.110   5.833  0.3231  0.0552 -0.7727
 9310WAT      O37945   2.935   4.889   4.078  0.3168 -0.1927 -0.2985
 9310WAT     H137946   2.983   4.853   4.140 -1.0957 -0.0534  0.9269
 9310WAT     H237947   2.888   4.949   4.120 -0.7495 -0.1560 -1.4768
 9310WAT    EPW37948   2.935   4.892   4.093  0.1114 -0.3559  1.1753
 9311WAT      O37949   2.886   5.095   6.029 -0.4070 -0.5476 -0.5254
 9311WAT     H137950   2.831   5.077   6.094  0.4003 -1.2169 -0.0012
 9311WAT     H237951   2.834   5.104   5.960 -1.1147 -2.1586 -0.2523
 9311WAT    EPW37952   2.870   5.094   6.028 -0.1047 -0.1456  0.0122
 9312WAT      O37953   3.325   6.486   6.042  0.3884 -0.0354  0.2865
 9312WAT     H137954   3.363   6.526   5.975 -1.0864  0.4910 -0.2593
 9312WAT     H237955   3.376   6.508   6.110  1.1042  0.5689 -0.4254
 9312WAT    EPW37956   3.338   6.495   6.042 -0.1618 -0.7441  0.3186
 9313WAT      O37957   2.504   5.313   5.694  0.6907 -0.3393  0.1305
 9313WAT     H137958   2.553   5.366   5.645  1.1802 -0.1798  0.7798
 9313WAT     H237959   2.461   5.368   5.746 -0.7357 -0.4253 -0.8979
 9313WAT    EPW37960   2.505   5.329   5.694 -0.3918 -0.0621  0.2241
 9314WAT      O37961   2.171   5.533   6.048  0.5606  0.4289  0.5548
 9314WAT     H137962   2.088   5.561   6.046  0.7422  0.9566 -0.1072
 9314WAT     H237963   2.216   5.601   6.016  1.1620 -0.1548  0.1351
 9314WAT    EPW37964   2.166   5.548   6.043 -0.0665 -0.3293 -0.0022
 9315WAT      O37965   2.864   4.269   6.201  0.2904 -0.4204  0.1460
 9315WAT     H137966   2.879   4.296   6.283 -0.9415 -1.0831  0.6207
 9315WAT     H237967   2.844   4.185   6.211 -0.5074 -0.3436 -0.7588
 9315WAT    EPW37968   2.863   4.261   6.215  0.5668  0.9924  0.0635
 9316WAT      O37969   2.224   5.446   5.146  0.5985  0.2534  0.8083
 9316WAT     H137970   2.275   5.517   5.141  0.1710  0.5834  1.0687
 9316WAT     H237971   2.227   5.414   5.065  0.3719  0.8740  0.5477
 9316WAT    EPW37972   2.232   5.452   5.133  0.3389  0.2225 -0.1091
 9317WAT      O37973   2.949   5.720   6.067  0.7099 -0.6452 -0.5888
 9317WAT     H137974   2.988   5.791   6.098  0.2278 -0.7164  0.2055
 9317WAT     H237975   3.010   5.684   6.016  1.7628 -0.8467  0.7532
 9317WAT    EPW37976   2.963   5.725   6.064  0.3622 -0.1383 -0.8455
 9318WAT      O37977   1.399   5.429   5.520 -0.4365  0.4857 -0.0353
 9318WAT     H137978   1.479   5.462   5.520 -0.9015  1.6442  0.6444
 9318WAT     H237979   1.358   5.474   5.582 -1.0101 -1.6021  1.1931
 9318WAT    EPW37980   1.405   5.440   5.529  0.4311 -0.2186 -0.2557
 9319WAT      O37981   3.942   7.001   5.570 -0.3526 -0.3761 -0.0369
 9319WAT     H137982   3.863   7.009   5.533 -0.1575 -2.0624 -0.9039
 9319WAT     H237983   3.928   7.027   5.652 -1.3228  1.3008 -0.6730
 9319WAT    EPW37984   3.928   7.006   5.577 -0.1768 -0.7927  0.2164
 9320WAT      O37985   2.797   6.028   6.607 -0.2074  0.4087 -0.0402
 9320WAT     H137986   2.800   6.008   6.522  0.9001  1.5315 -0.2984
 9320WAT     H237987   2.716   6.059   6.618  0.6520  3.5811 -1.5634
 9320WAT    EPW37988   2.785   6.030   6.596  0.1875  0.6232  0.5593
 9321WAT      O37989   2.806   5.086   6.511  0.0289 -0.1261  0.4750
 9321WAT     H137990   2.859   5.020   6.530  1.1876  0.7136  0.2248
 9321WAT     H237991   2.833   5.150   6.563  0.1401  0.7260 -0.5976
 9321WAT    EPW37992   2.818   5.086   6.521 -0.3694 -0.3482  0.3068
 9322WAT      O37993   2.285   7.387   4.857 -0.3400  0.0322 -0.4901
 9322WAT     H137994   2.306   7.455   4.806 -0.8708  0.4151 -0.2114
 9322WAT     H237995   2.201   7.373   4.838 -1.6090  2.3471  2.6579
 9322WAT    EPW37996   2.276   7.395   4.846  0.7325  0.9209 -1.2727
 9323WAT      O37997   2.918   4.959   5.395  0.1197  0.1509  0.0748
 9323WAT     H137998   2.951   4.881   5.376 -0.5581 -0.9036  2.8372
 9323WAT     H237999   2.917   5.000   5.318 -0.3858 -2.8674 -1.6580
 9323WAT    EPW38000   2.923   4.954   5.381  0.3527 -1.0828  0.1636
 9324WAT      O38001   2.695   4.541   0.048  0.3009 -0.0609  0.4773
 9324WAT     H138002   2.769   4.588   0.048 -1.8258  3.6937 -0.3792
 9324WAT     H238003   2.649   4.577   0.114 -1.6008 -0.7183 -0.4323
 9324WAT    EPW38004   2.699   4.553   0.058 -0.0051 -0.1705  0.4454
 9325WAT      O38005   3.783   5.054   7.673  0.0696  0.2097  0.3547
 9325WAT     H138006   3.802   5.006   7.743  1.2475  2.1342  1.4508
 9325WAT     H238007   3.699   5.036   7.657  0.4316 -2.0967  0.7261
 9325WAT    EPW38008   3.773   5.044   7.681 -0.4942  0.4297 -0.6948
 9326WAT      O38009   3.103   4.846   3.174 -0.0909  0.0634  0.1260
 9326WAT     H138010   3.049   4.815   3.235  1.1762 -1.9949  0.3119
 9326WAT     H238011   3.050   4.865   3.107 -1.0754 -2.4183  0.0894
 9326WAT    EPW38012   3.087   4.844   3.173 -0.3529  0.4953 -0.4533
 9327WAT      O38013   2.300   6.759   5.781 -0.5670  0.7242  0.1140
 9327WAT     H138014   2.387   6.762   5.783 -0.3763 -0.0025 -2.8126
 9327WAT     H238015   2.278   6.841   5.763 -0.2335  0.3574 -2.2088
 9327WAT    EPW38016   2.310   6.772   5.779  0.0823  0.0476 -0.8718
 9328WAT      O38017   2.013   5.125   7.079 -0.3966  0.1285  0.1729
 9328WAT     H138018   2.091   5.133   7.117 -0.2706  0.0950 -0.0740
 9328WAT     H238019   1.957   5.124   7.146 -0.1592 -0.1807  0.3686
 9328WAT    EPW38020   2.016   5.126   7.094 -0.1787 -0.6686 -0.1800
 9329WAT      O38021   4.813   5.115   5.977  0.6302 -0.4053 -0.2031
 9329WAT     H138022   4.782   5.044   6.018 -0.9365 -0.2526 -1.0448
 9329WAT     H238023   4.793   5.100   5.893 -0.4454  1.3394 -0.3113
 9329WAT    EPW38024   4.805   5.102   5.970 -0.4647  0.2272 -0.6890
 9330WAT      O38025   2.657   6.022   6.955 -0.0408  0.1078  0.0167
 9330WAT     H138026   2.648   6.097   7.000 -1.0754 -0.3053  0.5273
 9330WAT     H238027   2.578   6.010   6.921 -0.6057 -1.9368  1.8420
 9330WAT    EPW38028   2.644   6.031   6.957 -0.2910  0.5624  0.7014
 9331WAT      O38029   3.416   4.116   6.153  0.0357  0.2310  0.2512
 9331WAT     H138030   3.341   4.120   6.198 -1.5985 -0.2559 -2.1860
 9331WAT     H238031   3.415   4.036   6.118  0.5225  0.9884 -1.6259
 9331WAT    EPW38032   3.405   4.105   6.154  1.2762  0.2428 -0.1157
 9332WAT      O38033   3.307   5.504   6.419  0.0751 -0.0100 -0.5198
 9332WAT     H138034   3.292   5.469   6.341 -0.0342 -0.7104 -0.1954
 9332WAT     H238035   3.387   5.476   6.439  0.0058 -0.0417 -0.2783
 9332WAT    EPW38036   3.317   5.494   6.411  0.2889 -0.7800 -0.3384
 9333WAT      O38037   4.146   4.311   6.511  0.3241 -0.4358 -0.1895
 9333WAT     H138038   4.212   4.367   6.519  0.5631 -0.5246 -1.3532
 9333WAT     H238039   4.085   4.344   6.565  1.3189 -0.4049  0.9724
 9333WAT    EPW38040   4.147   4.324   6.520 -0.2313  0.4854 -0.5845
 9334WAT      O38041   4.015   5.751   6.783  0.6893 -0.2257  0.2361
 9334WAT     H138042   4.057   5.827   6.780 -0.6740  0.5764  0.5547
 9334WAT     H238043   3.942   5.765   6.738  0.7649 -1.6050 -0.3817
 9334WAT    EPW38044   4.011   5.764   6.776 -0.3402  0.2375 -0.3044
 9335WAT      O38045   1.870   5.925   5.326  0.7591  0.1218 -0.1258
 9335WAT     H138046   1.867   5.846   5.364  0.7886  0.9065  1.5551
 9335WAT     H238047   1.954   5.934   5.304  0.6444 -0.5523 -0.9265
 9335WAT    EPW38048   1.882   5.914   5.328 -0.3270 -0.3442 -0.8608
 9336WAT      O38049   2.131   6.241   6.731 -0.3202 -0.0654 -0.3912
 9336WAT     H138050   2.170   6.193   6.670 -0.9734 -2.1094  0.6654
 9336WAT     H238051   2.067   6.188   6.760 -1.4114  1.6600  0.5456
 9336WAT    EPW38052   2.127   6.226   6.726  0.0783 -0.4398 -0.5496
 9337WAT      O38053   4.300   5.822   6.511 -0.4165 -0.3095 -0.5392
 9337WAT     H138054   4.380   5.786   6.508 -0.9177 -1.4460 -1.1452
 9337WAT     H238055   4.314   5.905   6.488  0.7435 -0.1638  0.5527
 9337WAT    EPW38056   4.314   5.829   6.507 -1.0522 -0.6347 -0.3933
 9338WAT      O38057   3.821   6.635   5.365 -0.0860  0.3136  0.2680
 9338WAT     H138058   3.871   6.597   5.304  0.0802  0.3323  0.3919
 9338WAT     H238059   3.752   6.663   5.320 -0.4346 -0.5397  0.2417
 9338WAT    EPW38060   3.818   6.633   5.349  0.1306 -0.6829 -0.5710
 9339WAT      O38061   2.799   5.913   5.713 -0.3548  0.4036  0.0476
 9339WAT     H138062   2.730   5.888   5.666 -0.6024 -0.3867  0.7913
 9339WAT     H238063   2.860   5.853   5.692  0.0676  1.0075 -0.4906
 9339WAT    EPW38064   2.798   5.900   5.703 -0.1587  0.5395 -0.0977
 9340WAT      O38065   0.774   5.408   7.780 -0.4590  0.0773  0.2808
 9340WAT     H138066   0.756   5.330   7.745 -0.5824  0.4010 -0.4083
 9340WAT     H238067   0.805   5.389   7.859 -0.7634 -0.6535  0.2316
 9340WAT    EPW38068   0.776   5.394   7.786 -0.0910  0.1447 -0.5275
 9341WAT      O38069   1.636   5.626   5.863 -0.4759  0.6230 -0.1446
 9341WAT     H138070   1.576   5.622   5.926  1.5026 -1.8910  1.8061
 9341WAT     H238071   1.665   5.544   5.857  0.5069  1.0576 -3.3659
 9341WAT    EPW38072   1.632   5.613   5.871  0.6896 -0.0742  0.4942
 9342WAT      O38073   3.576   5.040   5.955 -0.3665  0.9164  0.1345
 9342WAT     H138074   3.594   4.955   5.953 -0.8427  0.8187 -0.1372
 9342WAT     H238075   3.626   5.073   5.892 -1.5809  0.5488 -1.0824
 9342WAT    EPW38076   3.586   5.032   5.945 -1.1498  0.6295  0.2468
 9343WAT      O38077   3.369   7.869   5.615  0.3766  0.2682 -0.0958
 9343WAT     H138078   3.385   7.936   5.669 -0.8715  1.2214 -0.8497
 9343WAT     H238079   3.420   7.805   5.646 -0.1543  0.8186  2.1182
 9343WAT    EPW38080   3.379   7.869   5.628 -0.3210 -0.6191 -0.2726
 9344WAT      O38081   3.149   5.322   4.737  0.5856 -0.4161  0.1165
 9344WAT     H138082   3.183   5.257   4.785 -1.0505 -0.9652  0.6047
 9344WAT     H238083   3.177   5.394   4.777  0.2317 -0.8534  1.1808
 9344WAT    EPW38084   3.158   5.323   4.750 -0.1099 -0.3003  0.2198
 9345WAT      O38085   2.566   4.866   7.493 -0.2933  0.0244 -0.3939
 9345WAT     H138086   2.498   4.838   7.446 -0.6542  1.2964 -0.6445
 9345WAT     H238087   2.615   4.909   7.435  0.4108 -0.3358 -0.0786
 9345WAT    EPW38088   2.563   4.868   7.478  0.4955 -0.5670 -0.6672
 9346WAT      O38089   2.669   5.161   5.842  0.0524  0.7121 -0.7344
 9346WAT     H138090   2.610   5.219   5.813 -1.9607 -0.3107  1.0657
 9346WAT     H238091   2.625   5.086   5.844  1.4260 -0.1194  0.6761
 9346WAT    EPW38092   2.654   5.159   5.838  0.0300  1.1174 -0.4672
 9347WAT      O38093   3.371   6.311   5.604 -0.4354  0.6008  0.1032
 9347WAT     H138094   3.286   6.320   5.620 -0.5164  3.9717 -1.3944
 9347WAT     H238095   3.376   6.238   5.557 -2.5431  0.5519 -0.1262
 9347WAT    EPW38096   3.359   6.302   5.599 -0.0995  0.2359 -0.6409
 9348WAT      O38097   2.427   5.932   6.827  0.0975 -0.0568 -0.1909
 9348WAT     H138098   2.474   5.867   6.792  0.7588 -0.1843  0.8886
 9348WAT     H238099   2.358   5.892   6.861 -0.3206  0.0134 -0.9431
 9348WAT    EPW38100   2.424   5.917   6.827 -0.5361 -0.7735  0.1778
 9349WAT      O38101   0.855   4.562   7.296 -0.2143 -0.1836  0.0594
 9349WAT     H138102   0.856   4.649   7.295 -1.8425 -0.1302 -1.3957
 9349WAT     H238103   0.826   4.540   7.216 -0.2001 -2.0452  0.5061
 9349WAT    EPW38104   0.851   4.571   7.284 -0.1672  0.7853 -0.1852
 9350WAT      O38105   3.514   6.447   4.439 -0.3598  0.1538 -0.0534
 9350WAT     H138106   3.475   6.374   4.411  1.1855 -0.9556  0.5155
 9350WAT     H238107   3.528   6.492   4.366 -1.8379  0.1777 -0.3589
 9350WAT    EPW38108   3.510   6.443   4.424 -0.2845 -0.7119  0.7568
 9351WAT      O38109   1.948   4.352   5.436  0.6237  0.0221  0.2411
 9351WAT     H138110   1.917   4.431   5.415  1.2942 -0.0497 -1.1224
 9351WAT     H238111   1.877   4.308   5.460  0.1878  0.9154  0.6426
 9351WAT    EPW38112   1.933   4.357   5.436  0.5652 -0.1800  0.9859
 9352WAT      O38113   2.390   6.785   6.857  0.0674 -0.3758  0.2463
 9352WAT     H138114   2.421   6.760   6.935 -0.3101  0.6129  0.7347
 9352WAT     H238115   2.423   6.726   6.802  0.3331 -1.0998  1.1532
 9352WAT    EPW38116   2.400   6.773   6.861 -0.4025  0.4984 -0.1233
 9353WAT      O38117   3.148   6.097   7.096 -0.0434 -0.1569  0.3896
 9353WAT     H138118   3.171   6.167   7.050  0.7605 -0.4752  0.2856
 9353WAT     H238119   3.095   6.053   7.042 -0.0837  0.0748  0.2394
 9353WAT    EPW38120   3.143   6.101   7.082  0.3061 -0.1964 -0.0688
 9354WAT      O38121   3.916   5.802   5.944 -0.2577  0.1851 -0.2611
 9354WAT     H138122   3.961   5.743   5.899  0.0033  0.5839 -0.5346
 9354WAT     H238123   3.907   5.868   5.887 -1.9066 -0.2070 -0.4998
 9354WAT    EPW38124   3.922   5.803   5.929  0.0130 -0.2149 -1.1978
 9355WAT      O38125   4.313   5.395   7.473 -0.1574  0.2018 -0.3592
 9355WAT     H138126   4.329   5.473   7.510 -1.6448 -0.6547  2.3270
 9355WAT     H238127   4.392   5.357   7.470  0.0364  0.0250  2.8837
 9355WAT    EPW38128   4.327   5.401   7.478 -0.4637  0.0904  0.1087
 9356WAT      O38129   3.317   4.665   6.892 -0.1966 -0.0610 -0.1447
 9356WAT     H138130   3.378   4.660   6.829  1.0997  0.8053  0.9816
 9356WAT     H238131   3.278   4.741   6.877  1.0133  0.7868  0.8332
 9356WAT    EPW38132   3.320   4.675   6.881  0.7254  0.4022  0.0450
 9357WAT      O38133   2.133   7.307   6.151  0.2080 -0.0190  0.2431
 9357WAT     H138134   2.138   7.254   6.082 -0.7169  0.2832 -0.0815
 9357WAT     H238135   2.186   7.373   6.130  1.5666 -0.9264  0.7687
 9357WAT    EPW38136   2.141   7.309   6.137  0.1931 -0.1360 -1.3134
 9358WAT      O38137   3.297   6.598   7.776 -0.5798  0.3617 -0.2984
 9358WAT     H138138   3.370   6.560   7.746  0.1765  1.2826  0.3327
 9358WAT     H238139   3.238   6.533   7.773  0.6842 -0.8961  0.7952
 9358WAT    EPW38140   3.299   6.583   7.771 -0.4284  0.8343  0.3691
 9359WAT      O38141   3.256   6.845   4.263 -0.0592 -0.2539 -0.0268
 9359WAT     H138142   3.237   6.813   4.342  1.9049  0.4654  0.8091
 9359WAT     H238143   3.236   6.779   4.209  1.8820 -2.2319  1.4446
 9359WAT    EPW38144   3.250   6.830   4.267 -0.2253  0.0283 -0.2961
 9360WAT      O38145   3.033   6.356   6.304 -0.0382  0.7611 -0.3171
 9360WAT     H138146   2.973   6.356   6.367 -1.7625 -0.0409 -1.8620
 9360WAT     H238147   3.092   6.298   6.331 -0.1716  1.2031  1.0077
 9360WAT    EPW38148   3.033   6.348   6.317 -0.3380 -0.0451  0.2082
 9361WAT      O38149   1.858   7.462   7.391  0.4479 -0.5351  0.0752
 9361WAT     H138150   1.922   7.403   7.403  0.8905  0.1597  1.2591
 9361WAT     H238151   1.881   7.503   7.318  0.4734 -1.3777 -0.4093
 9361WAT    EPW38152   1.871   7.459   7.382 -0.1773  0.0253 -0.0963
 9362WAT      O38153   2.324   5.426   7.259  0.1762 -0.0709 -0.6076
 9362WAT     H138154   2.244   5.435   7.294  0.9452  2.3293  0.7838
 9362WAT     H238155   2.329   5.341   7.241 -1.6581 -0.8372  1.8849
 9362WAT    EPW38156   2.313   5.415   7.262  0.1668 -0.3575 -0.1276
 9363WAT      O38157   2.376   4.430   0.311 -0.0668  0.0702 -0.0581
 9363WAT     H138158   2.362   4.377   0.379 -0.2822  1.8450  1.3709
 9363WAT     H238159   2.430   4.490   0.343  1.8242 -0.3564 -2.2113
 9363WAT    EPW38160   2.382   4.431   0.326 -0.6244 -0.6064  0.5175
 9364WAT      O38161   3.006   5.328   6.265 -0.1976  0.1630  0.1474
 9364WAT     H138162   3.027   5.320   6.349  0.3084 -0.2128 -0.0113
 9364WAT     H238163   2.998   5.246   6.237  0.4023  0.2626 -0.3510
 9364WAT    EPW38164   3.008   5.315   6.273 -0.5120  0.3131 -0.6956
 9365WAT      O38165   1.143   5.257   6.903 -0.0064  0.6993  0.6210
 9365WAT     H138166   1.206   5.201   6.878 -0.3515 -0.0127  1.3305
 9365WAT     H238167   1.170   5.333   6.870  1.4879  0.5059  1.3203
 9365WAT    EPW38168   1.157   5.260   6.894  0.2409 -0.1152  0.7115
 9366WAT      O38169   1.558   6.308   4.554 -0.6491 -0.3768  0.1075
 9366WAT     H138170   1.557   6.366   4.619  0.7846 -0.0272 -0.1515
 9366WAT     H238171   1.477   6.312   4.521 -1.2586 -0.2238  1.5525
 9366WAT    EPW38172   1.546   6.317   4.559  0.1282 -0.0053 -0.4135
 9367WAT      O38173   3.318   4.965   5.862  0.5514  0.3717  0.9005
 9367WAT     H138174   3.401   4.965   5.889  0.2346  0.2473  1.8885
 9367WAT     H238175   3.319   5.019   5.794  1.8061 -0.9901 -0.2391
 9367WAT    EPW38176   3.331   4.973   5.856 -0.0345 -0.2741 -1.1753
 9368WAT      O38177   1.662   4.608   6.417 -0.3217 -0.2303  0.0719
 9368WAT     H138178   1.583   4.572   6.421 -0.5529  0.3316  0.7937
 9368WAT     H238179   1.659   4.657   6.345 -1.2840  1.2357  1.0539
 9368WAT    EPW38180   1.650   4.610   6.407 -0.2819 -0.3546 -1.3180
 9369WAT      O38181   2.481   4.283   3.541  0.3715  0.0946  0.0157
 9369WAT     H138182   2.399   4.266   3.516  0.6209 -0.6149 -0.3529
 9369WAT     H238183   2.476   4.363   3.574 -0.2042  0.6592 -1.3343
 9369WAT    EPW38184   2.468   4.293   3.542 -0.0441  0.3555  0.1193
 9370WAT      O38185   1.747   4.374   7.353  0.2424 -0.1566 -0.1247
 9370WAT     H138186   1.764   4.384   7.438 -1.9233 -1.7726  0.5791
 9370WAT     H238187   1.758   4.289   7.339 -0.3683 -0.0781 -1.2199
 9370WAT    EPW38188   1.751   4.363   7.364  0.0560 -0.7914  0.0261
 9371WAT      O38189   2.848   5.644   6.311 -0.1755  0.1334 -0.0425
 9371WAT     H138190   2.903   5.670   6.248 -1.5925 -0.1270 -1.4587
 9371WAT     H238191   2.900   5.605   6.369  1.0597 -0.9419 -1.7678
 9371WAT    EPW38192   2.864   5.642   6.310  0.2493 -0.1543  0.2747
 9372WAT      O38193   2.451   6.026   4.141  0.7318  0.1129  0.2566
 9372WAT     H138194   2.379   5.987   4.112  1.2111 -0.8534  0.3252
 9372WAT     H238195   2.437   6.035   4.226  0.1171  1.2130  0.0507
 9372WAT    EPW38196   2.439   6.021   4.149 -0.1224 -0.7032 -0.2721
 9373WAT      O38197   3.198   4.827   6.077 -0.2445  0.4434 -0.4477
 9373WAT     H138198   3.113   4.812   6.068 -0.3952  1.4469 -0.7600
 9373WAT     H238199   3.226   4.836   5.995 -0.0213  1.0923 -0.3001
 9373WAT    EPW38200   3.190   4.826   6.064  0.4588  0.1945  0.7198
 9374WAT      O38201   2.666   6.096   7.363  0.5211 -0.4418 -0.0589
 9374WAT     H138202   2.617   6.115   7.433  1.0801  0.3272  0.1311
 9374WAT     H238203   2.666   6.009   7.361  0.4625 -0.4648  0.8687
 9374WAT    EPW38204   2.658   6.086   7.373  0.2940 -0.1566 -0.4240
 9375WAT      O38205   3.073   5.751   5.638 -0.3002 -0.9020  0.3205
 9375WAT     H138206   3.054   5.751   5.553  1.7807  1.4920 -0.2636
 9375WAT     H238207   3.111   5.673   5.650  0.3633 -0.8456 -1.2217
 9375WAT    EPW38208   3.076   5.739   5.627 -0.2742 -0.4275 -0.0840
 9376WAT      O38209   2.932   5.757   4.387 -0.1029 -0.5195 -0.0823
 9376WAT     H138210   2.889   5.708   4.329  2.4797 -0.1876 -2.5207
 9376WAT     H238211   2.945   5.832   4.345 -0.7467  0.9594  2.1724
 9376WAT    EPW38212   2.928   5.760   4.372 -0.6871  0.7755 -0.5877
 9377WAT      O38213   0.524   5.777   3.726 -0.4991 -0.2988  0.0059
 9377WAT     H138214   0.580   5.773   3.659  0.9654 -0.6429  1.1926
 9377WAT     H238215   0.517   5.863   3.741 -1.9494 -0.1084 -1.4137
 9377WAT    EPW38216   0.531   5.789   3.718  0.1432  0.1284 -0.5662
 9378WAT      O38217   2.214   6.348   5.511  0.1715 -0.0856  0.7627
 9378WAT     H138218   2.278   6.377   5.459  0.1644 -1.6449 -0.1943
 9378WAT     H238219   2.195   6.416   5.561  1.1571  1.0542 -0.3563
 9378WAT    EPW38220   2.221   6.362   5.511  0.8334  0.2153  0.5392
 9379WAT      O38221   1.879   5.255   5.986 -0.0435 -0.4117  0.5305
 9379WAT     H138222   1.965   5.265   5.974 -0.5226  2.5221 -1.5325
 9379WAT     H238223   1.861   5.307   6.054 -0.3777  0.4933 -0.2201
 9379WAT    EPW38224   1.889   5.264   5.994  0.6545  0.2276 -0.5896
 9380WAT      O38225   3.600   4.526   5.561 -0.3599 -1.0688 -0.4055
 9380WAT     H138226   3.548   4.588   5.594  0.5254  0.0899 -1.1360
 9380WAT     H238227   3.555   4.496   5.493 -0.4194 -0.6130 -0.5713
 9380WAT    EPW38228   3.586   4.531   5.556 -0.0190 -0.1866  0.8021
 9381WAT      O38229   2.644   4.687   5.993  0.8877  0.5474  0.0748
 9381WAT     H138230   2.625   4.772   5.986  0.1330  0.6237  2.3614
 9381WAT     H238231   2.731   4.686   5.998  0.8718  1.2616  0.6995
 9381WAT    EPW38232   2.654   4.700   5.993 -0.9691  0.5107 -1.0744
 9382WAT      O38233   2.674   7.317   4.982  0.3102 -0.0488  0.1735
 9382WAT     H138234   2.754   7.313   5.017 -1.0248 -0.0908  3.5117
 9382WAT     H238235   2.672   7.248   4.928  3.0146  0.9211 -1.3737
 9382WAT    EPW38236   2.686   7.306   4.979 -0.2355  0.2930  0.0577
 9383WAT      O38237   4.195   0.119   5.778  0.0035  0.1830 -0.0808
 9383WAT     H138238   4.279   0.100   5.787 -0.1609 -0.9554 -0.7939
 9383WAT     H238239   4.182   0.115   5.692 -1.1745 -1.5181  0.1215
 9383WAT    EPW38240   4.206   0.116   5.767 -0.1045 -0.2152 -0.2397
 9384WAT      O38241   2.221   5.224   6.845 -0.2359 -0.1679 -0.3410
 9384WAT     H138242   2.254   5.301   6.824  0.6054 -0.0221  1.2972
 9384WAT     H238243   2.276   5.195   6.907 -0.3856 -2.1922 -1.0806
 9384WAT    EPW38244   2.234   5.231   6.851  0.3314  0.2055  0.3880
 9385WAT      O38245   2.523   4.243   5.031  0.1074  0.8032 -0.1703
 9385WAT     H138246   2.539   4.157   5.022  1.7184  1.0244  0.3503
 9385WAT     H238247   2.480   4.247   5.107  0.3523  0.4837 -0.0096
 9385WAT    EPW38248   2.519   4.231   5.041 -0.8818 -0.1949  0.5103
 9386WAT      O38249   2.963   6.562   5.819 -0.4357  0.0297  0.5478
 9386WAT     H138250   2.907   6.627   5.801  0.5510  1.3073  1.7929
 9386WAT     H238251   2.966   6.561   5.906  1.5474  0.1218  0.5433
 9386WAT    EPW38252   2.955   6.572   5.829 -0.5058  0.1856 -0.5016
 9387WAT      O38253   4.234   6.275   6.635 -0.0416  0.3851 -0.5369
 9387WAT     H138254   4.157   6.315   6.625 -0.7399 -0.9440 -0.6460
 9387WAT     H238255   4.235   6.215   6.572  1.0928  0.4011 -0.5447
 9387WAT    EPW38256   4.223   6.272   6.624 -0.3649 -0.2042 -0.1515
 9388WAT      O38257   3.804   7.726   6.745 -0.5618  0.2619 -0.0676
 9388WAT     H138258   3.781   7.797   6.789  2.0271  1.2141 -0.0871
 9388WAT     H238259   3.840   7.675   6.806 -0.0335  0.1141 -0.5012
 9388WAT    EPW38260   3.806   7.729   6.760  0.0343  0.3026  0.5247
 9389WAT      O38261   2.295   5.499   5.594 -0.1462  0.2200  0.1512
 9389WAT     H138262   2.345   5.454   5.539  1.9550 -1.0355  2.8071
 9389WAT     H238263   2.221   5.453   5.597  1.1100 -1.9038  1.0654
 9389WAT    EPW38264   2.292   5.486   5.587 -0.5097 -0.2059  0.1733
 9390WAT      O38265   2.760   5.096   5.578  0.0199 -0.4732 -0.1015
 9390WAT     H138266   2.748   5.112   5.663 -0.3125  0.0336 -0.2420
 9390WAT     H238267   2.838   5.057   5.576  0.8883  1.1462  0.2665
 9390WAT    EPW38268   2.770   5.093   5.590  0.1355 -0.1870  0.4122
 9391WAT      O38269   2.770   5.489   6.086  0.0764 -0.1040  0.3289
 9391WAT     H138270   2.831   5.528   6.038 -0.6542  1.1771  0.3696
 9391WAT     H238271   2.811   5.471   6.161  0.3082  1.1763  0.5362
 9391WAT    EPW38272   2.785   5.492   6.090  0.3404 -0.0157 -0.9013
 9392WAT      O38273   2.302   5.082   6.332  0.4381 -0.4416  0.1258
 9392WAT     H138274   2.301   5.147   6.390  0.0675 -0.0848 -0.2710
 9392WAT     H238275   2.246   5.024   6.365  1.0262 -0.7198  0.6527
 9392WAT    EPW38276   2.293   5.083   6.346  0.2846 -0.1608  0.0372
 9393WAT      O38277   1.984   5.947   5.606 -0.1986 -0.6087 -0.3945
 9393WAT     H138278   1.986   5.956   5.519  0.3093 -0.0971 -0.3313
 9393WAT     H238279   2.050   5.996   5.633 -0.2758 -0.8726  0.2781
 9393WAT    EPW38280   1.994   5.956   5.597 -0.3780  0.0777 -0.9770
 9394WAT      O38281   4.023   7.098   5.059 -0.1272  0.2251 -0.4205
 9394WAT     H138282   4.090   7.142   5.094  1.8585 -2.3042 -0.6812
 9394WAT     H238283   4.015   7.029   5.111 -1.1735 -0.5438 -1.5477
 9394WAT    EPW38284   4.032   7.094   5.072 -0.3993  0.0432 -0.8001
 9395WAT      O38285   3.447   4.564   5.883 -0.1028  0.1634  0.3679
 9395WAT     H138286   3.432   4.512   5.814  1.5528  1.7858 -1.3462
 9395WAT     H238287   3.403   4.525   5.948 -0.4430 -2.3369 -1.2027
 9395WAT    EPW38288   3.439   4.550   5.882  0.0628  0.1194 -0.5535
 9396WAT      O38289   2.525   6.351   4.964 -0.1404 -0.0000 -0.4133
 9396WAT     H138290   2.538   6.388   5.041  0.2105 -0.9642  0.0071
 9396WAT     H238291   2.586   6.289   4.960  0.8997  1.0557 -2.1675
 9396WAT    EPW38292   2.536   6.347   4.975 -0.4481  1.0305 -0.4169
 9397WAT      O38293   3.002   5.825   5.351  0.2156 -0.1861  0.4752
 9397WAT     H138294   2.999   5.906   5.382 -1.1805  0.3084 -0.8237
 9397WAT     H238295   3.087   5.805   5.353  0.3631  0.3934  2.9661
 9397WAT    EPW38296   3.014   5.834   5.356 -0.0007  0.4073 -0.6956
 9398WAT      O38297   3.267   5.869   4.300 -0.3465 -0.1620  0.1491
 9398WAT     H138298   3.218   5.888   4.230 -0.0202  0.2769  0.0312
 9398WAT     H238299   3.349   5.882   4.271 -0.1053 -1.5009  0.1430
 9398WAT    EPW38300   3.272   5.874   4.285  0.2052  0.0542 -0.0539
 9399WAT      O38301   4.278   4.758   6.769 -0.2943  0.1799 -0.0596
 9399WAT     H138302   4.273   4.836   6.808 -0.9525 -0.7588  1.8889
 9399WAT     H238303   4.212   4.713   6.805  1.5533 -2.0630  0.7905
 9399WAT    EPW38304   4.267   4.763   6.780 -0.1208  0.4238 -0.4559
 9400WAT      O38305   2.272   4.993   4.330 -0.0936 -0.0148 -0.5000
 9400WAT     H138306   2.207   4.972   4.385 -0.3237  0.2328 -0.6723
 9400WAT     H238307   2.293   5.074   4.354 -1.8916  1.0988 -2.3583
 9400WAT    EPW38308   2.265   5.002   4.342 -0.3152  0.0305  0.7602
 9401WAT      O38309   3.193   4.876   6.776  0.3929 -0.2424  0.0585
 9401WAT     H138310   3.194   4.963   6.778 -0.1594 -0.1986 -0.8582
 9401WAT     H238311   3.115   4.857   6.742  0.1868 -1.1282  0.9830
 9401WAT    EPW38312   3.182   4.886   6.771 -0.1436  0.0540 -0.6879
 9402WAT      O38313   3.156   5.201   5.958  0.2169  0.3210 -0.5455
 9402WAT     H138314   3.203   5.128   5.952  0.9871  0.7044  0.4500
 9402WAT     H238315   3.082   5.176   5.997  0.7530  0.1703  0.4052
 9402WAT    EPW38316   3.152   5.187   5.963 -0.5115  0.6076 -0.1025
 9403WAT      O38317   2.656   5.369   6.579  0.0162 -0.3226  1.0661
 9403WAT     H138318   2.670   5.447   6.543  1.1903 -1.3279 -0.8106
 9403WAT     H238319   2.577   5.347   6.551 -0.4034  0.2690  1.7695
 9403WAT    EPW38320   2.647   5.377   6.570  0.2036 -0.5626 -0.1255
 9404WAT      O38321   3.411   6.153   7.177  0.3860  0.6569 -0.5383
 9404WAT     H138322   3.347   6.176   7.122  1.8525 -0.2768 -2.7557
 9404WAT     H238323   3.367   6.129   7.249 -1.6818  1.0271 -1.5843
 9404WAT    EPW38324   3.395   6.153   7.179 -0.8329  0.2343 -0.2121
 9405WAT      O38325   2.586   6.398   5.585  0.4491  0.3387 -0.0257
 9405WAT     H138326   2.536   6.427   5.519  1.3146 -2.1459 -1.9106
 9405WAT     H238327   2.529   6.361   5.639 -0.0385  0.2030 -0.6257
 9405WAT    EPW38328   2.570   6.397   5.583 -0.2652 -0.2995  0.3462
 9406WAT      O38329   1.522   6.116   3.251 -0.1853  0.0821  0.3504
 9406WAT     H138330   1.561   6.128   3.328  0.7811 -0.7324  0.0133
 9406WAT     H238331   1.464   6.181   3.247  0.7488  1.0086  1.1278
 9406WAT    EPW38332   1.520   6.128   3.262  0.7055 -0.2289  0.7193
 9407WAT      O38333   3.445   7.364   5.801 -0.4103 -0.2563  0.3320
 9407WAT     H138334   3.522   7.352   5.841 -0.6889 -0.7961  0.7215
 9407WAT     H238335   3.391   7.383   5.866 -0.6173  0.0765  0.0645
 9407WAT    EPW38336   3.449   7.365   5.816 -0.8398  0.2387 -0.9285
 9408WAT      O38337   3.050   4.664   4.595  0.3427  0.6004 -0.0239
 9408WAT     H138338   3.087   4.734   4.632  1.1762  0.2587 -0.1728
 9408WAT     H238339   3.117   4.609   4.585 -0.3846 -0.4316  0.5848
 9408WAT    EPW38340   3.065   4.666   4.599  0.1426 -0.0570 -0.0168
 9409WAT      O38341   1.732   5.844   4.796 -0.0283  0.0828  0.2357
 9409WAT     H138342   1.785   5.791   4.751 -1.0415 -0.5477 -0.2727
 9409WAT     H238343   1.669   5.790   4.823  0.0231  0.6522  1.5475
 9409WAT    EPW38344   1.730   5.828   4.794  0.0383  0.0747 -0.2979
 9410WAT      O38345   1.549   5.004   4.060  0.0610  0.0422  0.0507
 9410WAT     H138346   1.634   5.020   4.047  0.4933 -1.9378  0.1376
 9410WAT     H238347   1.520   4.984   3.980 -0.3607  0.7296  0.0177
 9410WAT    EPW38348   1.557   5.003   4.046 -0.0775  0.4870 -0.6299
 9411WAT      O38349   3.350   4.933   2.540  0.0691 -0.6079  0.0489
 9411WAT     H138350   3.343   4.846   2.541  1.2851 -0.7318  1.1659
 9411WAT     H238351   3.435   4.947   2.554 -0.3053  0.7470  1.3104
 9411WAT    EPW38352   3.362   4.922   2.542  0.5548 -0.5393  0.1117
 9412WAT      O38353   1.372   5.518   2.814  0.2159 -0.2291  0.4199
 9412WAT     H138354   1.332   5.579   2.862 -0.2962 -1.2063  1.2824
 9412WAT     H238355   1.370   5.550   2.733  0.9677  1.4111  1.0047
 9412WAT    EPW38356   1.366   5.531   2.809  0.7162 -0.0542  0.2542
 9413WAT      O38357   0.934   5.649   2.854 -0.1036  0.3535 -0.4800
 9413WAT     H138358   1.015   5.619   2.845  0.1036  0.8395 -0.2439
 9413WAT     H238359   0.944   5.723   2.899 -0.6697  0.4493 -0.5057
 9413WAT    EPW38360   0.947   5.656   2.859  0.5393 -0.3347  0.4745
 9414WAT      O38361   3.267   4.735   2.964  0.6813 -0.6707 -0.5196
 9414WAT     H138362   3.221   4.768   3.030  1.8509  0.2130 -0.1118
 9414WAT     H238363   3.239   4.653   2.958 -3.1151  0.5280 -2.2619
 9414WAT    EPW38364   3.256   4.728   2.973  0.0497 -0.5704  0.5035
 9415WAT      O38365   2.191   6.372   3.165 -0.6598 -0.0309  0.0803
 9415WAT     H138366   2.179   6.396   3.082  1.0360  0.3340 -0.1005
 9415WAT     H238367   2.182   6.446   3.209  1.6475  0.4548 -0.1627
 9415WAT    EPW38368   2.188   6.386   3.159 -0.1394  0.2262 -0.6082
 9416WAT      O38369   2.932   4.232   3.154  0.3302 -0.2857 -0.2025
 9416WAT     H138370   2.974   4.176   3.207  1.3949  2.3212  1.9392
 9416WAT     H238371   2.897   4.180   3.093  1.2770 -3.2458  1.5585
 9416WAT    EPW38372   2.933   4.216   3.153  0.0007  0.6261 -0.0472
 9417WAT      O38373   0.928   7.400   1.208 -0.4374 -0.0547 -0.3309
 9417WAT     H138374   0.914   7.486   1.203  0.1103 -0.0065 -1.2118
 9417WAT     H238375   1.011   7.394   1.235 -0.5316 -0.3065 -0.0985
 9417WAT    EPW38376   0.938   7.412   1.211  0.7055  0.0871  0.7703
 9418WAT      O38377   1.218   4.704   4.049  0.6670 -0.1283  0.9216
 9418WAT     H138378   1.293   4.665   4.069  1.2113  1.3475  1.9664
 9418WAT     H238379   1.177   4.710   4.126 -0.4509 -0.7291  0.4034
 9418WAT    EPW38380   1.223   4.699   4.063  0.0907  0.0561 -0.2089
 9419WAT      O38381   1.716   5.453   5.554  0.0310 -0.4933 -0.0308
 9419WAT     H138382   1.720   5.388   5.496  1.0458 -0.1013 -0.4170
 9419WAT     H238383   1.717   5.411   5.631 -2.0380 -1.0529 -0.2450
 9419WAT    EPW38384   1.717   5.437   5.557 -0.1497  0.2319 -0.2824
 9420WAT      O38385   0.968   4.828   2.124 -0.3586  0.1921 -0.1329
 9420WAT     H138386   0.981   4.766   2.184 -1.1873 -1.9112 -1.9875
 9420WAT     H238387   1.017   4.894   2.153  0.6179 -1.2979  1.9450
 9420WAT    EPW38388   0.978   4.828   2.137  0.4639 -0.2087 -0.4517
 9421WAT      O38389   2.506   5.832   3.119  0.7056  0.0972 -0.2620
 9421WAT     H138390   2.491   5.855   3.036  1.3689 -1.4686 -0.8591
 9421WAT     H238391   2.500   5.745   3.117 -1.9559  0.1190  1.8991
 9421WAT    EPW38392   2.503   5.822   3.106  0.4991  1.2240  0.3415
 9422WAT      O38393   1.554   5.304   3.598 -0.0168  0.4115  0.0914
 9422WAT     H138394   1.627   5.320   3.644  0.6237 -0.7111 -0.4823
 9422WAT     H238395   1.540   5.219   3.612 -0.8282  0.4628 -0.3678
 9422WAT    EPW38396   1.563   5.294   3.607 -0.0164  0.3757 -0.1041
 9423WAT      O38397   2.861   4.732   1.740 -0.3878 -0.0182  0.0226
 9423WAT     H138398   2.857   4.798   1.684 -2.3890 -0.6757 -0.7096
 9423WAT     H238399   2.913   4.762   1.804  1.5144  0.9516 -1.8580
 9423WAT    EPW38400   2.868   4.746   1.741 -0.0283 -0.3672 -0.0862
 9424WAT      O38401   2.234   5.819   2.620  0.1819 -0.0305  0.3353
 9424WAT     H138402   2.272   5.785   2.691 -0.9633 -0.0294  0.9696
 9424WAT     H238403   2.157   5.848   2.650  0.1137  0.8923 -0.7033
 9424WAT    EPW38404   2.228   5.818   2.635 -0.2318 -0.3214 -1.2505
 9425WAT      O38405   1.697   5.938   4.442 -0.2451  0.4689 -0.1619
 9425WAT     H138406   1.631   5.952   4.497 -0.2689 -0.0610 -0.0527
 9425WAT     H238407   1.661   5.946   4.363 -0.2305  1.1401 -0.1124
 9425WAT    EPW38408   1.682   5.941   4.439  1.6615  0.2902 -0.7448
 9426WAT      O38409   0.932   5.743   4.578  0.3255 -0.0523 -0.3722
 9426WAT     H138410   0.991   5.791   4.620 -0.7579 -0.4909  1.7845
 9426WAT     H238411   0.949   5.662   4.603 -0.7536 -0.2546 -0.2615
 9426WAT    EPW38412   0.943   5.738   4.588  0.6180 -0.0536 -0.5086
 9427WAT      O38413   2.665   4.509   3.079 -0.0319 -0.1721  0.2584
 9427WAT     H138414   2.651   4.585   3.039 -1.9537 -0.6863 -0.1662
 9427WAT     H238415   2.608   4.455   3.039 -0.2997 -1.2838  2.0538
 9427WAT    EPW38416   2.654   4.512   3.067  0.1535  0.1854 -0.7108
 9428WAT      O38417   3.144   4.497   4.277 -0.0841  0.3443  0.1034
 9428WAT     H138418   3.123   4.458   4.203  0.7701  0.4137 -0.1836
 9428WAT     H238419   3.188   4.436   4.322  2.0679  1.1759 -0.7274
 9428WAT    EPW38420   3.148   4.482   4.273  0.2699 -0.2221 -0.0835
 9429WAT      O38421   1.793   4.623   2.303 -0.0917 -0.2317  0.4094
 9429WAT     H138422   1.781   4.591   2.223  1.7740  1.6663 -0.7223
 9429WAT     H238423   1.764   4.560   2.355 -2.4675 -1.0672 -1.7385
 9429WAT    EPW38424   1.787   4.609   2.299  1.0518 -0.0606 -0.1509
 9430WAT      O38425   2.517   4.497   3.314 -0.0109  0.5991  0.2098
 9430WAT     H138426   2.509   4.412   3.329 -3.6349  0.9171  1.2179
 9430WAT     H238427   2.562   4.501   3.239  0.7542 -2.1147  0.4157
 9430WAT    EPW38428   2.522   4.485   3.305 -0.5330 -0.4358 -0.0455
 9431WAT      O38429   1.934   4.979   3.508  0.2459 -0.1040 -0.0397
 9431WAT     H138430   1.957   5.007   3.429  1.1972  1.4627  0.7381
 9431WAT     H238431   1.902   4.899   3.494  0.6062  0.0600 -1.9590
 9431WAT    EPW38432   1.933   4.972   3.494  0.3344  0.7929 -0.2912
 9432WAT      O38433   1.275   5.803   2.323  0.0886  0.1782  0.0168
 9432WAT     H138434   1.346   5.772   2.282  0.4901 -0.4600  1.1722
 9432WAT     H238435   1.307   5.866   2.374  0.0153 -0.7658  1.2888
 9432WAT    EPW38436   1.290   5.807   2.324  0.0246 -0.1930 -1.1897
 9433WAT      O38437   1.323   7.682   3.059 -0.8728  0.1027 -0.7912
 9433WAT     H138438   1.282   7.681   3.136  0.3388 -0.1476 -0.1220
 9433WAT     H238439   1.361   7.761   3.057  0.5928 -0.5570 -0.2846
 9433WAT    EPW38440   1.322   7.694   3.070  0.8974  0.1794  0.2780
 9434WAT      O38441   3.309   7.308   0.974  0.5331 -0.2698 -0.6987
 9434WAT     H138442   3.358   7.241   0.948  2.4882  1.0950 -0.8157
 9434WAT     H238443   3.353   7.340   1.042 -0.8361  0.3633 -0.0711
 9434WAT    EPW38444   3.323   7.303   0.980  0.7239 -0.0439 -0.2164
 9435WAT      O38445   3.402   5.362   2.165  0.1712  0.0701 -0.1817
 9435WAT     H138446   3.329   5.406   2.180 -0.3041 -0.6331 -0.3888
 9435WAT     H238447   3.378   5.278   2.173  0.5680 -0.2323 -1.7877
 9435WAT    EPW38448   3.388   5.356   2.168  0.1725  0.2888  0.4857
 9436WAT      O38449   1.995   5.292   6.282 -0.1633  0.2625 -0.1102
 9436WAT     H138450   1.972   5.208   6.286 -0.9376  0.3417 -2.0808
 9436WAT     H238451   2.082   5.290   6.283 -0.1794 -0.5194  0.2481
 9436WAT    EPW38452   2.004   5.280   6.283  0.1158 -0.3519  0.0479
 9437WAT      O38453   2.784   4.748   4.599 -0.1198 -0.1461 -0.6186
 9437WAT     H138454   2.837   4.686   4.567 -1.0458 -0.9741 -0.5725
 9437WAT     H238455   2.751   4.712   4.671 -1.4994 -0.0331 -1.1711
 9437WAT    EPW38456   2.787   4.734   4.605 -0.0973 -0.6365 -0.6914
 9438WAT      O38457   1.271   6.991   1.503 -1.1447  0.9478 -0.3103
 9438WAT     H138458   1.297   6.947   1.573 -0.2389 -1.8699 -2.2183
 9438WAT     H238459   1.319   7.064   1.504  0.4564 -0.0707  0.8395
 9438WAT    EPW38460   1.282   6.995   1.513  0.3432 -0.1234 -0.0235
 9439WAT      O38461   3.138   5.189   2.650  0.2791 -0.4319 -0.1479
 9439WAT     H138462   3.189   5.127   2.684  0.1066 -1.0072 -0.9130
 9439WAT     H238463   3.077   5.201   2.711  0.8731 -0.2985  0.4328
 9439WAT    EPW38464   3.137   5.181   2.664  0.8840 -0.5420 -0.4485
 9440WAT      O38465   3.188   7.348   3.568  0.3908 -0.1895 -0.5090
 9440WAT     H138466   3.234   7.395   3.626  0.5508  0.7133 -1.3410
 9440WAT     H238467   3.116   7.327   3.612 -0.1221  1.6497 -0.3709
 9440WAT    EPW38468   3.184   7.352   3.583  0.1063 -0.1517 -0.3078
 9441WAT      O38469   1.408   4.658   5.338 -0.0622  0.0595  0.1164
 9441WAT     H138470   1.398   4.714   5.272 -0.1974  0.3643  0.3930
 9441WAT     H238471   1.338   4.606   5.332  0.2048 -0.2556 -0.3077
 9441WAT    EPW38472   1.396   4.659   5.327  0.3104  0.0141  0.7863
 9442WAT      O38473   2.068   6.099   2.540  0.4762 -0.5231  0.0804
 9442WAT     H138474   2.051   6.072   2.459  2.7477  0.0869 -0.7032
 9442WAT     H238475   2.086   6.184   2.529 -1.2868  0.0913  1.6032
 9442WAT    EPW38476   2.068   6.108   2.526  0.0047 -0.3367  0.5418
 9443WAT      O38477   1.322   7.236   2.636 -0.2679 -0.4652 -0.0577
 9443WAT     H138478   1.302   7.266   2.716 -0.5882  0.2074 -0.3847
 9443WAT     H238479   1.248   7.244   2.592 -0.0672 -0.7529 -0.4492
 9443WAT    EPW38480   1.308   7.242   2.641 -0.4049 -0.4739 -0.3090
 9444WAT      O38481   3.420   6.458   5.356 -0.3973 -0.4160  0.4250
 9444WAT     H138482   3.423   6.422   5.436 -2.3093  2.8392  2.1764
 9444WAT     H238483   3.334   6.464   5.339 -0.0513 -1.3045 -2.1023
 9444WAT    EPW38484   3.408   6.454   5.365 -0.6490  0.0452 -0.2627
 9445WAT      O38485   1.944   4.349   3.272 -0.1874  0.0577  0.1327
 9445WAT     H138486   1.930   4.376   3.191 -2.2966 -0.8490  0.1303
 9445WAT     H238487   1.906   4.270   3.274  1.1141 -0.6024  1.6018
 9445WAT    EPW38488   1.937   4.341   3.260  0.1878 -0.1243  0.1253
 9446WAT      O38489   2.075   6.381   2.185 -0.1062 -0.6236  0.1586
 9446WAT     H138490   2.088   6.395   2.270 -0.3695  0.7495  0.0053
 9446WAT     H238491   2.145   6.417   2.147 -0.8096  0.3617 -0.2724
 9446WAT    EPW38492   2.087   6.389   2.192 -0.9891  0.1276 -1.4685
 9447WAT      O38493   2.545   6.199   2.453 -0.3476 -0.0213 -0.2188
 9447WAT     H138494   2.614   6.178   2.403 -0.4836  0.7198 -0.7271
 9447WAT     H238495   2.503   6.122   2.462  0.5281 -0.4771  0.0856
 9447WAT    EPW38496   2.549   6.184   2.447  1.0945  0.0112  0.0654
 9448WAT      O38497   0.739   6.296   3.867 -0.6026  0.3174 -0.5332
 9448WAT     H138498   0.769   6.240   3.808  2.1191  1.3592 -0.2764
 9448WAT     H238499   0.717   6.245   3.934  1.2867 -0.5475 -0.5043
 9448WAT    EPW38500   0.740   6.280   3.868 -0.4833  0.3854 -0.4998
 9449WAT      O38501   1.848   5.730   4.417 -0.7277  0.3030  0.2009
 9449WAT     H138502   1.793   5.798   4.423 -0.3673  0.5467  0.9012
 9449WAT     H238503   1.894   5.748   4.346 -0.2911  1.0711  0.6612
 9449WAT    EPW38504   1.847   5.743   4.408 -0.0636  0.2321 -0.3417
 9450WAT      O38505   3.512   6.119   4.542 -0.1890 -0.0532 -0.4302
 9450WAT     H138506   3.571   6.170   4.581  1.9220 -2.7605  0.2230
 9450WAT     H238507   3.480   6.169   4.479  1.4846  2.1515  0.3562
 9450WAT    EPW38508   3.516   6.134   4.539  0.0918 -0.1396 -0.1048
 9451WAT      O38509   2.102   6.132   3.562 -0.2404 -0.2670  0.3714
 9451WAT     H138510   2.076   6.213   3.581  1.6747  0.6273 -0.5006
 9451WAT     H238511   2.034   6.083   3.584 -0.7478  1.3533  2.7504
 9451WAT    EPW38512   2.088   6.137   3.568  0.7699  0.3484  0.4944
 9452WAT      O38513   2.732   4.909   2.455 -0.1780 -0.3071 -0.3849
 9452WAT     H138514   2.815   4.905   2.482 -0.3600  0.3217  0.3147
 9452WAT     H238515   2.687   4.884   2.526 -0.7050  2.0010  0.1734
 9452WAT    EPW38516   2.738   4.905   2.469 -0.9140  0.3692 -1.0285
 9453WAT      O38517   2.166   4.353   2.912 -0.0065  0.2658 -0.0002
 9453WAT     H138518   2.112   4.415   2.940 -0.1485  0.3059 -0.3673
 9453WAT     H238519   2.112   4.289   2.886  0.1413 -0.6069  1.7048
 9453WAT    EPW38520   2.150   4.353   2.912 -0.2167 -0.3907 -0.3524
 9454WAT      O38521   1.467   7.027   2.663  0.0336 -0.1289  0.0311
 9454WAT     H138522   1.409   7.087   2.638  0.3347  0.8038  1.4950
 9454WAT     H238523   1.445   7.010   2.746  2.0367  0.5027  0.7453
 9454WAT    EPW38524   1.455   7.033   2.671  0.6285 -0.0677 -0.2539
 9455WAT      O38525   2.047   3.820   4.374 -0.1051  0.8856 -0.0614
 9455WAT     H138526   2.130   3.842   4.361 -0.1660  0.8704 -0.4882
 9455WAT     H238527   2.051   3.738   4.404 -0.0058  0.5835 -0.8767
 9455WAT    EPW38528   2.060   3.811   4.376 -0.1104  0.4190  1.0691
 9456WAT      O38529   3.677   6.568   2.705  0.1745 -0.1241 -0.4690
 9456WAT     H138530   3.610   6.512   2.701  1.0583 -1.2143 -0.5597
 9456WAT     H238531   3.745   6.520   2.677  1.0030  0.9363 -0.3221
 9456WAT    EPW38532   3.677   6.552   2.700 -1.1514  0.1409  0.7125
 9457WAT      O38533   1.743   4.678   2.723 -0.0750  0.2334  0.3406
 9457WAT     H138534   1.795   4.662   2.791 -2.4904 -0.8743  2.0798
 9457WAT     H238535   1.703   4.753   2.745 -0.9864 -0.2131  0.2503
 9457WAT    EPW38536   1.744   4.687   2.736  0.6079 -0.2955 -0.4508
 9458WAT      O38537   2.409   6.890   3.966  0.1060  0.4469  0.5074
 9458WAT     H138538   2.354   6.835   3.926  0.7391  1.0383 -1.2632
 9458WAT     H238539   2.396   6.873   4.051 -1.7612 -0.4223  0.1096
 9458WAT    EPW38540   2.399   6.880   3.973  0.6661 -0.2599  0.2120
 9459WAT      O38541   1.681   5.789   4.009 -0.3356  0.2727 -0.0142
 9459WAT     H138542   1.743   5.734   4.037 -0.2974  0.3734  0.1002
 9459WAT     H238543   1.718   5.828   3.941 -0.9386 -1.0106 -1.1338
 9459WAT    EPW38544   1.696   5.786   4.003  0.0422 -0.5933  0.0887
 9460WAT      O38545   3.299   5.809   1.487 -0.1955 -0.2906 -0.1477
 9460WAT     H138546   3.332   5.879   1.528  1.3266 -1.3371  0.5141
 9460WAT     H238547   3.288   5.836   1.405  1.2285  0.4648 -0.1115
 9460WAT    EPW38548   3.302   5.823   1.481  0.2431 -0.1856  0.7094
 9461WAT      O38549   2.241   4.971   5.574  0.0674 -0.1692 -0.5312
 9461WAT     H138550   2.229   4.935   5.495 -1.3993  1.5822 -1.1771
 9461WAT     H238551   2.303   5.030   5.561  0.0377 -0.0858 -0.3068
 9461WAT    EPW38552   2.248   4.975   5.560 -0.8651  0.2867 -0.4753
 9462WAT      O38553   2.774   5.085   4.177 -0.0734 -0.7280 -0.3346
 9462WAT     H138554   2.725   5.047   4.239  0.9290 -1.0527  0.2755
 9462WAT     H238555   2.841   5.119   4.222  0.1969 -0.1632 -1.1372
 9462WAT    EPW38556   2.777   5.085   4.193  0.2922 -0.5905  0.2931
 9463WAT      O38557   2.259   5.565   2.535 -0.3177 -0.1490 -0.3134
 9463WAT     H138558   2.241   5.648   2.556  0.7140  0.1381 -0.5232
 9463WAT     H238559   2.346   5.563   2.531 -0.1405 -1.8057  1.9894
 9463WAT    EPW38560   2.269   5.577   2.538 -0.6345 -0.5425 -0.6063
 9464WAT      O38561   2.809   5.614   5.329  0.0863 -0.3177  0.2225
 9464WAT     H138562   2.842   5.534   5.331  0.8200 -0.0306 -0.2153
 9464WAT     H238563   2.878   5.666   5.340 -0.4253  0.2526  0.8978
 9464WAT    EPW38564   2.824   5.610   5.331  0.1756  0.2489  0.2578
 9465WAT      O38565   2.081   7.097   5.212  0.0865 -0.4170 -0.4370
 9465WAT     H138566   2.081   7.019   5.175 -1.1490 -0.0936 -1.1691
 9465WAT     H238567   2.149   7.094   5.267 -0.5816 -2.3664  0.3404
 9465WAT    EPW38568   2.091   7.085   5.215 -0.8382 -0.4732  0.4505
 9466WAT      O38569   3.022   5.129   4.297 -0.2719  0.4430 -0.2397
 9466WAT     H138570   3.028   5.205   4.338  1.6408  2.4920 -3.7932
 9466WAT     H238571   3.074   5.076   4.342  1.0264  2.2639  0.5198
 9466WAT    EPW38572   3.030   5.132   4.310 -0.1210 -0.3018 -0.9126
 9467WAT      O38573   2.990   5.187   3.049  0.2433 -0.1747 -0.4308
 9467WAT     H138574   3.070   5.222   3.044 -0.8327  2.5366 -0.1838
 9467WAT     H238575   2.943   5.234   2.993 -1.5950 -0.3707  0.8674
 9467WAT    EPW38576   2.995   5.199   3.040  0.3920 -0.7549 -0.8431
 9468WAT      O38577   3.912   7.125   5.836  0.5037 -0.2116 -0.5278
 9468WAT     H138578   3.898   7.061   5.894  0.1543  0.8409  0.5957
 9468WAT     H238579   3.834   7.163   5.828  0.2920 -0.9276 -2.4834
 9468WAT    EPW38580   3.898   7.121   5.844 -0.1594  0.5011  0.5146
 9469WAT      O38581   1.669   6.325   4.871 -0.6459 -0.6602  0.1091
 9469WAT     H138582   1.712   6.259   4.834 -2.1780 -1.4104 -0.4435
 9469WAT     H238583   1.597   6.287   4.903 -1.3656  0.6723  0.1430
 9469WAT    EPW38584   1.665   6.309   4.870  0.6238  0.6338  0.1069
 9470WAT      O38585   1.322   4.957   3.168  0.0939 -0.5868  0.6904
 9470WAT     H138586   1.374   4.887   3.161  0.7470 -0.0935  0.5066
 9470WAT     H238587   1.342   5.004   3.098  0.2631  0.1803  1.2498
 9470WAT    EPW38588   1.332   4.953   3.157  0.6584 -0.1113  0.3753
 9471WAT      O38589   2.368   5.706   2.843  0.7390 -0.4550  0.3432
 9471WAT     H138590   2.405   5.628   2.837 -0.1732 -0.8395 -0.6845
 9471WAT     H238591   2.293   5.691   2.884  0.5684 -0.1270  0.1646
 9471WAT    EPW38592   2.363   5.692   2.848 -0.2641 -0.4924  0.0938
 9472WAT      O38593   3.401   6.244   1.618  0.2489  0.0786  0.2328
 9472WAT     H138594   3.428   6.161   1.613 -0.1166 -0.1006  1.0874
 9472WAT     H238595   3.459   6.287   1.570  0.4268 -0.6760 -0.2470
 9472WAT    EPW38596   3.414   6.238   1.610  0.4881  0.2879 -1.0433
 9473WAT      O38597   1.465   6.702   3.539  0.5356  0.1493  0.5515
 9473WAT     H138598   1.459   6.659   3.463 -1.1245  0.6418  0.3544
 9473WAT     H238599   1.483   6.784   3.515 -0.9543  0.5213  0.5652
 9473WAT    EPW38600   1.467   6.708   3.524 -0.1917 -0.7675  0.4323
 9474WAT      O38601   0.975   5.212   3.448  0.4628  0.1565 -0.1883
 9474WAT     H138602   0.925   5.141   3.440  0.9124 -0.2712  0.6851
 9474WAT     H238603   0.952   5.261   3.379 -2.2751  0.6870  0.9776
 9474WAT    EPW38604   0.964   5.209   3.437  0.0991  0.0097  0.5194
 9475WAT      O38605   4.036   7.485   4.301 -0.2996 -0.2091 -0.6536
 9475WAT     H138606   4.075   7.562   4.287 -0.0703 -0.2254 -0.1212
 9475WAT     H238607   3.994   7.497   4.377 -0.7578 -0.4189 -0.8683
 9475WAT    EPW38608   4.035   7.498   4.310  0.6132 -0.0410 -0.6214
 9476WAT      O38609   3.099   5.734   3.187  0.2732 -0.5915  0.2562
 9476WAT     H138610   3.103   5.810   3.146 -3.0103 -0.5170 -0.1653
 9476WAT     H238611   3.155   5.744   3.254  1.7003  1.2289 -1.0981
 9476WAT    EPW38612   3.108   5.746   3.191 -0.3107  0.4196  0.0220
 9477WAT      O38613   1.468   5.364   3.349  0.1695 -0.2474  0.3898
 9477WAT     H138614   1.385   5.339   3.360  1.0366 -2.7756  2.4895
 9477WAT     H238615   1.504   5.346   3.427  2.5161  1.5500 -0.1965
 9477WAT    EPW38616   1.461   5.358   3.362  0.5826 -0.5366  0.0828
 9478WAT      O38617   3.340   4.613   3.541 -0.6018  0.2544 -0.2750
 9478WAT     H138618   3.298   4.537   3.548  0.6231 -0.5878 -1.5766
 9478WAT     H238619   3.413   4.600   3.587  1.3256 -0.7214 -3.3250
 9478WAT    EPW38620   3.344   4.600   3.549 -0.2297  0.1380 -0.4987
 9479WAT      O38621   0.534   4.399   3.792  0.0343  0.0185  0.0103
 9479WAT     H138622   0.585   4.359   3.850 -1.3478  0.1124  1.3768
 9479WAT     H238623   0.478   4.337   3.767 -0.8616  0.5674  0.6080
 9479WAT    EPW38624   0.533   4.384   3.797  0.6088 -0.3007  0.5703
 9480WAT      O38625   2.317   4.123   5.229 -0.2821  0.0852 -0.4962
 9480WAT     H138626   2.324   4.037   5.218 -0.3121  0.3172 -3.0223
 9480WAT     H238627   2.352   4.137   5.307 -0.1993 -2.1893 -0.0524
 9480WAT    EPW38628   2.323   4.112   5.239  0.4607  0.2638 -0.2735
 9481WAT      O38629   3.986   5.420   3.115 -0.7944 -0.2361  0.1414
 9481WAT     H138630   3.914   5.447   3.073 -0.1888  0.4375 -0.5020
 9481WAT     H238631   4.044   5.483   3.098 -0.2582 -0.4045  1.2548
 9481WAT    EPW38632   3.983   5.433   3.106  1.1190  0.3871  0.1980
 9482WAT      O38633   2.129   4.975   3.753  0.3879  0.5739 -0.1447
 9482WAT     H138634   2.106   4.912   3.809  1.9530 -1.3269 -1.4881
 9482WAT     H238635   2.074   4.964   3.686  0.9250  0.3483 -0.5553
 9482WAT    EPW38636   2.118   4.964   3.752 -0.5911  0.4108  0.3762
 9483WAT      O38637   3.660   5.860   2.942 -0.1760  0.3172 -0.2912
 9483WAT     H138638   3.647   5.833   3.024 -2.3268  1.0904 -0.3015
 9483WAT     H238639   3.741   5.891   2.943  1.7147 -3.9809  0.2487
 9483WAT    EPW38640   3.670   5.860   2.955  1.2153  0.1211  0.1902
 9484WAT      O38641   1.392   6.498   1.795  0.3201 -0.0141  0.0657
 9484WAT     H138642   1.376   6.456   1.870  1.0761 -0.5266 -0.0512
 9484WAT     H238643   1.449   6.560   1.818 -2.6902  2.7554  0.7727
 9484WAT    EPW38644   1.398   6.501   1.809  0.4562  0.1202 -0.3357
 9485WAT      O38645   1.167   5.418   4.432 -0.4891 -0.1740  0.3728
 9485WAT     H138646   1.112   5.431   4.499  1.1822  1.2504  1.5634
 9485WAT     H238647   1.239   5.460   4.457  0.6852 -0.8222 -1.7313
 9485WAT    EPW38648   1.169   5.426   4.446  0.7905 -0.5265  0.3693
 9486WAT      O38649   1.295   5.431   3.601 -0.3454 -0.0823  0.5387
 9486WAT     H138650   1.251   5.370   3.645  0.8327 -1.1509  0.3317
 9486WAT     H238651   1.379   5.411   3.618  0.0903  2.0620  1.1975
 9486WAT    EPW38652   1.301   5.419   3.610 -0.0046 -0.4058  0.1951
 9487WAT      O38653   3.231   6.132   4.119  0.1777  0.2643  0.2236
 9487WAT     H138654   3.153   6.124   4.082 -0.0148 -2.2063  0.9862
 9487WAT     H238655   3.285   6.142   4.051 -0.4457 -1.5572 -0.5928
 9487WAT    EPW38656   3.228   6.132   4.104 -0.4660  1.0158  1.2334
 9488WAT      O38657   7.917   5.495   3.906 -0.5567 -0.8666 -0.6629
 9488WAT     H138658   7.970   5.482   3.838  0.1594  1.6247 -0.6772
 9488WAT     H238659   7.972   5.499   3.974 -0.6249  1.6955 -0.6708
 9488WAT    EPW38660   7.933   5.493   3.906 -0.0424  0.5049  0.1410
 9489WAT      O38661   1.555   5.144   4.326  0.0115  0.9266  0.4397
 9489WAT     H138662   1.535   5.103   4.252  1.9062 -0.0259  0.3941
 9489WAT     H238663   1.618   5.199   4.302 -1.0181  2.3595  0.9238
 9489WAT    EPW38664   1.561   5.146   4.312  0.9370 -0.0595 -0.1995
 9490WAT      O38665   1.713   5.396   4.042 -0.1890 -0.0995  0.2300
 9490WAT     H138666   1.780   5.445   4.068 -0.4530  0.6168 -0.4082
 9490WAT     H238667   1.676   5.443   3.979 -1.0723 -0.6542  0.3110
 9490WAT    EPW38668   1.717   5.410   4.037 -0.5856  0.1614 -0.8198
 9491WAT      O38669   1.135   7.035   4.154 -0.1814 -0.5505 -0.2099
 9491WAT     H138670   1.058   7.008   4.186 -1.5365  0.9325 -1.9972
 9491WAT     H238671   1.164   6.965   4.109 -0.9718 -0.8161 -0.3279
 9491WAT    EPW38672   1.128   7.020   4.152 -0.2578 -0.2593 -0.8789
 9492WAT      O38673   2.614   6.908   3.792  0.1723  0.3610  0.6257
 9492WAT     H138674   2.547   6.905   3.847  0.2651 -0.4090  0.7142
 9492WAT     H238675   2.681   6.876   3.839  0.0991 -0.9584 -0.1100
 9492WAT    EPW38676   2.614   6.903   3.807 -0.4433  0.6919  0.4198
 9493WAT      O38677   1.230   5.172   4.010 -0.2372  0.8483 -0.1353
 9493WAT     H138678   1.242   5.175   4.097 -0.5176  0.6913 -0.0877
 9493WAT     H238679   1.169   5.233   3.996  0.1453  1.1959 -0.2857
 9493WAT    EPW38680   1.222   5.181   4.021 -0.0077 -0.5694  0.5439
 9494WAT      O38681   1.118   4.942   2.772  0.2248  0.0058 -0.1448
 9494WAT     H138682   1.079   4.927   2.848  0.7679 -0.9802 -0.0418
 9494WAT     H238683   1.068   5.003   2.735 -1.2556 -1.0027  0.1063
 9494WAT    EPW38684   1.105   4.949   2.777  0.4885  0.0522 -0.2882
 9495WAT      O38685   1.119   4.408   1.790  0.7079  0.1580 -0.2379
 9495WAT     H138686   1.132   4.493   1.776  1.2071 -0.1051 -1.4746
 9495WAT     H238687   1.190   4.384   1.836  0.7408  0.3236 -0.2009
 9495WAT    EPW38688   1.132   4.417   1.795 -0.1405 -0.0820 -0.6696
 9496WAT      O38689   1.751   4.612   4.063  0.5790 -0.2332 -0.0700
 9496WAT     H138690   1.838   4.614   4.057  0.6392 -0.6566  0.4592
 9496WAT     H238691   1.737   4.608   4.149  0.0757 -1.1382 -0.1760
 9496WAT    EPW38692   1.762   4.612   4.075 -0.6720  0.0522 -1.0935
 9497WAT      O38693   3.162   6.632   4.073  0.5352 -0.0911  0.0082
 9497WAT     H138694   3.120   6.649   3.999  1.0620 -0.4574 -0.3843
 9497WAT     H238695   3.114   6.570   4.111 -0.8888  1.5372  1.0041
 9497WAT    EPW38696   3.149   6.625   4.068 -0.0684 -0.9604  0.1534
 9498WAT      O38697   2.620   6.572   2.110 -0.5361  0.3449 -0.1905
 9498WAT     H138698   2.577   6.537   2.178  0.6711  0.2903  0.5819
 9498WAT     H238699   2.689   6.609   2.147  1.0123 -1.0501 -1.5252
 9498WAT    EPW38700   2.624   6.572   2.126  0.5481 -0.2394  0.3720
 9499WAT      O38701   2.636   6.127   5.250  0.6574  0.3410  0.0839
 9499WAT     H138702   2.644   6.041   5.256 -0.3018  0.2694  0.6453
 9499WAT     H238703   2.551   6.141   5.262  0.7629  1.3488 -0.2050
 9499WAT    EPW38704   2.625   6.116   5.253  0.0173  0.0376 -0.2747
 9500WAT      O38705   2.525   4.040   3.687 -0.3128  0.7533  0.4179
 9500WAT     H138706   2.519   4.125   3.667  0.3144  0.3712 -1.6105
 9500WAT     H238707   2.585   4.010   3.631 -1.3799 -1.2816  0.2854
 9500WAT    EPW38708   2.533   4.048   3.676 -0.3389  0.7552 -0.3378
 9501WAT      O38709   1.225   4.933   4.413  0.2656 -0.8008 -0.6570
 9501WAT     H138710   1.236   5.009   4.373  0.2478 -1.1774 -1.3961
 9501WAT     H238711   1.306   4.904   4.425  0.2946 -0.4328  0.1045
 9501WAT    EPW38712   1.239   4.940   4.409 -0.0345 -0.4969 -0.3078
 9502WAT      O38713   3.474   5.984   5.817 -0.0207 -0.5344  0.3438
 9502WAT     H138714   3.467   5.948   5.896  1.9733 -0.1791  0.7439
 9502WAT     H238715   3.560   5.983   5.802 -0.3724 -1.1131 -2.0814
 9502WAT    EPW38716   3.486   5.979   5.826 -0.1307 -0.1945  0.6850
 9503WAT      O38717   2.749   5.399   4.411  0.1863 -0.1961  0.3365
 9503WAT     H138718   2.751   5.483   4.391  3.1794  0.1516  1.5395
 9503WAT     H238719   2.831   5.372   4.397 -0.5407 -2.8051  0.4770
 9503WAT    EPW38720   2.761   5.407   4.406 -0.3039 -1.6875 -0.3162
 9504WAT      O38721   2.145   5.624   4.274  0.0102 -0.3245  0.1001
 9504WAT     H138722   2.143   5.543   4.306  1.0171 -1.0825 -1.6320
 9504WAT     H238723   2.227   5.649   4.288  0.1224 -0.2046 -0.7522
 9504WAT    EPW38724   2.157   5.616   4.281 -0.4955  0.5098 -1.0256
 9505WAT      O38725   2.483   5.874   3.505 -0.0161  0.3818 -0.3417
 9505WAT     H138726   2.432   5.908   3.567  0.3701 -0.6517  0.5649
 9505WAT     H238727   2.502   5.943   3.455 -0.1792  1.2852  0.7929
 9505WAT    EPW38728   2.478   5.890   3.507 -0.5353 -0.8187  0.6135
 9506WAT      O38729   2.865   7.376   2.756  0.4424 -0.3366 -0.1472
 9506WAT     H138730   2.919   7.398   2.822 -0.3123  0.8862  0.0976
 9506WAT     H238731   2.798   7.339   2.797 -0.1778  0.7199 -0.1703
 9506WAT    EPW38732   2.863   7.374   2.772  0.1017 -0.3903  0.0446
 9507WAT      O38733   2.742   6.034   3.011  0.3223 -0.1802 -0.7910
 9507WAT     H138734   2.813   6.026   3.060  0.5790  1.3842 -0.8561
 9507WAT     H238735   2.692   5.967   3.036  0.4146  0.5755  1.6887
 9507WAT    EPW38736   2.745   6.023   3.022 -0.2570 -0.7423 -0.1612
 9508WAT      O38737   3.142   5.670   3.749  0.2087  0.4969 -0.4591
 9508WAT     H138738   3.106   5.661   3.670 -0.0453  0.7021 -0.3667
 9508WAT     H238739   3.095   5.733   3.786  0.6127  0.7153 -0.3086
 9508WAT    EPW38740   3.130   5.678   3.743 -0.2616 -0.6500  0.1491
 9509WAT      O38741   1.240   5.737   2.866 -0.2304 -0.3082 -0.0228
 9509WAT     H138742   1.317   5.772   2.844  0.1393 -0.8666  0.3537
 9509WAT     H238743   1.183   5.779   2.815  0.0192  1.7281  1.2453
 9509WAT    EPW38744   1.243   5.748   2.855  0.0090 -0.1935 -0.0302
 9510WAT      O38745   2.476   5.255   2.474 -0.5448  0.1309  0.4165
 9510WAT     H138746   2.423   5.273   2.407  0.6056  0.5663 -0.4223
 9510WAT     H238747   2.554   5.241   2.435 -0.5199 -3.0826  1.3463
 9510WAT    EPW38748   2.480   5.256   2.458 -0.4467 -0.4141 -0.8497
 9511WAT      O38749   2.458   7.353   1.803 -0.4040  0.7557  0.3174
 9511WAT     H138750   2.374   7.375   1.809 -0.5958  0.2888 -0.4560
 9511WAT     H238751   2.494   7.389   1.873 -1.1795  1.2928  0.4521
 9511WAT    EPW38752   2.451   7.362   1.814 -0.4456  0.0365 -0.3827
 9512WAT      O38753   2.767   6.120   3.802 -0.2333  0.2170  0.1052
 9512WAT     H138754   2.713   6.131   3.869 -1.4894 -0.2583 -0.7909
 9512WAT     H238755   2.740   6.045   3.766  0.9559  0.0178 -0.4405
 9512WAT    EPW38756   2.755   6.110   3.807 -0.3701  0.5931  0.2035
 9513WAT      O38757   1.934   6.089   4.466 -0.8075 -0.6516  0.4630
 9513WAT     H138758   1.911   6.173   4.462 -1.3464 -0.8393 -1.8733
 9513WAT     H238759   1.857   6.047   4.461 -0.4818 -1.2919  0.7311
 9513WAT    EPW38760   1.919   6.095   4.464 -0.5516  0.4142  0.4015
 9514WAT      O38761   1.805   5.472   3.301 -0.3225 -1.2014 -0.0401
 9514WAT     H138762   1.798   5.502   3.382 -1.0965  1.0231 -0.8595
 9514WAT     H238763   1.890   5.461   3.290  0.0685  1.0063  0.2817
 9514WAT    EPW38764   1.816   5.475   3.311  0.4015  1.2207  0.0936
 9515WAT      O38765   2.040   5.704   4.947  0.3584  0.4029 -0.5045
 9515WAT     H138766   2.026   5.706   4.861 -0.0496 -1.2274 -0.5015
 9515WAT     H238767   2.006   5.779   4.975 -2.0793 -0.2813 -1.4204
 9515WAT    EPW38768   2.033   5.716   4.938 -0.1137  1.0890  0.8336
 9516WAT      O38769   1.402   4.622   1.729  0.2062 -0.5397  0.1607
 9516WAT     H138770   1.468   4.677   1.714 -0.0714 -0.5100 -1.0333
 9516WAT     H238771   1.376   4.643   1.809  2.1737 -1.1204  1.0237
 9516WAT    EPW38772   1.408   4.633   1.738 -0.1378  0.0411 -0.4567
 9517WAT      O38773   1.307   5.101   2.939  0.1206 -0.1685  0.1887
 9517WAT     H138774   1.288   5.077   2.857 -2.1207  0.5653  0.4442
 9517WAT     H238775   1.382   5.146   2.929 -0.3174  0.2882 -1.5430
 9517WAT    EPW38776   1.315   5.104   2.925  0.2695  0.3469 -1.0307
 9518WAT      O38777   2.059   6.016   3.053  0.0751 -0.1731 -0.6318
 9518WAT     H138778   2.093   6.020   2.972  1.1307  2.2583 -0.1557
 9518WAT     H238779   2.124   5.980   3.099 -0.3675 -1.1557 -0.7344
 9518WAT    EPW38780   2.074   6.011   3.048  0.2508  0.1946 -0.5125
 9519WAT      O38781   1.298   4.816   2.387  0.0028  0.0054  0.0870
 9519WAT     H138782   1.267   4.878   2.334  1.6974 -0.1117 -1.0827
 9519WAT     H238783   1.342   4.861   2.448 -0.7868  0.0533  0.6464
 9519WAT    EPW38784   1.300   4.832   2.388  0.4739 -0.4194 -0.4042
 9520WAT      O38785   3.042   5.929   3.474 -0.6568 -0.0147  0.6182
 9520WAT     H138786   3.125   5.902   3.486 -0.4339  0.9315  1.2920
 9520WAT     H238787   2.995   5.857   3.489 -0.0310 -0.2269  1.6422
 9520WAT    EPW38788   3.048   5.914   3.478  0.5754 -0.0567  0.3254
 9521WAT      O38789   1.017   6.872   2.647  0.0738  0.0217 -0.1080
 9521WAT     H138790   0.957   6.809   2.656 -0.6318  0.7976  0.9173
 9521WAT     H238791   1.071   6.858   2.714 -0.3653  0.7735  0.4208
 9521WAT    EPW38792   1.016   6.860   2.658  0.1961  0.2819 -0.8956
 9522WAT      O38793   0.450   6.486   2.894  0.7966 -0.0452  0.0342
 9522WAT     H138794   0.520   6.479   2.843  1.3099  0.8039  0.6045
 9522WAT     H238795   0.399   6.544   2.851  1.3039  0.7990  0.5568
 9522WAT    EPW38796   0.453   6.494   2.880  0.0943 -0.6769  0.1264
 9523WAT      O38797   1.888   5.771   2.772 -0.3612 -0.3102 -0.0579
 9523WAT     H138798   1.866   5.849   2.742  0.0813 -0.3058 -0.3985
 9523WAT     H238799   1.823   5.749   2.825 -0.5554  0.2252 -0.0739
 9523WAT    EPW38800   1.875   5.779   2.775  0.7248 -0.4025 -0.1206
 9524WAT      O38801   3.132   5.987   3.065  0.4362  0.5190  0.0824
 9524WAT     H138802   3.077   6.036   3.112  1.1196  2.0609 -0.6698
 9524WAT     H238803   3.112   6.006   2.983  1.2320  0.1062 -0.2202
 9524WAT    EPW38804   3.121   5.997   3.060  0.4111  0.2702 -0.0071
 9525WAT      O38805   0.675   4.174   2.783 -0.4482  0.4677 -0.1220
 9525WAT     H138806   0.665   4.156   2.868  0.0795 -2.2239 -0.5233
 9525WAT     H238807   0.606   4.135   2.745 -0.4910  1.3318 -0.9883
 9525WAT    EPW38808   0.663   4.165   2.790  0.2186 -0.7113 -0.1479
 9526WAT      O38809   3.038   6.112   4.727 -0.1883  0.1978 -0.5315
 9526WAT     H138810   3.061   6.089   4.646  0.3656 -0.9077 -0.0804
 9526WAT     H238811   3.063   6.044   4.776 -0.0884  1.0399  0.6362
 9526WAT    EPW38812   3.045   6.099   4.722  0.8022 -0.2555  0.3493
 9527WAT      O38813   2.733   5.878   2.269  0.4138 -0.0145  0.2319
 9527WAT     H138814   2.666   5.872   2.213 -0.2422 -1.5460  1.1013
 9527WAT     H238815   2.700   5.844   2.343  0.9869  2.6294  1.8234
 9527WAT    EPW38816   2.718   5.872   2.272 -0.1207  0.1511  0.0475
 9528WAT      O38817   1.641   5.871   2.580 -0.7878 -0.0297  0.0884
 9528WAT     H138818   1.710   5.923   2.594 -0.4750 -0.6884  1.1060
 9528WAT     H238819   1.665   5.822   2.513 -0.4495  0.0610  0.1411
 9528WAT    EPW38820   1.655   5.872   2.572  0.1549 -0.1838 -1.0338
 9529WAT      O38821   1.846   5.328   3.771 -0.3562 -0.0064 -0.6332
 9529WAT     H138822   1.926   5.354   3.746 -0.6163  1.4520 -0.0288
 9529WAT     H238823   1.835   5.367   3.849 -1.1462 -1.2521 -0.0920
 9529WAT    EPW38824   1.856   5.337   3.779  0.2175  0.0743 -0.5209
 9530WAT      O38825   0.817   6.063   3.708  0.3683 -0.3138  0.1034
 9530WAT     H138826   0.886   6.058   3.762 -0.2538 -0.3064  0.9244
 9530WAT     H238827   0.806   5.981   3.682 -2.2636 -1.4423  3.8565
 9530WAT    EPW38828   0.826   6.050   3.712 -0.3147 -0.1694  0.7001
 9531WAT      O38829   3.030   5.335   4.457 -0.0014 -0.3393  0.0766
 9531WAT     H138830   3.067   5.411   4.432 -0.5670 -0.2058 -0.3884
 9531WAT     H238831   3.065   5.320   4.535 -0.4847  0.8428  0.5589
 9531WAT    EPW38832   3.040   5.344   4.465 -0.3120  0.5738  0.2812
 9532WAT      O38833   1.494   4.913   2.569 -0.0073  0.0393 -0.0297
 9532WAT     H138834   1.556   4.962   2.533  0.3334 -0.4923 -0.1923
 9532WAT     H238835   1.499   4.932   2.654  0.2897  0.1039 -0.0598
 9532WAT    EPW38836   1.504   4.923   2.576  0.3996 -0.6025 -0.6957
 9533WAT      O38837   3.309   6.347   2.870  0.3031  0.1645 -0.4915
 9533WAT     H138838   3.369   6.367   2.810  0.1723  0.5197 -0.5035
 9533WAT     H238839   3.241   6.319   2.823  0.1329  0.6195 -0.5201
 9533WAT    EPW38840   3.308   6.346   2.854  0.6444  0.1332 -0.1609
 9534WAT      O38841   2.701   5.847   4.904  0.4141 -0.2645  0.3312
 9534WAT     H138842   2.756   5.844   4.972  1.5741  0.3368 -0.5334
 9534WAT     H238843   2.754   5.860   4.836 -0.7281 -0.7524 -0.6816
 9534WAT    EPW38844   2.717   5.849   4.904  0.7151 -0.8632 -0.5751
 9535WAT      O38845   5.084   4.845   3.529 -0.1138  0.3376 -0.0470
 9535WAT     H138846   5.075   4.927   3.500 -3.0966  0.0145 -0.3900
 9535WAT     H238847   5.032   4.842   3.599  0.4351 -1.0787  0.3394
 9535WAT    EPW38848   5.075   4.856   3.535  1.0277  0.8676  0.6019
 9536WAT      O38849   3.993   5.870   4.581  0.4538  0.1369  0.1630
 9536WAT     H138850   3.927   5.812   4.573 -0.9084  1.5033  0.9644
 9536WAT     H238851   4.027   5.873   4.500 -0.6682 -0.3761 -0.3585
 9536WAT    EPW38852   3.988   5.862   4.568  0.1095  0.8095  0.1999
 9537WAT      O38853   2.907   5.820   5.090  0.3023  1.0561 -0.0451
 9537WAT     H138854   2.977   5.850   5.048  0.9203  3.2686  2.3193
 9537WAT     H238855   2.927   5.831   5.174 -2.2713  0.2545  0.7656
 9537WAT    EPW38856   2.920   5.826   5.096  0.3434 -0.2600 -1.3689
 9538WAT      O38857   2.809   6.319   4.208  0.1277  0.3331  0.5226
 9538WAT     H138858   2.789   6.374   4.143 -0.7010  2.8685  2.7303
 9538WAT     H238859   2.767   6.352   4.277  1.5079 -1.7848  2.5543
 9538WAT    EPW38860   2.800   6.332   4.209 -0.4735 -0.7712 -0.5523
 9539WAT      O38861   1.523   5.036   3.790  0.3111 -0.5704  0.2611
 9539WAT     H138862   1.513   5.107   3.840  0.0033  0.3989 -1.1353
 9539WAT     H238863   1.605   5.043   3.760  0.0270 -0.4213 -0.4718
 9539WAT    EPW38864   1.534   5.047   3.793 -0.6622  0.2840 -0.4403
 9540WAT      O38865   2.259   5.743   3.857  0.0741 -0.3976  0.5453
 9540WAT     H138866   2.290   5.819   3.827 -0.5704 -0.1419  0.5041
 9540WAT     H238867   2.326   5.688   3.848  0.2299 -0.0730 -0.3585
 9540WAT    EPW38868   2.273   5.746   3.851  0.8404 -0.2942 -0.2473
 9541WAT      O38869   3.493   6.574   5.024  0.3758  0.1367 -0.3172
 9541WAT     H138870   3.558   6.526   4.991  1.4793 -0.1493  2.0428
 9541WAT     H238871   3.531   6.620   5.088 -1.3439  1.6051 -0.2661
 9541WAT    EPW38872   3.508   6.573   5.029 -0.4426 -0.2354 -0.1120
 9542WAT      O38873   2.525   5.502   2.554 -0.0502 -0.2554  0.0622
 9542WAT     H138874   2.528   5.491   2.640 -0.4626 -0.9303  0.0028
 9542WAT     H238875   2.533   5.421   2.522  2.4209  0.1836 -0.6351
 9542WAT    EPW38876   2.526   5.489   2.562 -0.0427 -0.2999  0.3047
 9543WAT      O38877   2.110   4.998   4.598  0.1733  0.0830 -0.1365
 9543WAT     H138878   2.083   5.070   4.640  0.6089  1.0250 -1.4017
 9543WAT     H238879   2.040   4.972   4.553  0.5796  1.0022 -1.3613
 9543WAT    EPW38880   2.096   5.005   4.598  0.6111 -0.4293 -0.0447
 9544WAT      O38881   1.710   6.301   3.749 -0.0133  0.0977  0.0620
 9544WAT     H138882   1.681   6.264   3.823 -0.4722 -0.0453 -0.1834
 9544WAT     H238883   1.796   6.295   3.755 -0.0581 -0.2037  0.4387
 9544WAT    EPW38884   1.718   6.295   3.761 -0.6590 -0.9613  1.1647
 9545WAT      O38885   4.030   5.816   4.015 -0.2211 -0.3641 -0.2549
 9545WAT     H138886   3.961   5.857   3.979 -0.2750 -0.5898 -0.4095
 9545WAT     H238887   4.073   5.784   3.946  0.9505  1.1889 -0.2976
 9545WAT    EPW38888   4.026   5.817   3.999  0.0491  0.0248 -0.0707
 9546WAT      O38889   2.002   5.176   4.800 -0.1211 -0.0807 -0.3775
 9546WAT     H138890   1.965   5.233   4.745 -0.6117 -0.7215 -0.7199
 9546WAT     H238891   2.081   5.211   4.815  0.1235 -0.0088 -1.6761
 9546WAT    EPW38892   2.008   5.190   4.794  0.3978 -0.2346 -0.7887
 9547WAT      O38893   2.333   5.336   3.035 -0.5381 -0.7122 -0.1556
 9547WAT     H138894   2.390   5.270   3.029 -0.6431 -0.8166  0.0004
 9547WAT     H238895   2.384   5.406   3.046 -0.4331 -0.7838 -0.1808
 9547WAT    EPW38896   2.349   5.336   3.035  0.3201  0.2244  0.2089
 9548WAT      O38897   2.287   5.978   3.688  0.3203  0.2824  0.1687
 9548WAT     H138898   2.343   6.039   3.716 -0.7030  2.1556 -1.5453
 9548WAT     H238899   2.233   6.023   3.636 -2.6226 -1.4844  1.4914
 9548WAT    EPW38900   2.287   5.994   3.684 -0.1503 -1.2551 -0.4472
 9549WAT      O38901   3.208   5.578   4.863 -0.3839  0.0533 -0.4803
 9549WAT     H138902   3.247   5.540   4.931 -0.0892 -1.1393 -1.2806
 9549WAT     H238903   3.124   5.581   4.887 -0.6058 -2.1001 -0.7739
 9549WAT    EPW38904   3.201   5.573   4.877 -0.3557 -1.0976 -0.2185
 9550WAT      O38905   2.564   4.232   2.329  0.2770 -0.6016 -0.2164
 9550WAT     H138906   2.617   4.296   2.301  0.2926 -0.8624 -0.8011
 9550WAT     H238907   2.588   4.222   2.413 -0.5787  0.9966  0.2634
 9550WAT    EPW38908   2.576   4.240   2.338  0.4851 -0.4138  0.0781
 9551WAT      O38909   1.916   5.662   4.684  0.5721  0.5145  0.7116
 9551WAT     H138910   1.913   5.575   4.690  1.0701  0.5734  2.1094
 9551WAT     H238911   1.910   5.676   4.598  0.2541 -0.8820  0.4745
 9551WAT    EPW38912   1.915   5.651   4.672 -0.1083  0.4143 -0.5589
 9552WAT      O38913   1.747   4.884   2.106 -0.4968  0.1349  0.1533
 9552WAT     H138914   1.724   4.961   2.139 -3.3519  0.0708 -1.4122
 9552WAT     H238915   1.703   4.827   2.155  2.9041 -0.8403  2.4539
 9552WAT    EPW38916   1.738   4.887   2.118  0.3738  0.1397  0.8202
 9553WAT      O38917   2.619   4.726   4.826  0.3301  0.4548  0.6449
 9553WAT     H138918   2.583   4.796   4.787 -1.1147 -1.2379 -1.2535
 9553WAT     H238919   2.628   4.752   4.909 -0.4840  2.7642  0.1019
 9553WAT    EPW38920   2.615   4.740   4.833  0.8410 -0.7987  0.0115
 9554WAT      O38921   2.511   5.607   3.819  0.2458 -0.3282  0.0218
 9554WAT     H138922   2.554   5.600   3.743  1.4086 -2.3419  0.7702
 9554WAT     H238923   2.541   5.538   3.865 -0.4740  0.7775  2.2694
 9554WAT    EPW38924   2.522   5.595   3.815 -0.2158  0.1486  0.2002
 9555WAT      O38925   0.965   5.491   4.225  0.7849  0.2794 -0.2022
 9555WAT     H138926   0.920   5.560   4.254 -1.3233 -0.9040 -0.4087
 9555WAT     H238927   1.032   5.485   4.281  2.1908  3.5392 -1.2709
 9555WAT    EPW38928   0.968   5.500   4.238  0.3515 -0.0099  0.0143
 9556WAT      O38929   1.895   5.595   3.551 -0.1513  0.6745  0.0553
 9556WAT     H138930   1.945   5.528   3.577  0.6187  0.7323 -1.1926
 9556WAT     H238931   1.952   5.659   3.535 -0.6765  0.9662 -0.7313
 9556WAT    EPW38932   1.910   5.594   3.552  0.6999  0.3748  0.3887
 9557WAT      O38933   1.046   4.047   3.364 -0.1933  0.0380 -0.4486
 9557WAT     H138934   1.034   4.098   3.294 -0.5636 -0.5541 -0.8270
 9557WAT     H238935   1.097   3.983   3.335  1.5904  0.9743  0.4185
 9557WAT    EPW38936   1.052   4.045   3.350 -0.0890 -0.3292 -0.2648
 9558WAT      O38937   2.519   5.280   4.572  0.2080  0.4804  0.3155
 9558WAT     H138938   2.575   5.347   4.575  1.6259 -0.6808  1.0021
 9558WAT     H238939   2.480   5.283   4.650 -0.1992  0.8734  0.1018
 9558WAT    EPW38940   2.521   5.291   4.584  0.0397  0.1741 -0.5308
 9559WAT      O38941   2.702   5.566   3.617  0.8544  0.4072  0.5846
 9559WAT     H138942   2.673   5.548   3.537  3.7580 -0.2835 -0.4401
 9559WAT     H238943   2.726   5.488   3.648 -0.3774  0.6387  2.2651
 9559WAT    EPW38944   2.701   5.552   3.610 -0.0890  0.2018 -0.3825
 9560WAT      O38945   2.649   5.287   5.277 -0.1355  0.2650 -0.3784
 9560WAT     H138946   2.714   5.317   5.327  0.8528 -0.5878 -1.1021
 9560WAT     H238947   2.684   5.283   5.197 -0.4799 -1.8523 -0.4893
 9560WAT    EPW38948   2.663   5.291   5.272  0.5416 -0.2231 -0.2053
 9561WAT      O38949   2.727   4.121   4.206  0.1040 -0.0688 -0.2760
 9561WAT     H138950   2.682   4.064   4.157 -0.7071  0.4445 -0.1578
 9561WAT     H238951   2.795   4.075   4.235  0.1518 -0.6127 -1.2170
 9561WAT    EPW38952   2.730   4.106   4.203  0.7482  0.0822  0.1221
 9562WAT      O38953   1.856   5.899   3.833  0.1027  0.8195  0.2745
 9562WAT     H138954   1.889   5.967   3.876  1.3499 -0.2595  1.0936
 9562WAT     H238955   1.839   5.931   3.754 -1.6262  2.6802  1.3330
 9562WAT    EPW38956   1.859   5.914   3.827 -0.5488  0.1203  0.0314
 9563WAT      O38957   1.875   6.692   3.272 -0.3243  0.0406 -0.1122
 9563WAT     H138958   1.959   6.679   3.291 -0.4316 -0.0458  0.3040
 9563WAT     H238959   1.838   6.615   3.287 -1.0988  0.9093  3.1524
 9563WAT    EPW38960   1.882   6.679   3.277  0.8852 -0.7521 -0.2053
 9564WAT      O38961   2.570   6.067   3.326  0.2114  0.2746 -0.4381
 9564WAT     H138962   2.496   6.112   3.318 -0.9947 -1.6569 -0.7363
 9564WAT     H238963   2.566   6.009   3.261  0.9301 -1.2862  0.8541
 9564WAT    EPW38964   2.559   6.065   3.315 -0.4765  0.1525  0.1039
 9565WAT      O38965   2.074   5.375   3.613  0.1779 -1.1214 -0.1548
 9565WAT     H138966   2.144   5.419   3.639 -0.0977 -1.2789  0.8911
 9565WAT     H238967   2.095   5.348   3.532  0.3822  0.8188 -0.7901
 9565WAT    EPW38968   2.087   5.377   3.605 -0.1071  0.6714 -1.0914
 9566WAT      O38969   1.869   7.118   4.049 -0.0847 -1.0362 -0.0553
 9566WAT     H138970   1.789   7.095   4.074  0.0553  0.1296  1.5649
 9566WAT     H238971   1.864   7.204   4.041  0.8997 -1.0036 -0.3941
 9566WAT    EPW38972   1.856   7.127   4.052  0.0132 -0.4974  0.6351
 9567WAT      O38973   2.364   6.138   4.912  0.1478  0.0435 -0.3205
 9567WAT     H138974   2.418   6.206   4.904  0.2960 -0.0247  0.0634
 9567WAT     H238975   2.294   6.172   4.951  0.5865 -0.2001  0.7075
 9567WAT    EPW38976   2.362   6.153   4.916 -0.0828 -0.3955 -0.5882
 9568WAT      O38977   3.365   6.708   3.427  0.0530  0.0265 -0.4334
 9568WAT     H138978   3.429   6.741   3.475 -0.6875 -0.4154  0.8898
 9568WAT     H238979   3.393   6.628   3.406  0.9355  0.6673 -1.8862
 9568WAT    EPW38980   3.378   6.701   3.431  0.5145  0.5274 -0.5758
 9569WAT      O38981   1.504   5.851   2.830 -0.4639  0.6215 -0.4450
 9569WAT     H138982   1.563   5.799   2.867 -0.7718  1.1365  0.8185
 9569WAT     H238983   1.533   5.860   2.748  1.1624  0.8001  0.1282
 9569WAT    EPW38984   1.517   5.845   2.823 -0.8408 -0.4896 -0.9508
 9570WAT      O38985   2.497   6.642   6.645 -0.5581 -0.2168 -0.0566
 9570WAT     H138986   2.560   6.699   6.628 -0.0922 -0.8280 -0.4039
 9570WAT     H238987   2.442   6.652   6.578 -0.8022  0.2535  0.2029
 9570WAT    EPW38988   2.498   6.652   6.633 -0.1624 -0.3383 -0.0282
 9571WAT      O38989   3.911   7.624   3.117 -0.1045 -0.4188  0.0798
 9571WAT     H138990   3.972   7.662   3.165 -0.1625 -1.4630  1.0022
 9571WAT     H238991   3.841   7.621   3.170 -1.0803  1.0026 -1.0345
 9571WAT    EPW38992   3.910   7.629   3.132  0.2147  0.0053  0.6262
 9572WAT      O38993   1.483   5.960   3.664  0.1169 -0.6626  0.1239
 9572WAT     H138994   1.534   5.889   3.664 -1.3126 -1.7161  0.6814
 9572WAT     H238995   1.457   5.967   3.747 -3.5903 -2.3988 -0.6863
 9572WAT    EPW38996   1.487   5.951   3.676 -0.1855 -0.5142 -0.0368
 9573WAT      O38997   2.335   5.287   4.364  0.1917  0.1589  0.1944
 9573WAT     H138998   2.383   5.285   4.437 -0.1816 -0.9489  0.4241
 9573WAT     H238999   2.393   5.310   4.303  1.2810 -2.0355  0.2995
 9573WAT    EPW39000   2.351   5.290   4.366  0.6079 -0.5805  0.9966
 9574WAT      O39001   1.609   4.497   5.222 -0.1056  0.2381  0.3117
 9574WAT     H139002   1.533   4.527   5.254 -0.7772  1.6411 -2.3082
 9574WAT     H239003   1.621   4.422   5.266 -2.5402  0.4107  1.4737
 9574WAT    EPW39004   1.599   4.490   5.234  0.2581  0.3580 -0.3081
 9575WAT      O39005   2.573   6.959   4.324  0.2283  0.9086  0.1038
 9575WAT     H139006   2.500   6.960   4.277  0.6014  1.2746 -0.4648
 9575WAT     H239007   2.623   6.901   4.282  0.4547  1.0297  0.2078
 9575WAT    EPW39008   2.569   6.950   4.311  0.6202  0.3466  0.4342
 9576WAT      O39009   2.969   4.995   3.536  0.0879 -0.4900  0.0505
 9576WAT     H139010   3.054   4.982   3.523 -0.2037 -1.2312 -1.2750
 9576WAT     H239011   2.963   5.006   3.623  1.5780  0.0882  0.1120
 9576WAT    EPW39012   2.981   4.995   3.547  0.4826 -0.2338  0.2888
 9577WAT      O39013   2.573   5.095   3.983 -0.1593 -0.0837 -0.2549
 9577WAT     H139014   2.626   5.117   4.048  0.2075 -1.7870  0.0859
 9577WAT     H239015   2.520   5.036   4.020  0.1631 -1.2004 -1.5109
 9577WAT    EPW39016   2.573   5.089   3.998  0.2243 -0.3088 -0.4078
 9578WAT      O39017   3.224   5.523   1.802  0.0984 -0.7800 -0.1548
 9578WAT     H139018   3.227   5.463   1.738 -0.7907 -0.4986 -0.4776
 9578WAT     H239019   3.185   5.592   1.763 -0.8534 -0.7559  0.7997
 9578WAT    EPW39020   3.219   5.524   1.787 -0.6002  0.0163  0.5243
 9579WAT      O39021   3.151   5.475   4.109 -0.2975 -0.9692  0.6463
 9579WAT     H139022   3.183   5.551   4.080  1.0813 -2.1200 -1.0688
 9579WAT     H239023   3.164   5.479   4.195 -1.4110  1.2079  0.7913
 9579WAT    EPW39024   3.158   5.487   4.117  0.1381 -0.2456  0.4830
 9580WAT      O39025   3.014   4.272   4.484  0.4473 -1.1640  0.7382
 9580WAT     H139026   3.010   4.209   4.424 -1.0595 -0.7684  0.3912
 9580WAT     H239027   2.989   4.233   4.557  0.7557 -1.2629  0.7940
 9580WAT    EPW39028   3.010   4.257   4.486 -0.5753 -0.2431  0.4567
 9581WAT      O39029   1.447   5.666   1.951  0.2997 -0.3370 -0.3143
 9581WAT     H139030   1.397   5.695   1.886  0.2943  1.0852  0.2828
 9581WAT     H239031   1.403   5.598   1.984 -2.1956  1.8958  1.3123
 9581WAT    EPW39032   1.433   5.660   1.946 -0.0264 -1.0619 -0.2655
 9582WAT      O39033   2.761   4.655   5.075  0.4161 -0.3557 -0.3788
 9582WAT     H139034   2.732   4.678   5.154  1.2479  1.1761 -0.4749
 9582WAT     H239035   2.841   4.688   5.072  1.3483 -2.5108 -0.9771
 9582WAT    EPW39036   2.768   4.664   5.086  0.0619  0.4230  0.0294
 9583WAT      O39037   3.087   4.761   4.265  0.3520 -0.7458 -0.3030
 9583WAT     H139038   3.126   4.683   4.271 -0.8317 -1.3257  0.2862
 9583WAT     H239039   3.109   4.801   4.339  1.0571 -0.4587 -0.6584
 9583WAT    EPW39040   3.096   4.756   4.277  0.4823  0.1254  0.6517
 9584WAT      O39041   2.331   6.524   2.599 -0.1307 -0.0009 -0.0129
 9584WAT     H139042   2.276   6.590   2.612  0.3922  0.4326  0.0090
 9584WAT     H239043   2.360   6.506   2.679  0.5216  0.4355 -0.1495
 9584WAT    EPW39044   2.327   6.531   2.612  0.5180 -0.1625 -0.9349
 9585WAT      O39045   1.577   4.884   2.858 -0.4280  0.1133 -0.1013
 9585WAT     H139046   1.624   4.951   2.887 -2.7349  1.1925  1.4920
 9585WAT     H239047   1.546   4.847   2.931 -0.1902 -2.0176 -0.9851
 9585WAT    EPW39048   1.579   4.888   2.873 -0.6909 -0.5663  0.5714
 9586WAT      O39049   1.689   5.688   2.960 -0.6790 -0.7529 -0.2066
 9586WAT     H139050   1.699   5.602   2.951  2.5892 -0.2988 -2.9106
 9586WAT     H239051   1.724   5.704   3.039 -0.6288 -1.7880 -0.0043
 9586WAT    EPW39052   1.696   5.677   2.971  0.2903  0.0397 -0.1128
 9587WAT      O39053   2.234   5.558   2.258  0.1912 -0.3999  0.0677
 9587WAT     H139054   2.221   5.567   2.344  0.4542 -0.4787  0.1155
 9587WAT     H239055   2.277   5.482   2.252  2.3870  0.7867  0.0702
 9587WAT    EPW39056   2.238   5.548   2.270 -0.7028 -0.9724 -0.1708
 9588WAT      O39057   2.888   5.398   2.099  0.1804  0.2715 -0.3815
 9588WAT     H139058   2.965   5.368   2.128  0.2479  1.6930  1.0813
 9588WAT     H239059   2.906   5.480   2.077 -0.6767  0.2560 -1.1945
 9588WAT    EPW39060   2.902   5.406   2.100 -0.0173 -0.1112 -0.5793
 9589WAT      O39061   2.815   4.753   2.804 -0.0460 -0.1385  0.1269
 9589WAT     H139062   2.848   4.827   2.837  0.9404 -1.1106  1.3940
 9589WAT     H239063   2.732   4.755   2.829  0.1213  0.2548  0.6723
 9589WAT    EPW39064   2.808   4.764   2.812  0.1629  0.2207  0.2200
 9590WAT      O39065   1.757   6.438   3.329  0.1087  0.1162  0.1760
 9590WAT     H139066   1.787   6.358   3.311  0.7878  0.2116  0.8061
 9590WAT     H239067   1.731   6.431   3.412 -0.2489  0.4284  0.0903
 9590WAT    EPW39068   1.758   6.425   3.339 -0.4304 -0.9400  0.6141
 9591WAT      O39069   2.997   5.027   3.819 -1.5788 -0.3702 -0.4543
 9591WAT     H139070   2.977   4.978   3.888 -0.5115  0.9636  0.8712
 9591WAT     H239071   3.023   5.103   3.854  0.8856 -0.2990 -2.2173
 9591WAT    EPW39072   2.998   5.031   3.835 -0.1447  0.7069  0.5095
 9592WAT      O39073   3.130   5.402   3.796 -0.1643  0.1621  0.0873
 9592WAT     H139074   3.125   5.489   3.806  1.5760  0.2664  0.5093
 9592WAT     H239075   3.127   5.372   3.878 -0.6731 -0.1761 -0.0528
 9592WAT    EPW39076   3.129   5.411   3.810 -0.1869  0.3610 -0.7103
 9593WAT      O39077   2.483   6.159   3.732 -0.7401 -0.2252 -0.1316
 9593WAT     H139078   2.478   6.237   3.693 -0.1298 -0.8709 -1.5704
 9593WAT     H239079   2.527   6.175   3.806  0.0682  0.6584 -0.7900
 9593WAT    EPW39080   2.488   6.173   3.737 -0.4319 -0.2842  0.9509
 9594WAT      O39081   2.857   6.051   4.324  0.5048  0.4024 -0.1029
 9594WAT     H139082   2.795   6.040   4.384 -0.1803 -0.9757 -1.0445
 9594WAT     H239083   2.847   6.134   4.300 -1.9281 -0.1543 -1.2429
 9594WAT    EPW39084   2.846   6.062   4.329  0.3878 -0.3801 -0.3627
 9595WAT      O39085   0.897   6.521   4.088  0.0870  0.5408 -0.2407
 9595WAT     H139086   0.819   6.501   4.121 -0.9535  1.1530 -2.1501
 9595WAT     H239087   0.905   6.467   4.020  1.2241  0.6664 -0.2288
 9595WAT    EPW39088   0.886   6.510   4.083  0.4828  0.5152 -0.2831
 9596WAT      O39089   1.364   5.982   1.703 -0.1222 -0.0236 -0.3428
 9596WAT     H139090   1.416   6.009   1.768  0.5448 -1.3050 -0.3166
 9596WAT     H239091   1.409   6.003   1.631 -0.5926  0.8517 -0.4041
 9596WAT    EPW39092   1.379   5.989   1.702  0.5437  0.1055 -0.1515
 9597WAT      O39093   2.325   6.424   4.059 -0.0965 -0.0087  0.5805
 9597WAT     H139094   2.284   6.496   4.086 -1.2733 -0.7310  0.8120
 9597WAT     H239095   2.324   6.372   4.129 -0.1616 -0.6137  0.1476
 9597WAT    EPW39096   2.319   6.427   4.073  0.1017 -0.5140  0.1243
 9598WAT      O39097   2.646   5.777   4.178  0.2623 -0.0262 -1.0295
 9598WAT     H139098   2.639   5.864   4.182 -1.3288 -0.1547 -0.3561
 9598WAT     H239099   2.577   5.748   4.223 -0.1322 -1.6617 -2.5532
 9598WAT    EPW39100   2.635   5.785   4.186 -0.3541 -0.5585 -0.9226
 9599WAT      O39101   2.824   6.796   3.962 -0.7330  0.1244 -0.5396
 9599WAT     H139102   2.840   6.881   3.969  0.3075 -0.0947 -0.0920
 9599WAT     H239103   2.891   6.766   3.914  0.4466 -0.8662  1.5715
 9599WAT    EPW39104   2.836   6.804   3.956 -0.6969 -0.1186 -0.8823
 9600WAT      O39105   1.992   5.643   3.837 -0.4393  0.4189  0.4866
 9600WAT     H139106   1.941   5.710   3.815  0.3357  0.3760 -1.6920
 9600WAT     H239107   2.073   5.674   3.826  0.0420  0.1537  2.8262
 9600WAT    EPW39108   1.996   5.658   3.832 -0.2322  0.1876 -0.2975
 9601WAT      O39109   1.989   6.531   4.620  0.6122 -0.0938 -0.5808
 9601WAT     H139110   1.970   6.608   4.656  1.5367  0.1662 -0.6382
 9601WAT     H239111   1.910   6.498   4.601  0.1371  0.1987  0.7423
 9601WAT    EPW39112   1.975   6.537   4.622  0.2963 -0.0755  0.2020
 9602WAT      O39113   3.218   6.114   5.186 -0.1831 -0.2819  0.6925
 9602WAT     H139114   3.296   6.150   5.199 -0.6146  0.5486  1.1003
 9602WAT     H239115   3.188   6.101   5.267 -0.7812  0.1338  0.5451
 9602WAT    EPW39116   3.225   6.117   5.200 -0.4653  0.8353 -0.2806
 9603WAT      O39117   3.305   5.450   3.236  0.2779 -0.3033 -0.1742
 9603WAT     H139118   3.379   5.429   3.278  0.0923 -1.6752 -0.4750
 9603WAT     H239119   3.287   5.378   3.189 -1.6319 -0.2811  0.4286
 9603WAT    EPW39120   3.313   5.436   3.235  0.8228 -0.7359  0.3402
 9604WAT      O39121   1.625   4.623   3.286  0.1298 -0.0317 -0.0153
 9604WAT     H139122   1.581   4.657   3.353 -0.7410  2.9830 -1.9209
 9604WAT     H239123   1.706   4.653   3.297  0.7346 -1.8357  1.0347
 9604WAT    EPW39124   1.630   4.632   3.298 -0.1627  0.2834 -0.1082
 9605WAT      O39125   1.257   5.303   5.053  0.1734 -0.6291 -0.0386
 9605WAT     H139126   1.336   5.271   5.035  1.1001  1.1357  0.6755
 9605WAT     H239127   1.242   5.277   5.135  0.8545  0.5080  0.4815
 9605WAT    EPW39128   1.267   5.295   5.062 -0.2453  0.6474 -0.2657
 9606WAT      O39129   1.842   4.422   3.531 -0.1278 -0.4880  0.0454
 9606WAT     H139130   1.759   4.398   3.541 -0.8242  1.0908 -1.2998
 9606WAT     H239131   1.858   4.405   3.447  1.1108 -1.2681  0.4140
 9606WAT    EPW39132   1.832   4.416   3.520  1.0991 -0.1964 -0.4593
 9607WAT      O39133   1.732   5.732   3.254  0.1640  0.2611  0.3212
 9607WAT     H139134   1.649   5.725   3.278 -0.5530 -0.3240 -2.0587
 9607WAT     H239135   1.762   5.650   3.258 -0.3806 -0.1012 -1.9196
 9607WAT    EPW39136   1.725   5.719   3.258  0.3192 -1.2689 -0.6545
 9608WAT      O39137   3.452   5.781   3.661  0.6022  0.3629 -0.2043
 9608WAT     H139138   3.418   5.727   3.721 -0.6394  0.2807 -0.9472
 9608WAT     H239139   3.533   5.795   3.690  0.3803 -0.5159  0.9264
 9608WAT    EPW39140   3.459   5.775   3.674 -0.0670  0.1284 -0.4574
 9609WAT      O39141   2.137   6.801   2.505 -0.4430 -0.5508 -0.0640
 9609WAT     H139142   2.058   6.781   2.535 -0.7396  0.4339 -0.1386
 9609WAT     H239143   2.142   6.887   2.516 -0.1839 -0.2784 -1.8815
 9609WAT    EPW39144   2.126   6.811   2.511  0.7812  0.4823 -0.2616
 9610WAT      O39145   2.702   5.828   3.891 -0.1243  0.2987 -0.0482
 9610WAT     H139146   2.692   5.806   3.975 -1.5001 -0.0569 -0.2832
 9610WAT     H239147   2.638   5.785   3.851  1.3758 -0.6957 -1.5178
 9610WAT    EPW39148   2.691   5.818   3.898  0.8177  0.3616  0.4254
 9611WAT      O39149   2.137   5.679   3.393  0.7017  0.4775 -0.2558
 9611WAT     H139150   2.139   5.760   3.359  2.8477  0.2698 -0.8030
 9611WAT     H239151   2.222   5.656   3.396  0.2223 -1.3929  0.7910
 9611WAT    EPW39152   2.150   5.688   3.389  0.7377 -0.0807 -0.2812
 9612WAT      O39153   2.201   5.939   4.047 -0.1587 -0.2784 -0.4461
 9612WAT     H139154   2.144   5.915   4.109 -1.6107 -0.2898 -1.7068
 9612WAT     H239155   2.211   5.867   3.999  0.5242 -0.1274 -0.5423
 9612WAT    EPW39156   2.194   5.925   4.049  0.0226 -0.2399 -0.5405
 9613WAT      O39157   2.156   6.748   6.041 -0.5387  0.3546 -0.2577
 9613WAT     H139158   2.188   6.728   5.962 -0.7387 -1.4326  0.0697
 9613WAT     H239159   2.085   6.796   6.022 -1.8217 -1.7881 -1.3229
 9613WAT    EPW39160   2.150   6.752   6.026 -0.6023  0.7831 -0.0068
 9614WAT      O39161   2.135   6.383   2.475  0.4667  0.5939  0.5005
 9614WAT     H139162   2.208   6.405   2.519  0.0545  2.8868  0.1627
 9614WAT     H239163   2.090   6.457   2.472 -1.2531 -0.4267 -0.5627
 9614WAT    EPW39164   2.139   6.397   2.481  0.1674 -0.0854  0.0462
 9615WAT      O39165   2.089   5.395   2.689  0.0527  0.7965 -0.3730
 9615WAT     H139166   2.140   5.330   2.719  0.2233  1.1332  0.0764
 9615WAT     H239167   2.139   5.434   2.629  0.2173  0.9439 -0.1426
 9615WAT    EPW39168   2.104   5.391   2.684 -0.6511  0.3154 -0.4212
 9616WAT      O39169   0.915   6.369   2.727 -0.2289 -0.1606 -0.2757
 9616WAT     H139170   0.884   6.298   2.766 -1.9721  0.8745  0.3798
 9616WAT     H239171   0.845   6.401   2.685  0.3795  1.3899 -0.1814
 9616WAT    EPW39172   0.900   6.364   2.726  0.6252  0.0418 -0.3568
 9617WAT      O39173   1.394   4.052   0.391 -0.3788 -0.1074 -0.2016
 9617WAT     H139174   1.422   4.084   0.315  1.3087  2.0497  1.1826
 9617WAT     H239175   1.315   4.019   0.373  0.5649 -1.0577 -3.1368
 9617WAT    EPW39176   1.387   4.052   0.377  0.3744  0.2619 -0.7475
 9618WAT      O39177   3.188   5.262   0.174  0.0376  0.0121  0.3884
 9618WAT     H139178   3.204   5.270   0.260 -0.0774  2.1589  0.2634
 9618WAT     H239179   3.232   5.329   0.139 -2.0361  0.7912 -0.9046
 9618WAT    EPW39180   3.197   5.273   0.182  0.6218  0.1593 -0.6587
 9619WAT      O39181   2.442   5.934   2.478 -0.4179  0.5174 -0.1477
 9619WAT     H139182   2.512   5.888   2.502  0.1595  0.9532 -0.9825
 9619WAT     H239183   2.377   5.898   2.526  0.1031 -0.8300 -0.4070
 9619WAT    EPW39184   2.442   5.922   2.489 -0.4234 -0.9786  0.5683
 9620WAT      O39185   2.703   6.081   0.572  0.0985 -0.2782 -0.0321
 9620WAT     H139186   2.753   6.020   0.536 -0.9205 -0.6401 -0.8957
 9620WAT     H239187   2.725   6.154   0.530 -0.1948 -0.4684 -0.5283
 9620WAT    EPW39188   2.713   6.083   0.561 -0.5421 -0.0651  0.2765
 9621WAT      O39189   1.203   6.820   0.185  0.3930  0.1024  0.0698
 9621WAT     H139190   1.138   6.761   0.187  0.1254  0.3316 -1.1897
 9621WAT     H239191   1.199   6.853   0.104  0.9267  1.4261  0.5535
 9621WAT    EPW39192   1.193   6.816   0.173 -0.8683 -0.4960  0.7694
 9622WAT      O39193   0.739   5.856   7.703  0.1398  0.0963 -0.3379
 9622WAT     H139194   0.803   5.798   7.688 -0.2768  0.0179 -2.0154
 9622WAT     H239195   0.755   5.919   7.644 -0.0181  1.2039  0.7664
 9622WAT    EPW39196   0.751   5.857   7.692 -0.1162 -0.7675 -0.2893
 9623WAT      O39197   8.062   5.626   0.654 -0.7193 -0.1770  1.1488
 9623WAT     H139198   8.097   5.556   0.694  0.0019  1.0007  2.6697
 9623WAT     H239199   8.102   5.693   0.692 -2.5000  1.1393  0.7897
 9623WAT    EPW39200   8.073   5.625   0.665  0.1424 -0.8835  0.0992
 9624WAT      O39201   1.234   6.490   1.526 -0.0549  0.2492  0.0193
 9624WAT     H139202   1.256   6.498   1.610 -0.7512 -1.5588  0.4112
 9624WAT     H239203   1.161   6.538   1.520  1.6484  3.0565 -0.3947
 9624WAT    EPW39204   1.226   6.499   1.537  0.0157  0.1959 -1.0806
 9625WAT      O39205   7.952   4.263   0.237  0.1419 -0.4708 -0.2377
 9625WAT     H139206   7.898   4.255   0.169 -0.5311 -1.5190  0.3940
 9625WAT     H239207   7.988   4.184   0.244 -0.5553 -0.7025  1.2156
 9625WAT    EPW39208   7.949   4.250   0.228 -0.0418  0.7533  0.6845
 9626WAT      O39209   0.657   5.566   0.374  0.8624  0.1951  0.3592
 9626WAT     H139210   0.597   5.613   0.330  1.3715  2.2484  1.7300
 9626WAT     H239211   0.651   5.597   0.456  4.1255  0.9203  0.4727
 9626WAT    EPW39212   0.647   5.578   0.380 -0.0323  0.3570 -0.0400
 9627WAT      O39213   0.792   6.142   2.828  0.8773 -0.1653 -0.7402
 9627WAT     H139214   0.734   6.135   2.893 -1.2430  2.2804 -2.1817
 9627WAT     H239215   0.868   6.122   2.866 -0.2163  1.1974  2.5338
 9627WAT    EPW39216   0.795   6.138   2.844 -0.1536  0.0800 -0.9789
 9628WAT      O39217   2.900   6.824   1.786  0.6859 -0.1145  0.0569
 9628WAT     H139218   2.982   6.852   1.776 -0.0978  2.8180  0.8338
 9628WAT     H239219   2.865   6.835   1.708  0.8263 -0.6752 -0.0893
 9628WAT    EPW39220   2.907   6.830   1.773  0.1178 -0.1647 -0.4287
 9629WAT      O39221   1.371   4.308   1.249  0.0099  0.2764 -0.7971
 9629WAT     H139222   1.326   4.340   1.317  0.1326 -0.6745 -0.2628
 9629WAT     H239223   1.424   4.374   1.228  2.0530 -0.3570  1.8892
 9629WAT    EPW39224   1.372   4.323   1.256  0.1428  0.0008 -0.4883
 9630WAT      O39225   1.523   4.495   1.105 -0.2942 -0.8741 -0.2055
 9630WAT     H139226   1.601   4.456   1.101 -0.2663 -0.9063  0.4273
 9630WAT     H239227   1.499   4.502   1.022  0.8510  0.0818 -0.4894
 9630WAT    EPW39228   1.531   4.490   1.092  0.1900  0.3359 -0.6113
 9631WAT      O39229   1.477   6.115   1.496  0.3306  0.3115 -0.2811
 9631WAT     H139230   1.501   6.191   1.531 -0.0600  1.2390 -1.9489
 9631WAT     H239231   1.547   6.065   1.506  0.3483  0.6394  1.4739
 9631WAT    EPW39232   1.491   6.119   1.503  0.0491  0.1526  0.6785
 9632WAT      O39233   1.005   5.942   1.947 -0.0097  0.2626 -0.3715
 9632WAT     H139234   0.919   5.956   1.941 -0.3399 -1.1425  0.5781
 9632WAT     H239235   1.020   5.878   1.889 -0.1845 -1.5716  1.5140
 9632WAT    EPW39236   0.995   5.934   1.937 -0.1524 -0.5148 -0.7199
 9633WAT      O39237   0.935   6.687   0.646  0.1177 -0.6643 -0.1967
 9633WAT     H139238   0.901   6.691   0.726 -0.7665 -0.8512 -0.5482
 9633WAT     H239239   0.962   6.769   0.631 -1.4406 -0.1414 -0.4123
 9633WAT    EPW39240   0.934   6.700   0.655 -0.7542 -0.5870 -0.4680
 9634WAT      O39241   1.384   5.336   7.692 -0.4370  0.8510  0.2987
 9634WAT     H139242   1.383   5.365   7.610  0.0210  0.9673  0.3331
 9634WAT     H239243   1.328   5.269   7.690  0.3046  0.2319 -0.3431
 9634WAT    EPW39244   1.375   5.330   7.679  0.6727  0.6995  0.4479
 9635WAT      O39245   2.873   4.594   2.368 -0.5799  0.2081 -0.0274
 9635WAT     H139246   2.912   4.653   2.420  0.3552 -0.4036 -0.0200
 9635WAT     H239247   2.797   4.580   2.408 -0.7487  1.2769  0.0667
 9635WAT    EPW39248   2.868   4.601   2.382  0.4532 -1.0520 -0.4019
 9636WAT      O39249   1.233   4.965   0.920  0.0604  0.2975 -0.2765
 9636WAT     H139250   1.249   5.050   0.928  0.6569  0.2214 -0.6375
 9636WAT     H239251   1.224   4.953   0.834 -3.0591  0.5169 -0.1201
 9636WAT    EPW39252   1.234   4.976   0.909  0.1914 -0.8394  0.2119
 9637WAT      O39253   3.103   4.499   1.173  0.2769  0.7752 -0.7124
 9637WAT     H139254   3.168   4.464   1.127 -1.1868  0.4991 -2.7029
 9637WAT     H239255   3.115   4.585   1.162  0.7480  0.7529 -0.3996
 9637WAT    EPW39256   3.114   4.507   1.165 -0.6522 -0.3628 -1.0606
 9638WAT      O39257   7.469   4.535   0.293  0.0203  0.0036  0.3157
 9638WAT     H139258   7.440   4.570   0.367  0.1713 -0.4748  0.6028
 9638WAT     H239259   7.474   4.604   0.238  0.5081  0.4650  0.9238
 9638WAT    EPW39260   7.465   4.551   0.296 -0.4640  0.6102 -0.6041
 9639WAT      O39261   2.548   4.772   0.735 -0.0148  0.4493  0.2804
 9639WAT     H139262   2.474   4.765   0.781  0.8727 -1.7890  1.4991
 9639WAT     H239263   2.592   4.835   0.775  0.1486 -0.5267  1.6952
 9639WAT    EPW39264   2.543   4.780   0.747  1.1122  0.4081 -0.9329
 9640WAT      O39265   1.182   5.612   2.052  0.1958 -0.4804  0.5300
 9640WAT     H139266   1.129   5.634   2.118  1.0823  1.3124  0.7140
 9640WAT     H239267   1.151   5.657   1.985  0.7499 -0.3836  0.3333
 9640WAT    EPW39268   1.169   5.622   2.052 -0.3167  0.7372 -0.3175
 9641WAT      O39269   0.838   7.299   1.433  0.2391 -0.2264  0.0128
 9641WAT     H139270   0.859   7.337   1.357  1.5660  0.5667  0.7350
 9641WAT     H239271   0.909   7.253   1.453 -0.7582 -1.8666 -0.0571
 9641WAT    EPW39272   0.852   7.298   1.425 -0.5894 -0.1708  0.3169
 9642WAT      O39273   1.113   5.853   2.656 -0.1161  0.0748 -0.1228
 9642WAT     H139274   1.030   5.873   2.639  0.5623  1.0109 -2.7677
 9642WAT     H239275   1.155   5.929   2.646  1.3701 -0.8689 -1.5545
 9642WAT    EPW39276   1.107   5.867   2.652 -0.0377 -0.2892 -0.1268
 9643WAT      O39277   2.832   6.584   2.311 -0.1334  0.0695 -0.4641
 9643WAT     H139278   2.838   6.528   2.378  0.7708  1.4225  0.6339
 9643WAT     H239279   2.899   6.560   2.260  0.2315  0.1022 -0.0180
 9643WAT    EPW39280   2.843   6.572   2.314  1.0601  0.6933 -0.3578
 9644WAT      O39281   1.656   7.446   1.344 -0.0259  0.2998  0.2288
 9644WAT     H139282   1.705   7.460   1.415 -1.9470 -0.1517  1.7484
 9644WAT     H239283   1.587   7.497   1.357 -0.2533  0.5045 -1.5564
 9644WAT    EPW39284   1.653   7.456   1.357  0.1739 -0.4388 -0.0711
 9645WAT      O39285   1.200   6.121   0.225  0.3442  0.0691  0.2553
 9645WAT     H139286   1.158   6.145   0.298 -0.1066  0.0882 -0.0119
 9645WAT     H239287   1.245   6.192   0.203  0.3092  0.1324  0.3872
 9645WAT    EPW39288   1.201   6.135   0.233  0.7067  0.4540 -0.8215
 9646WAT      O39289   1.946   4.862   2.340  0.4338  0.4238  0.1276
 9646WAT     H139290   2.009   4.851   2.281 -0.6542 -0.0251 -1.0044
 9646WAT     H239291   1.894   4.793   2.326  0.3207  0.1028  1.8716
 9646WAT    EPW39292   1.948   4.850   2.329 -0.5067 -0.3468  0.9388
 9647WAT      O39293   0.373   5.836   0.732 -0.0948 -0.7788  0.3227
 9647WAT     H139294   0.424   5.858   0.665  0.8512 -1.7618  0.6855
 9647WAT     H239295   0.399   5.889   0.797 -0.1359 -0.6977  0.2735
 9647WAT    EPW39296   0.384   5.847   0.732 -0.1381 -0.1095 -0.7124
 9648WAT      O39297   2.563   5.502   1.391  0.0376 -0.0624  0.0379
 9648WAT     H139298   2.484   5.502   1.428  0.7562 -0.0953  1.6563
 9648WAT     H239299   2.605   5.439   1.434  0.8113 -0.3687 -1.1351
 9648WAT    EPW39300   2.557   5.493   1.403 -0.0772 -0.0170  0.4144
 9649WAT      O39301   2.148   7.288   0.930 -0.4697  0.0614 -0.1131
 9649WAT     H139302   2.194   7.214   0.930  2.4136  1.6943  1.1289
 9649WAT     H239303   2.119   7.294   0.848 -0.4204 -2.1938 -0.3600
 9649WAT    EPW39304   2.151   7.278   0.918 -0.2016  0.1724  0.1191
 9650WAT      O39305   0.467   6.031   3.813 -0.2316  0.2558 -0.0840
 9650WAT     H139306   0.529   6.038   3.873  0.0282 -0.2982 -0.2748
 9650WAT     H239307   0.397   6.066   3.851  0.0331  0.2935  0.3755
 9650WAT    EPW39308   0.466   6.037   3.827 -0.2099  0.1577  0.0148
 9651WAT      O39309   1.767   5.387   1.177 -0.1839  0.3124  0.0423
 9651WAT     H139310   1.693   5.408   1.219 -0.6935  0.5004 -0.9116
 9651WAT     H239311   1.738   5.351   1.103  0.6641 -1.6473  0.5965
 9651WAT    EPW39312   1.752   5.385   1.172  0.2506  0.0130 -0.0857
 9652WAT      O39313   2.474   5.583   1.900 -0.3610 -0.8776  0.0475
 9652WAT     H139314   2.507   5.657   1.869 -0.5528 -0.0841  1.6086
 9652WAT     H239315   2.533   5.523   1.875  1.1145  0.1661  0.8076
 9652WAT    EPW39316   2.488   5.585   1.892 -0.5271 -0.3615  0.0594
 9653WAT      O39317   1.052   2.769   2.725  0.0393 -0.5701  0.3107
 9653WAT     H139318   1.045   2.830   2.663 -0.7964  1.6259  2.4040
 9653WAT     H239319   1.009   2.701   2.692 -0.6755  0.6270 -1.3544
 9653WAT    EPW39320   1.045   2.768   2.711 -0.7254  0.1395  0.0798
 9654WAT      O39321   2.276   4.858   1.223  0.3496 -0.4966  0.0691
 9654WAT     H139322   2.224   4.816   1.278 -0.6316  0.4141 -0.1301
 9654WAT     H239323   2.232   4.931   1.205  0.9231 -0.4863 -1.4282
 9654WAT    EPW39324   2.262   4.862   1.228 -0.3623  0.2987 -0.2804
 9655WAT      O39325   1.550   4.151   0.624  0.2958  0.2984 -0.2049
 9655WAT     H139326   1.487   4.157   0.685  1.2123 -2.7565  1.1978
 9655WAT     H239327   1.506   4.141   0.550 -0.9408 -1.6962  0.7360
 9655WAT    EPW39328   1.534   4.151   0.622  0.6288  0.2937 -0.1124
 9656WAT      O39329   2.102   0.695   0.502  0.3537  0.6303 -0.2401
 9656WAT     H139330   2.018   0.717   0.489 -0.0561 -0.1410  0.9026
 9656WAT     H239331   2.096   0.626   0.556  1.5968 -1.3720 -2.4847
 9656WAT    EPW39332   2.088   0.688   0.508 -0.8407 -1.0688 -0.3716
 9657WAT      O39333   1.055   6.715   1.841 -0.5029  0.2992  0.4951
 9657WAT     H139334   1.080   6.689   1.921  1.9769 -0.0839 -0.2966
 9657WAT     H239335   1.126   6.756   1.811 -1.0554 -0.2907 -1.8001
 9657WAT    EPW39336   1.069   6.717   1.848  0.6189 -0.1953 -0.1060
 9658WAT      O39337   3.716   5.550   2.276 -0.0070 -0.6967 -0.1016
 9658WAT     H139338   3.783   5.560   2.331 -0.9640 -1.4507  1.2919
 9658WAT     H239339   3.727   5.469   2.245  1.7815  0.4931 -2.8922
 9658WAT    EPW39340   3.727   5.539   2.280  0.9347  0.2807 -1.0454
 9659WAT      O39341   1.076   4.893   1.678 -0.0912  0.8888 -0.6188
 9659WAT     H139342   1.102   4.813   1.654  1.8120  1.0711  0.5802
 9659WAT     H239343   1.091   4.941   1.607  0.5734  0.5040 -0.7516
 9659WAT    EPW39344   1.082   4.888   1.664 -1.1523  0.1115 -0.1763
 9660WAT      O39345   0.926   6.113   2.397 -0.0787  0.0510 -0.2300
 9660WAT     H139346   0.985   6.082   2.341  0.0252  2.4632 -1.6092
 9660WAT     H239347   0.969   6.176   2.440 -0.9612  0.1636  0.5260
 9660WAT    EPW39348   0.941   6.118   2.395  0.6303  0.1676 -0.8179
 9661WAT      O39349   2.705   7.080   0.701 -0.2180 -0.2127  0.0570
 9661WAT     H139350   2.700   7.163   0.673  0.3440 -0.1935 -0.0094
 9661WAT     H239351   2.681   7.086   0.784 -3.5120 -0.5155 -0.7279
 9661WAT    EPW39352   2.701   7.093   0.709  0.1022 -0.7163 -0.1264
 9662WAT      O39353   0.786   4.395   7.818 -0.4637 -0.5550 -0.3947
 9662WAT     H139354   0.847   4.332   7.815 -0.6592 -0.7369 -0.5514
 9662WAT     H239355   0.774   4.417   7.735  0.0374  0.1171 -0.2997
 9662WAT    EPW39356   0.793   4.389   7.806 -0.1325  0.2529  0.2559
 9663WAT      O39357   1.376   5.417   1.554  0.0401  0.4686 -0.1372
 9663WAT     H139358   1.308   5.469   1.538 -0.9554 -0.6579  0.2391
 9663WAT     H239359   1.377   5.409   1.641  0.4248  0.1746 -0.1625
 9663WAT    EPW39360   1.366   5.423   1.565 -0.1822  0.1183 -0.1676
 9664WAT      O39361   1.779   6.787   1.424 -0.7171 -0.2619 -0.4683
 9664WAT     H139362   1.754   6.787   1.340 -1.3660 -0.6816 -0.2743
 9664WAT     H239363   1.735   6.853   1.459  1.6988  1.8349 -1.0636
 9664WAT    EPW39364   1.769   6.797   1.416  0.3334  0.0154 -0.1778
 9665WAT      O39365   0.577   3.439   1.644 -0.4629  0.1953 -0.7799
 9665WAT     H139366   0.522   3.455   1.710 -1.1123  0.0747 -1.2742
 9665WAT     H239367   0.566   3.508   1.592 -1.2628 -0.5268 -1.6041
 9665WAT    EPW39368   0.567   3.452   1.646 -0.1627 -0.4416 -0.3481
 9666WAT      O39369   2.899   7.124   1.662  1.1687  0.2540 -0.2913
 9666WAT     H139370   2.899   7.052   1.612  0.5714  1.1650 -1.6514
 9666WAT     H239371   2.815   7.147   1.664  1.3319  0.8213  0.2845
 9666WAT    EPW39372   2.886   7.116   1.655  0.6363  0.9181 -0.2037
 9667WAT      O39373   7.478   5.801   0.902 -0.3358  0.0207 -0.0317
 9667WAT     H139374   7.536   5.842   0.851 -1.3959  0.7248 -0.7184
 9667WAT     H239375   7.439   5.745   0.847  0.0476 -0.8356  0.5463
 9667WAT    EPW39376   7.481   5.799   0.886 -0.8945 -0.4209 -0.9594
 9668WAT      O39377   3.260   5.808   2.548  0.4034  0.1545  0.0774
 9668WAT     H139378   3.207   5.789   2.481  0.3142 -1.1707  0.4947
 9668WAT     H239379   3.339   5.809   2.511  0.3187 -0.1941 -0.1199
 9668WAT    EPW39380   3.264   5.805   2.533 -0.7463 -0.5568 -0.4554
 9669WAT      O39381   2.908   5.166   1.799 -0.4256 -0.0870  0.8195
 9669WAT     H139382   2.830   5.206   1.796  1.0905  3.0661 -1.3255
 9669WAT     H239383   2.898   5.098   1.745 -1.2284  1.3817 -1.0036
 9669WAT    EPW39384   2.895   5.161   1.791  0.0785 -0.7375 -0.1817
 9670WAT      O39385   2.523   7.241   0.913  0.5772 -0.5549 -0.0177
 9670WAT     H139386   2.487   7.162   0.917 -1.0398  0.1663  0.6324
 9670WAT     H239387   2.510   7.274   0.993  1.1484  0.4012 -0.3013
 9670WAT    EPW39388   2.516   7.234   0.925  0.9190  1.4441  0.2767
 9671WAT      O39389   1.948   7.984   1.328 -0.7725 -0.3962  0.0965
 9671WAT     H139390   2.016   8.036   1.308 -1.7896  0.4946 -1.2624
 9671WAT     H239391   1.932   7.943   1.253 -1.5054 -0.8699  0.5069
 9671WAT    EPW39392   1.956   7.986   1.314  0.7983 -0.7943 -0.5278
 9672WAT      O39393   1.471   6.145   7.588  0.7554 -0.3549 -0.1149
 9672WAT     H139394   1.421   6.079   7.561  0.8441 -0.1068 -0.8951
 9672WAT     H239395   1.485   6.127   7.672  0.2136 -0.9696 -0.1518
 9672WAT    EPW39396   1.465   6.133   7.597  0.4905  1.2521 -0.3551
 9673WAT      O39397   1.788   6.478   2.062  0.0749 -0.0196 -0.2824
 9673WAT     H139398   1.814   6.505   2.141  1.1392 -0.1678 -0.5709
 9673WAT     H239399   1.716   6.432   2.079  0.5712 -0.4720  0.6615
 9673WAT    EPW39400   1.781   6.475   2.076 -0.2721 -0.8994  0.3621
 9674WAT      O39401   2.299   5.380   1.940 -0.3074  0.0053  0.7460
 9674WAT     H139402   2.350   5.448   1.921  1.2839 -1.4020 -0.2668
 9674WAT     H239403   2.218   5.411   1.926  0.4110  1.4119 -0.6417
 9674WAT    EPW39404   2.295   5.394   1.935 -0.6559  0.2611  0.4867
 9675WAT      O39405   1.533   5.286   2.881  0.6210  0.1008  0.5030
 9675WAT     H139406   1.590   5.318   2.940 -0.2385  0.2981  1.2401
 9675WAT     H239407   1.482   5.354   2.864 -1.1718 -0.7781  2.0141
 9675WAT    EPW39408   1.534   5.300   2.887  0.9334  0.0236  0.9605
 9676WAT      O39409   2.029   5.228   3.036  0.7473  0.0828 -0.0582
 9676WAT     H139410   2.083   5.287   3.071  1.0537 -0.2408  0.0210
 9676WAT     H239411   2.059   5.218   2.954  0.0936  0.7646 -0.3888
 9676WAT    EPW39412   2.041   5.235   3.029 -0.0552  0.6246 -0.6026
 9677WAT      O39413   2.465   4.644   1.475 -0.7561  0.3822 -0.0305
 9677WAT     H139414   2.383   4.658   1.448 -1.7705  0.1257  2.5347
 9677WAT     H239415   2.457   4.573   1.526  1.0794  0.3711  0.2967
 9677WAT    EPW39416   2.452   4.635   1.479 -0.4017 -0.6518  0.0633
 9678WAT      O39417   8.085   6.095   0.913 -0.4757  0.6995  0.3091
 9678WAT     H139418   8.132   6.138   0.971 -0.4083  1.1954 -0.1072
 9678WAT     H239419   8.021   6.150   0.892 -0.7702  0.3472  0.2647
 9678WAT    EPW39420   8.082   6.109   0.918 -0.6215 -0.5174  0.1997
 9679WAT      O39421   3.160   6.598   1.347  0.2708 -0.1515  0.0856
 9679WAT     H139422   3.109   6.527   1.354  1.1810 -0.8525 -0.1835
 9679WAT     H239423   3.103   6.662   1.331 -0.5023 -0.9702 -0.5673
 9679WAT    EPW39424   3.144   6.597   1.346  0.7833 -0.3384  0.0195
 9680WAT      O39425   0.173   5.110   1.690  0.4655  0.4006  0.1405
 9680WAT     H139426   0.230   5.165   1.726 -0.1768  0.5053  1.0103
 9680WAT     H239427   0.140   5.067   1.758 -1.0059  0.8360 -0.2776
 9680WAT    EPW39428   0.177   5.112   1.705 -0.2861 -0.8276 -0.7249
 9681WAT      O39429   1.861   6.337   1.641  0.1338 -0.1578  0.0182
 9681WAT     H139430   1.881   6.402   1.586  0.0360 -0.2291 -0.1010
 9681WAT     H239431   1.912   6.353   1.710  1.2659 -0.8388 -0.6359
 9681WAT    EPW39432   1.872   6.349   1.643  0.2416  0.3144 -0.5596
 9682WAT      O39433   1.994   6.093   7.955  0.8917 -0.1260 -0.1888
 9682WAT     H139434   1.974   6.155   8.014  0.7429 -1.0591  0.7580
 9682WAT     H239435   1.945   6.115   7.886  1.3031  1.1671 -0.0943
 9682WAT    EPW39436   1.984   6.106   7.954 -0.2188 -0.7885 -1.0168
 9683WAT      O39437   0.789   7.094   0.839  0.0619  0.6882 -0.0699
 9683WAT     H139438   0.734   7.031   0.861 -0.3107  1.5307  1.5888
 9683WAT     H239439   0.765   7.115   0.757 -1.7095  0.6363  0.3918
 9683WAT    EPW39440   0.777   7.088   0.830 -0.8064  0.3777  0.4095
 9684WAT      O39441   2.242   6.268   1.901 -0.4590  0.4953 -0.4043
 9684WAT     H139442   2.269   6.280   1.983  0.2945 -0.2064 -0.5312
 9684WAT     H239443   2.221   6.183   1.899  1.3918  0.0103 -1.4340
 9684WAT    EPW39444   2.243   6.257   1.913 -0.9522  0.1292 -1.1974
 9685WAT      O39445   3.701   6.391   2.384  0.0841  0.0629 -0.0665
 9685WAT     H139446   3.638   6.344   2.346  2.0135 -0.7722 -2.5055
 9685WAT     H239447   3.678   6.473   2.367  0.0298 -0.2530 -1.6921
 9685WAT    EPW39448   3.688   6.396   2.376  1.0318  0.1830 -0.6684
 9686WAT      O39449   3.079   6.157   2.331  0.3826 -0.3290  0.1968
 9686WAT     H139450   3.095   6.238   2.303  1.6907 -1.3473 -2.2549
 9686WAT     H239451   3.137   6.146   2.395  0.2493  0.6200  0.4961
 9686WAT    EPW39452   3.090   6.168   2.336  1.0014 -0.1265  0.1648
 9687WAT      O39453   0.589   5.251   0.321 -0.5499  0.1899 -0.3661
 9687WAT     H139454   0.607   5.166   0.327  0.1887  0.3640 -0.0653
 9687WAT     H239455   0.629   5.286   0.390 -1.4596  0.6886 -0.0765
 9687WAT    EPW39456   0.597   5.244   0.332  0.3105  0.6787 -0.6240
 9688WAT      O39457   2.460   5.902   2.105 -1.1929 -0.0715  0.1860
 9688WAT     H139458   2.427   5.847   2.046  0.7481 -0.7619 -0.3443
 9688WAT     H239459   2.485   5.970   2.056 -2.6990  0.9161  0.7163
 9688WAT    EPW39460   2.459   5.904   2.089 -0.3307 -0.2083 -0.0088
 9689WAT      O39461   1.253   6.106   2.670 -0.0624 -0.2118  0.0846
 9689WAT     H139462   1.203   6.169   2.636 -0.2786  0.0861  0.9289
 9689WAT     H239463   1.300   6.148   2.730  1.0923 -0.5210 -0.5767
 9689WAT    EPW39464   1.253   6.122   2.674  0.0858  0.2978  0.3473
 9690WAT      O39465   2.268   6.160   3.335 -0.4504  0.0058 -0.5221
 9690WAT     H139466   2.207   6.152   3.396 -0.4833 -0.5034 -0.6204
 9690WAT     H239467   2.229   6.208   3.273 -0.9429 -0.7596 -0.8260
 9690WAT    EPW39468   2.253   6.166   3.335  0.4349 -0.2480  0.2448
 9691WAT      O39469   1.424   3.584   1.244 -0.6477  0.8541  0.2014
 9691WAT     H139470   1.364   3.558   1.301 -2.0720  1.4311 -0.9628
 9691WAT     H239471   1.396   3.551   1.168  2.0072 -1.1990 -0.0289
 9691WAT    EPW39472   1.411   3.576   1.241  0.3655 -0.0167 -0.3377
 9692WAT      O39473   3.210   4.423   1.409  0.3355  0.4669 -0.2721
 9692WAT     H139474   3.165   4.428   1.334  1.9448 -1.3565 -1.4523
 9692WAT     H239475   3.163   4.472   1.464 -1.5362  0.9387 -2.1466
 9692WAT    EPW39476   3.196   4.431   1.406 -0.0646 -0.2904 -0.4062
 9693WAT      O39477   1.846   6.693   0.244 -0.2388 -0.0383  0.2799
 9693WAT     H139478   1.781   6.668   0.191  0.2142 -0.9513  0.1436
 9693WAT     H239479   1.865   6.621   0.289  2.0619 -0.4015 -1.1039
 9693WAT    EPW39480   1.839   6.679   0.243  0.4764  0.0215  0.1989
 9694WAT      O39481   1.262   6.589   0.875  0.3356 -0.6148  0.1300
 9694WAT     H139482   1.288   6.669   0.855 -0.8503 -0.2683 -0.0893
 9694WAT     H239483   1.200   6.571   0.816 -2.6331  0.0794  2.7257
 9694WAT    EPW39484   1.256   6.598   0.863 -0.2308  0.5396  0.3228
 9695WAT      O39485   0.489   5.394   2.075 -0.0756 -0.1433 -0.1985
 9695WAT     H139486   0.562   5.441   2.084  0.3719 -0.4715 -1.8261
 9695WAT     H239487   0.433   5.431   2.131  0.4999  1.8392 -0.8619
 9695WAT    EPW39488   0.491   5.407   2.085 -1.8095  0.2068 -0.6857
 9696WAT      O39489   2.676   5.713   1.524 -0.0910  0.0591 -0.3083
 9696WAT     H139490   2.640   5.659   1.466 -0.4739  1.3303 -1.3137
 9696WAT     H239491   2.741   5.666   1.559 -0.4563 -1.0620 -1.0854
 9696WAT    EPW39492   2.681   5.698   1.521  1.0525 -0.2181  1.0953
 9697WAT      O39493   8.083   5.892   0.323  0.3431 -0.0851  0.5159
 9697WAT     H139494   8.036   5.823   0.347  0.6190  0.0481  1.4742
 9697WAT     H239495   8.162   5.859   0.309 -0.0820 -0.3682 -1.4313
 9697WAT    EPW39496   8.088   5.877   0.325 -0.1426 -0.3426  0.3047
 9698WAT      O39497   0.668   5.542   2.924  0.1178 -0.1352  0.0627
 9698WAT     H139498   0.746   5.580   2.922 -0.0266  0.1435 -0.7714
 9698WAT     H239499   0.662   5.513   3.006  2.0242 -2.1081 -0.4023
 9698WAT    EPW39500   0.679   5.543   2.936  0.0645  0.1702 -0.4486
 9699WAT      O39501   1.540   4.870   1.676 -0.1138  0.4354  0.1317
 9699WAT     H139502   1.582   4.856   1.601  1.5388 -1.9703  1.3894
 9699WAT     H239503   1.602   4.895   1.730 -0.5710 -1.2513  1.5375
 9699WAT    EPW39504   1.555   4.871   1.673  1.0309 -0.1421 -1.3342
 9700WAT      O39505   1.103   7.570   1.974  0.2746  0.2965 -0.1047
 9700WAT     H139506   1.099   7.591   2.059  0.1709  0.2392 -0.0953
 9700WAT     H239507   1.020   7.579   1.947  0.1071 -0.7333  0.0456
 9700WAT    EPW39508   1.090   7.574   1.983  0.3166 -0.2894 -0.1782
 9701WAT      O39509   0.664   7.495   0.077 -0.1002  0.2694 -0.4571
 9701WAT     H139510   0.733   7.462   0.035  0.6940  1.4332 -0.1034
 9701WAT     H239511   0.603   7.433   0.068  1.0613 -0.9073 -0.5554
 9701WAT    EPW39512   0.665   7.481   0.070  0.2513 -0.5209 -0.8680
 9702WAT      O39513   0.901   5.179   3.859  0.3047  0.9337 -0.3832
 9702WAT     H139514   0.890   5.103   3.819 -2.6751 -0.7463  3.0563
 9702WAT     H239515   0.836   5.229   3.828  0.2737  0.9506 -0.2908
 9702WAT    EPW39516   0.890   5.175   3.848  0.0777 -0.1576 -0.3753
 9703WAT      O39517   0.131   6.100   0.672 -0.0551 -0.3254 -0.1974
 9703WAT     H139518   0.104   6.106   0.754 -0.5271  3.2200 -0.4727
 9703WAT     H239519   0.058   6.078   0.628 -0.1455 -0.6956  0.1284
 9703WAT    EPW39520   0.116   6.097   0.677 -0.5760 -0.2775 -0.5381
 9704WAT      O39521   2.223   4.854   2.210  0.7627  0.1056  0.0823
 9704WAT     H139522   2.208   4.919   2.154 -0.8558 -0.1447  0.1735
 9704WAT     H239523   2.261   4.893   2.279  0.3021  0.8512 -0.0873
 9704WAT    EPW39524   2.227   4.869   2.212 -0.1719 -0.0463 -1.3110
 9705WAT      O39525   0.503   5.217   0.858  0.6411  0.4480 -0.0261
 9705WAT     H139526   0.432   5.266   0.849 -0.0035 -0.4159  0.2795
 9705WAT     H239527   0.474   5.144   0.896  1.5221 -0.3024 -0.7362
 9705WAT    EPW39528   0.488   5.213   0.862  0.1497  1.0472 -0.8251
 9706WAT      O39529   1.205   5.713   0.874 -0.2308 -0.1663 -0.8880
 9706WAT     H139530   1.128   5.698   0.911 -0.9381  0.7788 -1.9052
 9706WAT     H239531   1.185   5.732   0.791  1.0139  0.7931 -1.0081
 9706WAT    EPW39532   1.191   5.714   0.867  0.0220 -0.0423 -0.5019
 9707WAT      O39533   1.687   7.707   2.441  0.1126  0.0218 -0.1943
 9707WAT     H139534   1.740   7.700   2.509 -0.8947  1.1091  0.7553
 9707WAT     H239535   1.641   7.779   2.458 -1.0487 -0.3802 -1.4073
 9707WAT    EPW39536   1.688   7.717   2.453  0.0280 -0.0802 -0.5528
 9708WAT      O39537   2.086   5.135   1.425  0.5595 -0.7261  0.4748
 9708WAT     H139538   2.047   5.062   1.399  0.3610 -0.6699  0.6136
 9708WAT     H239539   2.128   5.162   1.354 -0.6789 -0.1172 -0.0431
 9708WAT    EPW39540   2.087   5.128   1.411 -0.2614 -0.9712 -0.2944
 9709WAT      O39541   3.059   5.474   1.483  0.4231  0.1842 -0.6144
 9709WAT     H139542   3.019   5.440   1.413  0.7743  0.4171 -0.9295
 9709WAT     H239543   3.089   5.551   1.455  1.0281  0.0467 -0.3562
 9709WAT    EPW39544   3.058   5.480   1.469  0.1602  0.1288 -0.1692
 9710WAT      O39545   1.331   5.023   3.594 -0.1273 -0.4217  0.4963
 9710WAT     H139546   1.281   5.093   3.606  1.1644  0.7677 -0.7203
 9710WAT     H239547   1.377   5.017   3.668  0.9965  1.1116 -0.0279
 9710WAT    EPW39548   1.331   5.032   3.607  0.4538  0.1434 -0.8631
 9711WAT      O39549   1.884   5.266   2.544  0.0942 -0.7394 -0.2972
 9711WAT     H139550   1.880   5.297   2.463  0.8777 -0.0742 -0.0936
 9711WAT     H239551   1.937   5.322   2.585 -0.3885 -0.9896  0.7062
 9711WAT    EPW39552   1.891   5.279   2.538  0.6706  0.1045 -1.3905
 9712WAT      O39553   2.776   6.481   1.269  0.1532 -0.0789  0.3325
 9712WAT     H139554   2.704   6.433   1.279 -0.0121  0.0767 -0.0578
 9712WAT     H239555   2.799   6.465   1.186  0.3270  0.1939  0.3274
 9712WAT    EPW39556   2.769   6.471   1.258  0.7957  0.1886  0.4339
 9713WAT      O39557   2.525   5.128   2.978  0.4776 -0.1294  0.2079
 9713WAT     H139558   2.469   5.062   2.971  0.3416 -0.0862  0.8034
 9713WAT     H239559   2.568   5.111   3.052  0.7055  0.2444  0.1670
 9713WAT    EPW39560   2.523   5.116   2.988  0.4355  0.1918 -0.8030
 9714WAT      O39561   0.444   6.271   0.388 -0.5925  0.3652  0.0083
 9714WAT     H139562   0.469   6.332   0.445  0.3972  1.4482 -1.5110
 9714WAT     H239563   0.518   6.252   0.345 -1.1127 -1.1246 -0.3044
 9714WAT    EPW39564   0.459   6.277   0.390  0.2915 -0.6186  0.1386
 9715WAT      O39565   1.674   7.366   1.005 -0.5162 -0.5358  0.7528
 9715WAT     H139566   1.714   7.419   0.949  0.3074 -1.5307  0.3660
 9715WAT     H239567   1.738   7.337   1.056 -0.9269 -1.2101  0.9104
 9715WAT    EPW39568   1.689   7.369   1.004 -0.4166  0.0422  0.6770
 9716WAT      O39569   2.411   5.954   1.627  0.2837 -0.4405  0.1211
 9716WAT     H139570   2.462   5.892   1.661  0.3207 -1.1676 -1.1828
 9716WAT     H239571   2.432   6.026   1.671  0.2535 -1.3406  1.6714
 9716WAT    EPW39572   2.421   5.955   1.638  0.9033 -0.1023 -0.7489
 9717WAT      O39573   2.239   5.904   3.233 -0.5134  0.0942  0.2502
 9717WAT     H139574   2.253   5.977   3.279  1.8795  0.3045 -0.6782
 9717WAT     H239575   2.320   5.872   3.221 -1.2723 -1.2194 -1.7498
 9717WAT    EPW39576   2.253   5.910   3.238  0.4936  0.0723  0.6389
 9718WAT      O39577   1.068   5.749   0.620  0.2446  0.0708 -0.3444
 9718WAT     H139578   1.009   5.784   0.567  0.5996 -0.3593 -1.0271
 9718WAT     H239579   1.068   5.664   0.599 -1.0928 -0.5222  1.7487
 9718WAT    EPW39580   1.059   5.742   0.609  0.2389  0.9566 -0.4097
 9719WAT      O39581   0.380   4.202   0.886  0.3433 -0.4727  0.0558
 9719WAT     H139582   0.425   4.131   0.911 -0.1990 -1.2752 -1.1852
 9719WAT     H239583   0.442   4.256   0.857  0.9457  0.2784  2.4662
 9719WAT    EPW39584   0.396   4.200   0.886 -0.0457  0.0098 -0.0882
 9720WAT      O39585   0.642   7.551   1.083 -0.1580 -0.2393  0.6547
 9720WAT     H139586   0.590   7.540   1.152 -0.7182  0.6240  0.3848
 9720WAT     H239587   0.638   7.637   1.068  1.2274 -0.1867  0.5237
 9720WAT    EPW39588   0.634   7.562   1.091  0.1259  0.2796  0.0562
 9721WAT      O39589   3.692   4.385   2.489  0.0294  0.7299  0.4050
 9721WAT     H139590   3.701   4.383   2.576  0.1661  2.8946  0.5015
 9721WAT     H239591   3.753   4.442   2.464 -1.2023  1.5339 -0.8950
 9721WAT    EPW39592   3.702   4.393   2.498  0.4502 -0.5210  0.6424
 9722WAT      O39593   0.941   6.353   2.078  0.1242  0.1389 -0.7544
 9722WAT     H139594   0.916   6.333   1.996 -1.3443  2.4584 -0.9538
 9722WAT     H239595   0.876   6.323   2.127 -0.7180  1.7957 -0.8050
 9722WAT    EPW39596   0.928   6.345   2.073  0.4999 -0.8236 -0.2891
 9723WAT      O39597   3.255   5.223   3.098  0.0844 -0.2462 -0.2233
 9723WAT     H139598   3.306   5.210   3.028 -1.9385 -1.0328 -1.6249
 9723WAT     H239599   3.271   5.154   3.148 -0.9032 -1.4951 -1.5330
 9723WAT    EPW39600   3.265   5.211   3.095  0.3968 -0.3839 -0.3133
 9724WAT      O39601   0.961   4.373   1.214 -0.3131  0.0266 -0.0699
 9724WAT     H139602   0.935   4.293   1.192  1.4865  0.1190 -3.0392
 9724WAT     H239603   0.914   4.425   1.162  0.2180  0.7076  0.1123
 9724WAT    EPW39604   0.950   4.369   1.203  0.4816  0.4748 -0.7162
 9725WAT      O39605   1.681   5.976   1.596  0.6964 -0.1789 -0.2700
 9725WAT     H139606   1.680   6.017   1.673  0.3844  0.5698 -0.6629
 9725WAT     H239607   1.761   5.992   1.565  1.4227 -1.8506  0.5912
 9725WAT    EPW39608   1.693   5.984   1.602 -0.0987 -0.4664 -0.8234
 9726WAT      O39609   7.611   4.124   0.855  0.4601 -0.4637  0.0964
 9726WAT     H139610   7.691   4.117   0.888  0.7916 -1.1520 -0.8067
 9726WAT     H239611   7.625   4.140   0.770 -0.3585 -0.0343  0.0269
 9726WAT    EPW39612   7.625   4.125   0.847  0.0576  0.0401  0.4218
 9727WAT      O39613   0.612   5.587   1.291 -0.4020 -0.4573 -0.5239
 9727WAT     H139614   0.664   5.630   1.235 -0.7112  0.5241 -0.0798
 9727WAT     H239615   0.664   5.525   1.324  0.7675  0.9866  0.5119
 9727WAT    EPW39616   0.628   5.584   1.287  0.3026 -0.7117 -1.3004
 9728WAT      O39617   1.508   5.645   2.337 -0.0112 -0.2495 -0.1944
 9728WAT     H139618   1.505   5.558   2.346  1.5051 -0.4027 -0.9063
 9728WAT     H239619   1.589   5.660   2.309  0.5737  1.6164  2.1945
 9728WAT    EPW39620   1.519   5.635   2.334 -0.2751  0.3018  0.1207
 9729WAT      O39621   1.505   5.578   0.016  0.8394  0.4289  0.1723
 9729WAT     H139622   1.540   5.499   0.030  0.5331  0.3961  0.7898
 9729WAT     H239623   1.467   5.569  -0.062  0.8620 -0.0191  0.2063
 9729WAT    EPW39624   1.505   5.565   0.007 -0.8337  0.1587  0.3926
 9730WAT      O39625   0.123   4.056   1.180 -0.6978  0.0033 -0.1417
 9730WAT     H139626   0.184   4.050   1.241 -0.9719 -0.3726  0.1017
 9730WAT     H239627   0.134   4.137   1.147 -0.4980  0.1781  0.3454
 9730WAT    EPW39628   0.133   4.067   1.184 -0.1781  0.7870  0.5225
 9731WAT      O39629   1.131   6.995   1.202  0.0189  0.4335 -0.6568
 9731WAT     H139630   1.070   7.032   1.151 -1.5209  1.3300  1.6317
 9731WAT     H239631   1.134   7.049   1.271  2.0134 -0.6795  0.1908
 9731WAT    EPW39632   1.122   7.008   1.204 -0.2786  0.6924 -0.0139
 9732WAT      O39633   1.953   5.327   1.773 -0.2988  0.0600  0.1337
 9732WAT     H139634   1.951   5.336   1.686  1.2958 -2.3513 -0.2772
 9732WAT     H239635   2.008   5.389   1.799  1.9390 -1.2876 -1.0782
 9732WAT    EPW39636   1.961   5.337   1.764 -0.7207  0.7896 -0.7534
 9733WAT      O39637   1.388   5.901   0.243  0.3171 -0.7593  0.6470
 9733WAT     H139638   1.372   5.883   0.327 -0.9225  0.4022  0.6992
 9733WAT     H239639   1.332   5.965   0.225  1.4209 -0.1314 -0.7371
 9733WAT    EPW39640   1.377   5.908   0.252 -0.6018  0.1044 -0.7194
 9734WAT      O39641   3.236   5.991   0.971 -0.4478  0.4574  0.1999
 9734WAT     H139642   3.166   5.965   0.926 -0.2748  1.7950 -0.9012
 9734WAT     H239643   3.215   6.071   0.999  0.4688  0.7258  0.1729
 9734WAT    EPW39644   3.223   5.999   0.968  0.4710  0.6194 -0.2675
 9735WAT      O39645   1.898   4.561   0.390  0.3246 -0.1821 -0.4369
 9735WAT     H139646   1.914   4.647   0.390  1.3741 -0.3609 -1.6633
 9735WAT     H239647   1.969   4.526   0.355 -0.8501 -1.4105 -1.7162
 9735WAT    EPW39648   1.911   4.569   0.385  0.6903 -0.1790  0.4775
 9736WAT      O39649   2.376   6.268   2.139 -0.4593 -0.4943 -0.4540
 9736WAT     H139650   2.391   6.333   2.196 -1.5188 -1.2042  0.6709
 9736WAT     H239651   2.350   6.202   2.189 -0.7110 -1.3889 -1.7089
 9736WAT    EPW39652   2.375   6.268   2.155  0.7114 -0.4227 -0.2323
 9737WAT      O39653   1.365   6.333   0.178  0.3690  0.2509  0.9096
 9737WAT     H139654   1.435   6.315   0.228  0.3765  1.4936  1.3638
 9737WAT     H239655   1.352   6.418   0.190 -0.4283  0.3071 -0.2149
 9737WAT    EPW39656   1.373   6.343   0.187 -0.1975  0.7409 -0.5786
 9738WAT      O39657   0.749   5.994   0.982 -0.3455  0.4980  0.4742
 9738WAT     H139658   0.721   6.064   0.939 -0.2272 -0.3635 -1.1084
 9738WAT     H239659   0.829   6.016   1.009 -1.1289  1.7035  1.8780
 9738WAT    EPW39660   0.757   6.008   0.979 -0.4043 -0.9509  0.1585
 9739WAT      O39661   2.856   4.960   1.577 -0.3406  0.1357 -0.4559
 9739WAT     H139662   2.886   4.987   1.500 -0.8223 -0.1398 -0.7493
 9739WAT     H239663   2.773   4.938   1.560 -0.0480 -1.2994 -0.1979
 9739WAT    EPW39664   2.848   4.961   1.563  0.3805 -0.5732  0.3624
 9740WAT      O39665   1.305   5.468   0.841 -0.3892 -0.2250  0.4828
 9740WAT     H139666   1.293   5.553   0.856  1.3109  0.0669  0.4435
 9740WAT     H239667   1.318   5.464   0.755  0.6073 -0.3447  0.6213
 9740WAT    EPW39668   1.305   5.480   0.830 -0.1268 -0.6665  0.2907
 9741WAT      O39669   3.540   4.902   3.186  0.4759 -0.0246  0.2710
 9741WAT     H139670   3.581   4.841   3.233 -2.1988 -2.0876  0.1709
 9741WAT     H239671   3.540   4.869   3.105 -0.7844  0.2040  0.1552
 9741WAT    EPW39672   3.546   4.888   3.181 -1.2529 -0.2050  0.1741
 9742WAT      O39673   2.427   4.922   2.541  0.9746  0.0886  0.3256
 9742WAT     H139674   2.478   4.925   2.469  0.1622 -0.8832 -0.3166
 9742WAT     H239675   2.359   4.973   2.520  0.8858  0.0518  0.5284
 9742WAT    EPW39676   2.425   4.930   2.527  0.5691 -0.0490 -1.2653
 9743WAT      O39677   2.475   6.968   2.657  0.3519 -0.0159  0.0266
 9743WAT     H139678   2.469   6.950   2.572 -0.3209  1.4144 -0.2675
 9743WAT     H239679   2.558   6.990   2.668  0.5975 -0.8368 -0.1033
 9743WAT    EPW39680   2.486   6.968   2.646 -0.5648  0.2829 -0.9598
 9744WAT      O39681   2.641   7.160   1.743 -0.4403 -0.1425  0.5391
 9744WAT     H139682   2.580   7.222   1.738 -0.5613 -0.1356  1.7690
 9744WAT     H239683   2.600   7.088   1.716 -0.5035  0.1739 -0.2214
 9744WAT    EPW39684   2.626   7.158   1.738 -0.5433 -0.0602 -0.2262
 9745WAT      O39685   2.211   7.082   2.492 -0.3284 -0.0609 -0.2512
 9745WAT     H139686   2.272   7.145   2.488 -0.8544  0.5417  0.8412
 9745WAT     H239687   2.141   7.122   2.525 -1.0317 -0.9692 -0.5789
 9745WAT    EPW39688   2.210   7.097   2.496 -0.9310 -0.8409 -0.2876
 9746WAT      O39689   1.596   6.082   2.980  0.1656 -0.4635 -0.3510
 9746WAT     H139690   1.559   6.010   2.947 -2.7005  0.6082  0.1876
 9746WAT     H239691   1.563   6.087   3.061  0.0956  1.5247 -0.4456
 9746WAT    EPW39692   1.586   6.072   2.987 -0.0897 -0.1084 -0.5181
 9747WAT      O39693   2.523   5.101   1.560  0.0561 -0.1311  0.0623
 9747WAT     H139694   2.455   5.126   1.609  0.6440  0.4930  0.5847
 9747WAT     H239695   2.546   5.024   1.595 -2.0246 -1.7493 -1.8197
 9747WAT    EPW39696   2.517   5.093   1.573 -0.0595 -0.5793 -0.2110
 9748WAT      O39697   2.654   7.304   2.485 -0.1272  0.0377  0.0399
 9748WAT     H139698   2.680   7.235   2.531 -4.0278 -2.0171 -0.5058
 9748WAT     H239699   2.705   7.301   2.414  1.3775 -0.7582  1.0947
 9748WAT    EPW39700   2.666   7.294   2.481  0.6510 -0.4696 -0.8568
 9749WAT      O39701   4.098   5.879   1.513  0.5048 -0.3268 -0.9801
 9749WAT     H139702   4.133   5.854   1.437 -1.0683 -0.2403 -1.7889
 9749WAT     H239703   4.034   5.934   1.488  1.3313  1.4422  0.5249
 9749WAT    EPW39704   4.094   5.884   1.498 -0.0412 -0.9219 -0.1530
 9750WAT      O39705   1.934   6.958   1.255  0.3307 -0.6025 -0.4062
 9750WAT     H139706   1.893   6.895   1.299 -1.2595 -0.6336 -1.8692
 9750WAT     H239707   1.982   6.914   1.196  0.2717 -0.4689 -0.5529
 9750WAT    EPW39708   1.935   6.942   1.253  0.7677 -0.3547 -0.4232
 9751WAT      O39709   1.207   6.022   0.770 -0.2084 -0.1699  0.4235
 9751WAT     H139710   1.143   6.075   0.799  1.0736  1.9407 -0.3286
 9751WAT     H239711   1.273   6.037   0.826  0.7668  0.4395 -0.8373
 9751WAT    EPW39712   1.207   6.032   0.783 -0.8769  0.7618  0.1113
 9752WAT      O39713   1.325   5.869   0.539  0.1294 -0.6318  0.3297
 9752WAT     H139714   1.253   5.844   0.581  0.9584 -1.3635  1.3341
 9752WAT     H239715   1.390   5.843   0.590  1.1100  1.3734  0.1978
 9752WAT    EPW39716   1.324   5.862   0.553 -0.4428 -0.2961 -0.0615
 9753WAT      O39717   2.729   5.022   3.137 -0.4636  0.7320 -0.0767
 9753WAT     H139718   2.807   5.050   3.108 -0.3312  0.0163 -0.4369
 9753WAT     H239719   2.733   5.036   3.223  0.2089  0.3663 -0.0433
 9753WAT    EPW39720   2.741   5.029   3.145  0.1569 -0.1546  0.2088
 9754WAT      O39721   2.282   6.503   1.672  0.6828 -0.4035 -0.5259
 9754WAT     H139722   2.267   6.430   1.718  1.4623 -0.3458 -0.1686
 9754WAT     H239723   2.240   6.488   1.597 -0.6129 -0.5015  0.1882
 9754WAT    EPW39724   2.273   6.490   1.668  0.5089 -0.9844 -0.2103
 9755WAT      O39725   1.738   5.379   3.041 -0.1948 -0.4456  0.1668
 9755WAT     H139726   1.825   5.383   3.032 -0.1794  1.2404  0.7034
 9755WAT     H239727   1.728   5.372   3.128 -0.6031  1.0306  0.2570
 9755WAT    EPW39728   1.749   5.379   3.053  0.1749  1.4733  0.2985
 9756WAT      O39729   1.617   5.539   1.739  1.0952  0.1780  0.0073
 9756WAT     H139730   1.585   5.607   1.784  1.9150  0.5734  0.0195
 9756WAT     H239731   1.622   5.568   1.658 -0.5626 -0.6015 -0.4197
 9756WAT    EPW39732   1.613   5.553   1.734 -0.0212 -0.5467 -0.6048
 9757WAT      O39733   2.923   5.694   2.122 -0.2110  0.8467 -0.1449
 9757WAT     H139734   2.871   5.699   2.192  1.0932 -1.0372  1.0804
 9757WAT     H239735   2.984   5.755   2.137  0.4989 -0.0621  0.8171
 9757WAT    EPW39736   2.924   5.704   2.135 -0.9010  0.2667  0.3169
 9758WAT      O39737   1.696   5.844   2.018 -0.0985  0.6744 -0.1548
 9758WAT     H139738   1.701   5.909   2.076  0.2651 -0.2726  0.8996
 9758WAT     H239739   1.610   5.835   2.005 -0.1332  1.7365 -0.7621
 9758WAT    EPW39740   1.684   5.852   2.025  0.2437 -0.1494  0.7361
 9759WAT      O39741   1.908   0.274   2.231  0.3581 -0.0683  0.5741
 9759WAT     H139742   1.936   0.307   2.306 -1.1376 -0.2863  1.2717
 9759WAT     H239743   1.841   0.223   2.255 -0.3477  0.0883 -0.9229
 9759WAT    EPW39744   1.902   0.271   2.246  0.2138 -0.7287  0.5214
 9760WAT      O39745   2.349   5.280   2.226  0.0140  0.0428 -0.4645
 9760WAT     H139746   2.358   5.306   2.144  0.6362  0.6809 -0.2064
 9760WAT     H239747   2.265   5.256   2.231  0.2803 -1.2549 -1.6206
 9760WAT    EPW39748   2.338   5.280   2.215  0.6878  0.3788  0.0647
 9761WAT      O39749   2.016   7.723   1.503 -0.1750  0.1771  0.1954
 9761WAT     H139750   2.049   7.760   1.575 -0.4302  0.8240 -0.0155
 9761WAT     H239751   1.978   7.789   1.461 -0.9095 -0.3810 -0.0409
 9761WAT    EPW39752   2.016   7.738   1.507  0.5131  0.5642 -0.2345
 9762WAT      O39753   2.833   5.422   0.514  0.1952  0.5326  0.3507
 9762WAT     H139754   2.852   5.457   0.436 -0.3463 -2.5025 -1.3030
 9762WAT     H239755   2.909   5.388   0.540 -0.1928 -0.9445 -0.3238
 9762WAT    EPW39756   2.847   5.422   0.506  0.2513 -0.3687 -0.2662
 9763WAT      O39757   1.574   6.743   2.114 -0.2361  0.0085 -0.2615
 9763WAT     H139758   1.495   6.706   2.122  0.1430 -0.6350  0.7071
 9763WAT     H239759   1.564   6.822   2.150  0.0186 -0.7899  1.6949
 9763WAT    EPW39760   1.561   6.749   2.121 -0.1918  0.1575 -0.3174
 9764WAT      O39761   1.434   6.076   0.928  0.5349 -0.0535  0.2067
 9764WAT     H139762   1.427   6.119   1.004  0.6526 -0.9356  0.7292
 9764WAT     H239763   1.477   6.132   0.877 -2.2725  1.8879 -0.2794
 9764WAT    EPW39764   1.439   6.091   0.932  0.3038  0.5058  0.5181
 9765WAT      O39765   2.864   5.257   2.826 -1.0782 -0.4545 -0.2152
 9765WAT     H139766   2.783   5.225   2.826 -1.5726  0.7647 -0.0965
 9765WAT     H239767   2.872   5.292   2.747 -0.2435 -1.5472 -0.6463
 9765WAT    EPW39768   2.853   5.257   2.814 -1.0691  0.2278  0.0887
 9766WAT      O39769   3.598   5.759   3.183  0.4774  0.5604  0.5731
 9766WAT     H139770   3.635   5.702   3.238 -0.0346  0.1339  0.4957
 9766WAT     H239771   3.532   5.713   3.149  0.6167  0.9109 -0.1838
 9766WAT    EPW39772   3.593   5.743   3.186  0.8623 -0.2674  0.1043
 9767WAT      O39773   2.906   6.374   1.690 -0.0284 -0.4371  0.3342
 9767WAT     H139774   2.937   6.377   1.772  0.1248 -0.6124  0.2811
 9767WAT     H239775   2.977   6.361   1.641 -0.2840 -1.7467  0.2757
 9767WAT    EPW39776   2.921   6.373   1.695 -0.4134 -0.3239  0.5499
 9768WAT      O39777   1.553   5.813   0.640  0.3298  0.3060  0.0641
 9768WAT     H139778   1.583   5.760   0.703  1.3395  1.5203  0.6467
 9768WAT     H239779   1.593   5.889   0.656 -0.6419  1.1011 -1.0884
 9768WAT    EPW39780   1.563   5.816   0.652  0.0601  0.2035 -0.3985
 9769WAT      O39781   0.258   2.933   1.965  0.1245 -0.2640 -0.0316
 9769WAT     H139782   0.242   2.947   1.880  0.3560  2.7227  0.3290
 9769WAT     H239783   0.331   2.885   1.963  0.7944  0.7383 -1.5286
 9769WAT    EPW39784   0.266   2.928   1.952  0.8517 -0.4903  1.3059
 9770WAT      O39785   3.224   5.834   1.223 -0.0079  0.3468  0.0981
 9770WAT     H139786   3.143   5.804   1.211 -0.1927  0.8390  0.0954
 9770WAT     H239787   3.235   5.890   1.157  0.9344 -0.9129 -0.8655
 9770WAT    EPW39788   3.213   5.838   1.212 -0.5048 -0.3638  0.5542
 9771WAT      O39789   3.855   5.898   1.860 -0.0339 -0.1587 -0.3529
 9771WAT     H139790   3.796   5.876   1.921  0.4024  0.6566  0.3915
 9771WAT     H239791   3.893   5.969   1.893  1.6479 -0.8791 -0.6365
 9771WAT    EPW39792   3.852   5.906   1.874  0.1080 -0.0339  0.5257
 9772WAT      O39793   1.573   6.225   2.308 -0.2790  0.1335  0.3085
 9772WAT     H139794   1.515   6.289   2.294  0.1763  0.3476 -0.6881
 9772WAT     H239795   1.528   6.168   2.356 -0.7227  1.1489  1.1462
 9772WAT    EPW39796   1.558   6.226   2.313 -0.8107 -1.0121 -1.1705
 9773WAT      O39797   0.734   4.643   2.761  0.0155  0.8135  0.2878
 9773WAT     H139798   0.761   4.576   2.810 -0.8897  0.4661  0.3385
 9773WAT     H239799   0.771   4.713   2.798  2.1864  0.2350 -0.6311
 9773WAT    EPW39800   0.744   4.643   2.773 -0.5891 -0.8461 -0.1231
 9774WAT      O39801   0.254   7.730   3.374  0.2183  0.2497 -0.2149
 9774WAT     H139802   0.232   7.706   3.455 -0.3762  1.9815  0.1885
 9774WAT     H239803   0.220   7.810   3.367 -0.1253 -0.0442 -2.3532
 9774WAT    EPW39804   0.246   7.738   3.385  0.5336 -0.0067 -0.3085
 9775WAT      O39805   7.579   4.963   2.482  0.2893 -0.3532  0.1511
 9775WAT     H139806   7.568   5.049   2.472  0.1511 -0.3359  0.4351
 9775WAT     H239807   7.651   4.957   2.530 -1.7716 -0.2160  3.6013
 9775WAT    EPW39808   7.588   4.974   2.488 -0.5907 -0.0232  0.3777
 9776WAT      O39809   3.452   4.174   0.730  0.0245 -0.1384 -0.1975
 9776WAT     H139810   3.364   4.174   0.733  0.0343 -1.0793  0.2758
 9776WAT     H239811   3.474   4.213   0.804  0.0153  0.9828 -0.7587
 9776WAT    EPW39812   3.442   4.180   0.741  0.2294 -0.2618 -0.1552
 9777WAT      O39813   1.205   6.262   2.183  0.5975  0.6080  0.1397
 9777WAT     H139814   1.196   6.177   2.199  0.1048  0.2340 -1.8641
 9777WAT     H239815   1.138   6.280   2.130  1.6333  1.8303 -0.8407
 9777WAT    EPW39816   1.194   6.252   2.177 -0.0299  0.4119  0.2413
 9778WAT      O39817   2.571   5.902   2.813  0.2907  0.2732  0.0852
 9778WAT     H139818   2.508   5.843   2.826  0.2900  0.6403  2.0722
 9778WAT     H239819   2.531   5.978   2.826  0.6211  0.6577 -1.0405
 9778WAT    EPW39820   2.556   5.904   2.817 -0.1930 -0.4182 -0.3854
 9779WAT      O39821   3.886   4.954   2.677 -0.5662 -0.1200 -0.1766
 9779WAT     H139822   3.883   5.013   2.741  2.6701 -0.4770  0.4646
 9779WAT     H239823   3.920   4.998   2.610  2.9811 -1.2834  0.6366
 9779WAT    EPW39824   3.891   4.969   2.677  0.3466 -0.2543 -0.5049
 9780WAT      O39825   2.160   4.843   0.314  0.2485 -0.0735 -0.1371
 9780WAT     H139826   2.107   4.906   0.287 -0.4814 -1.1047 -1.2309
 9780WAT     H239827   2.221   4.839   0.252  1.1585  0.5517  0.6960
 9780WAT    EPW39828   2.161   4.852   0.301 -0.0104  0.8343 -0.9982
 9781WAT      O39829   1.341   5.845   3.269 -0.0849  0.3976 -0.5988
 9781WAT     H139830   1.412   5.892   3.248 -0.2066  0.2552 -1.3546
 9781WAT     H239831   1.373   5.779   3.317  0.3740  0.0265 -1.3982
 9781WAT    EPW39832   1.356   5.842   3.273  0.0762  0.2312 -0.0002
 9782WAT      O39833   2.184   6.379   2.859  0.2983 -0.6191 -0.0424
 9782WAT     H139834   2.146   6.300   2.855  0.2765 -0.5667 -1.0295
 9782WAT     H239835   2.132   6.429   2.810  1.4992 -0.4982 -1.2572
 9782WAT    EPW39836   2.171   6.374   2.851  0.0301  0.3461 -0.3355
 9783WAT      O39837   3.412   5.890   1.892  0.2615 -0.3442  0.3689
 9783WAT     H139838   3.361   5.946   1.850 -1.1118 -0.7931  1.3690
 9783WAT     H239839   3.437   5.834   1.830  0.6257  0.6160 -0.3819
 9783WAT    EPW39840   3.408   5.890   1.877 -0.5806 -0.4632 -0.2706
 9784WAT      O39841   2.160   6.090   2.802  0.1168  0.6393  0.2235
 9784WAT     H139842   2.131   6.094   2.719  0.8127  1.0811 -0.0082
 9784WAT     H239843   2.246   6.098   2.793  0.0731  2.6620  1.1368
 9784WAT    EPW39844   2.168   6.092   2.788 -0.0970 -0.1288 -0.0378
 9785WAT      O39845   2.781   7.845   2.142 -1.0444 -0.4391 -0.0319
 9785WAT     H139846   2.825   7.920   2.140 -1.9691  0.1798  1.3922
 9785WAT     H239847   2.842   7.786   2.164 -0.6249  0.1760  0.5094
 9785WAT    EPW39848   2.797   7.847   2.145  0.6899  0.4155 -0.1837
 9786WAT      O39849   2.833   6.382   3.693 -0.0450  0.0248 -0.3682
 9786WAT     H139850   2.828   6.313   3.746 -1.3041 -0.2810 -0.8531
 9786WAT     H239851   2.918   6.389   3.677  0.1300 -1.2857 -0.1365
 9786WAT    EPW39852   2.845   6.373   3.698 -0.4210  0.0280  0.2889
 9787WAT      O39853   1.323   5.751   1.270 -0.1821 -0.1386 -0.0375
 9787WAT     H139854   1.323   5.673   1.231  2.4318 -0.7355  0.9701
 9787WAT     H239855   1.274   5.739   1.341 -1.9298 -0.0662 -1.1739
 9787WAT    EPW39856   1.316   5.738   1.274 -0.3332 -0.9022 -0.3926
 9788WAT      O39857   3.663   4.871   2.540  0.1534  0.0699 -0.1931
 9788WAT     H139858   3.672   4.933   2.479  1.0872 -1.1036 -1.2977
 9788WAT     H239859   3.732   4.884   2.592  0.3488 -0.0368 -0.4230
 9788WAT    EPW39860   3.674   4.882   2.539  0.3317 -0.2438 -0.5190
 9789WAT      O39861   2.470   3.998   1.985  0.5443  0.1859 -0.2507
 9789WAT     H139862   2.397   3.974   1.944  2.0959 -1.1982 -2.4064
 9789WAT     H239863   2.446   4.071   2.027 -1.6561  0.7150 -2.1697
 9789WAT    EPW39864   2.455   4.005   1.986  0.3015  0.3489 -0.0362
 9790WAT      O39865   1.647   6.663   1.852  0.5580  0.1937 -0.3952
 9790WAT     H139866   1.607   6.727   1.808  0.0925  0.5682  0.5465
 9790WAT     H239867   1.632   6.683   1.935  0.1258 -1.3309 -0.0886
 9790WAT    EPW39868   1.639   6.676   1.858 -0.4128 -1.1343 -0.1451
 9791WAT      O39869   3.508   5.534   0.966 -0.6606  0.3207  0.2303
 9791WAT     H139870   3.464   5.533   1.042 -1.1219 -1.3246 -0.0233
 9791WAT     H239871   3.453   5.574   0.911 -0.7108  0.6862  0.5425
 9791WAT    EPW39872   3.493   5.540   0.969 -0.4804 -0.4235  0.5407
 9792WAT      O39873   2.061   4.553   2.234 -0.1381 -0.5241  0.0478
 9792WAT     H139874   1.991   4.571   2.283 -0.2535 -1.4276  0.2257
 9792WAT     H239875   2.045   4.596   2.159  1.0253  2.7122  1.4414
 9792WAT    EPW39876   2.048   4.562   2.230  0.3869  0.1420 -0.7162
 9793WAT      O39877   7.563   4.980   7.742 -0.2306  0.6755  0.2884
 9793WAT     H139878   7.629   4.953   7.691 -1.0440  0.8829 -0.9106
 9793WAT     H239879   7.504   5.010   7.685 -1.3150  0.6157  1.3410
 9793WAT    EPW39880   7.564   4.980   7.726  0.7027  0.2781  0.7347
 9794WAT      O39881   2.585   5.505   2.813 -0.0367 -0.6040  0.8358
 9794WAT     H139882   2.581   5.418   2.825  0.3359 -0.4327  2.5340
 9794WAT     H239883   2.668   5.524   2.831 -0.1624  0.1327  0.6719
 9794WAT    EPW39884   2.597   5.495   2.817  0.0351  0.3603 -0.0285
 9795WAT      O39885   1.187   4.461   1.370 -0.2755 -0.2813 -0.1944
 9795WAT     H139886   1.200   4.530   1.317  1.8102  0.4970  1.1818
 9795WAT     H239887   1.103   4.442   1.360 -1.0175  2.6993 -0.4052
 9795WAT    EPW39888   1.177   4.468   1.361 -0.5500 -0.8879  0.7599
 9796WAT      O39889   1.526   3.602   0.869 -0.1931  0.0878  0.4402
 9796WAT     H139890   1.478   3.674   0.854 -0.6088 -0.4252 -0.8065
 9796WAT     H239891   1.608   3.634   0.874 -0.6165  0.9843  2.7450
 9796WAT    EPW39892   1.531   3.618   0.867  0.9214  0.1026 -0.3177
 9797WAT      O39893   3.841   5.311   2.167  0.0418 -0.2631  0.5128
 9797WAT     H139894   3.785   5.254   2.132  0.0084 -0.0172  0.1639
 9797WAT     H239895   3.880   5.265   2.230 -1.2258 -0.1756  1.4037
 9797WAT    EPW39896   3.839   5.296   2.171  0.1171 -0.6182 -0.1125
 9798WAT      O39897   1.574   6.136   1.819  0.4350 -0.3366  0.1541
 9798WAT     H139898   1.627   6.127   1.888  0.1109 -0.2958  0.4084
 9798WAT     H239899   1.608   6.205   1.777 -0.3947  0.7602  1.2168
 9798WAT    EPW39900   1.587   6.145   1.823 -0.0727  0.5443  0.1828
 9799WAT      O39901   2.989   5.553   0.277 -0.3729  0.2065  0.2812
 9799WAT     H139902   2.957   5.486   0.232 -0.0727  0.3594 -0.1683
 9799WAT     H239903   3.009   5.612   0.215 -0.7200  0.7491  0.6741
 9799WAT    EPW39904   2.987   5.552   0.261  0.0753  0.4090  0.3341
 9800WAT      O39905   2.756   6.183   1.569  0.3546  0.2687 -0.5480
 9800WAT     H139906   2.816   6.234   1.608  1.8711 -2.3241  0.7362
 9800WAT     H239907   2.681   6.209   1.606  0.9761  1.8481 -0.2976
 9800WAT    EPW39908   2.754   6.195   1.581  0.0502  0.2290 -0.3591
 9801WAT      O39909   0.836   6.057   7.514 -0.0410 -0.4067 -0.0698
 9801WAT     H139910   0.815   6.135   7.482  0.7184 -0.1064  0.1176
 9801WAT     H239911   0.910   6.073   7.558 -0.8907 -0.8363  1.6153
 9801WAT    EPW39912   0.844   6.071   7.516  0.0295 -0.2698 -0.1810
 9802WAT      O39913   1.297   5.319   0.217 -0.5024 -0.2222 -0.3730
 9802WAT     H139914   1.362   5.377   0.222 -0.2487 -0.4700 -0.7184
 9802WAT     H239915   1.229   5.367   0.190 -1.3267  0.6791  2.9041
 9802WAT    EPW39916   1.297   5.334   0.214  0.2576 -0.7611 -0.3449
 9803WAT      O39917   1.782   5.066   3.721 -0.1120 -0.6829  0.1000
 9803WAT     H139918   1.808   5.149   3.731 -0.9830 -0.3333 -0.4664
 9803WAT     H239919   1.843   5.032   3.669  0.4573 -0.5114  0.6340
 9803WAT    EPW39920   1.795   5.073   3.715  0.0559 -0.7389 -1.2202
 9804WAT      O39921   3.672   4.581   3.005  0.7773  0.0768  0.0905
 9804WAT     H139922   3.594   4.558   3.038  0.2307  1.0181 -0.4895
 9804WAT     H239923   3.666   4.667   2.997  2.2940  0.3147  1.0186
 9804WAT    EPW39924   3.659   4.590   3.009  0.1116 -0.1915  0.2666
 9805WAT      O39925   2.156   5.471   0.931 -0.1358  0.0577 -0.5552
 9805WAT     H139926   2.167   5.557   0.932  0.2653  0.0068  0.0746
 9805WAT     H239927   2.076   5.460   0.899 -1.2036  0.7968  1.6589
 9805WAT    EPW39928   2.146   5.482   0.927  0.5520  0.3124  0.8864
 9806WAT      O39929   1.738   7.225   2.495  0.0219 -0.5757  0.3192
 9806WAT     H139930   1.682   7.161   2.515 -2.9498  1.4394 -0.7729
 9806WAT     H239931   1.718   7.288   2.552  1.2421  0.2137 -0.0827
 9806WAT    EPW39932   1.727   7.225   2.506  0.2203  0.3904 -0.0202
 9807WAT      O39933   2.659   7.374   2.956  0.4093  0.1398  0.3676
 9807WAT     H139934   2.575   7.393   2.969  0.4890  0.9688 -0.2972
 9807WAT     H239935   2.699   7.410   3.025  0.4142  1.3042 -0.2311
 9807WAT    EPW39936   2.653   7.382   2.968 -0.2795 -0.8151 -0.9121
 9808WAT      O39937   2.137   5.797   0.754 -0.3224 -0.3644 -0.5787
 9808WAT     H139938   2.186   5.751   0.698  1.6335  1.0619 -0.1624
 9808WAT     H239939   2.117   5.869   0.708  0.5662  0.4168  0.2172
 9808WAT    EPW39940   2.142   5.801   0.739 -0.2807  0.0521 -1.5222
 9809WAT      O39941   0.483   3.505   0.785 -0.2283  0.1577  0.1503
 9809WAT     H139942   0.545   3.483   0.842 -1.2659 -0.3405  1.1340
 9809WAT     H239943   0.526   3.513   0.710  1.1154  0.4449  0.9161
 9809WAT    EPW39944   0.498   3.503   0.782 -0.7920 -1.1509 -0.5505
 9810WAT      O39945   1.868   6.843   2.674 -0.0242 -0.3293 -0.1974
 9810WAT     H139946   1.800   6.790   2.668 -0.8854  0.5147  1.5421
 9810WAT     H239947   1.833   6.919   2.700  1.4418  0.4277 -0.3151
 9810WAT    EPW39948   1.853   6.846   2.677  0.4786 -0.7988  0.1901
 9811WAT      O39949   1.874   7.201   2.227  0.0118  0.1852  0.1396
 9811WAT     H139950   1.894   7.117   2.217 -1.5489 -0.0831 -1.3292
 9811WAT     H239951   1.867   7.211   2.313  1.4445 -0.8546  0.4016
 9811WAT    EPW39952   1.876   7.190   2.238 -0.7132 -0.9107  0.1527
 9812WAT      O39953   2.339   7.786   1.290  0.6210 -0.1841  0.1949
 9812WAT     H139954   2.277   7.805   1.232  1.3321  2.0749  0.0674
 9812WAT     H239955   2.413   7.790   1.243  1.0930  0.2751  0.9461
 9812WAT    EPW39956   2.341   7.789   1.275 -0.4332  0.3057 -0.6715
 9813WAT      O39957   0.809   3.988   2.371  0.3398 -0.1488 -0.0069
 9813WAT     H139958   0.844   4.028   2.440 -0.9976  0.1300  0.5446
 9813WAT     H239959   0.813   3.903   2.392 -0.0560 -0.0645  0.4178
 9813WAT    EPW39960   0.815   3.981   2.384  0.1793 -0.0253 -0.0530
 9814WAT      O39961   3.058   4.777   2.007 -0.1716  0.4172  0.8109
 9814WAT     H139962   3.043   4.862   2.024 -0.1977  0.1671  2.1576
 9814WAT     H239963   3.125   4.758   2.059  1.1681  0.0808 -0.9504
 9814WAT    EPW39964   3.066   4.787   2.017 -0.3236 -0.7503  0.3470
 9815WAT      O39965   2.531   6.854   2.381 -0.0825  0.1564 -0.2956
 9815WAT     H139966   2.456   6.812   2.370 -0.0831  0.1586 -0.3012
 9815WAT     H239967   2.556   6.873   2.300 -0.8763  1.5767 -0.2452
 9815WAT    EPW39968   2.524   6.851   2.368  0.3239  0.0639 -0.3706
 9816WAT      O39969   2.433   5.421   1.164  0.0155 -0.0040  0.2397
 9816WAT     H139970   2.474   5.449   1.236  0.7388  0.2368 -0.2525
 9816WAT     H239971   2.404   5.494   1.126 -2.6714 -0.2772  1.5825
 9816WAT    EPW39972   2.435   5.436   1.169  0.3421  0.4242  0.9749
 9817WAT      O39973   2.162   5.631   1.606 -0.0476  0.1119  0.3561
 9817WAT     H139974   2.086   5.624   1.563 -1.0811  0.9484  1.9730
 9817WAT     H239975   2.215   5.578   1.560 -1.4085 -0.0308 -1.1778
 9817WAT    EPW39976   2.159   5.622   1.593  0.8699 -0.3542 -0.5543
 9818WAT      O39977   1.177   6.477   3.575  0.0512 -0.2897 -0.0986
 9818WAT     H139978   1.249   6.481   3.624  0.0748  1.5455 -0.2297
 9818WAT     H239979   1.178   6.395   3.544  0.8865 -0.9964  1.6385
 9818WAT    EPW39980   1.187   6.465   3.578  0.7028  0.4865 -0.6158
 9819WAT      O39981   3.132   6.280   1.590  0.0142  0.4334 -0.6183
 9819WAT     H139982   3.219   6.276   1.585  0.1270  0.1432  0.9869
 9819WAT     H239983   3.108   6.196   1.598 -0.5105  0.4375 -1.8251
 9819WAT    EPW39984   3.142   6.267   1.590  0.4634 -0.5905 -0.8950
 9820WAT      O39985   0.807   5.859   1.434  0.4529 -0.3612 -0.1988
 9820WAT     H139986   0.837   5.936   1.460  0.4198 -0.2512 -0.4851
 9820WAT     H239987   0.759   5.878   1.364  0.1061 -0.5940 -0.0267
 9820WAT    EPW39988   0.805   5.873   1.428  0.1448  0.1462  0.2750
 9821WAT      O39989   1.351   5.435   7.439 -0.8651 -0.1232 -0.1454
 9821WAT     H139990   1.422   5.481   7.419 -0.0419 -0.4310  1.7765
 9821WAT     H239991   1.348   5.373   7.378 -0.0821  0.5265 -0.8619
 9821WAT    EPW39992   1.361   5.433   7.427 -0.4128 -0.9168 -0.1893
 9822WAT      O39993   2.602   7.666   0.475 -0.4904 -0.3988 -0.1780
 9822WAT     H139994   2.606   7.742   0.517 -1.4239  0.3807 -1.4161
 9822WAT     H239995   2.520   7.640   0.486 -0.7571 -0.1817 -1.4316
 9822WAT    EPW39996   2.591   7.674   0.483 -0.7041  0.7000  0.2988
 9823WAT      O39997   3.726   5.599   3.384 -0.8428 -0.3082 -0.4672
 9823WAT     H139998   3.689   5.612   3.462  0.0468  3.1727 -0.4684
 9823WAT     H239999   3.799   5.556   3.404 -1.2851 -0.6685  0.4473
 9823WAT    EPW40000   3.732   5.595   3.399  0.2924  0.3435  0.0449
 9824WAT      O40001   2.548   4.496   2.048  0.1621 -0.4571  0.0279
 9824WAT     H140002   2.575   4.537   1.976  0.2631 -2.0262 -0.8682
 9824WAT     H240003   2.483   4.547   2.077  0.8574  0.7881 -0.5124
 9824WAT    EPW40004   2.542   4.510   2.042  0.2594 -0.2297  0.4200
 9825WAT      O40005   2.918   6.521   2.876  0.6745  0.5839  0.2499
 9825WAT     H140006   2.929   6.437   2.858  1.9905  0.4479  1.4634
 9825WAT     H240007   2.869   6.551   2.810 -0.6767 -1.3188  0.3169
 9825WAT    EPW40008   2.912   6.513   2.864  0.6904 -0.0058 -0.3618
 9826WAT      O40009   2.786   4.365   1.819 -0.1462  0.3636  0.0301
 9826WAT     H140010   2.855   4.403   1.855 -0.0745  0.6087 -0.3616
 9826WAT     H240011   2.730   4.430   1.808  0.7403  0.8161 -2.5428
 9826WAT    EPW40012   2.788   4.380   1.823 -1.2526  0.4839 -0.2899
 9827WAT      O40013   0.922   5.138   1.232  0.2431  0.7147 -0.1684
 9827WAT     H140014   0.848   5.159   1.274 -1.0529 -1.3827 -1.2399
 9827WAT     H240015   0.972   5.105   1.295 -0.9624 -0.6980  0.1051
 9827WAT    EPW40016   0.918   5.136   1.248  0.7527 -0.8714 -0.6311
 9828WAT      O40017   2.722   5.399   1.816 -0.6810  0.2838  0.2417
 9828WAT     H140018   2.746   5.383   1.898 -0.6719  1.2589  0.4428
 9828WAT     H240019   2.786   5.450   1.785 -0.5152 -0.3426 -0.4808
 9828WAT    EPW40020   2.735   5.404   1.823 -0.7183 -0.2202  0.0687
 9829WAT      O40021   1.552   5.370   0.952  0.6304  0.5423 -0.5219
 9829WAT     H140022   1.582   5.291   0.933 -0.6735 -0.5317  1.4719
 9829WAT     H240023   1.479   5.377   0.904  0.6295  0.4382 -0.5356
 9829WAT    EPW40024   1.545   5.359   0.942 -0.0160  0.0005 -0.3959
 9830WAT      O40025   0.694   6.277   1.590  0.6135 -0.0674 -0.0635
 9830WAT     H140026   0.763   6.264   1.642  0.8434  1.5262  0.0642
 9830WAT     H240027   0.632   6.306   1.644  0.3278 -0.0098 -0.4166
 9830WAT    EPW40028   0.695   6.279   1.606 -0.3532 -0.3556  0.8523
 9831WAT      O40029   0.967   6.612   2.368 -0.4054  0.0340 -0.2001
 9831WAT     H140030   0.945   6.694   2.349 -1.0257  0.0277  0.4261
 9831WAT     H240031   1.032   6.620   2.425  1.8573  0.0510 -2.6307
 9831WAT    EPW40032   0.973   6.625   2.374  0.8699 -0.0201 -0.5736
 9832WAT      O40033   0.693   3.726   0.364 -0.5185 -0.1698 -0.2712
 9832WAT     H140034   0.693   3.772   0.437 -0.2116  0.4383 -0.6433
 9832WAT     H240035   0.706   3.786   0.302 -0.6425 -0.6892 -0.8090
 9832WAT    EPW40036   0.695   3.742   0.365 -0.3732  0.0323  0.0371
 9833WAT      O40037   1.113   5.198   7.415 -0.2193 -0.1270  0.1100
 9833WAT     H140038   1.190   5.175   7.380 -0.1014 -0.8112  0.8008
 9833WAT     H240039   1.125   5.189   7.501 -0.6558  1.0953  0.3105
 9833WAT    EPW40040   1.126   5.193   7.422  1.1424 -0.3318 -0.6231
 9834WAT      O40041   2.176   5.313   1.241 -0.1668  0.1221  0.5831
 9834WAT     H140042   2.249   5.339   1.200  0.9752  0.0269  2.4756
 9834WAT     H240043   2.117   5.370   1.214  0.5542  0.1709 -1.0505
 9834WAT    EPW40044   2.178   5.325   1.231 -0.3478 -0.4149 -0.3463
 9835WAT      O40045   1.871   5.394   0.052 -0.3398 -0.2447 -0.4387
 9835WAT     H140046   1.804   5.338   0.061 -0.6980  0.0433 -1.2178
 9835WAT     H240047   1.834   5.472   0.062  0.0400 -0.1174 -0.0133
 9835WAT    EPW40048   1.856   5.397   0.055 -0.0453 -0.4999  0.1223
 9836WAT      O40049   3.002   4.932   0.081  0.0683 -0.3938 -0.1575
 9836WAT     H140050   2.921   4.964   0.073 -0.0277 -1.0750 -2.7116
 9836WAT     H240051   3.035   4.938  -0.000  1.8869 -1.9448  0.3903
 9836WAT    EPW40052   2.995   4.938   0.068  1.4971 -0.5885  0.2220
 9837WAT      O40053   1.627   5.600   0.812  0.1481 -0.5214  0.0546
 9837WAT     H140054   1.625   5.523   0.852 -0.5348 -0.2873  0.4714
 9837WAT     H240055   1.592   5.655   0.870  2.1668  0.4377  0.4482
 9837WAT    EPW40056   1.622   5.597   0.826 -1.1162 -1.5715 -0.9137
 9838WAT      O40057   1.944   5.005   0.267  0.2482 -0.2041  0.8395
 9838WAT     H140058   1.921   4.982   0.186 -1.8682  2.4740  0.5120
 9838WAT     H240059   1.990   5.078   0.255 -0.0481  0.2009  2.0193
 9838WAT    EPW40060   1.948   5.012   0.253 -0.8912  0.2541 -0.4772
 9839WAT      O40061   7.446   6.000   1.556 -0.3649  0.2471 -0.0150
 9839WAT     H140062   7.425   6.070   1.508  1.0386  1.1557  0.6301
 9839WAT     H240063   7.369   5.973   1.588 -0.9769  1.2762 -0.5685
 9839WAT    EPW40064   7.431   6.007   1.554  1.1434  1.0055  0.5322
 9840WAT      O40065   1.266   5.238   0.975  0.3092 -0.0315 -0.1838
 9840WAT     H140066   1.277   5.257   1.059 -1.1693  0.5775 -0.1050
 9840WAT     H240067   1.243   5.315   0.940  4.0028  0.5540 -1.8178
 9840WAT    EPW40068   1.264   5.252   0.982 -0.2968 -0.5752 -0.3584
 9841WAT      O40069   1.028   6.392   8.034  0.0171 -0.0134 -0.1310
 9841WAT     H140070   1.077   6.320   8.028 -1.3598 -0.9324 -1.1728
 9841WAT     H240071   0.946   6.361   8.030 -0.6089  1.5984 -0.5967
 9841WAT    EPW40072   1.023   6.376   8.032  0.1609 -0.2941 -0.5170
 9842WAT      O40073   1.586   5.834   0.040  0.0497  0.0531  0.2319
 9842WAT     H140074   1.537   5.870   0.103 -0.1870  0.1773 -0.0245
 9842WAT     H240075   1.536   5.768   0.011 -2.4124  3.2191 -3.6767
 9842WAT    EPW40076   1.572   5.829   0.045  0.0167 -0.1319 -1.1929
 9843WAT      O40077   0.387   5.288   8.047  0.6194 -0.6342 -0.1806
 9843WAT     H140078   0.371   5.230   8.110  0.7557 -3.4691 -2.5566
 9843WAT     H240079   0.469   5.313   8.064 -0.0785  0.4310  1.9703
 9843WAT    EPW40080   0.397   5.283   8.059  0.8416  0.4252  0.2764
 9844WAT      O40081   1.442   2.630   0.636 -0.1856  0.5748 -0.3062
 9844WAT     H140082   1.377   2.681   0.607 -0.8626  0.2850  0.6383
 9844WAT     H240083   1.510   2.653   0.587 -0.5587  2.1633 -0.1268
 9844WAT    EPW40084   1.442   2.641   0.624  0.6956 -0.0917  0.9500
 9845WAT      O40085   1.645   6.623   7.512  0.1173 -0.0369  0.2430
 9845WAT     H140086   1.699   6.687   7.537 -2.9150  2.0833  2.0408
 9845WAT     H240087   1.698   6.556   7.496  3.2687  2.0303  1.1742
 9845WAT    EPW40088   1.661   6.622   7.513 -0.6721 -0.0652  0.5879
 9846WAT      O40089   1.378   5.604   0.251 -0.2216  0.4805  0.4173
 9846WAT     H140090   1.342   5.684   0.248  1.8853  1.4463 -0.8726
 9846WAT     H240091   1.420   5.597   0.175  2.4068 -0.4889  1.8368
 9846WAT    EPW40092   1.379   5.615   0.239 -0.1169 -0.2434 -0.3471
 9847WAT      O40093   0.201   4.750   0.436  0.1772  0.1990 -0.1163
 9847WAT     H140094   0.188   4.744   0.350  0.0643  0.0401 -0.0899
 9847WAT     H240095   0.285   4.729   0.447  0.6642  1.8616 -0.3588
 9847WAT    EPW40096   0.211   4.746   0.425  0.1954 -0.1166 -0.3863
 9848WAT      O40097   1.926   5.608   1.440  0.7833 -0.1882  0.1314
 9848WAT     H140098   1.948   5.617   1.356 -1.5472 -1.1304 -0.6650
 9848WAT     H240099   1.912   5.523   1.448 -1.3799  0.1588  0.7572
 9848WAT    EPW40100   1.927   5.597   1.429 -0.5912 -0.1216 -0.8194
 9849WAT      O40101   3.708   5.433   0.121  0.3461 -0.5861  0.1526
 9849WAT     H140102   3.785   5.472   0.129 -0.5426  0.9036  2.4948
 9849WAT     H240103   3.714   5.363   0.173 -0.0898 -0.0523  0.9405
 9849WAT    EPW40104   3.720   5.428   0.130  1.2428 -0.1020  0.1512
 9850WAT      O40105   2.065   6.891   1.015  0.4826  0.0655  0.5087
 9850WAT     H140106   1.999   6.891   0.958  1.5614 -0.9445 -0.7890
 9850WAT     H240107   2.105   6.814   1.001  2.0841  0.7461  1.1022
 9850WAT    EPW40108   2.061   6.879   1.005 -0.5949 -0.2650  0.3645
 9851WAT      O40109   1.080   5.495   7.400  0.0003  0.2934  0.3549
 9851WAT     H140110   1.061   5.411   7.389  0.2200  0.1703  0.8914
 9851WAT     H240111   1.161   5.494   7.434  1.3172  0.8227 -2.4743
 9851WAT    EPW40112   1.089   5.482   7.403  0.2690 -1.3068 -0.2252
 9852WAT      O40113   1.315   5.433   0.561  0.2586 -0.2473  0.7630
 9852WAT     H140114   1.379   5.477   0.522  0.3852 -0.0590  1.1716
 9852WAT     H240115   1.319   5.353   0.525 -0.1161  0.1362 -0.1364
 9852WAT    EPW40116   1.325   5.427   0.550  0.3169  0.5946  0.2336
 9853WAT      O40117   3.043   4.104   0.535 -0.2449  0.2656 -0.2044
 9853WAT     H140118   3.092   4.032   0.538 -2.4333 -1.2969  1.3404
 9853WAT     H240119   3.076   4.154   0.599  0.1293 -0.2044 -0.0240
 9853WAT    EPW40120   3.055   4.101   0.545 -0.8041  0.4750  0.7852
 9854WAT      O40121   1.128   5.756   7.179 -0.2027 -0.0565 -0.0653
 9854WAT     H140122   1.085   5.696   7.226  3.4055 -2.5306  0.4755
 9854WAT     H240123   1.098   5.831   7.211 -3.3277 -1.4864  0.8448
 9854WAT    EPW40124   1.117   5.758   7.191  1.5173 -0.2267  0.2063
 9855WAT      O40125   2.167   7.774   7.923 -0.1456 -0.2776 -0.3358
 9855WAT     H140126   2.158   7.699   7.967  0.7708 -0.3716 -0.3003
 9855WAT     H240127   2.250   7.797   7.938 -0.3528  0.6310 -0.5304
 9855WAT    EPW40128   2.178   7.766   7.932  0.8900 -0.6787  0.0556
 9856WAT      O40129   0.514   5.710   0.184  0.0432  0.9055  0.3676
 9856WAT     H140130   0.584   5.670   0.150  0.3806  0.6993  1.2887
 9856WAT     H240131   0.447   5.661   0.155  0.5185 -1.3063  2.6294
 9856WAT    EPW40132   0.514   5.697   0.174  0.5526  0.6916  0.3182
 9857WAT      O40133   1.667   6.448   1.284 -0.4413  0.4693 -0.2160
 9857WAT     H140134   1.650   6.364   1.267  1.6165  0.0273 -0.3894
 9857WAT     H240135   1.588   6.482   1.300 -1.1932 -2.0265  2.3149
 9857WAT    EPW40136   1.653   6.441   1.284 -0.6114 -0.3930 -0.2659
 9858WAT      O40137   1.613   3.776   7.802 -0.2091 -0.2761 -0.1365
 9858WAT     H140138   1.620   3.769   7.888 -1.2790  0.9291  0.0713
 9858WAT     H240139   1.690   3.809   7.777 -1.0598  2.7501  0.8196
 9858WAT    EPW40140   1.625   3.780   7.811 -0.1157 -0.3962 -0.1292
 9859WAT      O40141   0.812   5.446   0.870  0.6312 -0.1704  0.3258
 9859WAT     H140142   0.872   5.384   0.877 -1.4132 -2.6668 -1.9962
 9859WAT     H240143   0.749   5.421   0.925  0.1594  0.3453  0.0396
 9859WAT    EPW40144   0.812   5.433   0.879  0.2242  0.0405  0.3771
 9860WAT      O40145   2.797   5.641   0.973  0.1951 -0.2451 -0.5401
 9860WAT     H140146   2.751   5.567   0.974 -0.2994 -0.0719  2.9458
 9860WAT     H240147   2.736   5.703   0.969  0.6063  0.1356 -3.4096
 9860WAT    EPW40148   2.781   5.639   0.972  0.7787  0.2998 -0.1804
 9861WAT      O40149   2.760   5.060   8.050  0.1612 -0.1176 -0.8579
 9861WAT     H140150   2.701   5.090   8.106  0.5000 -0.2010 -0.4438
 9861WAT     H240151   2.722   4.990   8.015  0.4051 -0.8178  0.2036
 9861WAT    EPW40152   2.746   5.054   8.053 -0.1782 -0.2915 -0.4682
 9862WAT      O40153   0.457   4.680   8.009  0.3896  0.0594 -0.3097
 9862WAT     H140154   0.407   4.619   7.972  0.0050 -0.9833  1.7597
 9862WAT     H240155   0.530   4.636   8.030 -0.0984  0.1171  1.6789
 9862WAT    EPW40156   0.461   4.664   8.007  0.0279 -0.2059  0.6408
 9863WAT      O40157   1.941   5.740   0.379 -0.0973  0.0822  0.5152
 9863WAT     H140158   2.017   5.718   0.341 -0.3234 -1.2027  0.7533
 9863WAT     H240159   1.881   5.712   0.321 -0.4049  1.2116  0.2655
 9863WAT    EPW40160   1.944   5.732   0.365 -0.5495  0.5792 -0.1877
 9864WAT      O40161   1.197   6.188   1.601  0.1896 -0.4796 -0.2724
 9864WAT     H140162   1.242   6.247   1.556  0.0964 -0.1316  0.0905
 9864WAT     H240163   1.252   6.120   1.607 -0.1387 -0.9060 -1.7416
 9864WAT    EPW40164   1.212   6.186   1.595  0.1933  0.3303  0.4966
 9865WAT      O40165   2.332   6.290   7.153 -0.3978  0.0103  0.1509
 9865WAT     H140166   2.327   6.350   7.217 -0.5837 -0.2684  0.4042
 9865WAT     H240167   2.296   6.329   7.085 -0.5323  0.1800  0.3195
 9865WAT    EPW40168   2.326   6.305   7.153  0.1097 -0.3737  0.3103
 9866WAT      O40169   2.037   6.013   0.312  0.1096  0.1310 -0.6323
 9866WAT     H140170   1.969   6.052   0.274  0.3564  0.4914 -0.7189
 9866WAT     H240171   2.008   5.934   0.332 -0.8923  0.8479  0.9394
 9866WAT    EPW40172   2.023   6.007   0.309  0.2984 -0.1799 -0.0357
 9867WAT      O40173   1.521   6.671   7.279  0.3365 -0.1312  0.4115
 9867WAT     H140174   1.565   6.650   7.351  0.5626  0.3853  0.4267
 9867WAT     H240175   1.568   6.734   7.243  1.6623 -2.1236 -1.6144
 9867WAT    EPW40176   1.534   6.677   7.285  0.1204 -0.2781  0.3328
 9868WAT      O40177   1.623   5.798   1.197  0.0849 -0.0399 -0.4346
 9868WAT     H140178   1.607   5.766   1.276 -0.4277 -0.2477 -0.6158
 9868WAT     H240179   1.546   5.794   1.157  0.2860  0.2785 -0.8691
 9868WAT    EPW40180   1.610   5.793   1.202 -0.5565 -0.1046 -0.4270
 9869WAT      O40181   1.043   5.882   8.022 -0.0378 -0.0668  0.0684
 9869WAT     H140182   1.056   5.850   8.102  1.0594 -1.2608 -0.5433
 9869WAT     H240183   1.079   5.961   8.025  0.3416 -0.2568  0.6355
 9869WAT    EPW40184   1.050   5.889   8.034 -0.4264  0.8732 -0.1800
 9870WAT      O40185   2.440   6.010   0.611  0.2602  0.4823  0.2320
 9870WAT     H140186   2.521   6.020   0.580  1.4886 -2.9446  1.8062
 9870WAT     H240187   2.413   5.936   0.573 -0.4175 -0.6731  2.7685
 9870WAT    EPW40188   2.448   6.000   0.601 -0.4782  0.0760  0.6734
 9871WAT      O40189   2.678   4.675   1.255  0.4964  0.0575 -0.5052
 9871WAT     H140190   2.697   4.760   1.242 -0.6387  0.1773 -1.5865
 9871WAT     H240191   2.645   4.673   1.335  2.1356  0.3248  0.2272
 9871WAT    EPW40192   2.676   4.688   1.265  1.0353  0.3693 -0.4812
 9872WAT      O40193   1.487   3.962   7.168 -0.5989 -0.2854 -0.4442
 9872WAT     H140194   1.474   4.044   7.141 -0.7433  0.2002  1.0385
 9872WAT     H240195   1.498   3.969   7.254 -0.2385 -1.7888 -0.3240
 9872WAT    EPW40196   1.487   3.975   7.177  0.1012  0.2854  0.3996
 9873WAT      O40197   2.519   6.112   1.944  0.2888  0.2440  0.3531
 9873WAT     H140198   2.602   6.139   1.950  0.4344 -0.1466  0.0970
 9873WAT     H240199   2.475   6.175   1.985  0.8092 -0.0690  1.4243
 9873WAT    EPW40200   2.525   6.125   1.951  0.0637  0.4211 -0.1658
 9874WAT      O40201   3.948   6.182   6.803  0.5321 -0.5727 -0.1146
 9874WAT     H140202   3.922   6.245   6.749 -0.3398  0.3920  1.3716
 9874WAT     H240203   3.876   6.134   6.815  0.8565 -1.0972 -0.1928
 9874WAT    EPW40204   3.933   6.184   6.796 -0.8075 -0.5670  0.4876
 9875WAT      O40205   1.518   4.828   7.650 -0.1413  0.2920 -0.1269
 9875WAT     H140206   1.586   4.795   7.693 -0.3949  1.3996  1.2127
 9875WAT     H240207   1.552   4.894   7.605 -0.1375  0.1095 -0.3928
 9875WAT    EPW40208   1.533   4.833   7.650  0.6301  0.0933 -0.8299
 9876WAT      O40209   1.301   7.055   1.003  0.8906  0.1865 -0.0855
 9876WAT     H140210   1.245   7.038   1.068 -0.8850  0.8316 -1.3721
 9876WAT     H240211   1.295   6.985   0.952 -0.8818  1.3766 -1.6241
 9876WAT    EPW40212   1.292   7.042   1.005 -0.8621 -0.7333  0.3179
 9877WAT      O40213   3.077   5.462   1.063  0.3056  0.3105  0.0570
 9877WAT     H140214   3.069   5.533   1.114 -0.1364  0.4616 -0.2111
 9877WAT     H240215   3.161   5.441   1.070  0.3022  0.4725  0.6581
 9877WAT    EPW40216   3.088   5.469   1.072 -0.1128 -0.5697 -1.2232
 9878WAT      O40217   2.551   5.603   0.281 -0.2764  0.5603  0.4021
 9878WAT     H140218   2.512   5.538   0.237  0.1635  0.3930  0.2538
 9878WAT     H240219   2.600   5.642   0.220 -0.5407  1.0337  0.4894
 9878WAT    EPW40220   2.553   5.599   0.265 -1.0501 -0.3948  0.2885
 9879WAT      O40221   2.166   5.080   1.107 -0.4836 -0.2438 -0.2387
 9879WAT     H140222   2.228   5.085   1.045 -1.8865  1.8661 -1.5970
 9879WAT     H240223   2.158   5.162   1.134 -2.0936 -0.6245  0.5003
 9879WAT    EPW40224   2.174   5.093   1.102  0.6605  0.3209 -0.4625
 9880WAT      O40225   1.916   5.715   7.833 -0.8963  0.0167  0.5776
 9880WAT     H140226   1.887   5.782   7.785 -2.2041 -0.8544  0.0711
 9880WAT     H240227   1.940   5.752   7.908 -1.8820  1.0119  0.4310
 9880WAT    EPW40228   1.915   5.730   7.837 -1.0161 -0.0468  0.0055
 9881WAT      O40229   1.776   6.435   7.945 -0.4658 -0.3054  0.1823
 9881WAT     H140230   1.700   6.392   7.949 -0.3146 -0.5815  0.1492
 9881WAT     H240231   1.815   6.402   7.874 -0.0009 -0.7058  0.6076
 9881WAT    EPW40232   1.771   6.424   7.935  0.0904 -0.0255 -0.4557
 9882WAT      O40233   1.757   5.884   7.165  0.4149  0.4454  0.1288
 9882WAT     H140234   1.762   5.969   7.147  0.8208  0.2382 -0.8017
 9882WAT     H240235   1.841   5.858   7.162  0.4920  0.3201  2.0515
 9882WAT    EPW40236   1.770   5.893   7.162 -1.3331 -0.4424 -0.4464
 9883WAT      O40237   0.949   4.641   0.881 -0.0576  0.1946 -0.5587
 9883WAT     H140238   0.955   4.726   0.899  0.4721 -0.1745  1.2919
 9883WAT     H240239   1.032   4.615   0.881 -0.1664 -0.2351 -1.7893
 9883WAT    EPW40240   0.962   4.650   0.884  1.1021  0.6540 -0.2614
 9884WAT      O40241   3.254   5.017   0.991  0.1298  0.3198 -0.0687
 9884WAT     H140242   3.312   4.986   0.934  2.1571  1.2536  1.3592
 9884WAT     H240243   3.229   4.947   1.036 -0.0249 -0.1224 -0.8277
 9884WAT    EPW40244   3.259   5.002   0.989 -0.4438 -0.8277 -0.1472
 9885WAT      O40245   2.522   6.389   1.369 -0.3864  0.3579 -0.1848
 9885WAT     H140246   2.511   6.326   1.309 -0.9038 -0.2835  0.5614
 9885WAT     H240247   2.484   6.356   1.440  0.2043  1.1137  0.4972
 9885WAT    EPW40248   2.515   6.374   1.371 -0.4062  0.1928  0.8768
 9886WAT      O40249   2.200   5.669   0.314  0.3828 -0.2331  0.1634
 9886WAT     H140250   2.235   5.665   0.394  0.7839  2.0469  0.1664
 9886WAT     H240251   2.256   5.720   0.270 -1.3406  1.0073 -0.6975
 9886WAT    EPW40252   2.213   5.676   0.319  0.1236 -0.5253  0.3468
 9887WAT      O40253   0.146   4.912   0.650  0.5359 -0.2466  0.0956
 9887WAT     H140254   0.173   4.987   0.614 -0.3926  0.0713  0.0335
 9887WAT     H240255   0.155   4.854   0.586  0.4477 -0.0114 -0.1316
 9887WAT    EPW40256   0.152   4.915   0.635  0.1853  0.0940 -1.2214
 9888WAT      O40257   2.609   5.561   0.625 -0.1084 -0.8840  0.1707
 9888WAT     H140258   2.596   5.534   0.707 -1.2633 -1.5437 -0.1993
 9888WAT     H240259   2.675   5.511   0.597  0.5078 -0.4294  0.7865
 9888WAT    EPW40260   2.617   5.549   0.633 -0.2112  0.9843  0.3945
 9889WAT      O40261   4.014   5.487   0.195 -0.2847 -0.7229  0.0334
 9889WAT     H140262   4.055   5.541   0.139 -2.0206 -1.2656 -1.8865
 9889WAT     H240263   4.057   5.411   0.185  0.5593 -0.3735  0.8530
 9889WAT    EPW40264   4.027   5.483   0.185  0.8596 -0.2010  0.5145
 9890WAT      O40265   1.918   5.987   1.457  0.4568 -0.1997 -0.5156
 9890WAT     H140266   1.977   5.986   1.521  0.4559 -0.7985 -0.5226
 9890WAT     H240267   1.941   5.920   1.406  0.7027  0.5041 -1.3728
 9890WAT    EPW40268   1.930   5.977   1.459 -0.2702  0.4612 -0.4839
 9891WAT      O40269   1.465   6.050   7.083 -0.3993  0.0484  0.7804
 9891WAT     H140270   1.406   6.109   7.108 -0.6236 -0.7847  2.3975
 9891WAT     H240271   1.534   6.068   7.133 -0.7044 -1.4289  1.7975
 9891WAT    EPW40272   1.467   6.061   7.094 -0.0672  0.6947  0.1996
 9892WAT      O40273   1.367   5.168   0.459 -0.3175 -0.2102 -0.4117
 9892WAT     H140274   1.297   5.123   0.485  0.6810 -3.2936 -2.4890
 9892WAT     H240275   1.350   5.184   0.374  1.4257 -0.9401 -0.9245
 9892WAT    EPW40276   1.354   5.164   0.450 -0.4962  0.3165 -0.5483
 9893WAT      O40277   2.530   4.618   0.464 -0.1046 -0.0556  0.1064
 9893WAT     H140278   2.492   4.643   0.538  0.6820 -1.0524  0.8744
 9893WAT     H240279   2.609   4.589   0.489 -0.0853 -1.0778 -1.0094
 9893WAT    EPW40280   2.536   4.617   0.479 -0.2561 -0.0117 -0.2308
 9894WAT      O40281   1.265   6.335   7.547  0.4877  0.0522  0.3074
 9894WAT     H140282   1.337   6.287   7.552  0.2334 -0.2596  1.3448
 9894WAT     H240283   1.265   6.379   7.623  0.7040  1.6831 -0.5939
 9894WAT    EPW40284   1.276   6.335   7.559 -0.1754 -0.0241  0.7927
 9895WAT      O40285   3.207   5.927   8.022 -0.0785  0.2365 -0.0698
 9895WAT     H140286   3.197   5.983   8.088 -0.1950 -2.4140  2.3501
 9895WAT     H240287   3.290   5.902   8.028 -0.6007 -1.5306  0.4597
 9895WAT    EPW40288   3.218   5.932   8.033  0.3630  0.0926  0.4375
 9896WAT      O40289   1.636   3.397   0.662  0.6329 -0.1580  0.6953
 9896WAT     H140290   1.651   3.329   0.715 -3.7203 -2.6776 -0.8321
 9896WAT     H240291   1.587   3.450   0.710 -0.2839 -0.6678  0.3349
 9896WAT    EPW40292   1.631   3.395   0.677  0.3148 -0.7357 -0.3947
 9897WAT      O40293   1.564   3.757   7.528 -0.0400  0.0277 -0.2589
 9897WAT     H140294   1.585   3.761   7.612  1.2006  1.9255 -0.5971
 9897WAT     H240295   1.596   3.679   7.503  0.4124 -0.1481  0.8018
 9897WAT    EPW40296   1.572   3.746   7.536  0.4522 -0.2901  0.3549
 9898WAT      O40297   2.172   6.004   1.914 -0.2376  0.1204 -0.1070
 9898WAT     H140298   2.160   5.962   1.839 -2.3713 -0.5506  0.5372
 9898WAT     H240299   2.187   5.939   1.971 -2.2407  0.2838  0.6583
 9898WAT    EPW40300   2.173   5.988   1.911  1.2357 -0.9452  0.0238
 9899WAT      O40301   1.228   6.409   0.487  0.0042  0.3466  0.4853
 9899WAT     H140302   1.255   6.327   0.501 -1.6495 -0.4859 -0.8827
 9899WAT     H240303   1.299   6.457   0.505  1.0529 -1.3752  1.1930
 9899WAT    EPW40304   1.242   6.404   0.492 -0.4736 -0.0096  0.2958
 9900WAT      O40305   1.296   6.854   0.820 -0.2961 -0.4846  0.4849
 9900WAT     H140306   1.220   6.883   0.789 -0.1942  0.0745  0.7316
 9900WAT     H240307   1.353   6.877   0.759  0.0573  1.5291  1.4638
 9900WAT    EPW40308   1.293   6.862   0.807  0.7857  0.5278  0.7794
 9901WAT      O40309   1.193   5.144   7.691 -0.0917 -0.2540  0.3090
 9901WAT     H140310   1.224   5.066   7.668  0.8652 -0.0832  0.9625
 9901WAT     H240311   1.161   5.130   7.771  1.7816  0.4143  1.2242
 9901WAT    EPW40312   1.193   5.131   7.700 -0.0122  0.1485  0.2604
 9902WAT      O40313   2.174   4.660   1.379  0.1784  0.3058  0.0346
 9902WAT     H140314   2.108   4.705   1.417 -0.6916 -0.1576 -0.8917
 9902WAT     H240315   2.140   4.581   1.368  1.3320 -0.2910  0.6367
 9902WAT    EPW40316   2.159   4.655   1.383 -0.2139 -0.3997 -0.8385
 9903WAT      O40317   1.531   6.158   0.318 -0.8005  0.0639  0.0200
 9903WAT     H140318   1.509   6.174   0.401 -0.3051 -0.6349  0.2902
 9903WAT     H240319   1.495   6.081   0.302 -0.3086 -0.1221 -0.1911
 9903WAT    EPW40320   1.522   6.149   0.328 -0.5142  0.7028  0.0941
 9904WAT      O40321   1.128   6.215   1.868 -0.1956  0.0261 -0.0814
 9904WAT     H140322   1.153   6.204   1.785 -0.7381 -1.3740 -0.0972
 9904WAT     H240323   1.098   6.136   1.890  3.2370 -0.8113  2.5993
 9904WAT    EPW40324   1.128   6.202   1.859  0.1069  0.4542 -0.2609
 9905WAT      O40325   1.133   5.642   7.850  0.4532 -0.1249  0.5897
 9905WAT     H140326   1.076   5.601   7.798  2.6862 -0.6435 -1.6480
 9905WAT     H240327   1.103   5.724   7.853 -0.6863 -0.5001 -0.0424
 9905WAT    EPW40328   1.120   5.648   7.843 -0.2123  0.1761 -1.1131
 9906WAT      O40329   2.055   6.032   0.596  0.0045  0.1913 -0.1306
 9906WAT     H140330   2.072   6.110   0.631 -0.1807  0.2513 -0.1732
 9906WAT     H240331   2.052   6.049   0.510  1.7692 -0.1860 -0.3055
 9906WAT    EPW40332   2.057   6.046   0.589 -0.2247  0.0474 -0.9048
 9907WAT      O40333   0.025   5.397   0.810  0.1076 -0.1670 -0.1230
 9907WAT     H140334  -0.003   5.415   0.891 -1.3052  0.6409 -0.7629
 9907WAT     H240335   0.108   5.373   0.822  1.0868  3.3079  1.2506
 9907WAT    EPW40336   0.033   5.396   0.824 -0.6344  0.4376  0.3823
 9908WAT      O40337   1.670   5.685   1.518 -0.4771 -0.1325  0.0305
 9908WAT     H140338   1.677   5.767   1.548  1.0547 -0.2769  0.1895
 9908WAT     H240339   1.752   5.667   1.493 -1.0062 -1.2726 -0.9228
 9908WAT    EPW40340   1.683   5.695   1.519 -0.0946  0.1603 -0.2025
 9909WAT      O40341   1.782   6.645   2.301 -0.0659 -0.1055  0.1301
 9909WAT     H140342   1.719   6.697   2.270 -0.8892 -0.4873  1.0856
 9909WAT     H240343   1.745   6.609   2.371  0.3475 -2.2442 -0.6748
 9909WAT    EPW40344   1.767   6.647   2.307  0.3659  0.4451  0.1819
 9910WAT      O40345   1.756   6.010   0.685 -0.3952 -0.0064  0.4272
 9910WAT     H140346   1.835   5.999   0.650 -1.2044  0.1699 -1.5714
 9910WAT     H240347   1.767   5.985   0.768  2.1859  1.7628  0.7357
 9910WAT    EPW40348   1.769   6.004   0.693  0.0476 -0.2987  0.1629
 9911WAT      O40349   2.705   6.122   1.044 -0.7059 -0.2559  0.1775
 9911WAT     H140350   2.719   6.119   1.130 -2.8461  1.2790  0.6611
 9911WAT     H240351   2.782   6.100   1.010 -0.2577 -2.7429  2.4446
 9911WAT    EPW40352   2.719   6.118   1.052 -0.1351  0.8618 -0.6963
 9912WAT      O40353   1.024   6.288   1.350 -0.0436 -0.2823  0.0632
 9912WAT     H140354   0.998   6.361   1.390 -2.7850  0.1271 -2.1613
 9912WAT     H240355   1.101   6.310   1.315  1.6826 -0.1910  3.5053
 9912WAT    EPW40356   1.032   6.302   1.350  0.7890 -0.6050 -0.6585
 9913WAT      O40357   0.853   4.382   1.467 -0.1902  0.2321  0.1802
 9913WAT     H140358   0.913   4.325   1.495  0.4998  0.9819  0.2711
 9913WAT     H240359   0.874   4.393   1.383 -0.8107 -0.2346 -0.0461
 9913WAT    EPW40360   0.865   4.375   1.458 -0.5816 -0.1526  1.0368
 9914WAT      O40361   3.106   7.159   7.830  0.2827  0.3456  0.4501
 9914WAT     H140362   3.175   7.212   7.827  1.2911 -0.9360  0.2646
 9914WAT     H240363   3.118   7.111   7.902  0.2762 -0.7614 -0.2556
 9914WAT    EPW40364   3.118   7.160   7.840  0.0756 -0.0199 -0.7345
 9915WAT      O40365   0.916   6.497   0.434 -0.4482  0.2773  0.0793
 9915WAT     H140366   0.918   6.554   0.499 -0.7982  1.2971 -0.7740
 9915WAT     H240367   0.989   6.451   0.444 -0.8516 -0.0930  1.6139
 9915WAT    EPW40368   0.927   6.498   0.445  0.4149  0.1123 -0.3757
 9916WAT      O40369   2.654   6.502   1.781  0.4437  0.5720  0.6285
 9916WAT     H140370   2.649   6.486   1.867 -0.0688 -1.5623  0.2689
 9916WAT     H240371   2.739   6.490   1.764  0.3465 -0.2282  0.6584
 9916WAT    EPW40372   2.666   6.498   1.792  0.0511 -0.4747 -0.1310
 9917WAT      O40373   2.002   6.074   6.917 -0.5501  0.6907  0.0180
 9917WAT     H140374   2.058   6.065   6.983 -1.3182  2.7391  1.0372
 9917WAT     H240375   1.981   5.992   6.896 -1.3144 -0.0624  3.2380
 9917WAT    EPW40376   2.007   6.060   6.924 -0.4256  0.1777 -1.2334
 9918WAT      O40377   0.904   5.982   0.243  0.1159 -0.4035 -0.3268
 9918WAT     H140378   0.947   6.050   0.276 -0.2404 -1.2453  2.0863
 9918WAT     H240379   0.830   6.017   0.214 -0.2342  0.2002  1.2333
 9918WAT    EPW40380   0.900   5.997   0.243 -0.6763 -0.2357 -0.1517
 9919WAT      O40381   7.710   4.989   0.626 -0.5197  0.4844 -0.0572
 9919WAT     H140382   7.771   4.944   0.669 -1.9418 -1.2004  0.2689
 9919WAT     H240383   7.652   5.009   0.688 -1.7936 -0.5841 -0.8614
 9919WAT    EPW40384   7.711   4.986   0.642  0.5023 -0.3422  0.8925
 9920WAT      O40385   2.918   4.297   2.450  0.4239 -0.3198  0.2140
 9920WAT     H140386   2.867   4.266   2.387 -1.9275  0.1440  1.7572
 9920WAT     H240387   2.997   4.265   2.430 -0.4618 -1.2775 -2.1668
 9920WAT    EPW40388   2.922   4.288   2.438 -0.1926 -0.0150  0.5206
 9921WAT      O40389   0.248   6.115   0.280  0.6189  0.1603 -0.2210
 9921WAT     H140390   0.201   6.173   0.235 -1.7801 -0.5395  1.1659
 9921WAT     H240391   0.301   6.164   0.329  0.1004  1.0976 -0.5734
 9921WAT    EPW40392   0.249   6.130   0.281  0.4148  0.1755  0.3201
 9922WAT      O40393   1.614   5.189   0.321 -0.4067  0.3914 -0.0048
 9922WAT     H140394   1.670   5.244   0.359 -0.6137  0.2305  0.5515
 9922WAT     H240395   1.563   5.163   0.387 -0.5000 -0.2341 -0.3134
 9922WAT    EPW40396   1.615   5.193   0.336 -0.3653  0.2331 -0.4119
 9923WAT      O40397   1.984   6.467   0.872  0.7254 -0.1682  0.3219
 9923WAT     H140398   1.922   6.418   0.908  0.3049  1.2497  1.6565
 9923WAT     H240399   1.979   6.542   0.916  1.0989  1.2173 -1.8427
 9923WAT    EPW40400   1.974   6.471   0.884  0.6665 -0.1679 -0.0395
 9924WAT      O40401   1.616   6.762   0.080  0.7992  0.3161 -0.0091
 9924WAT     H140402   1.618   6.844   0.110 -1.6373  0.9495 -1.2744
 9924WAT     H240403   1.611   6.772  -0.006 -0.9983 -1.0516 -0.1200
 9924WAT    EPW40404   1.615   6.776   0.072 -0.3351  0.6306  0.4053
 9925WAT      O40405   0.146   3.065   0.954 -0.0942  0.5032  0.2646
 9925WAT     H140406   0.124   2.988   0.919  1.9603  0.8401 -2.0305
 9925WAT     H240407   0.189   3.044   1.027 -1.2069 -0.3977  0.6913
 9925WAT    EPW40408   0.149   3.051   0.959 -0.3129 -0.1617 -0.5741
 9926WAT      O40409   2.010   5.722   0.979  0.5516  0.4006  0.1092
 9926WAT     H140410   2.049   5.757   0.909  2.4219 -1.2182  0.2646
 9926WAT     H240411   1.946   5.673   0.945 -0.0303  1.3930 -0.2818
 9926WAT    EPW40412   2.006   5.720   0.964 -0.0235 -0.6365 -0.5125
 9927WAT      O40413   0.927   4.178   7.747  0.6086 -0.2500 -0.4497
 9927WAT     H140414   0.905   4.140   7.672  0.8510 -1.7104  0.1797
 9927WAT     H240415   1.012   4.198   7.735  0.9982 -1.6127 -0.1548
 9927WAT    EPW40416   0.937   4.175   7.734 -0.0433 -0.0004  0.0419
 9928WAT      O40417   1.798   6.672   0.729  0.0710 -0.0383 -0.9097
 9928WAT     H140418   1.778   6.630   0.803  0.2035  0.6493 -0.4807
 9928WAT     H240419   1.780   6.613   0.667  1.9183 -1.4048 -0.2482
 9928WAT    EPW40420   1.793   6.657   0.730 -0.4568 -0.5141 -0.4721
 9929WAT      O40421   1.235   7.077   2.125 -0.4364 -0.3233 -0.2035
 9929WAT     H140422   1.316   7.046   2.118 -0.9179 -1.2879 -2.1087
 9929WAT     H240423   1.225   7.128   2.055 -0.3598  2.7195  1.8143
 9929WAT    EPW40424   1.245   7.080   2.114 -0.2070  0.3672  0.3498
 9930WAT      O40425   2.498   5.042   1.297  0.0396 -0.4017  0.8390
 9930WAT     H140426   2.428   4.998   1.268 -0.2255 -1.0153  2.3239
 9930WAT     H240427   2.474   5.068   1.376  1.0669  0.4556  0.8914
 9930WAT    EPW40428   2.484   5.040   1.304  0.4709 -0.1933  0.0658
 9931WAT      O40429   2.817   5.841   0.019 -0.2970 -0.4797  0.2751
 9931WAT     H140430   2.811   5.866  -0.064 -1.3247 -0.8178  0.2311
 9931WAT     H240431   2.892   5.796   0.022 -0.2718 -0.5010 -0.4759
 9931WAT    EPW40432   2.827   5.838   0.007 -0.1623 -0.4651 -0.8559
 9932WAT      O40433   0.790   6.252   8.054 -0.3429  0.1894 -0.1396
 9932WAT     H140434   0.809   6.181   8.008  1.3635  2.1676 -2.7402
 9932WAT     H240435   0.713   6.278   8.023 -0.4732  0.0552  0.0682
 9932WAT    EPW40436   0.782   6.246   8.043  0.8278 -0.1553 -0.7743
 9933WAT      O40437   2.117   6.134   7.195 -0.1973  0.1033  0.3296
 9933WAT     H140438   2.198   6.167   7.195  0.7937 -2.1284  0.4033
 9933WAT     H240439   2.069   6.196   7.233  1.4586  1.4901  0.2756
 9933WAT    EPW40440   2.122   6.148   7.200 -0.0713  0.2691  0.1344
 9934WAT      O40441   0.343   5.610   7.833 -0.2018 -0.1958 -0.2081
 9934WAT     H140442   0.333   5.530   7.800 -0.8721 -0.7709  1.2720
 9934WAT     H240443   0.261   5.635   7.850  0.0257  0.6906 -0.4083
 9934WAT    EPW40444   0.329   5.602   7.831 -0.5908 -0.2606 -1.4808
 9935WAT      O40445   1.587   4.881   0.295 -0.3455  0.0049 -0.1318
 9935WAT     H140446   1.577   4.862   0.380 -1.5453  0.9405 -0.0394
 9935WAT     H240447   1.626   4.960   0.297  0.9353 -0.5925 -0.4813
 9935WAT    EPW40448   1.591   4.890   0.308  0.0057  0.8160  0.0819
 9936WAT      O40449   1.055   5.471   0.585  0.1716 -0.1979 -0.6427
 9936WAT     H140450   1.034   5.470   0.500  1.5675  1.2099 -1.0634
 9936WAT     H240451   1.136   5.438   0.585  0.2053 -0.1224  0.1386
 9936WAT    EPW40452   1.064   5.466   0.572 -0.5096 -0.4479 -0.1937
 9937WAT      O40453   1.037   5.002   1.426  0.6087 -0.0147 -0.3050
 9937WAT     H140454   1.122   5.016   1.412  0.7180 -1.0553 -0.8369
 9937WAT     H240455   1.022   4.927   1.384 -0.1041 -0.9646  1.5239
 9937WAT    EPW40456   1.047   4.993   1.417 -0.7576 -0.3540  0.3393
 9938WAT      O40457   1.759   6.638   1.016 -0.1305  0.0574 -0.3167
 9938WAT     H140458   1.739   6.692   1.083 -1.0133  0.3423 -0.7952
 9938WAT     H240459   1.752   6.559   1.052  0.2754  0.2339  0.1627
 9938WAT    EPW40460   1.755   6.634   1.031  0.8687  0.0024 -0.8084
 9939WAT      O40461   2.013   5.837   0.013 -0.5959 -0.5287  0.5867
 9939WAT     H140462   2.005   5.923   0.002 -2.2637 -0.4797  1.8359
 9939WAT     H240463   2.090   5.829   0.052 -1.0466  0.5662  1.7777
 9939WAT    EPW40464   2.023   5.849   0.017 -0.3122 -0.7923 -0.6046
 9940WAT      O40465   3.470   5.830   7.992  0.6280 -0.1470  0.2214
 9940WAT     H140466   3.518   5.840   8.064  0.5246 -0.0022  0.2716
 9940WAT     H240467   3.469   5.744   7.980  0.4646 -0.1876  0.5171
 9940WAT    EPW40468   3.477   5.819   8.001 -0.1287 -0.0563 -0.5295
 9941WAT      O40469   2.165   4.768   0.585 -0.3650 -0.1776 -0.2786
 9941WAT     H140470   2.096   4.760   0.533  1.1992  0.1334 -2.5364
 9941WAT     H240471   2.187   4.685   0.602 -1.3167 -0.2780  0.5497
 9941WAT    EPW40472   2.158   4.755   0.580 -0.0261  0.6005 -0.7573
 9942WAT      O40473   3.273   5.656   0.865 -0.2463  0.0385 -0.3927
 9942WAT     H140474   3.243   5.689   0.940 -0.4342 -0.8855 -0.0400
 9942WAT     H240475   3.206   5.610   0.834 -0.1648  0.4087 -1.1292
 9942WAT    EPW40476   3.259   5.654   0.871 -0.9064 -0.2361  0.2879
 9943WAT      O40477   2.943   6.629   0.277 -0.5877 -0.1748  0.0280
 9943WAT     H140478   2.877   6.665   0.321 -0.8911  1.7325 -1.7935
 9943WAT     H240479   2.912   6.624   0.195  1.4920  0.8005 -0.8904
 9943WAT    EPW40480   2.929   6.634   0.271  0.5732  1.0662 -1.0872
 9944WAT      O40481   0.542   5.977   0.076 -0.5910 -0.0313  0.2601
 9944WAT     H140482   0.527   5.898   0.111  0.1226 -0.3230 -0.0697
 9944WAT     H240483   0.582   5.959   0.001 -0.8541  0.6363 -0.0518
 9944WAT    EPW40484   0.545   5.963   0.070  0.4875 -0.1766 -0.2217
 9945WAT      O40485   1.447   2.788   0.026 -0.1250 -0.2164  0.1486
 9945WAT     H140486   1.408   2.862   0.050 -0.6113  0.5014 -2.5018
 9945WAT     H240487   1.381   2.738  -0.002  0.2627 -1.4490  1.3734
 9945WAT    EPW40488   1.432   2.792   0.025 -0.0566  0.6126 -0.0317
 9946WAT      O40489   0.992   3.698   0.439 -0.2852  0.4255  0.5226
 9946WAT     H140490   0.919   3.722   0.397  0.2026  0.1389 -0.5026
 9946WAT     H240491   0.990   3.611   0.437 -0.0239  0.4126  0.6915
 9946WAT    EPW40492   0.981   3.689   0.433  0.5085  0.0029 -1.3273
 9947WAT      O40493   3.017   4.334   6.751  0.2190  0.1238  0.2035
 9947WAT     H140494   3.037   4.251   6.769  0.1580 -0.2291 -1.2891
 9947WAT     H240495   3.068   4.379   6.806 -1.1054 -0.8866  2.3905
 9947WAT    EPW40496   3.028   4.328   6.762  0.1269 -0.3772 -0.1860
 9948WAT      O40497   1.384   3.021   1.147 -0.1238 -0.3834  0.1312
 9948WAT     H140498   1.381   2.941   1.113 -0.2316 -0.0695 -0.6353
 9948WAT     H240499   1.353   3.071   1.082 -2.5764  0.0057  1.4776
 9948WAT    EPW40500   1.379   3.017   1.132  0.2431  0.1324 -1.1330
 9949WAT      O40501   1.896   5.567   6.751 -0.2904 -0.2424  0.0553
 9949WAT     H140502   1.928   5.490   6.777 -1.6101 -0.9778 -0.4011
 9949WAT     H240503   1.891   5.559   6.664  1.2158  1.0527 -0.2172
 9949WAT    EPW40504   1.900   5.555   6.742 -0.4195  0.0543 -0.0016
 9950WAT      O40505   3.035   4.040   1.632 -0.5178 -0.1363  0.0224
 9950WAT     H140506   3.073   4.012   1.705 -0.0559  1.2686  0.3605
 9950WAT     H240507   2.972   3.981   1.617  0.3057 -1.2335  0.7390
 9950WAT    EPW40508   3.031   4.027   1.640  0.6987 -1.0065 -0.5300
 9951WAT      O40509   2.122   3.588   7.566 -0.4775 -0.3737  0.2765
 9951WAT     H140510   2.210   3.590   7.567 -0.4757 -0.2637  1.0960
 9951WAT     H240511   2.103   3.518   7.518  0.0618 -0.3333 -0.0033
 9951WAT    EPW40512   2.132   3.578   7.559 -0.5172  0.3298 -0.4367
 9952WAT      O40513   1.357   3.427   1.019 -0.0242  0.2575 -0.0222
 9952WAT     H140514   1.274   3.452   1.009  0.1081  0.8291  0.2856
 9952WAT     H240515   1.402   3.486   0.975  0.1647 -0.6938 -1.1439
 9952WAT    EPW40516   1.351   3.439   1.011  0.9840 -0.2076 -0.0870
 9953WAT      O40517   2.010   3.795   7.393 -0.1006 -0.0951  0.2060
 9953WAT     H140518   1.991   3.757   7.317  0.2474  0.0810  0.0281
 9953WAT     H240519   2.062   3.738   7.433  1.0250  0.4879 -0.3726
 9953WAT    EPW40520   2.015   3.781   7.388 -0.0918  0.3324  0.3365
 9954WAT      O40521   0.394   1.992   0.043  0.0513  0.0836  0.3223
 9954WAT     H140522   0.428   1.968   0.120  1.5627 -0.0985 -0.3765
 9954WAT     H240523   0.461   1.987  -0.012 -0.8687  0.7608 -0.9153
 9954WAT    EPW40524   0.409   1.988   0.046 -0.5485 -0.1738 -0.1478
 9955WAT      O40525   3.409   4.154   0.249 -0.7735  0.2383 -0.2875
 9955WAT     H140526   3.342   4.194   0.287 -0.7704 -0.5059  0.5301
 9955WAT     H240527   3.460   4.131   0.315 -0.2270 -0.1237 -0.8208
 9955WAT    EPW40528   3.406   4.156   0.264 -0.2714 -1.0478 -0.4007
 9956WAT      O40529   1.156   3.087   1.654  0.0982 -0.2441  0.1464
 9956WAT     H140530   1.071   3.068   1.654  0.2999 -1.2467 -0.5006
 9956WAT     H240531   1.181   3.065   1.573  1.0907 -0.5644  0.5283
 9956WAT    EPW40532   1.147   3.081   1.642  0.1644  0.0154  0.2469
 9957WAT      O40533   2.004   3.226   0.289  0.1852 -0.0178  0.1751
 9957WAT     H140534   1.952   3.194   0.351  0.9856  1.1497  1.4966
 9957WAT     H240535   2.068   3.167   0.283 -0.3658 -0.6001 -0.2541
 9957WAT    EPW40536   2.006   3.213   0.297  0.1217 -0.6051  0.7152
 9958WAT      O40537   0.759   1.944   0.611  0.4834 -0.3921 -0.2259
 9958WAT     H140538   0.788   1.872   0.650 -2.4985 -1.3640  0.4679
 9958WAT     H240539   0.751   2.001   0.677 -2.4792 -1.3374  0.3690
 9958WAT    EPW40540   0.762   1.942   0.626  0.3915 -0.6934  0.3751
 9959WAT      O40541   0.827   3.530   7.872 -0.4741 -0.2016  0.4771
 9959WAT     H140542   0.909   3.557   7.856 -0.5525  0.3048  0.8795
 9959WAT     H240543   0.782   3.605   7.871 -1.0942 -0.5610 -0.6438
 9959WAT    EPW40544   0.833   3.545   7.869 -0.1458  0.3840 -0.5264
 9960WAT      O40545   2.263   2.978   7.500  0.5131 -0.5290  0.3989
 9960WAT     H140546   2.293   2.896   7.501 -1.1239 -1.1675  1.8586
 9960WAT     H240547   2.267   3.002   7.583  0.1658  0.5667  0.1137
 9960WAT    EPW40548   2.268   2.969   7.512  0.2826  0.2575 -0.0332
 9961WAT      O40549   7.709   3.146   1.507  0.1875  0.6024 -0.3178
 9961WAT     H140550   7.782   3.188   1.526  0.6106  0.4404 -1.4789
 9961WAT     H240551   7.668   3.138   1.584  1.3502  0.7498  0.3282
 9961WAT    EPW40552   7.714   3.151   1.521 -0.1986  0.4800 -0.0419
 9962WAT      O40553   1.513   4.112   7.707  0.8207  0.0990 -0.6861
 9962WAT     H140554   1.450   4.053   7.722  2.0845 -0.7745  1.8028
 9962WAT     H240555   1.539   4.094   7.625 -0.9866 -0.6243 -1.1516
 9962WAT    EPW40556   1.508   4.100   7.697  1.1012 -0.0507  0.3835
 9963WAT      O40557   1.791   3.903   1.579  0.2601 -0.2983  0.1777
 9963WAT     H140558   1.759   3.843   1.525  0.8079 -1.5600  1.1941
 9963WAT     H240559   1.794   3.975   1.531  1.2261 -1.4723 -1.6381
 9963WAT    EPW40560   1.787   3.905   1.564 -0.0366  0.2226 -0.0295
 9964WAT      O40561   2.200   6.092   7.653  0.1121  0.1665  0.1909
 9964WAT     H140562   2.222   6.010   7.633  0.9560  0.8444 -1.9043
 9964WAT     H240563   2.228   6.101   7.735  1.7949 -1.0732 -0.1839
 9964WAT    EPW40564   2.207   6.081   7.662 -0.4798  0.3757 -0.1625
 9965WAT      O40565   3.022   4.574   0.399  0.2392  0.3452 -0.1062
 9965WAT     H140566   2.989   4.613   0.329  0.4994 -1.4889 -1.3078
 9965WAT     H240567   2.953   4.535   0.436  0.2254  0.7030  0.2488
 9965WAT    EPW40568   3.007   4.574   0.394 -0.3044 -0.6552  0.6026
 9966WAT      O40569   1.015   4.151   1.521 -0.1613 -0.0711  0.0480
 9966WAT     H140570   0.956   4.092   1.547 -1.3778  1.2413  0.3713
 9966WAT     H240571   1.052   4.113   1.451 -1.3189 -0.9588 -0.1150
 9966WAT    EPW40572   1.012   4.137   1.514  0.0756 -0.0561 -0.5826
 9967WAT      O40573   3.198   3.293   1.549  0.2289 -0.2875  0.1214
 9967WAT     H140574   3.152   3.307   1.476  2.8111  0.9831 -1.3735
 9967WAT     H240575   3.239   3.218   1.533  2.7075  1.1798 -0.8996
 9967WAT    EPW40576   3.197   3.284   1.536  0.5292 -1.3509 -0.7477
 9968WAT      O40577   1.134   3.874   7.949 -0.2914  0.4393  0.2158
 9968WAT     H140578   1.191   3.863   8.014  0.5176  0.0877 -0.5348
 9968WAT     H240579   1.130   3.795   7.912 -2.1211  0.1579  0.9291
 9968WAT    EPW40580   1.142   3.861   7.953  0.5814 -0.1300 -0.3446
 9969WAT      O40581   2.969   4.951   7.715  1.1784 -0.0575  0.3728
 9969WAT     H140582   2.987   4.888   7.773 -0.0935 -1.0784 -0.2899
 9969WAT     H240583   2.953   4.907   7.641 -0.1298  0.9945 -0.0170
 9969WAT    EPW40584   2.969   4.935   7.712 -0.6188 -0.1609 -0.0188
 9970WAT      O40585   3.183   3.366   0.545  0.2703 -0.4951  0.4251
 9970WAT     H140586   3.112   3.406   0.576  0.2124 -0.3862  0.1544
 9970WAT     H240587   3.242   3.377   0.609  1.1145  2.4137 -0.6715
 9970WAT    EPW40588   3.182   3.374   0.559  0.2628  0.4799 -0.6451
 9971WAT      O40589   1.962   3.698   0.661 -0.4881 -0.1383  0.2935
 9971WAT     H140590   1.914   3.763   0.628  1.1107  2.5473  2.7217
 9971WAT     H240591   2.042   3.714   0.630  0.0248 -0.6739  1.2887
 9971WAT    EPW40592   1.967   3.710   0.652  0.2404 -0.5017 -0.4884
 9972WAT      O40593   1.847   5.626   5.375 -0.0350  0.7071 -0.7467
 9972WAT     H140594   1.796   5.572   5.420 -0.7620  2.3844  0.5544
 9972WAT     H240595   1.872   5.578   5.306  0.6238 -1.7647  1.0769
 9972WAT    EPW40596   1.843   5.611   5.371 -0.2227 -0.5586  0.2047
 9973WAT      O40597   1.907   3.648   0.103  0.1062  0.7238  0.2261
 9973WAT     H140598   1.882   3.645   0.186 -2.0933  0.7028 -0.3614
 9973WAT     H240599   1.905   3.564   0.078 -0.4654  0.8413 -0.1494
 9973WAT    EPW40600   1.903   3.635   0.111  0.3939 -0.5380 -0.3012
 9974WAT      O40601   2.403   3.225   0.129  0.2997  0.1934  0.1299
 9974WAT     H140602   2.350   3.160   0.153 -3.5853  2.8117 -0.2996
 9974WAT     H240603   2.396   3.282   0.194 -0.6809  2.2706 -1.6597
 9974WAT    EPW40604   2.394   3.224   0.142  0.2942 -0.3543 -0.9586
 9975WAT      O40605   0.357   3.471   7.738  0.0859 -0.0834 -0.7017
 9975WAT     H140606   0.300   3.438   7.681  0.4751 -0.9014 -0.6322
 9975WAT     H240607   0.423   3.498   7.689 -0.0732  0.2661 -0.7274
 9975WAT    EPW40608   0.359   3.470   7.723 -0.2099  0.6353  0.0806
 9976WAT      O40609   1.813   3.328   7.857 -0.2236 -0.3411  0.3716
 9976WAT     H140610   1.863   3.398   7.839 -0.5514 -0.2336 -0.1512
 9976WAT     H240611   1.830   3.312   7.941 -0.0549  0.2975  0.4663
 9976WAT    EPW40612   1.823   3.336   7.867 -0.6443 -0.8476  0.2444
 9977WAT      O40613   3.631   3.441   0.263 -0.4027  0.1245 -0.0393
 9977WAT     H140614   3.574   3.415   0.202  0.0506  0.7675 -0.7644
 9977WAT     H240615   3.701   3.390   0.249 -0.8154 -0.7338  0.9135
 9977WAT    EPW40616   3.633   3.430   0.252  0.1043 -0.1141 -0.0823
 9978WAT      O40617   3.614   5.568   1.348  0.2401  0.0732  0.3129
 9978WAT     H140618   3.653   5.507   1.299 -0.5216  0.8425 -1.3287
 9978WAT     H240619   3.677   5.627   1.361  0.5153 -0.2550  0.4958
 9978WAT    EPW40620   3.629   5.568   1.342 -0.3014  0.5336  0.1605
 9979WAT      O40621   0.651   3.366   0.996  0.5998 -0.5132  0.1750
 9979WAT     H140622   0.620   3.380   1.077 -1.1885 -3.3984  0.1439
 9979WAT     H240623   0.731   3.335   1.011  1.1957  1.1299  0.6383
 9979WAT    EPW40624   0.658   3.364   1.010  0.2938  0.1059 -0.2636
 9980WAT      O40625   1.794   4.909   0.063 -0.2628 -0.5547  0.2047
 9980WAT     H140626   1.734   4.957   0.021  0.0520  1.2253  1.6417
 9980WAT     H240627   1.752   4.881   0.133  0.3666  0.2029  0.9146
 9980WAT    EPW40628   1.779   4.912   0.067 -0.2661  0.4241 -0.5493
 9981WAT      O40629   0.853   2.031   0.325 -0.6996 -0.3618  0.7503
 9981WAT     H140630   0.854   1.976   0.257 -0.0047 -0.5845  0.9334
 9981WAT     H240631   0.836   1.978   0.393  0.2436 -0.4076  0.9653
 9981WAT    EPW40632   0.850   2.015   0.325 -0.0204 -0.3633 -0.1539
 9982WAT      O40633   2.324   2.921   1.608  0.3601  0.2344  0.5717
 9982WAT     H140634   2.376   2.872   1.558  0.6973  0.4396  0.7146
 9982WAT     H240635   2.318   2.875   1.682  0.8003  0.4795  0.7614
 9982WAT    EPW40636   2.331   2.907   1.611  0.9155  0.2735  0.2516
 9983WAT      O40637   1.335   4.272   1.918  0.1497  0.0222 -0.1504
 9983WAT     H140638   1.309   4.201   1.962 -2.6374  1.2474  0.4300
 9983WAT     H240639   1.412   4.249   1.885 -1.5118 -4.0795 -1.8317
 9983WAT    EPW40640   1.342   4.258   1.919 -0.0823  0.1491 -0.1279
 9984WAT      O40641   2.131   3.466   0.253 -0.2769  0.0530  0.1356
 9984WAT     H140642   2.082   3.396   0.271 -0.5391 -0.1493 -1.2127
 9984WAT     H240643   2.211   3.432   0.241 -0.2450  0.0915  0.2384
 9984WAT    EPW40644   2.136   3.451   0.254 -1.4152  0.6294 -0.0361
 9985WAT      O40645   0.285   4.015   0.111  0.2245  0.0273  0.1976
 9985WAT     H140646   0.337   3.984   0.048  0.5615 -1.6133  1.2328
 9985WAT     H240647   0.339   4.062   0.161  0.1986  0.3584 -0.0844
 9985WAT    EPW40648   0.301   4.017   0.109  0.6570  0.6814  0.1772
 9986WAT      O40649   0.510   4.117   0.255 -0.1577 -0.0727 -0.1650
 9986WAT     H140650   0.581   4.147   0.214  2.2063 -1.5319  2.4313
 9986WAT     H240651   0.476   4.188   0.292 -0.4908  0.7477 -1.9496
 9986WAT    EPW40652   0.516   4.132   0.255  0.0820  0.2688 -1.0975
 9987WAT      O40653   2.397   3.612   7.570  0.1739  0.2526 -0.2777
 9987WAT     H140654   2.430   3.691   7.588 -1.3085  0.3169  2.9108
 9987WAT     H240655   2.443   3.558   7.622  1.9862 -1.3344 -3.2401
 9987WAT    EPW40656   2.408   3.615   7.581 -0.1007  0.2549  0.1808
 9988WAT      O40657   2.555   3.076   7.815 -0.3212 -0.0761  0.2740
 9988WAT     H140658   2.468   3.074   7.808 -0.3933  1.1283  0.6618
 9988WAT     H240659   2.581   3.123   7.747 -0.0654  0.5250  0.7768
 9988WAT    EPW40660   2.546   3.083   7.804 -0.2347 -0.5839 -1.0471
 9989WAT      O40661   1.886   2.397   1.582  0.5236  0.5342 -0.0462
 9989WAT     H140662   1.892   2.455   1.517 -1.8667  0.9730  0.0089
 9989WAT     H240663   1.819   2.346   1.557  0.2666  0.0362  1.5415
 9989WAT    EPW40664   1.877   2.398   1.569  0.3389  0.0182  0.1576
 9990WAT      O40665   1.269   3.471   0.075  0.2845  0.6005  0.0477
 9990WAT     H140666   1.266   3.543   0.124 -1.1989  0.1074  0.7289
 9990WAT     H240667   1.187   3.461   0.048  0.5502 -0.6257 -0.3732
 9990WAT    EPW40668   1.256   3.480   0.078 -0.0178  0.4271 -0.2064
 9991WAT      O40669   7.949   3.854   7.532 -0.1711  0.6051 -0.0919
 9991WAT     H140670   7.866   3.875   7.518 -0.1340  0.0582 -1.2612
 9991WAT     H240671   7.978   3.919   7.583 -1.7143 -0.0549  1.7577
 9991WAT    EPW40672   7.941   3.867   7.538  0.1661 -0.0556  0.3439
 9992WAT      O40673   3.378   2.334   0.998 -0.4480  0.3681 -0.2137
 9992WAT     H140674   3.314   2.294   1.042 -0.4143 -0.9731 -1.3061
 9992WAT     H240675   3.335   2.379   0.937 -0.4900  2.1491  1.0641
 9992WAT    EPW40676   3.362   2.335   0.996 -0.6765  0.1109  0.6607
 9993WAT      O40677   1.126   4.014   0.302  0.2881  0.2738  0.6028
 9993WAT     H140678   1.129   4.093   0.266 -0.5172  0.2893  0.5634
 9993WAT     H240679   1.083   4.026   0.376 -1.3342 -0.4038 -0.1828
 9993WAT    EPW40680   1.120   4.027   0.308  0.1530  0.0181 -0.5938
 9994WAT      O40681   0.793   4.474   7.559 -0.0706  0.3293  0.2317
 9994WAT     H140682   0.711   4.505   7.554 -0.3758 -0.6651 -1.4720
 9994WAT     H240683   0.830   4.501   7.485  1.2847  1.0199  1.1113
 9994WAT    EPW40684   0.786   4.483   7.547  0.2058  0.3561 -0.0382
 9995WAT      O40685   2.284   3.138   7.740 -0.5511 -0.5934 -0.3482
 9995WAT     H140686   2.235   3.088   7.792 -1.6600 -0.9278 -1.6448
 9995WAT     H240687   2.303   3.207   7.790 -1.5778 -0.8984  0.5091
 9995WAT    EPW40688   2.279   3.141   7.755 -0.2320 -0.5361  0.0727
 9996WAT      O40689   1.780   4.712   7.745 -0.5616 -0.1521 -0.1700
 9996WAT     H140690   1.811   4.720   7.664  0.5300 -0.6878  0.1799
 9996WAT     H240691   1.828   4.769   7.791 -0.9309 -0.1055  0.1669
 9996WAT    EPW40692   1.791   4.722   7.740 -0.7790 -0.6884 -0.5953
 9997WAT      O40693   1.759   2.572   7.842  0.8961  0.5916  0.7150
 9997WAT     H140694   1.794   2.492   7.832 -0.6962 -0.0028 -0.8194
 9997WAT     H240695   1.673   2.557   7.835  0.5680  2.4828  0.0804
 9997WAT    EPW40696   1.751   2.558   7.839 -0.6719 -0.9372 -0.5294
 9998WAT      O40697   1.507   3.136   0.377  0.5058  0.0082  0.2392
 9998WAT     H140698   1.547   3.075   0.426 -0.0053  0.6892  1.5379
 9998WAT     H240699   1.560   3.205   0.382  0.6138 -0.0143 -0.4624
 9998WAT    EPW40700   1.521   3.137   0.385 -0.0986 -0.9677 -0.2004
 9999WAT      O40701   1.317   3.170   0.907 -0.1412 -0.2198  0.2193
 9999WAT     H140702   1.240   3.205   0.886  0.7147  1.1141 -0.8907
 9999WAT     H240703   1.362   3.237   0.940  0.6709 -0.8928  0.5274
 9999WAT    EPW40704   1.312   3.185   0.908 -0.9053 -0.5388 -1.7517
10000WAT      O40705   0.706   3.755   7.903  0.1223 -0.7330 -0.0950
10000WAT     H140706   0.622   3.779   7.905 -0.2238 -1.9050  0.4977
10000WAT     H240707   0.749   3.831   7.898 -0.9866 -0.1693 -1.5369
10000WAT    EPW40708   0.700   3.769   7.903  0.5571 -0.6947 -0.2448
10001WAT      O40709   0.272   2.686   0.688  0.0667 -0.3259 -0.5879
10001WAT     H140710   0.357   2.667   0.696  0.0684 -0.0546  0.0598
10001WAT     H240711   0.265   2.707   0.603  0.3314 -1.8052 -0.9964
10001WAT    EPW40712   0.284   2.686   0.677  0.1026 -0.1592 -0.0452
10002WAT      O40713   2.173   2.210   0.119 -0.2141 -0.0825 -0.0751
10002WAT     H140714   2.156   2.190   0.202 -0.2811  2.5170  0.6388
10002WAT     H240715   2.120   2.159   0.073 -1.0907 -0.6810  1.5561
10002WAT    EPW40716   2.163   2.200   0.124  0.6509 -0.0138 -0.3913
10003WAT      O40717   1.679   4.481   0.589 -0.2823  0.6169  0.1570
10003WAT     H140718   1.721   4.443   0.522 -1.5481 -0.5458 -0.0327
10003WAT     H240719   1.741   4.529   0.628  0.5682  1.1026 -1.6670
10003WAT    EPW40720   1.695   4.482   0.585  0.1363 -0.1387 -0.3720
10004WAT      O40721   3.482   5.051   7.587  0.1472 -0.1332  0.1924
10004WAT     H140722   3.423   5.116   7.585  2.1285  1.8664  1.3481
10004WAT     H240723   3.436   4.982   7.614 -1.8756  1.0127 -0.0754
10004WAT    EPW40724   3.466   5.051   7.591 -0.4178 -0.2363  0.2106
10005WAT      O40725   2.055   5.019   0.680 -0.2261 -0.0481 -0.6471
10005WAT     H140726   2.033   4.937   0.658  1.3558 -1.0626  1.2112
10005WAT     H240727   2.122   5.037   0.628  0.9380 -0.9116  0.4659
10005WAT    EPW40728   2.062   5.009   0.669 -0.2733  0.2902 -0.5475
10006WAT      O40729   2.682   4.522   7.266  0.0996 -0.1211 -0.2784
10006WAT     H140730   2.679   4.453   7.213 -3.9394 -0.2907 -0.1540
10006WAT     H240731   2.623   4.503   7.328  0.5436  2.4681  1.0826
10006WAT    EPW40732   2.673   4.509   7.268  0.5610 -0.3885 -0.0894
10007WAT      O40733   0.336   3.130   7.798  0.0742 -0.4748 -0.4411
10007WAT     H140734   0.321   3.173   7.873 -0.2318  0.0967 -0.8237
10007WAT     H240735   0.395   3.180   7.757 -2.3460  1.2175 -2.1721
10007WAT    EPW40736   0.342   3.144   7.803 -0.3510  0.6200 -0.3093
10008WAT      O40737   2.846   4.739   6.369 -0.3913  0.3334  0.0380
10008WAT     H140738   2.800   4.799   6.325  1.0671  1.0320 -0.5850
10008WAT     H240739   2.874   4.684   6.308 -1.3184 -0.7677  0.5523
10008WAT    EPW40740   2.843   4.740   6.354 -0.3512 -0.2218 -1.0513
10009WAT      O40741   1.556   4.931   7.222 -0.5873 -0.5032  0.0091
10009WAT     H140742   1.546   4.974   7.146  0.0588  0.3779  0.4103
10009WAT     H240743   1.635   4.955   7.250  0.2044 -2.6823 -0.1775
10009WAT    EPW40744   1.566   4.941   7.215  0.7106 -0.0108 -0.0145
10010WAT      O40745   1.188   2.771   7.508 -0.2023  0.7007  0.6006
10010WAT     H140746   1.208   2.715   7.444 -0.1635  1.0274  0.3202
10010WAT     H240747   1.216   2.848   7.477  0.4973  0.7465  1.3361
10010WAT    EPW40748   1.195   2.774   7.494  0.0142  0.2803  0.0098
10011WAT      O40749   3.197   4.897   7.336 -0.0246  0.3403  0.0393
10011WAT     H140750   3.189   4.845   7.267 -1.6047  0.4586  0.0976
10011WAT     H240751   3.269   4.868   7.376  2.1239  1.5082 -2.6449
10011WAT    EPW40752   3.207   4.885   7.332  0.3814 -0.1360 -1.7648
10012WAT      O40753   0.759   1.805   7.827 -0.0553  0.4540  0.0715
10012WAT     H140754   0.725   1.725   7.826 -2.0763  1.2542 -1.2057
10012WAT     H240755   0.838   1.793   7.864  0.1556 -2.2626 -1.0095
10012WAT    EPW40756   0.766   1.792   7.832  0.1352  0.1877 -0.9603
10013WAT      O40757   3.512   4.424   0.245  0.5223 -0.3764  0.0099
10013WAT     H140758   3.464   4.352   0.241 -0.4937  0.3284 -1.8131
10013WAT     H240759   3.470   4.474   0.303  0.2660 -0.5827  0.0028
10013WAT    EPW40760   3.499   4.421   0.253 -0.4129  0.0719 -0.3089
10014WAT      O40761   2.254   6.201   7.902 -0.4655 -0.0770  0.2043
10014WAT     H140762   2.246   6.287   7.891 -0.8277  0.0773  1.4639
10014WAT     H240763   2.173   6.176   7.923 -0.2556 -0.6406  0.3441
10014WAT    EPW40764   2.241   6.210   7.904  0.2842 -0.4205 -0.2202
10015WAT      O40765   1.790   3.704   0.883 -0.2587 -0.2172 -0.1324
10015WAT     H140766   1.772   3.784   0.911  0.9962  0.4595 -1.1544
10015WAT     H240767   1.835   3.717   0.810 -0.0102 -1.8578 -0.3177
10015WAT    EPW40768   1.794   3.718   0.876 -0.5604 -0.5005 -0.3813
10016WAT      O40769   2.128   7.055   7.001 -0.1205 -0.6058  0.3732
10016WAT     H140770   2.214   7.067   6.992  0.2180 -1.4726  1.9595
10016WAT     H240771   2.101   7.127   7.043 -0.1888 -0.3150 -0.1619
10016WAT    EPW40772   2.136   7.068   7.006  0.1643 -0.3326  0.3907
10017WAT      O40773   0.266   3.704   7.886 -0.6461 -0.1047  0.5779
10017WAT     H140774   0.276   3.642   7.826 -1.8641  0.6550 -0.4547
10017WAT     H240775   0.180   3.711   7.895 -0.5084  0.6172  1.5721
10017WAT    EPW40776   0.255   3.696   7.879  0.6007  0.1190  0.7342
10018WAT      O40777   2.355   4.292   6.477  0.3433 -0.2229 -0.5639
10018WAT     H140778   2.325   4.292   6.395  1.3832 -0.5625 -0.9599
10018WAT     H240779   2.298   4.242   6.519  0.1062 -0.5084 -1.2104
10018WAT    EPW40780   2.342   4.285   6.471 -0.2315 -0.0908 -0.2467
10019WAT      O40781   3.259   3.838   7.587 -0.0501  0.4228 -0.4342
10019WAT     H140782   3.343   3.843   7.561 -0.6172 -0.7136 -2.7555
10019WAT     H240783   3.247   3.914   7.630  2.5476 -0.0759  1.4303
10019WAT    EPW40784   3.270   3.850   7.589  0.0954  0.0921 -0.3289
10020WAT      O40785   1.468   2.353   0.029  0.4709  0.0087  0.2431
10020WAT     H140786   1.428   2.421  -0.008  0.3235 -0.1400  0.1284
10020WAT     H240787   1.408   2.322   0.085  0.2260 -0.5364 -0.3117
10020WAT    EPW40788   1.453   2.359   0.032 -0.2623  0.1530 -0.3626
10021WAT      O40789   0.433   3.491   0.348  0.7472  0.6912  0.3610
10021WAT     H140790   0.348   3.478   0.355  0.6442 -0.2561 -1.7819
10021WAT     H240791   0.467   3.411   0.358  1.2711  0.8730  0.0802
10021WAT    EPW40792   0.426   3.477   0.350  0.6370  0.1452 -0.2323
10022WAT      O40793   3.754   5.613   0.660  0.1037 -0.1674  0.2385
10022WAT     H140794   3.681   5.656   0.640  0.2989  0.1665  0.2246
10022WAT     H240795   3.794   5.603   0.583 -0.2923 -1.0427  0.1372
10022WAT    EPW40796   3.749   5.618   0.646  0.9657  0.0557  0.1774
10023WAT      O40797   3.818   3.171   7.856 -0.4504  0.3467  0.1224
10023WAT     H140798   3.899   3.140   7.856 -0.3528  0.6066 -0.3470
10023WAT     H240799   3.778   3.127   7.792 -0.5217  0.6385 -0.0350
10023WAT    EPW40800   3.824   3.160   7.847  0.9309 -0.0308  0.2755
10024WAT      O40801   3.486   4.428   7.513 -0.1005  0.5708  0.3741
10024WAT     H140802   3.437   4.489   7.474  0.4971  0.8309  0.0135
10024WAT     H240803   3.565   4.440   7.478 -0.0517 -0.6710 -0.0016
10024WAT    EPW40804   3.490   4.439   7.502  0.3227  0.4443  1.1018
10025WAT      O40805   2.542   2.892   0.121  0.5858 -0.4443 -0.2257
10025WAT     H140806   2.562   2.970   0.155  1.9381 -1.4985  1.6279
10025WAT     H240807   2.579   2.836   0.177 -1.6327 -2.4781 -0.6383
10025WAT    EPW40808   2.551   2.896   0.134  0.6197  0.0915 -0.2302
10026WAT      O40809   2.598   6.260   7.086  0.1699  0.3971 -0.8676
10026WAT     H140810   2.629   6.233   7.163 -0.2574 -0.3667 -0.9577
10026WAT     H240811   2.518   6.290   7.106  0.2314  0.6171 -0.9462
10026WAT    EPW40812   2.591   6.261   7.100  0.0659 -0.3074 -0.0972
10027WAT      O40813   2.816   3.224   1.217 -0.0410  0.0426 -0.3460
10027WAT     H140814   2.813   3.202   1.301  1.4653 -2.2522 -0.7858
10027WAT     H240815   2.736   3.205   1.187 -0.3676  0.2013  0.4126
10027WAT    EPW40816   2.804   3.218   1.225 -0.3988  0.7977  0.6130
10028WAT      O40817   1.660   3.363   0.385 -0.2945  0.1016 -0.3511
10028WAT     H140818   1.648   3.374   0.471 -1.5859  0.3741 -0.5585
10028WAT     H240819   1.745   3.344   0.380 -0.4300 -1.1242  1.1050
10028WAT    EPW40820   1.671   3.362   0.397 -0.6269 -0.4285  0.4367
10029WAT      O40821   2.684   2.738   0.319  0.0696 -0.4624 -0.2313
10029WAT     H140822   2.616   2.770   0.363  0.8912  0.2571  0.5516
10029WAT     H240823   2.702   2.663   0.360 -1.0956 -1.3778 -1.3118
10029WAT    EPW40824   2.677   2.732   0.332 -0.7034 -0.4529  0.5319
10030WAT      O40825   2.178   2.559   7.676 -0.0146 -0.2170 -0.4344
10030WAT     H140826   2.239   2.615   7.650 -0.1128 -0.3264 -0.9240
10030WAT     H240827   2.105   2.606   7.675 -0.2427 -0.5450 -1.6769
10030WAT    EPW40828   2.176   2.574   7.672  0.6929  0.1908 -0.1440
10031WAT      O40829   3.590   3.942   0.688 -0.1445 -0.5154 -0.1238
10031WAT     H140830   3.630   3.939   0.766 -0.6369 -1.4929  0.1081
10031WAT     H240831   3.546   4.017   0.691  0.4991 -0.1372  0.1995
10031WAT    EPW40832   3.590   3.953   0.700  0.5585  0.1713 -0.0792
10032WAT      O40833   0.554   3.237   0.368  0.3416 -0.1977  0.2687
10032WAT     H140834   0.629   3.242   0.323 -0.2280 -0.1269 -0.7184
10032WAT     H240835   0.501   3.192   0.314 -1.3592  2.5686 -0.6147
10032WAT    EPW40836   0.557   3.231   0.353  0.4920  0.5883 -0.9739
10033WAT      O40837   1.498   4.415   0.247 -0.3141 -0.1855  0.0435
10033WAT     H140838   1.509   4.329   0.237 -2.2882 -0.4840  0.0239
10033WAT     H240839   1.478   4.423   0.332  1.9533  0.5725  0.5922
10033WAT    EPW40840   1.497   4.403   0.258  0.3487 -0.5073 -0.5726
10034WAT      O40841   3.596   5.080   7.994 -0.8033  0.1775 -0.0120
10034WAT     H140842   3.618   5.155   7.956  0.8798  0.8027  2.0067
10034WAT     H240843   3.512   5.091   8.013 -1.1141  0.6942 -1.5406
10034WAT    EPW40844   3.587   5.093   7.991 -0.0572 -0.4108 -0.6964
10035WAT      O40845   2.484   4.337   0.065 -0.4124 -0.6486 -0.0487
10035WAT     H140846   2.430   4.365   0.127  0.8816  1.8052  0.1019
10035WAT     H240847   2.552   4.392   0.070  0.0423 -0.7102 -3.1780
10035WAT    EPW40848   2.486   4.349   0.075 -0.5589 -0.9783 -0.4691
10036WAT      O40849   3.263   3.548   7.242  0.4853 -0.1130  0.2892
10036WAT     H140850   3.303   3.615   7.279 -0.7284 -0.2713  1.9745
10036WAT     H240851   3.179   3.562   7.259  0.1275 -1.5795 -0.1234
10036WAT    EPW40852   3.256   3.560   7.250 -0.6897 -0.1123 -0.2382
10037WAT      O40853   2.613   5.461   0.893  0.1045 -0.1665  0.0698
10037WAT     H140854   2.681   5.408   0.881 -0.0665 -1.0850  2.5823
10037WAT     H240855   2.546   5.407   0.902 -0.4117  0.5596  0.7333
10037WAT    EPW40856   2.613   5.445   0.892 -0.8720  0.5721  0.0485
10038WAT      O40857   0.888   3.996   7.974 -0.3373  0.1747 -0.0752
10038WAT     H140858   0.887   4.058   7.913  1.5119  0.0674 -0.2744
10038WAT     H240859   0.967   3.959   7.965 -0.8638 -1.3060  0.9314
10038WAT    EPW40860   0.900   4.000   7.964  0.0694  0.1681  0.3703
10039WAT      O40861   0.524   2.879   0.351 -0.5367 -0.1943  0.2401
10039WAT     H140862   0.506   2.794   0.344  0.1070 -0.4861  1.6918
10039WAT     H240863   0.508   2.896   0.436  1.3543  0.6320  0.4855
10039WAT    EPW40864   0.519   2.869   0.363 -0.3200 -0.4994  0.9214
10040WAT      O40865   2.186   4.350   7.774 -0.0546  0.4072  0.0170
10040WAT     H140866   2.106   4.327   7.746  0.7959 -1.6762 -0.9536
10040WAT     H240867   2.175   4.363   7.859 -1.3798 -0.1986 -0.0310
10040WAT    EPW40868   2.173   4.348   7.782  0.1383 -0.0401  0.0312
10041WAT      O40869   3.464   3.607   0.587 -0.3882 -0.2143  0.0184
10041WAT     H140870   3.458   3.655   0.514 -0.3210  0.7378  0.6272
10041WAT     H240871   3.443   3.663   0.650 -2.0288 -1.4105  0.6199
10041WAT    EPW40872   3.460   3.622   0.586 -0.6443  0.7148  0.0607
10042WAT      O40873   3.141   4.699   7.146  0.1949  0.2769 -0.1305
10042WAT     H140874   3.208   4.700   7.090  0.3946 -0.9181  0.0698
10042WAT     H240875   3.074   4.730   7.098  0.1864 -1.4056 -1.2887
10042WAT    EPW40876   3.141   4.704   7.130 -0.1300  0.6460  0.0262
10043WAT      O40877   1.422   2.973   0.781  0.0020 -0.1288 -0.2903
10043WAT     H140878   1.374   3.026   0.831 -0.5895 -1.6486  0.8352
10043WAT     H240879   1.486   2.947   0.835  0.2109 -0.6672 -0.7857
10043WAT    EPW40880   1.425   2.977   0.796 -1.0087 -0.2087  0.3204
10044WAT      O40881   3.975   3.921   7.799 -0.5667  0.6058  0.0473
10044WAT     H140882   3.901   3.882   7.774 -0.0733  0.4191 -1.1550
10044WAT     H240883   4.036   3.859   7.789  0.1189  1.4562 -1.2623
10044WAT    EPW40884   3.973   3.906   7.794 -0.1034 -0.2740 -0.2460
10045WAT      O40885   1.909   2.944   7.747  0.1466 -0.4221 -0.1892
10045WAT     H140886   1.912   2.999   7.680  0.5312 -0.2797 -0.0542
10045WAT     H240887   1.824   2.924   7.753 -0.1312  0.7838  0.2605
10045WAT    EPW40888   1.897   2.949   7.738  0.3687 -0.2359 -1.1803
10046WAT      O40889   2.903   2.899   0.278 -0.0627 -0.0795 -0.0303
10046WAT     H140890   2.843   2.840   0.302 -2.1401  0.7346 -2.7414
10046WAT     H240891   2.860   2.951   0.222  2.7458  1.6207 -0.8228
10046WAT    EPW40892   2.888   2.898   0.273 -0.4820 -0.2787 -0.2541
10047WAT      O40893   8.060   3.654   7.913 -0.0428 -0.1584  0.1952
10047WAT     H140894   8.047   3.608   7.840  0.2129  1.7009 -1.0827
10047WAT     H240895   7.984   3.648   7.955 -0.8148  0.1920 -1.0915
10047WAT    EPW40896   8.047   3.646   7.909  0.5018  0.3912  0.6972
10048WAT      O40897   3.773   3.718   1.111  0.1584 -0.3421 -0.1262
10048WAT     H140898   3.705   3.673   1.080 -1.0321  0.3304  1.3842
10048WAT     H240899   3.836   3.659   1.117  0.8152 -0.4092 -4.4912
10048WAT    EPW40900   3.772   3.703   1.107 -0.3487 -0.6749 -0.1736
10049WAT      O40901   2.227   5.511   7.891 -0.1178 -0.1383 -0.1868
10049WAT     H140902   2.211   5.521   7.976 -0.8150 -0.1487 -0.3068
10049WAT     H240903   2.235   5.592   7.862  0.5953 -0.1495 -0.0289
10049WAT    EPW40904   2.226   5.524   7.899  0.3298  0.2290 -1.0589
10050WAT      O40905   2.578   4.095   7.619  0.6086  0.1712 -0.3148
10050WAT     H140906   2.550   4.018   7.649  3.8950 -1.6080 -1.2314
10050WAT     H240907   2.555   4.152   7.681 -1.0097 -1.7048  0.9114
10050WAT    EPW40908   2.571   4.092   7.632 -0.5216  0.6516 -0.3115
10051WAT      O40909   3.565   5.044   6.818  0.3036  0.2035 -0.0111
10051WAT     H140910   3.643   5.006   6.811  0.8063  1.3704 -1.2759
10051WAT     H240911   3.580   5.126   6.792 -1.3557  0.4395 -0.3208
10051WAT    EPW40912   3.579   5.051   6.813  0.2416 -0.2480  0.5661
10052WAT      O40913   3.160   4.458   0.079  0.1619  0.4364  0.6046
10052WAT     H140914   3.120   4.393   0.121  0.1926 -0.6950 -1.0213
10052WAT     H240915   3.182   4.422   0.002  2.2146  1.6988  0.5249
10052WAT    EPW40916   3.157   4.443   0.074  0.6610 -0.3201  0.5094
10053WAT      O40917   1.266   3.674   6.527  0.1166  0.1330 -0.2336
10053WAT     H140918   1.266   3.588   6.513 -3.6335  0.2860 -2.5080
10053WAT     H240919   1.270   3.708   6.447 -0.6640  2.0043  0.4609
10053WAT    EPW40920   1.267   3.666   6.513 -0.4218 -0.4896 -0.6483
10054WAT      O40921   2.780   4.000   6.219  0.3302 -0.1033  0.4929
10054WAT     H140922   2.697   4.021   6.240 -0.2538 -1.1192 -0.6884
10054WAT     H240923   2.779   3.912   6.219  0.9523 -0.1325 -1.2075
10054WAT    EPW40924   2.767   3.990   6.222 -0.4112 -0.1677 -0.9197
10055WAT      O40925   2.899   3.459   5.549  0.0593 -0.5676  0.6175
10055WAT     H140926   2.920   3.538   5.580 -0.4289 -0.9528  1.9734
10055WAT     H240927   2.972   3.413   5.559  1.7649  0.6291 -3.8349
10055WAT    EPW40928   2.913   3.464   5.555  0.1317 -0.4176  0.6246
10056WAT      O40929   2.863   4.103   5.243 -0.7162  0.3826  0.1804
10056WAT     H140930   2.859   4.105   5.156  0.9819 -0.2171  0.0605
10056WAT     H240931   2.856   4.017   5.261  0.9700  0.2857  0.4850
10056WAT    EPW40932   2.861   4.090   5.233 -0.1756  0.3357 -0.4248
10057WAT      O40933   2.213   3.688   5.606 -0.5290 -0.1074 -0.8439
10057WAT     H140934   2.169   3.635   5.553 -0.8864 -1.2977  0.5803
10057WAT     H240935   2.206   3.766   5.566 -0.5089 -0.9774 -2.6662
10057WAT    EPW40936   2.206   3.692   5.592 -0.9804  0.0600 -0.8409
10058WAT      O40937   1.729   3.257   4.985  0.3103 -0.2603 -0.5075
10058WAT     H140938   1.758   3.250   4.903 -2.1033 -1.4703 -1.3587
10058WAT     H240939   1.654   3.301   4.977  0.9151  1.3003  1.3542
10058WAT    EPW40940   1.722   3.263   4.972 -0.2759 -0.3293  0.4464
10059WAT      O40941   3.230   2.240   5.496 -0.2515  0.7012  0.1193
10059WAT     H140942   3.233   2.181   5.431 -0.0719  0.8871 -0.0430
10059WAT     H240943   3.229   2.316   5.454  1.0779  0.8678  0.3299
10059WAT    EPW40944   3.231   2.242   5.480 -0.6790 -0.5390 -0.6985
10060WAT      O40945   1.996   3.567   4.527 -0.0180 -0.0671 -0.0107
10060WAT     H140946   1.927   3.553   4.579  1.0650 -0.1112  1.5066
10060WAT     H240947   2.015   3.488   4.496  0.5880 -0.4520  1.2628
10060WAT    EPW40948   1.989   3.553   4.530 -0.2044 -0.3168 -0.1949
10061WAT      O40949   1.662   3.763   6.452  0.5458 -0.3663 -0.2944
10061WAT     H140950   1.746   3.753   6.474  0.4043 -0.6813  0.1088
10061WAT     H240951   1.620   3.710   6.507 -0.0038  0.5818  0.2159
10061WAT    EPW40952   1.668   3.754   6.463  0.4370 -0.4706 -1.2362
10062WAT      O40953   1.923   3.657   3.767 -0.5680 -0.3132  0.2567
10062WAT     H140954   1.899   3.660   3.851 -0.3824  0.7172  0.2913
10062WAT     H240955   1.912   3.574   3.745  0.9286 -0.9744  1.7637
10062WAT    EPW40956   1.918   3.645   3.776 -0.0239 -0.9112  0.0556
10063WAT      O40957   1.867   3.329   5.205  0.4036 -0.3177  0.0978
10063WAT     H140958   1.813   3.336   5.274  1.3388  1.6878  0.7189
10063WAT     H240959   1.816   3.299   5.142 -1.2153  0.5296  0.9368
10063WAT    EPW40960   1.851   3.326   5.206  0.5758  0.8337 -0.6214
10064WAT      O40961   0.964   4.139   7.106 -0.3437 -0.7612 -0.0530
10064WAT     H140962   0.974   4.201   7.046  0.4895 -1.2372 -0.4265
10064WAT     H240963   0.966   4.065   7.059 -1.3883 -1.0768  0.3695
10064WAT    EPW40964   0.966   4.137   7.090  0.1248 -0.2306 -0.6874
10065WAT      O40965   2.143   3.527   8.033 -0.5779 -0.2360  0.3820
10065WAT     H140966   2.112   3.525   8.115 -1.3884  0.4374  0.1038
10065WAT     H240967   2.209   3.584   8.037 -0.7164 -0.0867  0.5273
10065WAT    EPW40968   2.148   3.535   8.046  0.7635 -0.3573 -0.5258
10066WAT      O40969   1.581   4.252   4.944  0.5119 -0.6430  0.0825
10066WAT     H140970   1.607   4.219   4.868  0.3949 -0.3110 -0.1040
10066WAT     H240971   1.596   4.337   4.936  0.7993 -0.6417  0.5543
10066WAT    EPW40972   1.587   4.260   4.932 -1.6978  0.2971 -0.5485
10067WAT      O40973   2.318   3.891   7.406  0.0829 -0.6003 -0.0433
10067WAT     H140974   2.314   3.809   7.377  0.9853 -0.5111 -0.4374
10067WAT     H240975   2.345   3.882   7.488 -0.6610 -0.7402  0.1947
10067WAT    EPW40976   2.321   3.877   7.414  0.3745  0.1901  0.1412
10068WAT      O40977   2.937   4.817   7.007 -0.1245 -0.1615  0.1605
10068WAT     H140978   2.863   4.798   7.048 -0.1787 -0.9233 -0.2614
10068WAT     H240979   2.915   4.878   6.949 -0.2772  0.1169  0.5174
10068WAT    EPW40980   2.923   4.823   7.004 -0.4712 -0.6239 -0.0270
10069WAT      O40981   1.208   4.566   5.161 -0.5215  0.3335 -0.1983
10069WAT     H140982   1.254   4.612   5.102  0.4535  0.4856  0.6520
10069WAT     H240983   1.201   4.488   5.125  2.9952 -0.6451  0.7924
10069WAT    EPW40984   1.214   4.561   5.147 -0.0031 -0.0258 -0.1939
10070WAT      O40985   2.731   5.262   7.233 -1.0378 -0.5428  0.0559
10070WAT     H140986   2.685   5.303   7.295 -0.4614 -1.7620  1.3431
10070WAT     H240987   2.736   5.180   7.262  0.1620 -0.9091 -1.0932
10070WAT    EPW40988   2.725   5.256   7.246 -0.1151  0.0072  1.0235
10071WAT      O40989   1.929   5.013   5.029  0.2435  0.1305  0.1997
10071WAT     H140990   1.962   4.955   4.974 -1.3655  1.6214 -2.5408
10071WAT     H240991   1.948   5.090   4.992 -3.2593  1.1307  0.1571
10071WAT    EPW40992   1.937   5.016   5.016  0.1278 -0.7392 -0.7798
10072WAT      O40993   3.048   3.590   0.002  0.3388  0.4960 -0.1782
10072WAT     H140994   2.985   3.647  -0.017 -0.9573 -0.1451  1.8961
10072WAT     H240995   3.032   3.568   0.084  2.3622 -0.9162 -0.0831
10072WAT    EPW40996   3.037   3.595   0.011  0.1197  1.2386 -0.3189
10073WAT      O40997   2.283   2.742   4.518  0.3683 -0.2452 -0.4235
10073WAT     H140998   2.231   2.732   4.448 -2.1431 -0.2739  1.2865
10073WAT     H240999   2.346   2.795   4.490 -0.2469 -0.6943 -2.8399
10073WAT    EPW41000   2.284   2.749   4.504  0.6535 -0.4108 -1.0335
10074WAT      O41001   3.081   3.173   7.373 -0.2892  0.6969 -0.0346
10074WAT     H141002   3.155   3.213   7.351  0.4082 -0.9099 -0.7799
10074WAT     H241003   3.042   3.230   7.427  2.2149  0.9393  1.6589
10074WAT    EPW41004   3.086   3.187   7.378  0.5705  0.4452  0.2490
10075WAT      O41005   2.389   2.713   6.654  0.7192  0.0774 -0.5043
10075WAT     H141006   2.400   2.642   6.702  1.2124  1.3083  1.3229
10075WAT     H241007   2.361   2.683   6.577  1.9012 -2.1278 -0.1344
10075WAT    EPW41008   2.386   2.698   6.649 -0.3062 -0.8341 -0.7264
10076WAT      O41009   2.613   2.769   6.055 -0.2269 -0.5086  0.0106
10076WAT     H141010   2.634   2.729   6.130 -0.9565 -3.3263 -1.1388
10076WAT     H241011   2.691   2.785   6.018  0.1272  0.6535  1.1753
10076WAT    EPW41012   2.628   2.765   6.061  0.0232 -0.8080  1.1018
10077WAT      O41013   2.448   3.438   7.305  0.0655  0.2093 -0.2659
10077WAT     H141014   2.520   3.424   7.258  0.4748 -0.8787  0.6400
10077WAT     H241015   2.478   3.448   7.386 -0.8037 -0.6556  0.1861
10077WAT    EPW41016   2.463   3.437   7.310  0.0603  0.3234  0.2778
10078WAT      O41017   1.380   4.646   6.714 -0.4343 -0.1647  0.4736
10078WAT     H141018   1.385   4.568   6.675 -1.3842  1.0119 -2.2032
10078WAT     H241019   1.305   4.642   6.758 -0.1394 -0.9801  0.9229
10078WAT    EPW41020   1.370   4.634   6.715  0.6994 -0.2519  0.3231
10079WAT      O41021   2.265   4.112   4.942 -0.1468 -0.0429 -0.0363
10079WAT     H141022   2.300   4.093   5.019  0.0974  0.9528  0.1088
10079WAT     H241023   2.262   4.199   4.941 -2.5656 -0.0454 -0.0563
10079WAT    EPW41024   2.270   4.122   4.953 -0.1835  0.4171 -0.5744
10080WAT      O41025   2.953   5.001   4.641 -0.5323 -0.2254  0.5678
10080WAT     H141026   3.000   4.973   4.573 -0.2379  2.7362 -0.5777
10080WAT     H241027   2.889   4.941   4.647  0.8103 -1.8808 -0.7229
10080WAT    EPW41028   2.950   4.988   4.632 -0.4094  0.1731  0.4760
10081WAT      O41029   1.881   5.604   4.094 -0.2840  0.3232  0.3848
10081WAT     H141030   1.934   5.583   4.028 -2.0727 -0.1267 -0.9659
10081WAT     H241031   1.936   5.629   4.157  1.6704 -2.1290 -0.1893
10081WAT    EPW41032   1.897   5.604   4.094 -0.2725 -0.2164 -0.2599
10082WAT      O41033   3.022   4.185   0.078 -0.1113  0.0109  0.7790
10082WAT     H141034   3.073   4.137   0.027  3.4331  1.2448  2.8619
10082WAT     H241035   2.967   4.126   0.112  0.3215 -1.5369 -0.9872
10082WAT    EPW41036   3.021   4.169   0.075  0.2678  0.3548 -0.1891
10083WAT      O41037   1.759   3.958   0.188  0.0685 -0.1515  0.4565
10083WAT     H141038   1.806   4.032   0.183 -0.6605  0.3197  0.4892
10083WAT     H241039   1.800   3.913   0.250  0.4614  0.2702  0.5156
10083WAT    EPW41040   1.772   3.962   0.197  0.0091  0.1715  0.7522
10084WAT      O41041   1.664   3.751   3.748  0.3608  0.5319  0.6115
10084WAT     H141042   1.741   3.713   3.736 -0.7085 -1.4739 -0.3537
10084WAT     H241043   1.619   3.692   3.794 -1.5750  0.2366 -1.4907
10084WAT    EPW41044   1.669   3.737   3.753  0.1083  0.0138 -0.7835
10085WAT      O41045   3.081   3.179   6.548  0.4921 -0.2897 -0.8419
10085WAT     H141046   3.094   3.094   6.563 -0.4268 -0.5815 -1.6049
10085WAT     H241047   2.998   3.191   6.572  1.8301  1.5557  4.1701
10085WAT    EPW41048   3.070   3.168   6.554 -0.0485 -0.3597  0.2743
10086WAT      O41049   4.235   3.498   6.779  0.4515 -0.8102 -0.6423
10086WAT     H141050   4.213   3.519   6.697  2.2227 -1.9258 -1.4668
10086WAT     H241051   4.162   3.462   6.811 -0.5147  0.3497 -1.4470
10086WAT    EPW41052   4.221   3.496   6.772  0.3300 -0.0012 -0.0908
10087WAT      O41053   2.706   1.888   6.465 -0.2979 -0.4931 -0.3901
10087WAT     H141054   2.644   1.950   6.473 -1.1261 -1.4008  0.6954
10087WAT     H241055   2.664   1.815   6.490  0.6358 -1.5094 -1.6831
10087WAT    EPW41056   2.690   1.887   6.470  0.1964  0.3598 -0.2825
10088WAT      O41057   1.640   4.775   4.833  0.1888  0.5060  0.1992
10088WAT     H141058   1.568   4.760   4.786 -0.5276 -0.0308  1.4383
10088WAT     H241059   1.652   4.701   4.877  2.5494 -0.0993 -1.2605
10088WAT    EPW41060   1.631   4.762   4.833 -0.0527 -0.0656  0.0301
10089WAT      O41061   2.439   5.125   5.487 -0.1000  0.2236 -0.3213
10089WAT     H141062   2.408   5.196   5.446 -0.1479 -0.0644 -0.7866
10089WAT     H241063   2.476   5.158   5.559  0.4310  0.7996 -0.8410
10089WAT    EPW41064   2.440   5.141   5.492  0.2825  0.6162 -0.4637
10090WAT      O41065   3.252   3.484   0.285  0.1337 -0.2845 -0.1588
10090WAT     H141066   3.262   3.428   0.352  0.3933  0.3938  0.3830
10090WAT     H241067   3.278   3.438   0.216 -0.3257 -1.0660  0.1723
10090WAT    EPW41068   3.257   3.469   0.285  0.5514 -0.6086 -0.9058
10091WAT      O41069   2.481   3.166   7.100 -0.1866  0.5904  0.1318
10091WAT     H141070   2.472   3.166   7.187 -2.7924 -1.6319 -0.0298
10091WAT     H241071   2.475   3.082   7.078 -1.0852  1.2083 -2.3087
10091WAT    EPW41072   2.479   3.154   7.110 -0.9494 -0.1534 -0.6082
10092WAT      O41073   3.137   3.019   5.277 -0.1216 -0.2743 -0.1008
10092WAT     H141074   3.179   3.084   5.316 -1.8056  0.6855  0.2002
10092WAT     H241075   3.198   2.957   5.269  1.2276  0.9040  0.6288
10092WAT    EPW41076   3.152   3.019   5.281  0.3195 -0.0505 -0.3756
10093WAT      O41077   2.884   5.079   5.167  0.0599 -0.3990  0.4260
10093WAT     H141078   2.900   5.029   5.097  0.8389 -0.0434  0.3325
10093WAT     H241079   2.910   5.159   5.141 -0.5139 -0.0777  0.8075
10093WAT    EPW41080   2.890   5.084   5.153  0.1248 -0.5949 -0.4499
10094WAT      O41081   1.672   3.518   7.258 -0.0310 -0.0319 -0.0854
10094WAT     H141082   1.593   3.485   7.273  0.6522 -2.4852 -1.4133
10094WAT     H241083   1.712   3.511   7.335 -0.4909 -0.5636  0.1108
10094WAT    EPW41084   1.666   3.512   7.272 -0.8558  0.1838 -0.3314
10095WAT      O41085   2.238   3.327   5.328  0.4667 -0.0422  0.1604
10095WAT     H141086   2.180   3.384   5.361 -0.2753 -0.1466 -0.9147
10095WAT     H241087   2.292   3.378   5.282  0.0388 -0.1531 -0.4741
10095WAT    EPW41088   2.238   3.343   5.326 -0.8664 -0.2434  0.0840
10096WAT      O41089   2.439   5.344   7.871 -0.0726  0.3238 -0.5876
10096WAT     H141090   2.378   5.405   7.862  0.8477  1.4877  0.6447
10096WAT     H241091   2.508   5.378   7.829  0.3691  0.0168 -0.1310
10096WAT    EPW41092   2.440   5.358   7.863  0.6416  0.3119 -0.2543
10097WAT      O41093   3.727   4.546   0.107 -0.2507  0.1465  1.0297
10097WAT     H141094   3.652   4.513   0.135 -0.8481  0.0520 -0.5621
10097WAT     H241095   3.734   4.622   0.150 -0.9260 -0.1591  1.6768
10097WAT    EPW41096   3.717   4.552   0.117 -0.3836  0.4059 -0.0348
10098WAT      O41097   2.046   3.906   5.264 -0.3851  0.3885 -0.1140
10098WAT     H141098   1.999   3.834   5.279 -0.4571  0.6178  0.8506
10098WAT     H241099   2.018   3.933   5.186 -1.7870  0.4518  0.3744
10098WAT    EPW41100   2.035   3.899   5.255  0.7995 -0.0038  0.3609
10099WAT      O41101   1.614   2.625   5.337 -0.1344 -0.0373  0.1732
10099WAT     H141102   1.651   2.703   5.353  1.1518 -0.6812  0.4448
10099WAT     H241103   1.573   2.638   5.262  1.9889  0.3061 -1.0169
10099WAT    EPW41104   1.614   2.639   5.329 -0.7025 -0.1955 -0.9134
10100WAT      O41105   3.748   4.459   6.230  0.2375 -0.4114 -0.1208
10100WAT     H141106   3.723   4.542   6.224 -0.3285 -0.6168 -0.6776
10100WAT     H241107   3.700   4.428   6.296  3.0585  0.6114  2.6610
10100WAT    EPW41108   3.737   4.467   6.239  0.3777 -0.0691  0.3707
10101WAT      O41109   2.338   3.175   5.570  0.1829  0.1576  0.3430
10101WAT     H141110   2.324   3.091   5.549 -1.6922  0.4717  0.1760
10101WAT     H241111   2.285   3.219   5.517  1.9576  1.5603 -0.3583
10101WAT    EPW41112   2.328   3.169   5.559 -0.6018  0.3355 -0.1165
10102WAT      O41113   2.366   4.533   5.850  0.5288  0.4297 -0.3043
10102WAT     H141114   2.284   4.563   5.852  0.1730 -0.2572  3.4825
10102WAT     H241115   2.359   4.456   5.808 -0.2303  1.4220 -2.1077
10102WAT    EPW41116   2.353   4.526   5.844 -0.0416  0.4963 -0.0347
10103WAT      O41117   1.791   3.637   6.830  0.1928 -0.2863  0.2704
10103WAT     H141118   1.782   3.719   6.859  1.0883 -0.3150  0.6606
10103WAT     H241119   1.807   3.591   6.902 -0.2529 -0.8022  0.0446
10103WAT    EPW41120   1.792   3.642   6.845 -0.0773  0.6426  0.0955
10104WAT      O41121   2.365   2.960   6.479 -0.0576  0.2080  0.0015
10104WAT     H141122   2.316   2.895   6.510 -0.5127  0.4399 -0.2181
10104WAT     H241123   2.422   2.975   6.543  1.2168 -1.5677 -0.6260
10104WAT    EPW41124   2.366   2.953   6.493 -0.5918 -1.0829  0.7831
10105WAT      O41125   2.972   4.936   4.951  0.0597 -0.1439  0.0786
10105WAT     H141126   2.976   4.868   5.005 -1.7110  0.5656  1.1728
10105WAT     H241127   3.005   4.905   4.877  1.3412 -1.5248  1.1688
10105WAT    EPW41128   2.978   4.922   4.948 -0.3955 -0.2324 -0.8038
10106WAT      O41129   2.391   4.109   6.817  0.0308  0.1176 -0.5471
10106WAT     H141130   2.309   4.088   6.798 -0.1283  0.2822 -0.0553
10106WAT     H241131   2.391   4.196   6.815  0.0771  0.1317 -0.0957
10106WAT    EPW41132   2.379   4.119   6.814 -0.0033  0.0748 -0.4339
10107WAT      O41133   0.717   3.335   4.391 -0.2510  0.0229 -0.3060
10107WAT     H141134   0.674   3.411   4.390 -0.1226  0.1177 -1.7262
10107WAT     H241135   0.654   3.276   4.377 -0.0460  0.1314 -1.9939
10107WAT    EPW41136   0.701   3.337   4.389  0.5352  0.1152 -0.3459
10108WAT      O41137   1.962   3.336   6.564  0.5021  0.3076  0.6382
10108WAT     H141138   1.883   3.301   6.551  0.7059 -0.8013  2.1258
10108WAT     H241139   2.016   3.268   6.558  1.3505  1.0324 -0.2384
10108WAT    EPW41140   1.958   3.321   6.562 -0.4136 -0.1520 -0.3111
10109WAT      O41141   3.688   3.832   7.787  0.1947  0.1598 -0.5718
10109WAT     H141142   3.640   3.900   7.813 -0.4939  0.2007 -1.8818
10109WAT     H241143   3.670   3.770   7.846  1.5587  1.3612  1.1955
10109WAT    EPW41144   3.678   3.833   7.800  0.5797  0.9234  0.2590
10110WAT      O41145   2.487   4.514   7.700 -0.6551 -0.1301  0.2536
10110WAT     H141146   2.433   4.582   7.707 -0.5883  0.2848 -2.2674
10110WAT     H241147   2.566   4.550   7.707 -0.6296  0.0464 -0.7457
10110WAT    EPW41148   2.490   4.529   7.702  0.3231 -0.6169  0.6513
10111WAT      O41149   1.926   4.617   6.102  0.4177 -0.2032  0.4349
10111WAT     H141150   1.929   4.558   6.167 -0.5549  0.2675  0.9338
10111WAT     H241151   1.846   4.607   6.070  0.9049 -0.4517 -0.7383
10111WAT    EPW41152   1.915   4.607   6.107  0.0802  0.2541 -0.1780
10112WAT      O41153   2.570   2.354   5.670 -0.1530 -0.1169  0.2483
10112WAT     H141154   2.535   2.282   5.705  0.1440 -0.0504  0.6901
10112WAT     H241155   2.579   2.408   5.738 -2.5242  1.2587 -0.3893
10112WAT    EPW41156   2.566   2.352   5.685  0.8427 -0.0401 -0.8975
10113WAT      O41157   1.536   3.198   5.629 -0.1421  0.5329 -0.1708
10113WAT     H141158   1.497   3.120   5.619 -1.3441  0.9971  0.6115
10113WAT     H241159   1.477   3.254   5.597  0.3163  1.1794  0.1080
10113WAT    EPW41160   1.521   3.194   5.623  0.7888 -0.0619 -0.0223
10114WAT      O41161   3.409   3.252   7.009  0.0597 -0.1908  0.0767
10114WAT     H141162   3.470   3.262   6.948  1.0536  1.3487  1.2368
10114WAT     H241163   3.382   3.169   6.999  1.7578 -0.6506 -1.0029
10114WAT    EPW41164   3.414   3.241   6.999 -0.1239 -0.2427 -0.6128
10115WAT      O41165   1.480   3.293   4.584  0.6926  0.1502  0.2856
10115WAT     H141166   1.438   3.247   4.644  1.1780  0.0898  0.5781
10115WAT     H241167   1.451   3.259   4.509  2.8270 -2.3388  0.4472
10115WAT    EPW41168   1.470   3.281   4.581 -0.1130  0.4392 -0.3530
10116WAT      O41169   2.199   4.082   6.534  0.2385  0.2632  0.0969
10116WAT     H141170   2.162   4.033   6.595 -2.0591  0.4976 -1.0175
10116WAT     H241171   2.192   4.034   6.461  0.8547  0.9242 -0.4145
10116WAT    EPW41172   2.193   4.068   6.532 -0.4086  0.7682 -0.4194
10117WAT      O41173   2.614   5.731   5.986  0.1263 -0.3239  0.0469
10117WAT     H141174   2.663   5.702   6.052 -1.1207  0.9927  1.6176
10117WAT     H241175   2.650   5.808   5.966 -0.4587  0.0076  0.2632
10117WAT    EPW41176   2.627   5.738   5.993 -0.0745  0.1063 -0.1624
10118WAT      O41177   2.287   4.387   4.867  0.8407 -0.2792  0.1735
10118WAT     H141178   2.289   4.448   4.929  0.4162 -1.6803  1.6314
10118WAT     H241179   2.221   4.411   4.816  0.8252  0.5837  0.5881
10118WAT    EPW41180   2.278   4.399   4.869  0.6076 -0.6760  0.4544
10119WAT      O41181   2.784   4.107   5.514  0.3758 -0.0951  0.0804
10119WAT     H141182   2.747   4.186   5.526 -0.9560 -0.5225 -0.8442
10119WAT     H241183   2.801   4.106   5.428  1.6365 -0.3247  0.3143
10119WAT    EPW41184   2.781   4.119   5.503 -0.7369  0.3506 -0.0789
10120WAT      O41185   2.938   3.214   4.168 -0.1016 -0.4261  0.3252
10120WAT     H141186   3.020   3.195   4.148  0.6221  1.6115  1.1272
10120WAT     H241187   2.927   3.294   4.136 -0.6246  0.7827  3.2228
10120WAT    EPW41188   2.948   3.223   4.160 -0.3871 -0.5254  0.0147
10121WAT      O41189   1.318   2.883   5.085  0.3047 -0.2428 -0.7630
10121WAT     H141190   1.344   2.958   5.122 -0.7640 -0.6245  0.8764
10121WAT     H241191   1.247   2.907   5.040  1.0378  0.0370 -1.8186
10121WAT    EPW41192   1.311   2.898   5.083  0.4186  0.0727  0.2771
10122WAT      O41193   3.130   3.428   5.120  0.3785  0.1487  0.2505
10122WAT     H141194   3.073   3.450   5.182 -0.1069  0.4423 -0.2906
10122WAT     H241195   3.200   3.477   5.139 -1.1329  3.3924 -1.7206
10122WAT    EPW41196   3.132   3.438   5.132  1.0686  0.4032  0.6540
10123WAT      O41197   1.829   4.733   6.607 -0.8107  0.2591 -0.0361
10123WAT     H141198   1.773   4.703   6.547 -0.7358 -0.0531  0.0537
10123WAT     H241199   1.791   4.712   6.683  0.0821 -1.1764  0.0358
10123WAT    EPW41200   1.815   4.726   6.609 -0.0288 -1.1984 -0.7816
10124WAT      O41201   2.285   2.598   1.063  0.0561 -0.3648  0.6216
10124WAT     H141202   2.237   2.670   1.080  1.4126  0.6347  0.4136
10124WAT     H241203   2.313   2.611   0.981  0.2166 -1.2121  0.5332
10124WAT    EPW41204   2.282   2.611   1.053 -0.1092  0.5590  0.4943
10125WAT      O41205   1.797   3.019   6.313 -0.7267 -1.1000  0.5541
10125WAT     H141206   1.814   3.086   6.259  0.6890 -1.1949  0.8447
10125WAT     H241207   1.856   2.959   6.291 -0.3588 -1.2878  1.9321
10125WAT    EPW41208   1.808   3.020   6.302  0.8885  0.5567  0.7283
10126WAT      O41209   1.711   3.484   5.840 -0.3299  0.4560  0.2045
10126WAT     H141210   1.659   3.419   5.867 -1.2887 -0.5718 -3.6070
10126WAT     H241211   1.656   3.552   5.833 -0.0157  0.8096  1.0515
10126WAT    EPW41212   1.695   3.485   5.843 -0.6847  0.7576 -0.3462
10127WAT      O41213   2.205   3.481   5.852 -0.3142 -0.0343 -0.0931
10127WAT     H141214   2.236   3.542   5.796  0.0977  1.0382  1.2429
10127WAT     H241215   2.122   3.505   5.864 -0.9457 -1.3230 -1.5809
10127WAT    EPW41216   2.198   3.494   5.845 -0.1587 -0.4353  0.3368
10128WAT      O41217   3.025   4.026   5.652  0.0012  0.0511 -0.6534
10128WAT     H141218   3.099   4.070   5.634 -0.0658 -0.3104 -1.9524
10128WAT     H241219   2.971   4.051   5.587 -1.4118  1.1528  0.8623
10128WAT    EPW41220   3.028   4.036   5.639  0.2289  0.2644 -0.7697
10129WAT      O41221   1.397   4.500   7.914  0.2268  0.3217  0.0872
10129WAT     H141222   1.470   4.525   7.955 -0.0795  0.6714  0.4337
10129WAT     H241223   1.426   4.461   7.842  0.9181 -3.0421  1.9761
10129WAT    EPW41224   1.412   4.498   7.909  0.1073  1.4763 -0.0860
10130WAT      O41225   2.993   4.614   5.725  0.4697 -0.6632  0.0349
10130WAT     H141226   3.049   4.680   5.714  0.3513 -0.3427  1.2446
10130WAT     H241227   3.042   4.543   5.716  1.2934 -0.3902  1.9861
10130WAT    EPW41228   3.008   4.614   5.722 -0.5025  0.2626  0.0293
10131WAT      O41229   2.860   3.824   4.973 -0.4792  0.2234 -0.3801
10131WAT     H141230   2.910   3.890   4.944 -0.5264  0.9310  1.0347
10131WAT     H241231   2.900   3.753   4.943  0.1709  0.8556 -1.0615
10131WAT    EPW41232   2.874   3.823   4.964  0.6562  0.8675 -0.2703
10132WAT      O41233   2.315   3.448   4.432  0.2266  0.2694  0.3938
10132WAT     H141234   2.248   3.394   4.444  0.1758  0.2887  0.1946
10132WAT     H241235   2.307   3.506   4.497 -1.1965  1.5557 -0.8350
10132WAT    EPW41236   2.304   3.449   4.443  0.8694 -0.1681  0.5974
10133WAT      O41237   2.923   4.590   7.381 -0.2001 -0.2089  0.2283
10133WAT     H141238   2.977   4.539   7.337 -0.0048 -1.8216  2.2010
10133WAT     H241239   2.845   4.574   7.346  0.2783  0.7444 -1.3890
10133WAT    EPW41240   2.920   4.580   7.369 -0.1508 -0.1857  0.3710
10134WAT      O41241   1.863   3.664   4.055  0.0762 -0.3845 -0.2501
10134WAT     H141242   1.935   3.631   4.091 -1.3598 -1.7475  1.6344
10134WAT     H241243   1.842   3.730   4.107  0.1228  0.2325 -0.9918
10134WAT    EPW41244   1.870   3.669   4.068 -0.4341 -0.1125 -0.1001
10135WAT      O41245   3.218   2.928   5.997  0.0904  0.0453 -0.3316
10135WAT     H141246   3.280   2.870   6.018 -1.4334 -1.1105  1.2711
10135WAT     H241247   3.203   2.970   6.071 -0.9408  0.3956 -0.7142
10135WAT    EPW41248   3.225   2.926   6.011  0.1985  0.7663 -0.5226
10136WAT      O41249   2.329   4.682   6.121  0.0360 -0.0501  0.4949
10136WAT     H141250   2.415   4.671   6.126 -0.0849 -0.4392  3.4088
10136WAT     H241251   2.299   4.603   6.101  0.3253  0.1718 -0.9202
10136WAT    EPW41252   2.337   4.669   6.119 -0.2326  0.0359  0.2449
10137WAT      O41253   3.210   4.121   7.249 -0.2982 -0.4315  0.2142
10137WAT     H141254   3.260   4.102   7.180 -1.3717 -0.6813 -0.5342
10137WAT     H241255   3.181   4.043   7.276  2.1246 -0.6460  2.6394
10137WAT    EPW41256   3.213   4.107   7.242 -0.4636 -0.9331  0.7544
10138WAT      O41257   1.806   3.271   4.262  0.0635  0.0620  0.3473
10138WAT     H141258   1.745   3.311   4.216  0.7829  1.3247  0.4556
10138WAT     H241259   1.823   3.199   4.215 -0.9658  0.0686 -0.0498
10138WAT    EPW41260   1.800   3.266   4.248 -0.0236  0.2326 -0.0886
10139WAT      O41261   2.525   4.167   6.244 -0.2083 -0.0477 -0.5014
10139WAT     H141262   2.525   4.207   6.322  0.7783 -0.9247 -0.0399
10139WAT     H241263   2.444   4.135   6.238 -1.0369  1.9810 -0.8954
10139WAT    EPW41264   2.513   4.168   6.255 -0.5696  0.6630 -0.1618
10140WAT      O41265   2.150   3.656   6.500 -0.1027  0.2786  0.4430
10140WAT     H141266   2.135   3.632   6.583  2.1464 -0.4833  0.6940
10140WAT     H241267   2.235   3.676   6.500 -0.1263  0.5455 -1.6361
10140WAT    EPW41268   2.161   3.656   6.512  0.0870 -0.9358  0.2400
10141WAT      O41269   2.201   2.930   6.787 -0.0055 -0.0872 -0.3523
10141WAT     H141270   2.249   2.862   6.761 -0.3481 -1.1884  1.6905
10141WAT     H241271   2.249   2.999   6.765  0.7777 -1.0006 -1.6686
10141WAT    EPW41272   2.215   2.930   6.780 -1.1454 -0.3882  0.3836
10142WAT      O41273   2.664   5.537   5.584  0.5431  0.5906  0.2370
10142WAT     H141274   2.648   5.621   5.600  1.4346  1.1480 -1.5020
10142WAT     H241275   2.693   5.537   5.501  0.3078 -1.4630  0.1000
10142WAT    EPW41276   2.666   5.550   5.574 -0.7545 -0.5282 -0.3841
10143WAT      O41277   1.605   3.192   7.154  0.2462  0.0863 -0.3877
10143WAT     H141278   1.626   3.222   7.233  0.5986  0.1602 -0.5036
10143WAT     H241279   1.562   3.118   7.170 -0.6217  0.6343 -0.0931
10143WAT    EPW41280   1.602   3.186   7.168  0.4253  0.5078 -0.0400
10144WAT      O41281   2.066   3.511   5.429  0.1258  0.0351 -0.0464
10144WAT     H141282   2.023   3.549   5.364 -0.0172  2.0018  1.1257
10144WAT     H241283   2.002   3.479   5.480  0.2430 -2.5019 -1.3222
10144WAT    EPW41284   2.050   3.512   5.427  0.0173 -0.3671 -0.3215
10145WAT      O41285   2.221   4.557   7.379 -0.6478  0.3159 -0.0661
10145WAT     H141286   2.291   4.504   7.384  0.5311  1.4752 -2.5530
10145WAT     H241287   2.155   4.502   7.366 -0.2874 -0.8308  2.3690
10145WAT    EPW41288   2.222   4.541   7.378  0.1033  0.3297 -0.0585
10146WAT      O41289   3.578   3.462   6.505  0.0380 -0.0339  0.7132
10146WAT     H141290   3.616   3.384   6.518 -1.5388 -1.0181 -0.2598
10146WAT     H241291   3.586   3.474   6.419 -1.8390 -0.3011  0.4706
10146WAT    EPW41292   3.585   3.452   6.494  0.3750 -0.2468 -0.3392
10147WAT      O41293   3.017   5.403   6.954 -0.0272 -0.5604  0.6824
10147WAT     H141294   2.972   5.381   6.883 -0.8844 -0.5902  1.2251
10147WAT     H241295   3.069   5.334   6.968  0.7732 -0.1982 -0.3968
10147WAT    EPW41296   3.018   5.389   6.946 -0.8154 -0.5256  0.2228
10148WAT      O41297   3.800   3.860   6.845  0.0449 -0.0988 -0.1119
10148WAT     H141298   3.868   3.810   6.867  1.9822  2.4231  0.0982
10148WAT     H241299   3.750   3.859   6.917  1.7380  0.8416  1.1513
10148WAT    EPW41300   3.803   3.853   6.859 -0.2751 -0.6179  0.0101
10149WAT      O41301   2.733   3.457   4.836 -0.1856  0.1123  0.0427
10149WAT     H141302   2.813   3.467   4.801 -0.5563  2.2631 -0.3439
10149WAT     H241303   2.747   3.461   4.922  0.1608  0.0043 -0.0071
10149WAT    EPW41304   2.747   3.459   4.843 -0.5288 -0.3311 -0.3545
10150WAT      O41305   3.155   4.814   5.605  0.5887  0.0370 -0.0595
10150WAT     H141306   3.182   4.896   5.616 -0.7566  0.6103 -0.8399
10150WAT     H241307   3.098   4.819   5.539  0.1229 -1.4403  0.1850
10150WAT    EPW41308   3.151   4.827   5.597 -0.1098 -0.0624  0.3909
10151WAT      O41309   2.409   3.747   6.498 -0.2926 -0.0064  0.1831
10151WAT     H141310   2.440   3.701   6.430  1.1676 -1.0137  1.4609
10151WAT     H241311   2.463   3.815   6.503 -1.2555  0.8370 -0.4858
10151WAT    EPW41312   2.422   3.750   6.489 -0.3339  0.0172 -0.3791
10152WAT      O41313   2.131   3.950   5.530 -0.1311  0.2829 -0.2722
10152WAT     H141314   2.099   3.930   5.452 -1.1828  0.2225  0.1541
10152WAT     H241315   2.130   4.037   5.531  1.1775  0.3166 -0.8295
10152WAT    EPW41316   2.126   3.960   5.519 -0.3293 -0.2520 -0.3337
10153WAT      O41317   2.727   5.328   5.019  0.4617 -0.2574 -0.4566
10153WAT     H141318   2.678   5.395   4.995  0.4529  0.4995  1.5033
10153WAT     H241319   2.805   5.346   4.984  0.6765  1.2366  0.6659
10153WAT    EPW41320   2.732   5.340   5.011  0.2396  0.0140  0.5470
10154WAT      O41321   2.190   2.242   5.284  0.3278 -0.5584  0.2879
10154WAT     H141322   2.246   2.188   5.324 -1.0866 -2.7706 -0.5258
10154WAT     H241323   2.113   2.202   5.293 -0.6291  0.8004 -1.3127
10154WAT    EPW41324   2.187   2.228   5.291 -0.1602  0.3514 -0.4172
10155WAT      O41325   2.949   4.487   5.421 -0.3680  0.3988 -0.0317
10155WAT     H141326   2.890   4.508   5.482 -2.1379  1.3580 -1.9411
10155WAT     H241327   2.984   4.564   5.400  1.4545 -0.1221  0.8493
10155WAT    EPW41328   2.945   4.501   5.427 -0.5957  0.4603  0.2174
10156WAT      O41329   2.608   4.252   7.126 -0.0686  0.1516  0.5040
10156WAT     H141330   2.569   4.176   7.143  0.5172  0.2364  2.4258
10156WAT     H241331   2.645   4.238   7.048 -0.3632 -1.3798  0.6022
10156WAT    EPW41332   2.608   4.239   7.117 -0.7283 -0.2178 -0.0097
10157WAT      O41333   3.168   3.822   5.800 -0.9304 -0.4634 -0.0397
10157WAT     H141334   3.100   3.858   5.759 -0.9834  0.2096  0.6158
10157WAT     H241335   3.204   3.890   5.842 -0.8208 -1.1133  0.9300
10157WAT    EPW41336   3.163   3.838   5.800 -0.9518 -0.6994  0.1444
10158WAT      O41337   1.460   2.959   7.132 -0.3156  0.6012  0.2388
10158WAT     H141338   1.443   2.978   7.048 -1.2707  2.8899  0.8463
10158WAT     H241339   1.424   2.881   7.144 -0.5459  0.4328 -1.3653
10158WAT    EPW41340   1.452   2.951   7.121  0.0977 -0.0526 -0.2824
10159WAT      O41341   2.046   3.207   0.763 -0.4706 -0.1834  0.1527
10159WAT     H141342   2.019   3.233   0.842  1.4802 -1.3972  1.3118
10159WAT     H241343   2.000   3.257   0.708 -1.9856  0.6261  2.0314
10159WAT    EPW41344   2.035   3.218   0.767  0.1164 -0.9090 -0.1670
10160WAT      O41345   1.191   2.575   4.047 -0.1770 -0.3272  0.5405
10160WAT     H141346   1.219   2.613   3.973 -0.8552  0.9500  0.9046
10160WAT     H241347   1.156   2.500   4.020  1.7534 -1.0429 -0.1422
10160WAT    EPW41348   1.190   2.570   4.032  0.2921 -0.2899 -1.2776
10161WAT      O41349   2.455   3.427   5.157 -0.2177 -0.1108  0.1058
10161WAT     H141350   2.513   3.491   5.152  0.1019 -0.5067 -1.8233
10161WAT     H241351   2.500   3.361   5.193  0.1155  0.0209 -0.0743
10161WAT    EPW41352   2.470   3.426   5.162 -0.1690 -1.6107 -0.0746
10162WAT      O41353   2.270   5.997   6.387 -0.3695  0.1766 -0.5292
10162WAT     H141354   2.215   5.984   6.321  1.9700 -0.2136 -2.5656
10162WAT     H241355   2.313   5.922   6.394  0.9636  0.9319 -0.0969
10162WAT    EPW41356   2.269   5.984   6.378 -0.3466  0.1884  0.6106
10163WAT      O41357   1.708   4.075   3.561 -0.1258  0.6322 -0.2328
10163WAT     H141358   1.651   4.014   3.535  1.3467 -0.5108 -0.9062
10163WAT     H241359   1.779   4.029   3.581  0.9164  2.1183 -0.4042
10163WAT    EPW41360   1.710   4.059   3.560 -0.0821  0.4301 -0.6173
10164WAT      O41361   2.421   4.671   7.092 -0.0822  0.4894  0.1440
10164WAT     H141362   2.368   4.699   7.028 -0.8233  0.7956  0.8816
10164WAT     H241363   2.398   4.587   7.103  0.3280  0.3172 -0.2560
10164WAT    EPW41364   2.410   4.662   7.084  0.0479  0.5302 -0.5027
10165WAT      O41365   2.076   4.826   4.849 -0.0438 -0.0539 -0.0927
10165WAT     H141366   2.086   4.874   4.776  1.6015 -0.8388 -0.4495
10165WAT     H241367   2.152   4.838   4.890  1.4588 -4.0035 -1.2782
10165WAT    EPW41368   2.089   4.835   4.844  0.2396  1.0839 -0.1762
10166WAT      O41369   2.380   4.607   6.692  0.3943  0.4670  0.2435
10166WAT     H141370   2.450   4.654   6.669  0.8779  0.0695  0.8555
10166WAT     H241371   2.345   4.583   6.616  0.7159  0.9874 -0.0708
10166WAT    EPW41372   2.385   4.610   6.678  0.1687  0.7021 -1.4409
10167WAT      O41373   2.120   4.309   7.201  0.0808 -0.4866  0.6384
10167WAT     H141374   2.094   4.236   7.239  0.3840 -0.5944  0.6377
10167WAT     H241375   2.058   4.324   7.140  0.3109 -1.0347  0.2676
10167WAT    EPW41376   2.107   4.301   7.197  0.7014 -0.7734  0.3858
10168WAT      O41377   2.875   3.756   5.607 -0.3284 -0.1068  0.3361
10168WAT     H141378   2.802   3.716   5.634 -0.3977 -0.9623 -1.0334
10168WAT     H241379   2.849   3.799   5.536  0.0605  1.3096  1.0200
10168WAT    EPW41380   2.860   3.756   5.600  0.3061 -0.3823  0.5917
10169WAT      O41381   2.930   5.095   6.906  0.0013  0.1617  0.0181
10169WAT     H141382   2.981   5.126   6.970 -2.5177  1.1033  1.7285
10169WAT     H241383   2.954   5.141   6.836  0.3306  1.8028  1.1670
10169WAT    EPW41384   2.942   5.106   6.905  1.1621  0.6906 -0.5597
10170WAT      O41385   2.977   2.860   4.092 -0.1902  0.1415 -0.0407
10170WAT     H141386   3.000   2.922   4.149 -0.1121  0.0448  0.0331
10170WAT     H241387   3.026   2.878   4.021 -1.9524  1.6778 -0.9614
10170WAT    EPW41388   2.988   2.872   4.090  0.5062 -0.5769 -0.2329
10171WAT      O41389   2.796   4.084   7.374  0.2749 -0.8319  0.6123
10171WAT     H141390   2.803   4.121   7.452 -0.8917 -1.8909  1.2542
10171WAT     H241391   2.711   4.068   7.366  0.5280 -1.8911 -0.3272
10171WAT    EPW41392   2.785   4.087   7.384  0.3354 -0.1364  0.3377
10172WAT      O41393   2.622   3.665   5.710  0.2580 -0.0002 -0.1380
10172WAT     H141394   2.568   3.626   5.654  1.6248 -3.3868  0.6828
10172WAT     H241395   2.576   3.733   5.739 -3.6821 -2.6221  0.5255
10172WAT    EPW41396   2.607   3.669   5.706  0.2376 -0.0892  0.1147
10173WAT      O41397   1.913   4.230   3.804 -0.3358  0.6912  0.8613
10173WAT     H141398   1.883   4.151   3.784 -0.8249  1.2900 -0.9500
10173WAT     H241399   1.840   4.279   3.803  0.1747  1.4515  0.3196
10173WAT    EPW41400   1.898   4.226   3.801  0.5047 -0.3407  0.0080
10174WAT      O41401   2.616   3.478   0.400 -0.0825  0.1375  0.0218
10174WAT     H141402   2.555   3.535   0.427 -0.8481  0.8393 -2.8687
10174WAT     H241403   2.614   3.484   0.313  2.5343 -1.5461 -0.2885
10174WAT    EPW41404   2.606   3.487   0.391  0.5747 -0.0728  0.0300
10175WAT      O41405   1.860   3.642   4.893 -0.1879  0.1022  0.2168
10175WAT     H141406   1.832   3.596   4.824 -1.5193 -0.1845  0.9136
10175WAT     H241407   1.863   3.724   4.864 -1.6942  0.1232  0.0791
10175WAT    EPW41408   1.857   3.647   4.879  0.1455 -0.6322 -0.6772
10176WAT      O41409   2.562   3.856   4.351  0.2931 -0.7181  0.2900
10176WAT     H141410   2.534   3.780   4.319  0.0690  0.5333 -2.8122
10176WAT     H241411   2.649   3.846   4.357  0.4032 -0.8954 -1.2418
10176WAT    EPW41412   2.571   3.843   4.347  0.2423  0.9251  0.3503
10177WAT      O41413   2.402   3.556   0.835  0.4226 -0.1977 -0.1887
10177WAT     H141414   2.319   3.530   0.833 -0.0678  1.1158  1.1553
10177WAT     H241415   2.436   3.511   0.902  0.2684  0.6009  0.4506
10177WAT    EPW41416   2.395   3.546   0.845 -0.6916  0.1727  0.5120
10178WAT      O41417   2.639   2.677   0.764 -0.0516  0.0144  0.1431
10178WAT     H141418   2.653   2.670   0.850 -0.9387  0.6430  0.3533
10178WAT     H241419   2.712   2.644   0.728 -0.4802 -2.1785  1.1004
10178WAT    EPW41420   2.652   2.671   0.771  0.2787 -1.1213 -0.3196
10179WAT      O41421   2.745   4.362   5.249 -0.1005 -0.1602 -0.2774
10179WAT     H141422   2.808   4.417   5.273 -1.2660  1.5257 -0.9223
10179WAT     H241423   2.785   4.285   5.247  0.9855  0.1664  3.2152
10179WAT    EPW41424   2.760   4.359   5.252  0.0250 -0.1934  0.4801
10180WAT      O41425   2.260   3.658   4.654 -0.1239  0.1768 -0.1873
10180WAT     H141426   2.179   3.640   4.628 -1.2213  2.2725  1.4210
10180WAT     H241427   2.272   3.604   4.721 -0.4481  0.2627 -0.0544
10180WAT    EPW41428   2.250   3.648   4.660  0.1018  0.8806 -0.0019
10181WAT      O41429   4.985   4.465   7.764  0.3897  0.6549 -0.4178
10181WAT     H141430   5.020   4.484   7.842 -0.5280  1.9132 -0.2808
10181WAT     H241431   4.989   4.378   7.760 -3.4356 -0.0049  3.0030
10181WAT    EPW41432   4.991   4.455   7.775 -0.1417 -0.4191  0.0574
10182WAT      O41433   2.291   3.175   6.709  0.0712  0.0829  0.4009
10182WAT     H141434   2.293   3.235   6.645 -1.6600  0.2842  0.4840
10182WAT     H241435   2.213   3.188   6.746 -0.9221 -2.9580 -0.3230
10182WAT    EPW41436   2.280   3.186   6.705 -0.0988 -0.0273 -0.3484
10183WAT      O41437   2.397   5.342   6.513  0.7327  0.1748 -0.4404
10183WAT     H141438   2.365   5.391   6.577  0.4676  0.4295 -0.7705
10183WAT     H241439   2.354   5.368   6.442  1.0996 -0.0303 -0.7463
10183WAT    EPW41440   2.386   5.353   6.512  0.5823 -0.2965 -0.1364
10184WAT      O41441   3.431   3.774   5.723  0.5384 -0.4170 -0.1278
10184WAT     H141442   3.347   3.791   5.739 -0.0115 -1.4482 -1.7290
10184WAT     H241443   3.446   3.813   5.647  1.5989 -0.0162  0.2764
10184WAT    EPW41444   3.421   3.782   5.714 -0.2193  0.3585 -0.0678
10185WAT      O41445   1.359   5.035   6.833 -0.3415 -0.3256 -0.6886
10185WAT     H141446   1.299   4.974   6.853  0.1234 -0.7313 -0.5172
10185WAT     H241447   1.395   5.005   6.760  1.2539 -1.3070  0.4240
10185WAT    EPW41448   1.355   5.021   6.825 -0.0892  0.1601 -0.6092
10186WAT      O41449   2.811   2.039   5.737  0.4942 -0.2122  0.3469
10186WAT     H141450   2.837   1.956   5.736 -0.5860 -0.5780 -1.2904
10186WAT     H241451   2.885   2.084   5.726  0.8757 -1.0584 -0.6763
10186WAT    EPW41452   2.826   2.033   5.735 -0.5660  0.4192 -0.3976
10187WAT      O41453   3.211   2.602   0.344 -0.0314  0.1847  0.5921
10187WAT     H141454   3.146   2.588   0.288 -0.4510 -2.7086  1.6127
10187WAT     H241455   3.192   2.680   0.378 -1.6216  0.4930 -0.8525
10187WAT    EPW41456   3.199   2.611   0.341  0.2308  0.2374 -0.5099
10188WAT      O41457   1.083   3.147   6.728  0.5321 -0.2657  0.2297
10188WAT     H141458   1.077   3.232   6.711  1.2383 -0.0604  0.9824
10188WAT     H241459   1.139   3.118   6.668  2.7621  0.3986  1.8898
10188WAT    EPW41460   1.090   3.155   6.716  0.9756 -0.0598 -1.0308
10189WAT      O41461   3.742   5.897   5.718 -0.3191 -0.4350 -0.0282
10189WAT     H141462   3.793   5.966   5.734  0.8347 -1.4604  0.8886
10189WAT     H241463   3.773   5.864   5.644  0.0349 -0.7704  0.2674
10189WAT    EPW41464   3.754   5.902   5.709 -0.3665  0.5459 -0.4480
10190WAT      O41465   2.844   3.818   7.070  0.4537 -0.2242 -0.0244
10190WAT     H141466   2.814   3.837   6.990 -0.6696 -0.1374  0.3955
10190WAT     H241467   2.868   3.896   7.101 -0.2397 -0.0740  0.1551
10190WAT    EPW41468   2.843   3.833   7.063 -0.6675 -0.3295  0.2173
10191WAT      O41469   1.086   2.794   0.160 -0.5687 -0.4323  0.0913
10191WAT     H141470   1.010   2.760   0.188  0.2151 -1.2000  1.3708
10191WAT     H241471   1.144   2.768   0.220  1.2162 -2.0373 -2.1360
10191WAT    EPW41472   1.083   2.785   0.173  0.1787  0.2803  0.5868
10192WAT      O41473   1.664   3.861   5.552  0.3548  0.6496 -0.5184
10192WAT     H141474   1.578   3.867   5.537  0.1924 -0.8205 -0.3162
10192WAT     H241475   1.670   3.857   5.639  0.3765 -1.7434 -0.5634
10192WAT    EPW41476   1.652   3.861   5.563 -0.2461  1.0776 -0.5622
10193WAT      O41477   3.464   2.960   7.424 -0.0088 -0.5055 -0.1615
10193WAT     H141478   3.521   2.895   7.437  0.7679  0.2365  0.1826
10193WAT     H241479   3.502   3.029   7.462 -0.3744  0.3711 -1.3383
10193WAT    EPW41480   3.478   2.960   7.431  0.1686  0.0590 -0.3137
10194WAT      O41481   2.931   3.323   5.807  0.0270  0.0932 -0.0395
10194WAT     H141482   2.863   3.354   5.762 -0.1669 -2.3128 -1.5612
10194WAT     H241483   2.988   3.389   5.806 -1.7422  1.7263  0.1930
10194WAT    EPW41484   2.929   3.337   5.800  0.5478 -0.4199  1.0363
10195WAT      O41485   2.486   4.499   3.943 -0.1801  0.3501  0.3898
10195WAT     H141486   2.560   4.459   3.966 -0.1390 -0.0662 -0.4556
10195WAT     H241487   2.425   4.438   3.957 -0.1096 -0.0696 -0.9702
10195WAT    EPW41488   2.488   4.484   3.949 -1.1337 -0.3666 -0.8747
10196WAT      O41489   2.497   3.076   7.376 -0.4668 -0.0328 -0.3128
10196WAT     H141490   2.559   3.097   7.434  0.8971 -2.0286 -0.9510
10196WAT     H241491   2.429   3.054   7.426  0.3118 -0.6221  0.5311
10196WAT    EPW41492   2.496   3.076   7.392 -0.5811  0.4156  0.3354
10197WAT      O41493   2.790   3.571   6.755 -0.0589  0.1236 -0.1137
10197WAT     H141494   2.859   3.519   6.768 -0.8457 -0.9856 -0.1957
10197WAT     H241495   2.751   3.536   6.685 -1.9416 -0.6639  1.2618
10197WAT    EPW41496   2.795   3.558   6.746 -0.0888 -0.8459 -0.2304
10198WAT      O41497   4.061   3.354   7.444  0.0441 -0.4995  0.1152
10198WAT     H141498   4.009   3.293   7.409  1.3322 -0.4975 -2.0373
10198WAT     H241499   4.006   3.415   7.472 -1.1732 -0.5055 -2.0190
10198WAT    EPW41500   4.046   3.354   7.443 -0.2281 -0.6000  0.1648
10199WAT      O41501   3.108   2.907   6.604  0.1810  0.6142  0.0082
10199WAT     H141502   3.064   2.845   6.562  1.3238 -0.6114  0.5632
10199WAT     H241503   3.189   2.900   6.574  1.1806 -0.6870  2.7065
10199WAT    EPW41504   3.113   2.897   6.593  0.5703 -0.9731 -0.3619
10200WAT      O41505   2.321   4.590   5.036 -0.1472  0.1555 -0.6343
10200WAT     H141506   2.343   4.672   5.016  1.5123 -0.0898  0.0688
10200WAT     H241507   2.254   4.600   5.092 -0.3483  1.0009 -1.0112
10200WAT    EPW41508   2.314   4.603   5.041  0.1454 -0.8637 -0.3740
10201WAT      O41509   2.451   3.402   6.932 -0.0388  0.3438 -0.1201
10201WAT     H141510   2.463   3.330   6.979  1.1120 -0.0469 -0.9720
10201WAT     H241511   2.516   3.455   6.957 -0.6067  0.9257  0.1700
10201WAT    EPW41512   2.462   3.399   6.943 -0.3633  0.2171 -0.7622
10202WAT      O41513   3.618   3.509   7.411 -0.1368 -0.1732 -0.2207
10202WAT     H141514   3.574   3.575   7.375  1.0648  0.8982  0.2188
10202WAT     H241515   3.555   3.454   7.437 -1.3794  1.9566  1.7006
10202WAT    EPW41516   3.602   3.511   7.410  0.6531  0.1649  0.6282
10203WAT      O41517   2.315   3.857   5.228 -0.1632 -0.0046  0.4825
10203WAT     H141518   2.312   3.809   5.156  1.7658  0.0579  0.2983
10203WAT     H241519   2.232   3.862   5.254 -1.4536  2.3860 -3.2589
10203WAT    EPW41520   2.303   3.851   5.221  0.2786  0.5650  0.1324
10204WAT      O41521   2.275   4.706   7.627  0.3199 -0.1256  0.0764
10204WAT     H141522   2.256   4.651   7.561  0.2393  0.3069 -0.2667
10204WAT     H241523   2.231   4.778   7.607 -0.7454 -0.4121  1.2806
10204WAT    EPW41524   2.266   4.708   7.614  0.1409 -0.8875 -0.2388
10205WAT      O41525   0.169   4.566   7.691 -0.1494  0.3421 -0.2321
10205WAT     H141526   0.140   4.501   7.641 -2.3475  1.1090 -0.0506
10205WAT     H241527   0.157   4.637   7.642  0.8972  0.7674  0.1065
10205WAT    EPW41528   0.163   4.567   7.677 -0.6821  0.4602  0.1981
10206WAT      O41529   2.852   4.270   6.520  0.1813 -0.0520 -0.0341
10206WAT     H141530   2.900   4.303   6.584  0.8989 -2.2958  0.6910
10206WAT     H241531   2.771   4.267   6.554  0.6016 -1.4586  0.9391
10206WAT    EPW41532   2.847   4.274   6.534 -0.2243 -0.0245 -0.8765
10207WAT      O41533   1.853   1.956   4.098 -0.2503  0.1234 -0.7594
10207WAT     H141534   1.859   2.020   4.157 -1.1950  1.0623 -1.6356
10207WAT     H241535   1.822   1.996   4.027 -0.6073 -1.2639 -1.4256
10207WAT    EPW41536   1.849   1.971   4.096 -1.1715 -0.2284  0.4445
10208WAT      O41537   2.848   3.667   6.003 -0.0235 -0.3401 -0.1860
10208WAT     H141538   2.927   3.634   5.986 -0.2015 -0.6746 -0.3782
10208WAT     H241539   2.797   3.631   5.943 -0.4761 -0.7586  0.4340
10208WAT    EPW41540   2.852   3.657   5.992 -0.2828  0.2079  0.0587
10209WAT      O41541   3.481   3.740   7.318  0.2267  0.0329  0.0692
10209WAT     H141542   3.508   3.775   7.393 -0.4818 -0.3353  0.5039
10209WAT     H241543   3.500   3.801   7.258  1.1769  0.1543  0.4814
10209WAT    EPW41544   3.488   3.754   7.320 -0.5968 -0.6493 -0.2405
10210WAT      O41545   2.854   3.208   7.740 -0.1674 -0.2717  0.5020
10210WAT     H141546   2.861   3.229   7.824  0.8575 -0.4364  0.4722
10210WAT     H241547   2.904   3.137   7.733  1.5646  0.9945 -0.6858
10210WAT    EPW41548   2.862   3.200   7.752 -0.8311 -0.4599  0.0834
10211WAT      O41549   1.723   3.903   6.919  0.8923 -0.1424 -0.2825
10211WAT     H141550   1.673   3.851   6.969  1.9386  0.8100  1.9034
10211WAT     H241551   1.672   3.919   6.849 -1.1242 -0.6845  0.9632
10211WAT    EPW41552   1.708   3.898   6.916 -0.2108 -0.4104 -0.6203
10212WAT      O41553   3.095   3.648   7.736  0.2612 -0.0569  0.4816
10212WAT     H141554   3.152   3.697   7.691  1.3224 -1.6105  0.0808
10212WAT     H241555   3.116   3.665   7.819 -0.4032  1.3103  0.4028
10212WAT    EPW41556   3.107   3.658   7.741 -0.0456 -0.0268  0.4109
10213WAT      O41557   3.473   5.731   6.894 -0.2499  0.3673 -0.4175
10213WAT     H141558   3.501   5.658   6.933  3.1025  1.2301 -0.9137
10213WAT     H241559   3.471   5.789   6.959  0.8376  0.7196 -0.6934
10213WAT    EPW41560   3.476   5.729   6.910 -0.0856  0.2399  0.1857
10214WAT      O41561   3.012   2.125   7.135  0.5352  0.2422  0.0513
10214WAT     H141562   3.033   2.064   7.194 -2.7843  0.2143  1.3982
10214WAT     H241563   2.961   2.082   7.078 -0.8033  1.4330  0.3078
10214WAT    EPW41564   3.008   2.109   7.135 -0.5695 -0.1277 -0.4490
10215WAT      O41565   2.462   3.621   0.555  0.4098 -0.3804 -0.5581
10215WAT     H141566   2.458   3.597   0.639 -0.4891 -0.0461 -0.4964
10215WAT     H241567   2.388   3.666   0.543 -0.0950 -1.5060 -1.8721
10215WAT    EPW41568   2.451   3.624   0.565 -0.2157  0.1229 -0.3499
10216WAT      O41569   1.315   3.406   6.505  0.2854  0.0848  0.1910
10216WAT     H141570   1.361   3.359   6.562 -1.7012 -0.8722  1.1294
10216WAT     H241571   1.318   3.358   6.432  1.4659  0.4847 -0.0464
10216WAT    EPW41572   1.322   3.392   6.503 -0.3600 -0.1804  0.0955
10217WAT      O41573   2.460   4.928   6.692  0.6275 -0.5236 -0.1804
10217WAT     H141574   2.449   5.012   6.675 -0.6859 -0.6572 -0.1159
10217WAT     H241575   2.403   4.888   6.639  0.8496 -1.3329  0.1645
10217WAT    EPW41576   2.450   4.934   6.682  0.1741  0.4305 -0.1342
10218WAT      O41577   3.537   2.807   5.701 -0.3325  0.1181  0.3958
10218WAT     H141578   3.458   2.828   5.670  0.0988 -0.2271 -1.0296
10218WAT     H241579   3.520   2.746   5.761 -1.0292 -2.1994 -1.9791
10218WAT    EPW41580   3.523   2.801   5.705  0.4126  0.0166  0.1227
10219WAT      O41581   3.076   3.574   5.839  0.9376  0.1587 -0.2601
10219WAT     H141582   3.099   3.658   5.830  2.9200 -0.5310 -2.7562
10219WAT     H241583   3.148   3.537   5.871 -0.2144 -0.5439  1.7158
10219WAT    EPW41584   3.090   3.581   5.843 -0.1007 -0.0053  0.1587
10220WAT      O41585   2.890   3.208   6.076 -0.3561  0.3464 -0.0429
10220WAT     H141586   2.820   3.234   6.031 -0.2680 -1.1841 -1.1407
10220WAT     H241587   2.955   3.215   6.019 -0.1992 -1.4325 -0.1262
10220WAT    EPW41588   2.889   3.213   6.061 -0.9320 -0.5502 -0.2427
10221WAT      O41589   2.229   4.869   6.546  0.1969 -0.4079 -0.0747
10221WAT     H141590   2.235   4.790   6.511 -2.9428 -0.5058 -0.6759
10221WAT     H241591   2.149   4.870   6.582 -0.1799  2.6672 -0.6937
10221WAT    EPW41592   2.218   4.858   6.546 -0.5350 -0.5255  0.0802
10222WAT      O41593   0.688   4.346   3.997 -0.2351  0.6267 -0.2569
10222WAT     H141594   0.684   4.403   4.062  0.1268  0.4980 -0.1157
10222WAT     H241595   0.773   4.345   3.976 -0.1813 -0.0941 -0.0374
10222WAT    EPW41596   0.700   4.354   4.004  0.2539 -0.0017  0.2332
10223WAT      O41597   2.840   2.884   7.579  0.8128  0.1731 -0.3577
10223WAT     H141598   2.900   2.927   7.625  0.2377  0.6669 -0.0429
10223WAT     H241599   2.860   2.902   7.496  0.4676  1.2417 -0.2295
10223WAT    EPW41600   2.852   2.893   7.574  0.8943 -0.5882 -0.9097
10224WAT      O41601   2.329   2.700   7.027  0.4760  0.4696  0.1311
10224WAT     H141602   2.270   2.748   7.070  1.5177  0.1122  2.0371
10224WAT     H241603   2.378   2.760   6.986 -1.5392  0.7527 -2.0668
10224WAT    EPW41604   2.328   2.716   7.027 -0.0253  0.2591 -1.3321
10225WAT      O41605   1.629   5.711   3.639  0.3801 -0.4249 -0.0627
10225WAT     H141606   1.710   5.688   3.615  0.3908 -0.1117 -0.3478
10225WAT     H241607   1.619   5.673   3.717 -0.2061 -2.7511 -1.1868
10225WAT    EPW41608   1.640   5.702   3.647 -0.0988  0.4812  0.2996
10226WAT      O41609   3.165   1.941   6.470 -0.2120 -0.1021  0.2258
10226WAT     H141610   3.147   1.900   6.396 -2.5718 -0.2964  0.8462
10226WAT     H241611   3.251   1.926   6.481  0.6398  1.2555 -3.1993
10226WAT    EPW41612   3.175   1.933   6.461 -0.4177 -0.0147 -0.4570
10227WAT      O41613   2.217   4.697   7.899 -0.1051  0.1364  0.3322
10227WAT     H141614   2.240   4.690   7.815 -1.2791  0.4627 -0.0236
10227WAT     H241615   2.187   4.617   7.919  0.3815 -0.0056  0.5156
10227WAT    EPW41616   2.216   4.684   7.890 -0.4322  0.4800  0.4988
10228WAT      O41617   4.106   3.580   5.898  0.3695 -0.1772 -0.0269
10228WAT     H141618   4.115   3.523   5.833  1.2395  0.1326 -0.1976
10228WAT     H241619   4.129   3.656   5.862  1.7125 -0.1358  0.8425
10228WAT    EPW41620   4.111   3.583   5.883  0.3981  0.2057 -0.9959
10229WAT      O41621   1.899   3.136   5.701  0.2173 -0.2511 -0.6213
10229WAT     H141622   1.865   3.207   5.664 -0.9027 -0.1684  0.5198
10229WAT     H241623   1.959   3.168   5.756 -0.0345 -0.2013 -0.3728
10229WAT    EPW41624   1.903   3.151   5.704  0.0100  1.3238  0.4502
10230WAT      O41625   2.503   3.586   3.843 -0.0157  0.4370 -0.1466
10230WAT     H141626   2.455   3.629   3.902 -1.0613 -0.1545 -0.5415
10230WAT     H241627   2.507   3.505   3.875  0.2790  0.3630 -0.3706
10230WAT    EPW41628   2.496   3.580   3.856 -0.2358 -0.4126 -0.0864
10231WAT      O41629   1.603   3.670   5.252 -0.5545  0.1654 -0.1985
10231WAT     H141630   1.546   3.736   5.249 -2.6259 -1.5455 -1.4621
10231WAT     H241631   1.593   3.638   5.333  1.1206  1.8199  0.7502
10231WAT    EPW41632   1.593   3.675   5.264  0.5421 -0.1127  0.3409
10232WAT      O41633   4.613   2.116   7.241 -0.3324  0.5531 -0.2111
10232WAT     H141634   4.688   2.130   7.199 -0.9928  1.0219 -1.2753
10232WAT     H241635   4.625   2.038   7.278  0.3851  0.2615 -1.0149
10232WAT    EPW41636   4.626   2.107   7.240 -0.2190 -0.6051 -0.5173
10233WAT      O41637   2.845   2.861   5.914 -0.2099 -0.2879 -0.0194
10233WAT     H141638   2.893   2.797   5.880 -0.3238 -0.1059 -0.5213
10233WAT     H241639   2.847   2.923   5.853  0.9429  0.6959  0.9702
10233WAT    EPW41640   2.852   2.861   5.900  0.2398  1.0692  0.5632
10234WAT      O41641   2.950   4.064   7.129 -0.4461  0.1290  0.7738
10234WAT     H141642   3.008   4.124   7.152 -0.3693  0.9452 -1.3489
10234WAT     H241643   2.883   4.078   7.184 -0.2965  1.9645  0.5546
10234WAT    EPW41644   2.948   4.075   7.140  0.5196 -0.4047  0.1459
10235WAT      O41645   2.548   3.943   6.625 -0.3518  0.3054  0.3917
10235WAT     H141646   2.624   3.985   6.618 -1.1815  1.8948  0.4134
10235WAT     H241647   2.499   3.998   6.672 -2.0462  0.1049 -1.0546
10235WAT    EPW41648   2.552   3.957   6.631 -0.8493 -1.4873 -0.4908
10236WAT      O41649   1.686   4.232   6.606 -0.3801  0.0100 -0.4888
10236WAT     H141650   1.625   4.293   6.612  1.4017  1.8556 -0.0300
10236WAT     H241651   1.643   4.163   6.575 -2.5322  1.4001 -0.8094
10236WAT    EPW41652   1.671   4.231   6.602  0.3066  0.0940 -0.2182
10237WAT      O41653   2.381   1.762   5.277 -0.2038  0.5326  0.4940
10237WAT     H141654   2.441   1.731   5.332  1.3406  0.1106 -1.3122
10237WAT     H241655   2.428   1.787   5.207 -1.9339  2.1424 -0.1989
10237WAT    EPW41656   2.397   1.761   5.275 -0.4680 -0.4859 -0.1325
10238WAT      O41657   4.009   2.122   5.957 -0.2398  0.6254  0.0413
10238WAT     H141658   3.974   2.175   6.017  0.8575  0.9997  0.3826
10238WAT     H241659   4.047   2.178   5.901 -1.3472  0.2860 -1.0849
10238WAT    EPW41660   4.010   2.138   5.957 -0.8294  0.1951 -0.0328
10239WAT      O41661   1.189   4.559   6.953  0.0103 -0.1506 -0.8397
10239WAT     H141662   1.227   4.556   7.031 -0.6089 -0.1407 -0.5309
10239WAT     H241663   1.135   4.627   6.959 -0.6799 -0.6649 -0.9685
10239WAT    EPW41664   1.186   4.568   6.965  0.0601 -0.0828  0.3998
10240WAT      O41665   2.521   5.356   6.079  0.2508 -0.3710 -0.0333
10240WAT     H141666   2.466   5.411   6.037  0.4574 -1.1015 -1.3106
10240WAT     H241667   2.596   5.400   6.081 -0.1481  0.2903  0.9628
10240WAT    EPW41668   2.524   5.371   6.073 -0.5437  1.0736 -0.0883
10241WAT      O41669   1.768   1.739   7.415  0.4600  0.3202 -0.6574
10241WAT     H141670   1.682   1.727   7.419  0.5148  0.0386 -0.1840
10241WAT     H241671   1.778   1.824   7.429  0.2388  0.4241 -1.1110
10241WAT    EPW41672   1.757   1.749   7.418  0.6200  0.1762  0.6954
10242WAT      O41673   4.054   2.663   7.015  0.5217 -0.2504 -0.2115
10242WAT     H141674   4.035   2.590   7.059  0.8126 -0.2787 -0.1313
10242WAT     H241675   4.062   2.635   6.933  0.4848 -0.2833 -0.2040
10242WAT    EPW41676   4.052   2.648   7.009  0.1287  0.0641 -0.3186
10243WAT      O41677   1.498   5.169   7.052 -0.1035 -0.1789  0.5737
10243WAT     H141678   1.488   5.126   6.977 -0.4332 -0.5029  0.7980
10243WAT     H241679   1.523   5.249   7.027  1.4715 -0.7671  0.1949
10243WAT    EPW41680   1.500   5.175   7.037  0.5517 -0.8266 -0.5801
10244WAT      O41681   2.490   2.757   5.138  0.5425  0.0420 -0.2079
10244WAT     H141682   2.455   2.681   5.116 -1.1266  0.9132 -0.6649
10244WAT     H241683   2.458   2.813   5.079 -0.2458  1.5419  1.5396
10244WAT    EPW41684   2.480   2.754   5.126  0.3216 -0.2883  0.8403
10245WAT      O41685   1.332   4.522   5.702 -0.0561  0.3078  0.1855
10245WAT     H141686   1.344   4.608   5.713  1.5702  0.2884 -1.1071
10245WAT     H241687   1.411   4.493   5.681 -1.1032 -0.9865 -2.3975
10245WAT    EPW41688   1.345   4.531   5.700  0.2530  0.0470  0.2721
10246WAT      O41689   1.103   4.275   0.217 -0.0705  0.6034  0.0720
10246WAT     H141690   1.143   4.350   0.238 -0.1613  0.3686  1.1307
10246WAT     H241691   1.024   4.284   0.253  0.2887 -0.4421  1.1585
10246WAT    EPW41692   1.097   4.288   0.225 -0.0883  0.2392 -0.1563
10247WAT      O41693   1.988   4.381   6.288 -0.4846 -0.2158  0.4688
10247WAT     H141694   1.931   4.323   6.255 -0.9356  0.9907 -0.9943
10247WAT     H241695   2.065   4.356   6.254 -0.6030 -0.2345  0.2127
10247WAT    EPW41696   1.991   4.368   6.278 -0.6201 -0.1889 -0.0290
10248WAT      O41697   2.063   3.986   4.614 -0.4885  0.0092 -0.2145
10248WAT     H141698   2.050   4.071   4.601  0.5240  0.4275  1.3850
10248WAT     H241699   2.073   3.955   4.533  1.4703  1.8006 -0.7462
10248WAT    EPW41700   2.062   3.994   4.600  0.4390  0.2114 -0.5484
10249WAT      O41701   3.192   3.055   5.739  0.2697  0.6602 -0.3525
10249WAT     H141702   3.205   3.024   5.819  0.6915  0.2078 -0.5849
10249WAT     H241703   3.106   3.048   5.728  0.4438 -1.9390 -0.9369
10249WAT    EPW41704   3.181   3.049   5.749  0.6506 -0.1942 -0.5588
10250WAT      O41705   3.092   3.802   6.262  0.2032 -0.2775 -0.0870
10250WAT     H141706   3.013   3.779   6.290  0.4342 -0.2715  0.5896
10250WAT     H241707   3.127   3.728   6.232  0.7400 -0.7268  1.5764
10250WAT    EPW41708   3.085   3.788   6.261 -0.4562  0.8565 -1.0749
10251WAT      O41709   2.220   4.871   5.315 -0.1913  0.6103 -0.8255
10251WAT     H141710   2.164   4.837   5.258 -0.3309  1.0330 -0.9437
10251WAT     H241711   2.248   4.944   5.276  0.1361  0.6099 -0.5951
10251WAT    EPW41712   2.216   4.877   5.301 -0.7578  0.3807  0.2683
10252WAT      O41713   2.672   2.942   7.184  0.4028 -0.0784 -0.2593
10252WAT     H141714   2.732   2.914   7.241  0.9476 -0.3080 -0.9336
10252WAT     H241715   2.610   2.974   7.235  0.4332 -1.1615  0.5058
10252WAT    EPW41716   2.672   2.942   7.200  0.4246 -0.2547  0.1531
10253WAT      O41717   2.840   3.934   5.875  0.2768 -0.0231  0.0047
10253WAT     H141718   2.870   3.868   5.923  0.1959 -1.1840 -1.4669
10253WAT     H241719   2.877   3.921   5.797  1.9077  2.8394  0.1585
10253WAT    EPW41720   2.850   3.923   5.871  0.2416 -0.8373 -0.0561
10254WAT      O41721   1.935   2.910   0.063  0.5471 -0.2418  0.4320
10254WAT     H141722   1.864   2.951   0.033  1.1591  0.2968 -0.3180
10254WAT     H241723   1.927   2.829   0.033  1.1218  0.2708 -1.1911
10254WAT    EPW41724   1.923   2.904   0.054 -0.2006 -0.5268 -0.4075
10255WAT      O41725   3.448   3.101   0.036 -0.1590 -0.0816 -0.2644
10255WAT     H141726   3.534   3.106   0.050 -0.1853  3.5046 -0.3905
10255WAT     H241727   3.442   3.063  -0.042  1.5742  1.8919 -1.4733
10255WAT    EPW41728   3.460   3.096   0.027 -0.7058  0.2713 -0.4284
10256WAT      O41729   1.376   4.424   0.510 -0.0128 -0.3042  0.0295
10256WAT     H141730   1.403   4.396   0.588  0.5432  1.3681  0.4689
10256WAT     H241731   1.291   4.408   0.510 -0.0475 -0.1508  1.0626
10256WAT    EPW41732   1.368   4.417   0.521 -0.1322 -0.3090  0.1400
10257WAT      O41733   2.121   4.506   4.469  0.5023 -0.4773 -0.0742
10257WAT     H141734   2.086   4.564   4.414  0.8588 -0.9950 -0.8638
10257WAT     H241735   2.207   4.519   4.459  0.5755 -0.8576  0.0622
10257WAT    EPW41736   2.129   4.516   4.459 -0.1785  0.6377  0.0789
10258WAT      O41737   3.960   4.602   7.414  0.1846 -0.2042  0.2898
10258WAT     H141738   3.984   4.524   7.444 -0.6058 -0.6893 -0.3231
10258WAT     H241739   3.985   4.657   7.478  2.6463 -0.6765 -0.1787
10258WAT    EPW41740   3.967   4.599   7.428  0.1145 -0.9958  0.5339
10259WAT      O41741   2.300   3.101   2.062  0.3676 -0.0089 -0.0816
10259WAT     H141742   2.342   3.159   2.012 -1.4620  2.0557  0.5640
10259WAT     H241743   2.339   3.108   2.139 -0.2295  0.9010  0.1592
10259WAT    EPW41744   2.312   3.111   2.066  0.3804 -0.5816  0.8716
10260WAT      O41745   1.730   4.676   5.683 -0.1117 -0.0110  0.1415
10260WAT     H141746   1.663   4.715   5.644  0.2609  0.5551  0.0464
10260WAT     H241747   1.798   4.726   5.661  0.4190 -0.8556 -0.1828
10260WAT    EPW41748   1.730   4.689   5.674 -0.1753  0.3463  0.1114
10261WAT      O41749   3.029   4.672   3.638 -0.3124  0.2261  0.2803
10261WAT     H141750   3.091   4.614   3.657 -1.4965 -0.6037  1.8171
10261WAT     H241751   3.074   4.743   3.615  1.1716 -1.1655 -1.4033
10261WAT    EPW41752   3.045   4.674   3.637 -0.8081  0.2087 -0.3399
10262WAT      O41753   3.580   4.826   2.896  0.4687 -0.1735 -0.4076
10262WAT     H141754   3.542   4.764   2.848 -1.2703 -1.1068  1.9791
10262WAT     H241755   3.536   4.898   2.876 -1.9763 -1.0199  1.4274
10262WAT    EPW41756   3.568   4.828   2.886  0.4794 -0.3110 -0.5443
10263WAT      O41757   1.773   3.383   2.171  0.3979  0.3548 -0.2040
10263WAT     H141758   1.706   3.425   2.209  1.1737  0.7814  0.7648
10263WAT     H241759   1.781   3.310   2.218  2.5841  1.7510  1.8956
10263WAT    EPW41760   1.764   3.379   2.184  0.1546 -0.8384  0.5261
10264WAT      O41761   0.959   3.874   4.421 -0.2072  0.0799 -0.3678
10264WAT     H141762   0.968   3.961   4.428  1.4090 -0.0745 -0.3452
10264WAT     H241763   0.907   3.865   4.352  1.1646  1.0234 -1.5791
10264WAT    EPW41764   0.952   3.886   4.412 -0.8447  0.7464 -0.0360
10265WAT      O41765   1.493   4.967   3.384  0.2036 -0.4932 -0.7633
10265WAT     H141766   1.438   4.970   3.316 -0.0562  1.4037 -0.5302
10265WAT     H241767   1.445   4.995   3.451  0.6124 -1.8325  0.1375
10265WAT    EPW41768   1.478   4.972   3.384  0.1775  0.5355  0.0048
10266WAT      O41769   1.886   3.157   2.313  0.1557 -0.1185  0.5345
10266WAT     H141770   1.852   3.148   2.393 -1.7987 -2.1533 -0.4267
10266WAT     H241771   1.943   3.091   2.308 -0.8271 -0.9404 -0.2239
10266WAT    EPW41772   1.889   3.146   2.324 -0.9776 -0.1641 -0.1518
10267WAT      O41773   0.201   4.544   2.758 -0.4056  0.2867 -0.0556
10267WAT     H141774   0.159   4.515   2.828 -2.1463  1.4264 -0.5772
10267WAT     H241775   0.188   4.630   2.759 -0.1276  0.3842 -1.5598
10267WAT    EPW41776   0.193   4.552   2.768 -0.2990 -0.0444 -0.8395
10268WAT      O41777   2.622   4.768   3.304 -0.1140 -0.0762 -0.0092
10268WAT     H141778   2.595   4.750   3.223  2.8533  0.8071 -1.3753
10268WAT     H241779   2.613   4.854   3.310 -0.7627 -0.1969  0.8016
10268WAT    EPW41780   2.617   4.778   3.293 -0.8024  0.1958 -0.4635
10269WAT      O41781   1.752   2.692   4.954  0.1600 -0.5152 -0.0815
10269WAT     H141782   1.689   2.718   5.008 -0.4562 -2.3857  0.1592
10269WAT     H241783   1.816   2.667   5.008 -0.0666 -1.4363 -0.2261
10269WAT    EPW41784   1.752   2.693   4.970  0.8362 -0.3804 -0.7988
10270WAT      O41785   0.378   2.565   2.964 -0.0660  0.3334  0.5216
10270WAT     H141786   0.394   2.650   2.956  1.6903  0.0738  0.8766
10270WAT     H241787   0.432   2.528   2.906 -2.0055 -0.5068 -0.9071
10270WAT    EPW41788   0.388   2.572   2.954  0.3440  0.1669  0.8338
10271WAT      O41789   2.935   4.095   3.526 -0.4399  0.7724  0.6691
10271WAT     H141790   2.988   4.084   3.457  0.2470 -0.5616  1.3530
10271WAT     H241791   2.984   4.066   3.593 -1.3070  1.4756  1.6291
10271WAT    EPW41792   2.950   4.089   3.526 -0.2556 -0.0800 -0.0154
10272WAT      O41793   2.011   4.126   4.281  0.2198  0.4185  0.1450
10272WAT     H141794   2.018   4.151   4.365 -1.4091  0.4139  0.3143
10272WAT     H241795   1.936   4.081   4.280 -0.7791  2.0075 -1.6834
10272WAT    EPW41796   2.001   4.123   4.293 -0.2257  0.1275 -0.3824
10273WAT      O41797   1.417   2.750   4.578  0.2682  0.0491  0.5802
10273WAT     H141798   1.443   2.755   4.661  1.0179 -0.1409  0.3687
10273WAT     H241799   1.424   2.665   4.559  0.8124  0.1883  0.1181
10273WAT    EPW41800   1.422   2.738   4.587  0.0259 -0.2508  0.6150
10274WAT      O41801   2.549   4.453   4.780 -0.4546 -0.3689  1.2942
10274WAT     H141802   2.542   4.540   4.777 -1.9058 -0.4658  0.8292
10274WAT     H241803   2.477   4.429   4.824 -0.2153 -1.3521  1.1724
10274WAT    EPW41804   2.537   4.463   4.786 -0.0601  0.1692  0.5756
10275WAT      O41805   3.830   4.376   2.133  0.3420  0.8066 -0.3732
10275WAT     H141806   3.897   4.356   2.082  0.7306 -0.6087  0.6311
10275WAT     H241807   3.856   4.352   2.213 -1.3928  0.1080  0.0396
10275WAT    EPW41808   3.843   4.370   2.137 -0.0742  0.2983  0.8338
10276WAT      O41809   1.980   2.554   4.560  0.3951  0.1009 -0.4428
10276WAT     H141810   2.008   2.476   4.587  1.0586  0.4080 -0.2018
10276WAT     H241811   1.924   2.578   4.622  0.1952 -0.1787 -0.5124
10276WAT    EPW41812   1.976   2.546   4.573  0.5551 -0.2441  0.2433
10277WAT      O41813   1.723   2.870   2.596  0.5098  0.3936 -0.3282
10277WAT     H141814   1.719   2.955   2.615  0.3203 -0.1110  2.2839
10277WAT     H241815   1.641   2.843   2.609  0.8297 -0.3924  0.1389
10277WAT    EPW41816   1.710   2.879   2.601 -0.2165 -0.8220 -0.5611
10278WAT      O41817   2.318   3.159   4.859 -0.0409  0.0429 -0.2023
10278WAT     H141818   2.338   3.138   4.776  0.2603 -1.8290  0.3055
10278WAT     H241819   2.266   3.228   4.849  0.4930  0.2605 -1.9303
10278WAT    EPW41820   2.313   3.166   4.845  1.1299  0.3742 -0.5604
10279WAT      O41821   2.811   3.094   3.451  0.2779 -0.0223  0.0301
10279WAT     H141822   2.766   3.059   3.384  1.3245 -1.0605 -0.1745
10279WAT     H241823   2.829   3.174   3.423 -0.4971  0.0312 -0.3442
10279WAT    EPW41824   2.807   3.100   3.437 -0.2116  0.0096 -1.0778
10280WAT      O41825   1.995   4.293   2.500  0.4197 -0.5412 -0.2830
10280WAT     H141826   1.996   4.285   2.413  1.9391 -1.8221 -0.2019
10280WAT     H241827   1.915   4.322   2.518 -0.6910 -2.3399 -1.9548
10280WAT    EPW41828   1.983   4.296   2.490 -0.2348 -0.1260 -0.0552
10281WAT      O41829   2.058   2.839   2.891 -0.3826 -0.5426 -0.7419
10281WAT     H141830   2.015   2.886   2.831 -0.7581 -1.2786 -1.0666
10281WAT     H241831   2.071   2.763   2.851  0.6537 -0.5509 -0.4019
10281WAT    EPW41832   2.053   2.835   2.876  0.3857  0.2294 -0.4206
10282WAT      O41833   2.232   4.222   3.392  0.4543  0.1985  0.3891
10282WAT     H141834   2.226   4.136   3.407  1.5024 -0.2867 -1.6500
10282WAT     H241835   2.151   4.244   3.369  0.6573 -0.8185 -1.5053
10282WAT    EPW41836   2.219   4.212   3.391  0.1924  0.4764 -0.7820
10283WAT      O41837   2.598   3.592   3.498  0.2219  0.6339  0.1976
10283WAT     H141838   2.588   3.510   3.526 -2.0022  1.0153  0.7477
10283WAT     H241839   2.683   3.608   3.510  0.8120 -1.7066 -0.3706
10283WAT    EPW41840   2.609   3.582   3.504  0.2059  0.2771 -0.4268
10284WAT      O41841   2.436   4.744   3.535 -0.0956  0.2075  0.5563
10284WAT     H141842   2.433   4.728   3.449 -3.4398 -0.2440  0.6168
10284WAT     H241843   2.520   4.760   3.550  1.1548 -2.6798 -2.2267
10284WAT    EPW41844   2.448   4.744   3.524  0.3210 -0.5655  0.1062
10285WAT      O41845   3.175   4.493   3.953 -0.3038 -0.3303  0.7962
10285WAT     H141846   3.143   4.421   3.917 -0.6234  1.2869 -2.5776
10285WAT     H241847   3.255   4.470   3.980 -0.5678 -2.0311  0.1999
10285WAT    EPW41848   3.182   4.479   3.951  0.1967  0.3543 -0.8054
10286WAT      O41849   2.370   3.306   3.147 -0.4862 -0.4246  0.2897
10286WAT     H141850   2.403   3.310   3.066 -0.7374  2.6461  0.2114
10286WAT     H241851   2.438   3.286   3.196 -0.2349 -1.9107 -0.6105
10286WAT    EPW41852   2.385   3.304   3.142  0.6976  0.0725  0.6731
10287WAT      O41853   1.878   2.448   4.254 -0.5497  0.4535 -0.2459
10287WAT     H141854   1.810   2.498   4.277 -1.3104 -1.3171  1.6723
10287WAT     H241855   1.946   2.503   4.255 -1.5432  1.7002  0.4890
10287WAT    EPW41856   1.878   2.463   4.257 -0.4985 -0.3643 -0.2316
10288WAT      O41857   1.195   5.320   2.420  0.0341 -0.1512 -0.5770
10288WAT     H141858   1.172   5.254   2.471  1.4245 -0.2260 -0.0128
10288WAT     H241859   1.163   5.390   2.461  0.0585 -0.3280 -0.2539
10288WAT    EPW41860   1.187   5.321   2.433  0.2722 -0.0548 -0.2971
10289WAT      O41861   1.521   5.255   4.954 -0.0143 -0.2788  0.4223
10289WAT     H141862   1.510   5.226   4.873  2.2492  1.4071 -0.5831
10289WAT     H241863   1.551   5.185   4.997 -1.8261 -1.3630  0.0611
10289WAT    EPW41864   1.524   5.240   4.949  0.2987 -0.0702  0.3446
10290WAT      O41865   1.034   2.276   3.512  0.8272  0.0351  0.1636
10290WAT     H141866   1.084   2.278   3.584  0.6581 -2.4785  0.4584
10290WAT     H241867   1.023   2.360   3.492  1.2001  0.8172  2.8408
10290WAT    EPW41868   1.040   2.288   3.519  0.3927 -0.1225 -0.6226
10291WAT      O41869   1.139   3.964   2.965 -0.6524 -0.4585  0.2936
10291WAT     H141870   1.147   4.034   3.017  0.2859  0.1049 -0.5758
10291WAT     H241871   1.055   3.968   2.939 -0.6429  0.2733  0.3557
10291WAT    EPW41872   1.128   3.975   2.969  0.5674 -0.0188 -1.0324
10292WAT      O41873   3.233   4.864   3.524  0.2062 -0.0059  0.1866
10292WAT     H141874   3.282   4.792   3.525 -2.2685 -2.0371 -3.6060
10292WAT     H241875   3.249   4.899   3.446 -2.6578  0.4099 -0.3193
10292WAT    EPW41876   3.242   4.859   3.513 -0.4388 -0.4171  0.1575
10293WAT      O41877   3.920   2.544   5.485  0.0539  0.3256  0.8247
10293WAT     H141878   4.002   2.517   5.471 -0.4016 -0.0136 -1.5620
10293WAT     H241879   3.931   2.625   5.516  1.3111  0.5821 -0.1784
10293WAT    EPW41880   3.934   2.552   5.487 -0.0052  0.1179 -0.9227
10294WAT      O41881   3.080   3.677   3.022 -0.2370 -0.0587  0.3834
10294WAT     H141882   3.039   3.742   3.063 -0.3385 -1.5470  2.8462
10294WAT     H241883   3.155   3.713   2.996 -0.1502  1.0089  1.9661
10294WAT    EPW41884   3.085   3.692   3.024 -0.1532  0.1728 -0.1947
10295WAT      O41885   3.183   4.884   2.744  0.3637  0.0073 -0.0190
10295WAT     H141886   3.239   4.899   2.678 -0.4604  0.4304 -0.6413
10295WAT     H241887   3.234   4.849   2.806  1.3130  0.3541 -0.5716
10295WAT    EPW41888   3.199   4.881   2.743 -0.1783 -0.2702  0.3731
10296WAT      O41889   1.657   5.162   3.278  0.0676 -0.3051 -0.1497
10296WAT     H141890   1.598   5.225   3.292  0.1716  0.1314 -1.5159
10296WAT     H241891   1.617   5.090   3.306 -2.1111 -0.4001 -2.9774
10296WAT    EPW41892   1.642   5.161   3.284  0.1175 -0.8196 -0.0623
10297WAT      O41893   1.674   4.091   4.426  0.1014 -0.1867  0.2711
10297WAT     H141894   1.587   4.102   4.426  0.0441 -0.6162  0.7865
10297WAT     H241895   1.685   4.017   4.381  0.1816 -0.2837  0.4517
10297WAT    EPW41896   1.663   4.081   4.419  0.1596 -0.0344  0.0673
10298WAT      O41897   2.838   4.501   4.397 -0.5450  0.0573 -0.2059
10298WAT     H141898   2.850   4.509   4.311  1.7655  0.1066  0.0551
10298WAT     H241899   2.915   4.471   4.426 -1.2116  0.1720  1.8661
10298WAT    EPW41900   2.851   4.497   4.388 -0.5181 -0.7683  1.1777
10299WAT      O41901   1.576   5.572   3.882 -0.1335  0.2849 -0.2038
10299WAT     H141902   1.591   5.638   3.938  0.8823 -0.5666  0.5593
10299WAT     H241903   1.494   5.549   3.898  1.0770 -2.2890  3.5991
10299WAT    EPW41904   1.566   5.579   3.892 -0.1181  0.2174 -0.1592
10300WAT      O41905   0.682   4.796   2.514  0.2333  0.1637 -0.1104
10300WAT     H141906   0.707   4.752   2.585 -1.0981  0.9839  0.9175
10300WAT     H241907   0.610   4.753   2.488 -0.3846  0.9856  0.1943
10300WAT    EPW41908   0.675   4.783   2.521  0.8594 -0.4185 -0.2799
10301WAT      O41909   1.659   3.722   3.321 -0.0249  0.7441 -0.5186
10301WAT     H141910   1.745   3.735   3.320 -0.2471  2.4975  0.2160
10301WAT     H241911   1.632   3.758   3.246  0.0270 -1.4877 -1.7074
10301WAT    EPW41912   1.668   3.729   3.310  0.3374 -0.1639  0.9369
10302WAT      O41913   1.429   4.443   3.816 -0.6548  0.1299 -0.1947
10302WAT     H141914   1.352   4.448   3.775 -1.5415 -1.4235  1.1804
10302WAT     H241915   1.484   4.419   3.753 -1.5250  0.0876 -0.9644
10302WAT    EPW41916   1.425   4.440   3.800 -0.1077 -0.8977 -0.2337
10303WAT      O41917   1.878   3.663   2.142  0.5193  0.2551 -0.0192
10303WAT     H141918   1.946   3.642   2.093  0.8478  1.5098 -0.1455
10303WAT     H241919   1.827   3.592   2.138  0.5291  0.2938 -2.1713
10303WAT    EPW41920   1.880   3.650   2.134  0.7020 -0.2295 -0.2890
10304WAT      O41921   2.398   4.521   3.687  0.4089  0.5876 -0.3955
10304WAT     H141922   2.441   4.587   3.648  1.1780  0.9173  0.9552
10304WAT     H241923   2.417   4.531   3.771  0.0627 -1.0329 -0.0929
10304WAT    EPW41924   2.407   4.533   3.694  0.1788 -0.3381  0.0709
10305WAT      O41925   3.419   1.800   3.066 -0.2717  0.3484  0.3378
10305WAT     H141926   3.400   1.875   3.107 -1.6851 -1.5779  3.5295
10305WAT     H241927   3.502   1.785   3.089 -0.1704  0.6157  0.1600
10305WAT    EPW41928   3.428   1.809   3.076  0.2684  0.0557  0.1602
10306WAT      O41929   3.741   4.548   4.046 -1.0118 -0.0328  0.4748
10306WAT     H141930   3.733   4.594   4.120  1.0633 -0.9595  1.3421
10306WAT     H241931   3.775   4.472   4.072  1.6010  0.2837 -1.5679
10306WAT    EPW41932   3.745   4.544   4.061 -0.1808  0.8348  0.0792
10307WAT      O41933   1.146   4.179   3.599 -0.0035 -0.2008  0.0663
10307WAT     H141934   1.075   4.141   3.631 -0.4938 -0.5919 -1.3972
10307WAT     H241935   1.144   4.158   3.514  1.3405  0.5828 -0.1907
10307WAT    EPW41936   1.135   4.170   3.591 -0.0059  0.4428 -0.2977
10308WAT      O41937   2.444   3.549   2.710 -0.0928  0.2711  0.0424
10308WAT     H141938   2.380   3.590   2.666 -0.3402 -0.7721 -0.5992
10308WAT     H241939   2.490   3.615   2.745 -0.8627  1.0727 -0.4087
10308WAT    EPW41940   2.441   3.565   2.709 -0.7608 -0.6141  0.6874
10309WAT      O41941   1.912   3.991   2.603 -0.0010 -0.9558 -0.3157
10309WAT     H141942   1.946   3.969   2.526 -0.8894  0.8771 -1.3041
10309WAT     H241943   1.826   3.979   2.591 -0.0621 -1.7136  0.7816
10309WAT    EPW41944   1.904   3.986   2.590 -0.0172  0.2333 -0.3719
10310WAT      O41945   1.378   3.510   3.341  0.2551  0.1140 -0.4401
10310WAT     H141946   1.359   3.427   3.323  0.5476  0.3378 -1.9164
10310WAT     H241947   1.442   3.503   3.400  1.3091 -0.7713 -1.6109
10310WAT    EPW41948   1.385   3.496   3.347  0.5555  0.2779  0.4514
10311WAT      O41949   2.688   3.047   3.694 -0.3971 -0.4323 -0.1855
10311WAT     H141950   2.652   2.970   3.713 -2.2648  0.4751  0.2182
10311WAT     H241951   2.715   3.037   3.612 -2.7443 -0.8583 -1.0040
10311WAT    EPW41952   2.686   3.034   3.685 -0.2356  0.2876 -0.2498
10312WAT      O41953   2.887   3.350   3.305  0.6207 -0.1823  0.5766
10312WAT     H141954   2.811   3.390   3.289 -0.6509 -2.3283  0.9728
10312WAT     H241955   2.946   3.408   3.276 -1.1623  1.1193 -0.7299
10312WAT    EPW41956   2.885   3.365   3.298 -0.2359  0.6662  0.8733
10313WAT      O41957   1.823   3.937   3.853 -0.1120 -0.0989  0.0985
10313WAT     H141958   1.766   3.900   3.799  2.3032  0.3872 -3.1069
10313WAT     H241959   1.773   3.980   3.910 -2.9185 -0.4375 -1.9094
10313WAT    EPW41960   1.807   3.938   3.853  0.2079  0.3540 -0.6926
10314WAT      O41961   2.567   3.846   4.684 -0.4574 -0.1997  0.7442
10314WAT     H141962   2.599   3.777   4.643 -1.3675  0.0438 -0.4231
10314WAT     H241963   2.632   3.904   4.681  0.6238 -1.2104  2.4542
10314WAT    EPW41964   2.581   3.844   4.678  0.6929 -0.2398 -0.2041
10315WAT      O41965   2.513   3.346   4.247 -0.2956  0.2917  0.5170
10315WAT     H141966   2.469   3.417   4.270 -0.4810  0.4517 -0.2976
10315WAT     H241967   2.458   3.280   4.264 -0.8075  0.4796 -0.3793
10315WAT    EPW41968   2.499   3.347   4.253  0.6016  0.4789  0.0640
10316WAT      O41969   1.869   4.398   3.015 -0.3099  0.2185 -0.1767
10316WAT     H141970   1.879   4.476   2.978 -1.0421  1.0098  1.2097
10316WAT     H241971   1.782   4.386   3.015 -0.3107  0.1430  1.0533
10316WAT    EPW41972   1.857   4.408   3.009 -0.5559 -0.2112 -0.1558
10317WAT      O41973   2.744   3.380   4.387 -0.1567  0.4554 -0.2781
10317WAT     H141974   2.672   3.368   4.339 -0.3642  0.7628 -0.0439
10317WAT     H241975   2.801   3.415   4.330 -0.8667  2.1902  0.0387
10317WAT    EPW41976   2.742   3.384   4.371  0.0532  0.0114 -0.9242
10318WAT      O41977   1.493   3.674   4.264  0.2349  0.4253 -0.2048
10318WAT     H141978   1.500   3.759   4.244 -0.0951  0.5296  0.1067
10318WAT     H241979   1.541   3.667   4.337  0.2962  0.3357 -0.2544
10318WAT    EPW41980   1.501   3.686   4.272 -0.6068 -0.6931 -0.4509
10319WAT      O41981   0.920   3.300   3.874  0.3291  0.0530 -0.2147
10319WAT     H141982   0.881   3.331   3.802  2.2103 -1.1626 -1.8668
10319WAT     H241983   0.877   3.226   3.891 -0.5704  0.6875  0.3894
10319WAT    EPW41984   0.908   3.294   3.866 -0.0742 -0.3754 -0.8667
10320WAT      O41985   0.429   4.877   3.007 -0.4273  0.0818 -0.5946
10320WAT     H141986   0.469   4.941   2.963 -0.3722  0.6722  0.2851
10320WAT     H241987   0.433   4.809   2.953  0.7482  0.4454 -0.9865
10320WAT    EPW41988   0.435   4.877   2.993  0.2615 -0.1336  0.7029
10321WAT      O41989   0.845   3.449   4.138  0.1972  0.3881  0.0808
10321WAT     H141990   0.829   3.395   4.072 -0.8597  1.3125 -0.4358
10321WAT     H241991   0.831   3.400   4.209 -0.4729 -0.0875 -0.3776
10321WAT    EPW41992   0.841   3.434   4.139 -0.8351 -0.6372 -1.2263
10322WAT      O41993   2.858   4.475   3.560  0.6244 -0.3430 -0.3053
10322WAT     H141994   2.825   4.446   3.636 -3.7668  0.4949 -1.6057
10322WAT     H241995   2.886   4.555   3.580 -1.4770  0.3094  0.3607
10322WAT    EPW41996   2.857   4.482   3.574 -0.2604 -0.2549 -0.1284
10323WAT      O41997   1.736   4.440   2.488 -0.2615 -0.7359 -0.2820
10323WAT     H141998   1.729   4.452   2.574 -1.3095 -0.0852 -0.4491
10323WAT     H241999   1.676   4.380   2.471 -0.3568 -0.5414 -0.6325
10323WAT    EPW42000   1.726   4.433   2.498  0.3208  0.1270 -1.0978
10324WAT      O42001   3.124   3.203   3.480  0.1448  0.7482  0.7031
10324WAT     H142002   3.072   3.256   3.526  1.5006  1.9425  0.9476
10324WAT     H242003   3.194   3.194   3.531  0.5082 -0.1957  0.0626
10324WAT    EPW42004   3.127   3.210   3.494  0.0757 -0.5462 -0.4365
10325WAT      O42005   1.916   3.970   3.033 -0.1111 -0.3765  0.1854
10325WAT     H142006   1.977   3.908   3.040 -0.5691 -0.8142  0.3798
10325WAT     H242007   1.943   4.019   2.966  0.7149 -0.2652  0.5883
10325WAT    EPW42008   1.929   3.968   3.024 -0.3222  0.4055 -0.3000
10326WAT      O42009   2.790   3.610   4.188 -0.1071 -0.0158  0.5909
10326WAT     H142010   2.776   3.680   4.139 -0.0660 -0.7790 -0.5465
10326WAT     H242011   2.853   3.635   4.243  1.2081  0.2893 -0.9961
10326WAT    EPW42012   2.797   3.624   4.189 -0.7598 -0.2340  0.5500
10327WAT      O42013   1.209   2.298   2.715 -0.7378 -0.1734  0.2264
10327WAT     H142014   1.131   2.260   2.707 -0.4418 -0.4890 -1.5112
10327WAT     H242015   1.254   2.268   2.647  0.7091  0.4980  0.8371
10327WAT    EPW42016   1.204   2.288   2.704  0.4887  0.1937  0.7810
10328WAT      O42017   3.105   2.649   3.754 -0.4735  0.1510 -0.6256
10328WAT     H142018   3.173   2.610   3.717 -0.6090 -1.6854  0.9069
10328WAT     H242019   3.140   2.718   3.794 -0.3364  2.2444 -4.0391
10328WAT    EPW42020   3.120   2.653   3.755 -0.2001  0.1067  0.1269
10329WAT      O42021   2.269   4.315   3.954  0.2095 -0.0092 -0.0543
10329WAT     H142022   2.263   4.275   3.876  0.2513 -0.5067  0.1928
10329WAT     H242023   2.279   4.249   4.010 -0.9241  0.2594  0.5053
10329WAT    EPW42024   2.269   4.299   3.951 -1.0689  0.3003  0.4938
10330WAT      O42025   0.877   4.455   2.202 -0.0226  0.1737  0.1255
10330WAT     H142026   0.952   4.414   2.218  0.2636  0.0494 -1.4222
10330WAT     H242027   0.888   4.533   2.238  1.2465  0.5123 -0.9331
10330WAT    EPW42028   0.890   4.460   2.210 -0.5413  0.2106 -0.0993
10331WAT      O42029   1.688   4.106   4.699 -0.0802  0.5946  0.4208
10331WAT     H142030   1.691   4.100   4.612 -1.8805 -1.1391  0.3993
10331WAT     H242031   1.736   4.038   4.726 -0.7461  0.2354  0.7307
10331WAT    EPW42032   1.696   4.095   4.690  0.2840 -1.0233 -0.0031
10332WAT      O42033   1.932   3.358   2.984 -0.3164  0.1388 -0.2292
10332WAT     H142034   1.893   3.304   3.040  0.8506  0.9836  1.4756
10332WAT     H242035   1.882   3.429   2.985 -0.0820  0.3027  0.0667
10332WAT    EPW42036   1.919   3.361   2.992  0.1732  0.3981  0.3158
10333WAT      O42037   0.620   4.055   2.173 -0.1535  0.2254  0.6913
10333WAT     H142038   0.676   4.018   2.229  0.3833 -2.4807 -1.3848
10333WAT     H242039   0.547   4.008   2.182  0.0035 -0.3939 -0.9079
10333WAT    EPW42040   0.618   4.042   2.182 -0.4050 -0.9002 -0.2289
10334WAT      O42041   1.067   3.913   4.027 -0.0182  0.1092 -0.0569
10334WAT     H142042   1.138   3.862   4.033 -0.3661 -0.3810 -0.0246
10334WAT     H242043   1.004   3.857   4.005 -0.1692  0.7415 -1.2841
10334WAT    EPW42044   1.068   3.897   4.025  0.0158 -0.5518 -0.1437
10335WAT      O42045   1.742   4.194   2.124 -0.1430 -0.2278 -0.2154
10335WAT     H142046   1.722   4.259   2.068 -0.4418 -0.6661 -0.6204
10335WAT     H242047   1.665   4.172   2.158  0.0865  0.3482  0.7412
10335WAT    EPW42048   1.728   4.201   2.121 -0.3234  0.0709 -0.0995
10336WAT      O42049   2.772   4.027   4.617 -0.2473 -1.1817  0.3871
10336WAT     H142050   2.830   4.087   4.644 -1.5759 -0.3389  1.5697
10336WAT     H242051   2.818   3.975   4.565  1.3634 -0.0864  0.6441
10336WAT    EPW42052   2.788   4.028   4.613 -0.9570  0.1705  0.0062
10337WAT      O42053   2.673   5.030   2.212  0.3704  0.4212 -0.3590
10337WAT     H142054   2.722   5.015   2.141  0.3197 -1.4545 -0.0534
10337WAT     H242055   2.701   4.969   2.268 -2.9824 -1.4869 -0.5412
10337WAT    EPW42056   2.685   5.019   2.210 -0.1220  0.6987 -1.0271
10338WAT      O42057   1.540   3.843   3.527  0.4570  0.0558  0.2409
10338WAT     H142058   1.577   3.804   3.596  0.5118 -0.7926 -0.2435
10338WAT     H242059   1.574   3.800   3.459  0.7065  1.1395 -0.3373
10338WAT    EPW42060   1.550   3.831   3.527  0.9659  0.2033 -0.4566
10339WAT      O42061   2.366   2.385   2.325 -0.9493 -0.1384  0.2985
10339WAT     H142062   2.448   2.400   2.300 -0.1221 -0.3701  2.6128
10339WAT     H242063   2.345   2.310   2.285 -0.3871  0.3698 -1.0018
10339WAT    EPW42064   2.375   2.376   2.315 -0.0203  0.7821 -0.5976
10340WAT      O42065   2.130   4.573   3.603  0.4507 -0.5546 -0.4268
10340WAT     H142066   2.076   4.588   3.670 -0.3647  1.1447 -1.3816
10340WAT     H242067   2.209   4.590   3.637  0.1569 -0.7590  0.3818
10340WAT    EPW42068   2.134   4.578   3.618  0.0582  0.5988 -0.9159
10341WAT      O42069   1.896   4.851   4.457  0.3379  0.3551  0.2316
10341WAT     H142070   1.842   4.906   4.498 -0.3038 -0.0100 -0.1035
10341WAT     H242071   1.902   4.783   4.512 -1.4188 -0.6393 -0.7036
10341WAT    EPW42072   1.889   4.849   4.471  0.4456 -0.2769 -0.5678
10342WAT      O42073   2.732   3.897   3.572  0.3396 -0.1377 -0.1296
10342WAT     H142074   2.796   3.956   3.578  0.1453  0.2420 -1.4824
10342WAT     H242075   2.739   3.851   3.646  1.5247  0.5424  0.2010
10342WAT    EPW42076   2.743   3.899   3.584 -0.1065 -0.0053 -0.0504
10343WAT      O42077   2.533   4.075   2.976  0.2879  0.2012 -0.4355
10343WAT     H142078   2.524   4.162   2.977  2.1518  0.4478 -1.2999
10343WAT     H242079   2.454   4.047   2.952 -1.7404  1.3199  3.8755
10343WAT    EPW42080   2.520   4.084   2.973 -0.3004  0.2986 -0.6350
10344WAT      O42081   2.614   3.025   3.263  0.4304  0.2024  0.3144
10344WAT     H142082   2.612   3.027   3.176  0.8798  0.7737  0.3147
10344WAT     H242083   2.562   2.958   3.283 -0.4653  0.6685 -0.3674
10344WAT    EPW42084   2.606   3.016   3.253 -0.3016  0.1593 -0.7129
10345WAT      O42085   2.547   2.219   4.058 -0.0785  0.3759 -0.3552
10345WAT     H142086   2.627   2.247   4.035  0.0749  1.0402  0.9211
10345WAT     H242087   2.564   2.147   4.105 -0.1860  0.7964  0.3412
10345WAT    EPW42088   2.561   2.212   4.061 -0.0377  0.3009  0.3303
10346WAT      O42089   2.171   5.279   5.903  0.3450 -0.3149 -0.7626
10346WAT     H142090   2.165   5.360   5.935 -0.7206 -0.0537 -1.5698
10346WAT     H242091   2.218   5.237   5.963 -3.1308 -0.3800  2.2100
10346WAT    EPW42092   2.177   5.285   5.917  0.0578  1.3939 -0.3294
10347WAT      O42093   1.902   4.543   3.783 -0.1501  0.3399  0.5445
10347WAT     H142094   1.892   4.480   3.724  0.1855  1.6549 -0.9661
10347WAT     H242095   1.824   4.581   3.786 -0.1762  0.2619  0.9882
10347WAT    EPW42096   1.889   4.539   3.775 -0.0676 -0.2720 -0.6952
10348WAT      O42097   3.148   2.937   3.018  0.3516 -0.0617 -0.9043
10348WAT     H142098   3.090   2.974   2.964  0.2793  1.4428  0.1548
10348WAT     H242099   3.133   2.852   3.007 -1.3786  0.2581 -1.4054
10348WAT    EPW42100   3.137   2.930   3.008  0.9162  0.1694 -0.6638
10349WAT      O42101   2.275   4.684   1.991  0.8228  0.1201  0.5233
10349WAT     H142102   2.274   4.731   2.065 -1.0826  0.1779  0.5266
10349WAT     H242103   2.329   4.729   1.939  0.2337  1.5045  1.0483
10349WAT    EPW42104   2.283   4.698   1.994  0.1604 -0.2299 -0.7119
10350WAT      O42105   3.263   4.160   3.689 -0.5172  0.2819 -0.3117
10350WAT     H142106   3.266   4.170   3.602 -0.4190  0.6474 -0.2677
10350WAT     H242107   3.197   4.105   3.701  0.1717 -0.6627 -0.6943
10350WAT    EPW42108   3.254   4.153   3.678  0.3053 -0.1686 -0.3238
10351WAT      O42109   2.490   4.162   4.705 -0.1634  0.6538  0.4756
10351WAT     H142110   2.448   4.235   4.729  0.8599  1.1384  0.8489
10351WAT     H242111   2.547   4.150   4.769 -0.0979 -0.3061  0.2459
10351WAT    EPW42112   2.492   4.171   4.718  0.1782 -0.3162 -0.6756
10352WAT      O42113   1.539   4.726   2.224 -0.3785 -0.5802  0.1656
10352WAT     H142114   1.587   4.675   2.276 -0.0744 -0.4057  0.0529
10352WAT     H242115   1.475   4.755   2.276  1.4702  1.8722  1.2209
10352WAT    EPW42116   1.536   4.723   2.239  0.2605  0.6882  0.2977
10353WAT      O42117   1.245   3.124   3.046 -0.4809  0.4076 -0.2591
10353WAT     H142118   1.310   3.142   2.991 -1.7318  0.7140 -1.7180
10353WAT     H242119   1.239   3.037   3.042 -1.3811  0.4929 -1.6813
10353WAT    EPW42120   1.253   3.114   3.037 -0.4244  0.0332 -0.2238
10354WAT      O42121   2.250   3.719   2.591  0.2725 -1.1581 -0.0467
10354WAT     H142122   2.201   3.663   2.545  1.5014 -0.7546 -1.9666
10354WAT     H242123   2.192   3.757   2.645 -2.3043  1.2339 -3.9475
10354WAT    EPW42124   2.234   3.716   2.592 -0.2276 -0.1418  0.2551
10355WAT      O42125   2.615   4.872   3.713  0.1659 -0.0120 -0.1020
10355WAT     H142126   2.617   4.959   3.717 -0.5086 -0.0281  2.5824
10355WAT     H242127   2.601   4.848   3.796 -1.5480 -2.6219 -1.0121
10355WAT    EPW42128   2.613   4.881   3.726  0.2189 -0.1208  0.5720
10356WAT      O42129   2.792   3.344   5.111  0.2413 -0.2122 -0.1785
10356WAT     H142130   2.790   3.272   5.062  0.4238 -0.4195  0.1121
10356WAT     H242131   2.758   3.318   5.187  0.4095 -0.0234 -0.0361
10356WAT    EPW42132   2.787   3.330   5.115  0.1296 -0.5275 -0.3520
10357WAT      O42133   0.878   4.633   1.578 -0.3206  0.4369  0.6759
10357WAT     H142134   0.863   4.550   1.557  0.9978  0.3476 -0.0361
10357WAT     H242135   0.965   4.638   1.584 -0.4277  1.5069  1.8706
10357WAT    EPW42136   0.889   4.622   1.576  0.7987  0.9815  0.1193
10358WAT      O42137   1.548   2.696   3.711 -0.1100  0.3074  0.1995
10358WAT     H142138   1.537   2.612   3.729 -0.2179  0.0245 -1.0964
10358WAT     H242139   1.552   2.734   3.789 -0.7951 -0.8030  0.7869
10358WAT    EPW42140   1.547   2.689   3.725 -0.2281  0.0428 -1.3514
10359WAT      O42141   2.118   2.484   3.018  0.3975 -0.2149  0.1639
10359WAT     H142142   2.192   2.437   3.017  1.1302  0.7712  2.2396
10359WAT     H242143   2.061   2.431   3.059  0.7261 -0.0130  0.9108
10359WAT    EPW42144   2.120   2.469   3.024 -0.0435 -0.2661 -0.1207
10360WAT      O42145   1.491   3.505   2.679 -0.0640 -0.3488  0.5304
10360WAT     H142146   1.450   3.580   2.663 -0.1968 -0.3830  0.7062
10360WAT     H242147   1.574   3.522   2.659  0.1420  0.2428  1.8304
10360WAT    EPW42148   1.497   3.519   2.674  0.4626 -0.4409 -0.4178
10361WAT      O42149   3.060   4.255   3.886 -0.4144 -0.5313 -1.0240
10361WAT     H142150   2.983   4.296   3.876 -2.0799 -2.7057  1.5141
10361WAT     H242151   3.046   4.176   3.851  0.8133 -0.8123 -0.9117
10361WAT    EPW42152   3.046   4.250   3.879  0.1403 -0.3421 -0.8087
10362WAT      O42153   1.361   2.906   2.418  0.1492 -0.0093  0.5089
10362WAT     H142154   1.356   2.987   2.452 -1.0205  0.5695 -0.9564
10362WAT     H242155   1.423   2.913   2.358  2.0257 -0.9731  2.2025
10362WAT    EPW42156   1.369   2.919   2.414 -0.0299  0.0514 -0.2287
10363WAT      O42157   1.966   3.981   5.752 -0.4288 -0.0552 -0.3767
10363WAT     H142158   2.008   3.964   5.677 -0.0038  1.4008 -0.5068
10363WAT     H242159   2.019   3.949   5.813 -0.3482 -0.4654 -0.6583
10363WAT    EPW42160   1.980   3.974   5.750  0.2061  0.3535 -0.4599
10364WAT      O42161   3.510   4.558   2.334 -0.3240  0.1221  0.3065
10364WAT     H142162   3.575   4.553   2.391  0.3007  2.2591 -0.1006
10364WAT     H242163   3.524   4.492   2.279  1.4443  0.4449  0.3188
10364WAT    EPW42164   3.522   4.548   2.334 -0.0887  0.0211  0.4842
10365WAT      O42165   2.418   3.645   4.251 -0.1450  0.4754 -0.4581
10365WAT     H142166   2.354   3.697   4.223 -1.4787 -1.8575 -2.1030
10365WAT     H242167   2.376   3.591   4.306  0.5042 -0.7421 -1.1339
10365WAT    EPW42168   2.402   3.645   4.255  0.0809 -0.3485 -0.4980
10366WAT      O42169   3.141   2.598   3.297  0.4187  0.6382 -0.1337
10366WAT     H142170   3.155   2.613   3.212  1.7875  0.5252  0.0483
10366WAT     H242171   3.096   2.668   3.322 -0.5541  0.3830 -1.0625
10366WAT    EPW42172   3.136   2.611   3.288  0.6771  0.4714  0.1270
10367WAT      O42173   2.615   5.438   3.351  0.1297 -0.1945  0.3569
10367WAT     H142174   2.580   5.371   3.395  0.5480 -0.7849 -0.1843
10367WAT     H242175   2.694   5.408   3.328  0.6135  0.7600  0.7295
10367WAT    EPW42176   2.621   5.423   3.354 -0.1459  0.5575  0.2611
10368WAT      O42177   1.449   3.171   3.642  0.3563 -0.0760 -0.1909
10368WAT     H142178   1.387   3.111   3.627  0.5419 -0.0869 -0.9447
10368WAT     H242179   1.515   3.125   3.677  0.6303 -0.3798 -1.0873
10368WAT    EPW42180   1.450   3.155   3.645  1.5029 -0.1344  0.3445
10369WAT      O42181   2.278   4.316   2.555 -0.2485  0.1219 -0.4824
10369WAT     H142182   2.191   4.303   2.554 -0.2991  0.4216 -0.1329
10369WAT     H242183   2.309   4.244   2.515 -0.5534 -0.7819  0.8411
10369WAT    EPW42184   2.270   4.303   2.549 -0.0048 -0.9585  0.9072
10370WAT      O42185   1.052   4.137   4.456 -0.4042  0.0357 -0.1487
10370WAT     H142186   1.062   4.190   4.387  0.5050  0.0479 -0.0230
10370WAT     H242187   1.130   4.141   4.496 -1.0973  0.4901  1.2185
10370WAT    EPW42188   1.065   4.146   4.451  0.1387  0.7005 -1.3276
10371WAT      O42189   1.758   2.509   3.253  0.1732  0.4360 -0.3911
10371WAT     H142190   1.800   2.585   3.255 -0.5173  0.8209  1.6980
10371WAT     H242191   1.743   2.491   3.337 -0.6539 -1.4743 -0.8812
10371WAT    EPW42192   1.762   2.517   3.266 -0.1743  0.6834  0.2030
10372WAT      O42193   2.699   3.638   4.544  0.2332 -0.3424  0.0134
10372WAT     H142194   2.746   3.693   4.495  1.7040 -0.2165  1.4938
10372WAT     H242195   2.681   3.573   4.488  1.8061 -0.1842 -0.7515
10372WAT    EPW42196   2.704   3.636   4.528  0.7386 -0.1849 -0.5978
10373WAT      O42197   1.774   3.487   4.675 -0.9566 -0.1515  0.2465
10373WAT     H142198   1.687   3.494   4.670 -1.0636 -0.4008  1.4525
10373WAT     H242199   1.787   3.406   4.704 -0.4740  0.7097  2.6385
10373WAT    EPW42200   1.763   3.476   4.678  0.1959 -0.2198  0.4642
10374WAT      O42201   4.000   4.654   4.108 -0.0539 -0.5986 -0.3798
10374WAT     H142202   3.974   4.709   4.171  0.4089  1.1466 -1.6129
10374WAT     H242203   3.926   4.627   4.072 -0.3393  1.5451 -1.5854
10374WAT    EPW42204   3.985   4.658   4.112 -0.3172  0.1973 -0.7477
10375WAT      O42205   2.621   3.999   4.956 -0.2625 -0.5506 -0.3667
10375WAT     H142206   2.700   4.030   4.936 -1.3831  2.5489 -0.6227
10375WAT     H242207   2.633   3.913   4.962  2.9578 -0.2695 -1.0306
10375WAT    EPW42208   2.634   3.991   4.954 -0.5216 -0.6036  0.0694
10376WAT      O42209   2.576   3.756   2.821 -0.1196 -0.3802  1.1280
10376WAT     H142210   2.560   3.756   2.907  0.4054  0.4197  1.2371
10376WAT     H242211   2.534   3.828   2.793 -0.3661 -0.6888  0.6969
10376WAT    EPW42212   2.567   3.767   2.829 -0.1360 -0.9050  0.7218
10377WAT      O42213   2.898   4.753   3.361  0.1074  0.1715  0.6205
10377WAT     H142214   2.914   4.792   3.438 -1.8988 -0.9999  1.7111
10377WAT     H242215   2.811   4.763   3.351  0.0789 -1.1130 -0.6899
10377WAT    EPW42216   2.887   4.760   3.371 -0.6693 -0.5790  0.0614
10378WAT      O42217   1.473   5.363   2.320 -0.3246  0.3355 -0.0112
10378WAT     H142218   1.465   5.361   2.233  1.7931  1.6060 -0.3127
10378WAT     H242219   1.394   5.339   2.348 -0.4135 -2.6426 -2.2339
10378WAT    EPW42220   1.460   5.359   2.311  0.4262 -1.1793  0.0835
10379WAT      O42221   2.598   4.348   2.695 -0.6249 -0.2831 -0.0053
10379WAT     H142222   2.604   4.411   2.635  0.4233  0.6950  1.0764
10379WAT     H242223   2.676   4.309   2.692 -0.8430 -0.7380  0.1690
10379WAT    EPW42224   2.611   4.352   2.686  1.1756 -0.9483  0.3240
10380WAT      O42225   2.990   3.464   4.674 -0.2666 -0.2290  0.1225
10380WAT     H142226   3.002   3.470   4.588 -0.7236  0.0632  0.0724
10380WAT     H242227   3.032   3.391   4.696  2.0411  1.0022  0.0754
10380WAT    EPW42228   2.998   3.454   4.664  0.2574 -0.2220 -0.7281
10381WAT      O42229   1.955   3.767   3.274  0.2455  0.3754 -0.2771
10381WAT     H142230   1.995   3.753   3.198  0.9485 -2.4197  0.5095
10381WAT     H242231   2.005   3.826   3.313  1.8322 -0.6925 -0.6218
10381WAT    EPW42232   1.968   3.774   3.269 -0.3284 -0.2841 -0.5407
10382WAT      O42233   1.849   3.391   3.771  0.4547 -0.1947  1.0577
10382WAT     H142234   1.865   3.337   3.705 -0.0409 -0.2124  0.9486
10382WAT     H242235   1.872   3.344   3.841  0.1468 -0.5057  0.9567
10382WAT    EPW42236   1.855   3.376   3.772  1.0410  0.6602 -0.2727
10383WAT      O42237   2.494   5.215   3.520  0.0396  0.5120 -0.4857
10383WAT     H142238   2.434   5.152   3.530  0.6026 -0.0939 -0.8548
10383WAT     H242239   2.545   5.206   3.591 -0.1948  0.9158 -0.2594
10383WAT    EPW42240   2.493   5.205   3.532  0.3203  0.0541 -1.2096
10384WAT      O42241   3.030   3.476   4.404  0.0689  0.3440  0.2422
10384WAT     H142242   3.089   3.416   4.382  0.3056  0.6580  0.0016
10384WAT     H242243   3.071   3.551   4.387  0.9264  0.7129  3.3131
10384WAT    EPW42244   3.045   3.478   4.398 -0.2790 -0.2471 -0.8054
10385WAT      O42245   2.654   2.466   3.639  0.0640 -0.1014 -0.2631
10385WAT     H142246   2.724   2.441   3.685  0.6657 -1.8574 -2.0071
10385WAT     H242247   2.587   2.432   3.684  0.5654 -1.0444 -0.2092
10385WAT    EPW42248   2.654   2.457   3.652  0.2102 -0.0459  0.2245
10386WAT      O42249   2.392   4.520   4.402  0.0481  0.2858  0.1700
10386WAT     H142250   2.457   4.482   4.445  0.7460  1.7947  0.5137
10386WAT     H242251   2.417   4.604   4.395 -0.2550  0.2604 -2.6952
10386WAT    EPW42252   2.405   4.527   4.407  0.3605  0.1254  0.6759
10387WAT      O42253   2.887   4.485   4.767  0.0394  0.8480 -0.3852
10387WAT     H142254   2.941   4.548   4.740  0.4748  0.9806  0.7406
10387WAT     H242255   2.926   4.412   4.741  1.5283  0.8570  1.5948
10387WAT    EPW42256   2.900   4.484   4.759 -0.7729 -0.1688 -0.2605
10388WAT      O42257   2.617   4.555   2.509 -0.0598 -0.8808 -0.1061
10388WAT     H142258   2.544   4.555   2.460 -0.1570 -0.3752  0.0342
10388WAT     H242259   2.595   4.603   2.578  0.1787 -1.3314  0.2834
10388WAT    EPW42260   2.603   4.562   2.512  0.1218  0.0753 -0.3044
10389WAT      O42261   1.939   3.939   3.595  0.0252  0.2275  0.0651
10389WAT     H142262   2.020   3.953   3.568  0.5463 -3.3438 -0.6881
10389WAT     H242263   1.948   3.918   3.679 -0.5739  2.5993  0.8099
10389WAT    EPW42264   1.952   3.938   3.604  0.4867 -0.0126 -0.6872
10390WAT      O42265   1.443   4.248   4.014  0.1656  0.5195 -0.2109
10390WAT     H142266   1.441   4.288   3.937  1.5450 -0.9187 -1.0586
10390WAT     H242267   1.360   4.222   4.025 -0.2307  1.4815 -0.7753
10390WAT    EPW42268   1.430   4.250   4.004 -0.9632  0.0506  0.0085
10391WAT      O42269   2.614   3.256   4.630 -0.0837 -0.0095 -0.7647
10391WAT     H142270   2.621   3.309   4.699  1.0336  0.6551 -1.3562
10391WAT     H242271   2.655   3.299   4.567  2.2184 -2.1296 -0.9107
10391WAT    EPW42272   2.621   3.270   4.631 -0.1873  0.0349 -0.1846
10392WAT      O42273   2.633   5.827   5.257  0.1621 -0.1460 -0.0412
10392WAT     H142274   2.700   5.770   5.256  0.9406  0.7058  0.8225
10392WAT     H242275   2.563   5.776   5.245  0.7896 -1.3603  1.1170
10392WAT    EPW42276   2.633   5.811   5.255 -0.2464  0.6694 -0.1916
10393WAT      O42277   2.796   3.564   3.772  0.0145  0.3559  0.3154
10393WAT     H142278   2.710   3.577   3.765 -0.2456  0.7253  3.1389
10393WAT     H242279   2.827   3.644   3.791  0.4994 -0.2524  2.3776
10393WAT    EPW42280   2.788   3.578   3.774  0.3178  0.0441  0.4620
10394WAT      O42281   3.198   3.047   4.169  0.0731  0.1556 -0.0972
10394WAT     H142282   3.245   3.015   4.103  1.5047  0.7886  0.5630
10394WAT     H242283   3.227   3.002   4.238 -0.6044  0.2661  0.2658
10394WAT    EPW42284   3.209   3.036   4.169  0.0598 -0.2490 -0.1762
10395WAT      O42285   3.124   2.331   3.637 -0.3278  0.1160  0.0055
10395WAT     H142286   3.187   2.344   3.696  0.0221  2.8815 -0.8397
10395WAT     H242287   3.143   2.253   3.604  0.7006 -0.5745  2.0365
10395WAT    EPW42288   3.136   2.322   3.641  0.0643  0.5951  0.3276
10396WAT      O42289   2.184   2.865   3.990  0.1457  0.1146 -0.5735
10396WAT     H142290   2.263   2.841   3.962  0.3327 -0.3269  0.3115
10396WAT     H242291   2.132   2.799   3.964 -0.2525  1.1133 -2.5399
10396WAT    EPW42292   2.188   2.852   3.982 -0.1067 -0.0214 -0.0460
10397WAT      O42293   1.828   4.704   3.510 -0.4284 -0.3993 -0.4817
10397WAT     H142294   1.848   4.623   3.536 -2.4050 -0.7290  0.2368
10397WAT     H242295   1.746   4.715   3.539  0.2605  2.4160  0.6721
10397WAT    EPW42296   1.819   4.694   3.518  0.4352 -0.2176 -0.5687
10398WAT      O42297   2.888   3.819   1.919  0.4095 -0.4235 -0.4044
10398WAT     H142298   2.970   3.848   1.923 -0.0926  1.2456 -1.3115
10398WAT     H242299   2.847   3.861   1.984  0.2307 -1.1966  0.0025
10398WAT    EPW42300   2.894   3.829   1.929 -0.2772 -0.2721  0.6763
10399WAT      O42301   1.904   4.372   1.889  0.0622 -0.4952  0.0072
10399WAT     H142302   1.875   4.316   1.829  0.4895  0.6911 -1.3701
10399WAT     H242303   1.986   4.346   1.902  0.0613 -0.5849 -0.1565
10399WAT    EPW42304   1.912   4.360   1.882 -0.2509 -0.3797  0.9188
10400WAT      O42305   2.790   3.871   4.055 -0.7837 -0.1373 -0.2170
10400WAT     H142306   2.855   3.911   4.098 -0.1980  0.0160 -1.1953
10400WAT     H242307   2.817   3.874   3.972 -1.1999 -1.6850 -0.4426
10400WAT    EPW42308   2.804   3.877   4.049 -0.1446 -0.2570  0.2620
10401WAT      O42309   2.804   4.701   3.918  0.5754 -0.1825  0.4010
10401WAT     H142310   2.787   4.736   3.840 -1.2213 -0.5140  0.6047
10401WAT     H242311   2.828   4.768   3.967 -1.4397  0.5904  0.4068
10401WAT    EPW42312   2.805   4.716   3.914  0.2977 -0.1445  0.0847
10402WAT      O42313   2.093   4.682   3.338  0.2811  0.9143 -0.5450
10402WAT     H142314   2.100   4.656   3.421  0.7859  2.1515 -0.1730
10402WAT     H242315   2.140   4.624   3.294 -0.7963 -0.3459 -0.1218
10402WAT    EPW42316   2.101   4.670   3.344 -0.2372  0.5859 -1.0183
10403WAT      O42317   2.771   4.857   5.745 -0.3361  0.0185  0.2945
10403WAT     H142318   2.773   4.828   5.663 -0.9598  0.0839  0.2533
10403WAT     H242319   2.689   4.842   5.770 -0.2447  0.3209  0.7915
10403WAT    EPW42320   2.759   4.850   5.737  0.1178 -0.4962  0.1830
10404WAT      O42321   2.874   4.567   4.140 -0.7092  0.0746 -0.5439
10404WAT     H142322   2.842   4.602   4.067 -0.5259  1.2097 -0.0960
10404WAT     H242323   2.936   4.623   4.165 -0.3022 -0.6469  0.1131
10404WAT    EPW42324   2.878   4.580   4.133  0.0136  0.1963 -0.0374
10405WAT      O42325   3.214   4.779   3.952  0.1158  0.2530  0.3611
10405WAT     H142326   3.156   4.821   3.901  0.7589  0.8452  0.1072
10405WAT     H242327   3.184   4.697   3.953  0.3408  0.1061 -1.3661
10405WAT    EPW42328   3.201   4.773   3.944  0.5100  0.1721 -0.1477
10406WAT      O42329   1.217   3.811   3.302  0.3838 -0.6819  0.3898
10406WAT     H142330   1.286   3.855   3.335 -0.4751  0.9302  0.1396
10406WAT     H242331   1.250   3.770   3.233  1.3280 -0.8196  0.9043
10406WAT    EPW42332   1.232   3.812   3.297 -0.0193  0.3155 -0.3628
10407WAT      O42333   1.370   3.490   3.068  0.4363 -0.5375 -0.3936
10407WAT     H142334   1.375   3.496   3.155  0.7607 -1.0135 -0.3751
10407WAT     H242335   1.363   3.573   3.042 -2.0720 -0.4699  0.2134
10407WAT    EPW42336   1.369   3.503   3.077  0.3174 -1.4469 -0.7124
10408WAT      O42337   1.132   3.165   3.946 -0.4360  0.0993 -0.0147
10408WAT     H142338   1.210   3.198   3.968 -0.3423 -0.1723  0.0724
10408WAT     H242339   1.081   3.235   3.937 -0.2239  0.2689  0.1027
10408WAT    EPW42340   1.136   3.180   3.948  0.0888  0.2578 -0.1025
10409WAT      O42341   3.206   4.201   2.962  0.1131  0.0561  0.6068
10409WAT     H142342   3.201   4.151   2.890  1.3140  0.0073  0.5287
10409WAT     H242343   3.175   4.149   3.025 -1.2000  0.1901  0.1107
10409WAT    EPW42344   3.201   4.186   2.960 -0.3612  0.3105 -0.3972
10410WAT      O42345   0.808   2.840   2.889 -0.2257  0.5752 -0.2424
10410WAT     H142346   0.858   2.801   2.829 -0.1451  0.6149 -0.1998
10410WAT     H242347   0.861   2.897   2.927 -0.5957  1.4590 -0.9902
10410WAT    EPW42348   0.823   2.843   2.885 -0.2472  0.7643 -0.0801
10411WAT      O42349   2.199   3.521   3.149  0.0851 -0.2753  0.1146
10411WAT     H142350   2.139   3.470   3.187  1.2107 -1.6618  0.1300
10411WAT     H242351   2.270   3.470   3.147  1.2986  1.3387  0.2005
10411WAT    EPW42352   2.201   3.506   3.155  0.4482  0.5341  0.5481
10412WAT      O42353   2.526   1.889   4.823  0.2711  0.5627 -0.0815
10412WAT     H142354   2.482   1.815   4.809  0.6745  0.0187  1.3478
10412WAT     H242355   2.597   1.880   4.773 -0.4032  0.6986 -1.0999
10412WAT    EPW42356   2.530   1.877   4.813  0.1183  0.4036 -1.2228
10413WAT      O42357   3.129   2.941   3.852  0.2876 -0.1960  0.4713
10413WAT     H142358   3.214   2.949   3.833  0.9579  0.6226  3.2972
10413WAT     H242359   3.095   3.016   3.824  0.2242 -0.9005 -1.5245
10413WAT    EPW42360   3.137   2.953   3.845 -0.4916 -0.3801  0.3192
10414WAT      O42361   2.169   3.945   3.392  0.6947  0.4821 -0.2528
10414WAT     H142362   2.228   3.901   3.346  0.7351 -0.2615  0.4854
10414WAT     H242363   2.196   3.935   3.474  1.0002  2.3374 -0.0785
10414WAT    EPW42364   2.182   3.937   3.397 -0.6774 -0.4263  0.3756
10415WAT      O42365   2.863   2.689   3.599  0.7332  0.0717  0.5258
10415WAT     H142366   2.935   2.692   3.647  0.5074 -0.9399  0.9497
10415WAT     H242367   2.842   2.604   3.599 -0.1386  0.2782 -0.0555
10415WAT    EPW42368   2.870   2.677   3.606 -0.6063  0.2531  0.2851
10416WAT      O42369   2.308   3.179   3.916 -1.0403 -0.3790 -0.1546
10416WAT     H142370   2.356   3.106   3.912 -0.0432  0.2251 -4.9348
10416WAT     H242371   2.368   3.242   3.923 -1.3859  0.1476 -1.5159
10416WAT    EPW42372   2.324   3.177   3.916 -0.0918 -0.4524  0.1652
10417WAT      O42373   3.497   4.748   3.937 -0.0576  0.2445 -0.3806
10417WAT     H142374   3.512   4.768   4.020 -1.3731 -0.4314  0.0480
10417WAT     H242375   3.410   4.740   3.933  0.0596 -0.8358 -1.5479
10417WAT    EPW42376   3.486   4.750   3.948 -0.7163 -0.5167 -0.6328
10418WAT      O42377   1.993   4.706   2.012 -0.8018  0.2317 -0.1091
10418WAT     H142378   2.072   4.722   1.978  0.2572 -0.5660  1.8438
10418WAT     H242379   1.953   4.783   2.006 -0.9634  0.0436 -3.6149
10418WAT    EPW42380   1.999   4.720   2.006 -0.1649 -0.5035 -0.6216
10419WAT      O42381   2.452   3.093   2.287  0.0711  0.3028  0.1470
10419WAT     H142382   2.482   3.015   2.312 -0.2034  0.8203  2.3006
10419WAT     H242383   2.523   3.145   2.290 -0.1721  0.6035  0.9911
10419WAT    EPW42384   2.467   3.089   2.291  0.3847  0.0050  0.3714
10420WAT      O42385   0.839   2.885   3.674 -0.5114 -0.0981  0.3224
10420WAT     H142386   0.845   2.830   3.606 -2.5630 -0.7852  0.6348
10420WAT     H242387   0.801   2.836   3.736  0.2628  0.8554  1.5964
10420WAT    EPW42388   0.834   2.869   3.673  0.0623  0.1133 -0.3163
10421WAT      O42389   2.318   2.877   4.246  0.2513 -0.7755 -0.1130
10421WAT     H142390   2.268   2.869   4.175 -0.2459  1.0821 -0.0182
10421WAT     H242391   2.394   2.842   4.221  0.6207  1.2257 -2.1839
10421WAT    EPW42392   2.322   2.871   4.232  0.2213  0.0699 -0.0087
10422WAT      O42393   3.106   4.210   4.148 -0.2832 -0.0756 -0.3249
10422WAT     H142394   3.062   4.138   4.169 -0.6901  0.0697 -0.6542
10422WAT     H242395   3.081   4.226   4.066  0.7565 -0.2662 -0.6929
10422WAT    EPW42396   3.096   4.202   4.139 -0.1246 -0.9968 -0.5645
10423WAT      O42397   2.258   4.936   3.281  0.1873 -0.0631 -0.1023
10423WAT     H142398   2.208   4.868   3.303 -1.5817  1.1849 -0.0979
10423WAT     H242399   2.287   4.965   3.358  0.5803 -0.5252 -0.0711
10423WAT    EPW42400   2.255   4.930   3.296 -0.3042 -1.2228 -0.4191
10424WAT      O42401   2.625   2.783   3.726  0.3347  0.3149 -0.4558
10424WAT     H142402   2.655   2.777   3.808  0.2441  3.4764 -0.0670
10424WAT     H242403   2.687   2.744   3.679  0.2059 -1.9258  1.1080
10424WAT    EPW42404   2.639   2.777   3.731  0.2917 -0.1146  0.0965
10425WAT      O42405   2.678   2.980   2.968  0.0023 -0.0635  0.4263
10425WAT     H142406   2.621   2.915   2.951  0.2255 -0.3941  0.9210
10425WAT     H242407   2.717   2.993   2.891 -2.1206  1.5667 -0.4924
10425WAT    EPW42408   2.675   2.972   2.954  0.0174 -0.3466 -0.1078
10426WAT      O42409   2.081   4.284   5.190 -0.2476  0.2715  0.0935
10426WAT     H142410   2.150   4.250   5.231 -1.4873 -1.2050  1.0893
10426WAT     H242411   2.028   4.308   5.255 -0.3890  2.0920 -0.6368
10426WAT    EPW42412   2.083   4.282   5.206  0.0325 -0.2721 -1.0996
10427WAT      O42413   3.465   4.440   3.983  0.2106 -0.1044 -0.0383
10427WAT     H142414   3.472   4.443   3.897  1.6937 -1.2863  0.0109
10427WAT     H242415   3.525   4.496   4.011  2.1597 -2.1929  0.2255
10427WAT    EPW42416   3.475   4.449   3.975  0.1135  0.5619 -1.2689
10428WAT      O42417   2.365   3.722   3.536  0.1845 -0.5834 -0.3273
10428WAT     H142418   2.449   3.697   3.540  0.4769  0.4651  0.5680
10428WAT     H242419   2.324   3.665   3.589  0.4714 -0.6033 -0.1242
10428WAT    EPW42420   2.371   3.710   3.545  0.4915  0.7618  0.7339
10429WAT      O42421   2.259   5.190   2.794  0.2544 -0.2568  0.4007
10429WAT     H142422   2.279   5.208   2.877 -0.5171  0.4427  0.4499
10429WAT     H242423   2.212   5.118   2.800  1.3257 -0.9765  0.4334
10429WAT    EPW42424   2.255   5.182   2.807  0.1798  0.9490  0.8430
10430WAT      O42425   2.705   4.234   3.381  0.2865 -0.6267 -0.0914
10430WAT     H142426   2.774   4.203   3.425  0.3765 -3.4475 -1.9640
10430WAT     H242427   2.648   4.252   3.444  2.4491  1.3423  1.4980
10430WAT    EPW42428   2.707   4.232   3.397 -0.1480 -0.5495  0.0819
10431WAT      O42429   0.260   2.994   3.229  0.4396  0.1503  0.0621
10431WAT     H142430   0.291   3.024   3.305 -1.2433  0.4041  0.6834
10431WAT     H242431   0.251   3.066   3.181 -2.0980  0.5685  1.0047
10431WAT    EPW42432   0.264   3.009   3.233 -0.3980 -1.0172 -0.5951
10432WAT      O42433   2.072   5.369   4.406 -0.0905 -0.5994  0.4366
10432WAT     H142434   2.146   5.325   4.395 -0.0365 -0.1932 -0.9537
10432WAT     H242435   2.011   5.316   4.372 -0.1572 -0.0506 -0.3233
10432WAT    EPW42436   2.074   5.354   4.399 -0.5741  0.4438  0.8316
10433WAT      O42437   2.877   3.430   4.004 -0.2261  0.1983  0.0119
10433WAT     H142438   2.866   3.459   3.922 -0.3773 -0.6563 -0.2879
10433WAT     H242439   2.832   3.487   4.053 -2.2397 -0.6560 -0.7437
10433WAT    EPW42440   2.869   3.443   3.999 -0.4591 -0.4634 -0.2813
10434WAT      O42441   2.260   4.014   2.943 -0.0067  0.2655  0.2920
10434WAT     H142442   2.204   4.074   2.973 -2.3711 -1.0827 -1.2089
10434WAT     H242443   2.227   3.938   2.971  0.4813 -0.6515 -1.4646
10434WAT    EPW42444   2.247   4.012   2.952  0.2812 -0.4573 -0.3308
10435WAT      O42445   1.760   3.859   2.261  0.0865 -0.0526  0.3866
10435WAT     H142446   1.783   3.789   2.214  0.6205 -0.5344  1.3179
10435WAT     H242447   1.834   3.879   2.303 -0.2859  0.5756  0.7472
10435WAT    EPW42448   1.775   3.852   2.260  0.4035 -0.0942  0.7334
10436WAT      O42449   3.491   4.595   2.745  0.3114  0.2010  0.0278
10436WAT     H142450   3.447   4.534   2.790 -2.7518  1.2601 -1.2597
10436WAT     H242451   3.573   4.566   2.747 -0.6695 -2.9626  1.0745
10436WAT    EPW42452   3.496   4.581   2.752  0.0575  0.0798 -0.8279
10437WAT      O42453   3.084   3.622   4.917  0.2608  0.5741 -0.3794
10437WAT     H142454   3.080   3.570   4.987  0.0356  1.8108  0.5514
10437WAT     H242455   3.069   3.567   4.850 -2.1623 -0.2425  0.6993
10437WAT    EPW42456   3.081   3.606   4.917  0.3520 -0.1279 -0.9673
10438WAT      O42457   1.900   3.207   4.769 -0.0208  0.3519  0.0881
10438WAT     H142458   1.925   3.137   4.815 -0.5242 -0.6123 -1.0681
10438WAT     H242459   1.850   3.174   4.706 -1.1240  1.8558  0.1051
10438WAT    EPW42460   1.896   3.192   4.767  0.6617 -0.0405  0.1940
10439WAT      O42461   1.804   3.866   4.258  0.0892 -0.2681 -0.3227
10439WAT     H142462   1.890   3.861   4.272 -0.1071 -1.6145  0.5760
10439WAT     H242463   1.770   3.824   4.326 -1.3646  1.3425  0.0126
10439WAT    EPW42464   1.812   3.859   4.270  0.0145  0.0777 -0.0180
10440WAT      O42465   2.883   5.347   3.652  0.0203  0.0181 -0.6090
10440WAT     H142466   2.914   5.283   3.601  1.6894 -0.2856  0.7187
10440WAT     H242467   2.936   5.347   3.721 -0.5768  2.1365 -0.0532
10440WAT    EPW42468   2.895   5.338   3.654 -0.2089 -1.1200 -0.4691
10441WAT      O42469   1.227   4.558   4.406  0.2450  0.2694  0.6126
10441WAT     H142470   1.275   4.577   4.336 -1.3632 -0.1169 -0.6428
10441WAT     H242471   1.157   4.611   4.398 -1.9085 -2.4813 -0.2817
10441WAT    EPW42472   1.223   4.569   4.395  0.6261  0.3743  0.2054
10442WAT      O42473   1.967   2.560   1.381  0.1299 -0.0242 -0.0163
10442WAT     H142474   2.006   2.522   1.313 -0.5897  1.1924 -1.1554
10442WAT     H242475   2.026   2.617   1.409 -0.1765  0.6793 -0.7342
10442WAT    EPW42476   1.981   2.563   1.375  0.5743  1.0037 -0.1067
10443WAT      O42477   1.741   4.539   2.049 -0.4980  0.0519  0.2071
10443WAT     H142478   1.794   4.497   1.995 -0.0389  1.2850 -0.3392
10443WAT     H242479   1.668   4.492   2.047  0.6220 -1.9207  1.2739
10443WAT    EPW42480   1.738   4.526   2.041  1.0791 -0.5362 -0.6273
10444WAT      O42481   1.806   5.223   0.663 -1.3273  0.1553 -0.1453
10444WAT     H142482   1.787   5.283   0.602  0.0844  1.0406  0.2243
10444WAT     H242483   1.890   5.204   0.648 -0.5073  1.3976  2.2628
10444WAT    EPW42484   1.816   5.229   0.652  0.0207  0.6873 -0.1769
10445WAT      O42485   2.864   3.917   0.881  0.1973 -0.3519 -0.1740
10445WAT     H142486   2.844   3.851   0.934  0.9280  0.7711  1.5712
10445WAT     H242487   2.786   3.944   0.852 -0.0703 -2.6277 -1.8641
10445WAT    EPW42488   2.849   3.911   0.885  0.5185 -0.1276 -0.2575
10446WAT      O42489   2.184   3.749   2.234  0.7397  0.4328  0.0194
10446WAT     H142490   2.159   3.707   2.162 -3.2183  4.3312 -1.3215
10446WAT     H242491   2.270   3.761   2.222  0.9340 -2.1547 -2.1368
10446WAT    EPW42492   2.193   3.745   2.221 -0.0564 -0.8837  0.7138
10447WAT      O42493   0.644   4.809   0.614  0.0017 -0.2152 -0.0003
10447WAT     H142494   0.577   4.781   0.565  0.1158 -0.8479  0.1929
10447WAT     H242495   0.710   4.812   0.557  0.3793 -1.9320  0.2974
10447WAT    EPW42496   0.644   4.805   0.598 -0.6934  0.0876 -0.3384
10448WAT      O42497   1.256   4.180   1.667  0.0166  0.0403  0.1768
10448WAT     H142498   1.177   4.201   1.638  0.5675 -0.3423 -1.8121
10448WAT     H242499   1.248   4.180   1.753 -1.5348  2.3909  0.1278
10448WAT    EPW42500   1.243   4.183   1.675 -0.5261  0.2523  0.5732
10449WAT      O42501   7.986   4.401   1.370  0.2339 -0.5756  0.0151
10449WAT     H142502   8.067   4.373   1.387  0.6379  0.2547 -0.4722
10449WAT     H242503   7.999   4.483   1.341 -0.8304 -0.2040  0.5488
10449WAT    EPW42504   8.000   4.409   1.368 -0.1068  0.4865  0.4035
10450WAT      O42505   1.603   3.045   1.328 -0.4896  0.5143 -0.1774
10450WAT     H142506   1.536   3.053   1.272 -0.9635  1.7270  0.5438
10450WAT     H242507   1.568   3.002   1.395 -0.1470 -0.1608 -0.4240
10450WAT    EPW42508   1.588   3.040   1.329  0.4923 -0.1662 -1.1970
10451WAT      O42509   1.387   5.578   7.821 -0.1280  0.7390 -0.1908
10451WAT     H142510   1.385   5.501   7.780  1.0965  1.3512 -1.4719
10451WAT     H242511   1.302   5.599   7.828 -0.4421 -0.2723 -0.6925
10451WAT    EPW42512   1.374   5.569   7.816  0.2402  0.0923 -0.1196
10452WAT      O42513   8.084   4.657   3.357  0.1477 -0.3231 -0.0140
10452WAT     H142514   8.033   4.673   3.425 -1.0691 -0.1115 -0.9306
10452WAT     H242515   8.045   4.701   3.292  1.0793 -0.7834 -0.9139
10452WAT    EPW42516   8.071   4.666   3.357 -0.4019 -0.3685  0.1160
10453WAT      O42517   2.292   3.666   1.745 -0.1935 -0.8789 -0.5933
10453WAT     H142518   2.365   3.712   1.737  0.8171 -2.3556 -0.2057
10453WAT     H242519   2.297   3.608   1.680 -0.8212 -1.2614 -0.3149
10453WAT    EPW42520   2.303   3.664   1.734 -0.6921 -0.0866 -0.3449
10454WAT      O42521   1.758   3.714   0.366 -0.0150  0.3761  0.3349
10454WAT     H142522   1.676   3.691   0.345 -0.0814  0.5678  0.3759
10454WAT     H242523   1.771   3.676   0.443 -0.7809  1.9318  1.2938
10454WAT    EPW42524   1.748   3.705   0.374  0.3098 -0.4811 -0.0273
10455WAT      O42525   3.784   4.865   1.125  0.1552 -0.0212  0.0808
10455WAT     H142526   3.820   4.839   1.200  0.5769 -1.4881 -0.5767
10455WAT     H242527   3.712   4.816   1.119  0.4136 -0.3212 -0.7203
10455WAT    EPW42528   3.779   4.854   1.135  0.3038 -0.4754  0.7281
10456WAT      O42529   0.659   4.905   2.127  0.0867  0.2051 -0.5597
10456WAT     H142530   0.647   4.971   2.182  0.0457  0.8187 -1.2957
10456WAT     H242531   0.745   4.888   2.134 -0.2116 -0.9191  1.0062
10456WAT    EPW42532   0.670   4.912   2.137 -0.0267  0.8783  1.5498
10457WAT      O42533   0.198   3.524   0.868 -0.3101 -0.1739  0.1193
10457WAT     H142534   0.282   3.519   0.846 -0.2355  1.6910 -0.2162
10457WAT     H242535   0.200   3.527   0.955 -0.0986 -0.8257  0.1432
10457WAT    EPW42536   0.211   3.524   0.878 -0.3873 -0.3209  0.1175
10458WAT      O42537   0.662   5.266   1.292  0.2805 -0.2591  0.1785
10458WAT     H142538   0.595   5.224   1.327  0.5689 -0.7585  0.1354
10458WAT     H242539   0.630   5.298   1.218  0.4420 -1.6083 -0.4935
10458WAT    EPW42540   0.648   5.265   1.286 -0.4619 -0.8160 -0.1932
10459WAT      O42541   1.920   3.503   1.706 -0.6178 -0.4570 -0.0285
10459WAT     H142542   1.951   3.575   1.743  1.6494 -0.0832 -2.3299
10459WAT     H242543   1.975   3.441   1.732  0.4825 -0.3458 -1.8875
10459WAT    EPW42544   1.933   3.504   1.715  0.0997 -0.0347  0.0393
10460WAT      O42545   3.611   3.761   1.709 -0.0448  0.0605 -0.4350
10460WAT     H142546   3.695   3.774   1.729 -0.0401 -1.6162  0.8361
10460WAT     H242547   3.598   3.677   1.727 -2.0921  0.3618 -0.2158
10460WAT    EPW42548   3.621   3.751   1.715  0.2744  0.1359 -0.5056
10461WAT      O42549   2.264   3.557   1.446  0.1361  0.2723  0.1704
10461WAT     H142550   2.298   3.556   1.365  1.6296  0.7819  0.7537
10461WAT     H242551   2.184   3.590   1.434  0.2437  0.1265 -1.1266
10461WAT    EPW42552   2.257   3.561   1.432 -0.4428 -0.3567  0.0989
10462WAT      O42553   3.632   3.536   3.363 -0.6750  0.1372 -0.7360
10462WAT     H142554   3.654   3.484   3.430 -0.8442 -0.1497 -0.9012
10462WAT     H242555   3.691   3.516   3.301 -0.7735  0.0991 -0.8181
10462WAT    EPW42556   3.644   3.525   3.364  0.4072  0.2296 -0.3875
10463WAT      O42557   3.408   3.457   2.198 -0.3426  0.2826  0.2320
10463WAT     H142558   3.447   3.527   2.232  0.7854  0.4978 -1.4119
10463WAT     H242559   3.385   3.484   2.118  1.2628 -1.5739 -0.9296
10463WAT    EPW42560   3.410   3.472   2.192 -0.1322 -0.1869 -0.0809
10464WAT      O42561   2.253   4.074   0.613 -0.0852 -0.6917 -0.2154
10464WAT     H142562   2.300   4.142   0.641  1.3333 -1.2357 -1.1444
10464WAT     H242563   2.178   4.080   0.657  0.1531  1.2504 -0.0129
10464WAT    EPW42564   2.249   4.085   0.623 -0.3508 -0.5082  1.1553
10465WAT      O42565   7.339   4.042   1.363 -0.1601 -0.0615  0.0057
10465WAT     H142566   7.319   3.981   1.304 -0.5658  1.5481 -1.6156
10465WAT     H242567   7.418   4.069   1.339  0.1788 -0.1833  0.9382
10465WAT    EPW42568   7.347   4.037   1.351 -0.7063 -0.3451 -0.4364
10466WAT      O42569   0.746   4.574   0.688  0.2983  0.3395  0.0037
10466WAT     H142570   0.704   4.649   0.676  0.3011  0.6356  1.6158
10466WAT     H242571   0.813   4.596   0.740 -0.4339 -0.9657  1.5968
10466WAT    EPW42572   0.750   4.589   0.694  0.6551 -0.1112 -0.6497
10467WAT      O42573   1.918   4.920   1.303 -0.8847  0.3053  0.7448
10467WAT     H142574   1.858   4.980   1.283 -3.0141 -0.8074  3.2683
10467WAT     H242575   1.904   4.857   1.245 -1.3562  0.5599  0.5731
10467WAT    EPW42576   1.907   4.920   1.291  0.2880  0.0677 -0.1051
10468WAT      O42577   2.309   5.423   1.484  0.1340  0.0399 -0.2877
10468WAT     H142578   2.296   5.362   1.545 -0.7741  0.0712 -0.4367
10468WAT     H242579   2.275   5.388   1.412  1.0826  0.0634 -0.7495
10468WAT    EPW42580   2.302   5.409   1.483  0.5153  0.3212 -0.9558
10469WAT      O42581   1.107   4.690   0.491  0.2498  1.0522  0.0787
10469WAT     H142582   1.145   4.737   0.554  1.6006 -0.2885  0.3245
10469WAT     H242583   1.161   4.699   0.423 -0.7096  1.7284 -0.6237
10469WAT    EPW42584   1.121   4.698   0.490 -0.3548  0.2332 -0.9551
10470WAT      O42585   0.855   4.342   1.932 -0.9455  0.1819  0.5062
10470WAT     H142586   0.935   4.346   1.897 -0.6533 -0.9186  1.0088
10470WAT     H242587   0.859   4.401   1.997 -0.5518  0.1784  0.4923
10470WAT    EPW42588   0.868   4.352   1.937 -0.0818  0.4221  0.8208
10471WAT      O42589   1.605   4.046   2.812  0.6127 -0.1465 -0.6779
10471WAT     H142590   1.519   4.032   2.813  0.0218  2.7352  0.7583
10471WAT     H242591   1.638   3.978   2.854 -1.1611 -0.4629  0.3120
10471WAT    EPW42592   1.597   4.034   2.818  0.1341 -0.2570 -0.9821
10472WAT      O42593   0.157   5.172   0.462 -0.0009 -0.0806 -0.0719
10472WAT     H142594   0.234   5.184   0.501  0.9009 -0.0172 -1.7568
10472WAT     H242595   0.128   5.253   0.447  0.2811 -0.0940 -0.6909
10472WAT    EPW42596   0.164   5.185   0.466  0.4236 -0.2519 -0.5842
10473WAT      O42597   1.679   3.340   1.911 -0.3584  0.0178  0.2790
10473WAT     H142598   1.726   3.368   1.980 -0.6246 -2.5493  1.6186
10473WAT     H242599   1.630   3.276   1.944 -1.6143 -0.3097 -2.0247
10473WAT    EPW42600   1.679   3.335   1.926  0.4020  0.4642 -0.9929
10474WAT      O42601   3.340   4.705   2.149 -0.2604 -0.0877  0.0037
10474WAT     H142602   3.409   4.682   2.197  0.4654  0.1641 -0.8892
10474WAT     H242603   3.344   4.792   2.147 -0.5123 -0.0791 -0.1887
10474WAT    EPW42604   3.351   4.715   2.156 -0.4560 -0.7106 -0.8722
10475WAT      O42605   1.825   4.107   3.276 -0.3362 -0.6943 -0.4470
10475WAT     H142606   1.875   4.069   3.215 -0.2496 -0.7828 -0.3220
10475WAT     H242607   1.840   4.059   3.348  1.1113  0.6071  0.1749
10475WAT    EPW42608   1.834   4.094   3.278  0.3180  1.2734 -0.0564
10476WAT      O42609   0.938   3.034   2.367  0.1592  0.6550  0.4376
10476WAT     H142610   0.998   3.006   2.309 -0.7281 -0.0306 -0.1789
10476WAT     H242611   0.876   2.972   2.364 -0.0256  0.7321  1.9627
10476WAT    EPW42612   0.938   3.021   2.358  0.0876 -0.5104 -0.4626
10477WAT      O42613   1.397   6.607   0.215 -0.3343 -0.0904  0.5920
10477WAT     H142614   1.333   6.667   0.208 -0.5267 -0.4229 -0.8757
10477WAT     H242615   1.457   6.635   0.158 -0.3555 -1.2007  0.0059
10477WAT    EPW42616   1.396   6.620   0.206  0.0387  0.6851 -0.1873
10478WAT      O42617   2.848   4.263   2.732 -0.2423  0.3754  0.3163
10478WAT     H142618   2.870   4.289   2.652 -1.7542 -1.6586 -0.8602
10478WAT     H242619   2.877   4.327   2.783  0.7916  1.7435 -1.8391
10478WAT    EPW42620   2.855   4.276   2.728 -0.1723  0.3000 -0.4081
10479WAT      O42621   1.151   1.542   2.960 -0.2924 -0.1706  0.1186
10479WAT     H142622   1.148   1.611   2.907  0.2667 -1.1973 -1.3156
10479WAT     H242623   1.099   1.565   3.026  0.1077  1.7259 -0.1636
10479WAT    EPW42624   1.143   1.555   2.962 -0.6532 -0.4891 -0.0610
10480WAT      O42625   0.146   3.032   1.260  0.1822  0.4147  0.5620
10480WAT     H142626   0.081   3.067   1.305 -1.7021 -0.0414 -1.6044
10480WAT     H242627   0.126   2.947   1.257  0.5583  0.3446 -0.5754
10480WAT    EPW42628   0.133   3.025   1.266  1.0237 -0.3078 -0.8382
10481WAT      O42629   4.076   3.874   1.637  0.5005  0.4079  0.5533
10481WAT     H142630   4.042   3.953   1.652 -0.0739  0.2532  0.1286
10481WAT     H242631   4.031   3.846   1.567  0.5853 -0.3618  0.7983
10481WAT    EPW42632   4.064   3.882   1.629 -0.4370 -0.8223 -0.0403
10482WAT      O42633   1.912   5.322   2.261 -0.5368 -0.7061 -0.0691
10482WAT     H142634   1.846   5.280   2.223 -0.2330 -0.2573 -1.1299
10482WAT     H242635   1.900   5.405   2.238 -0.9089 -0.2382  1.6814
10482WAT    EPW42636   1.901   5.328   2.252  0.3758 -0.0520  0.1381
10483WAT      O42637   3.459   3.912   2.555 -0.3337  0.1939  0.0590
10483WAT     H142638   3.484   3.994   2.540 -0.8231  0.4186  0.4515
10483WAT     H242639   3.453   3.877   2.475 -1.2470  0.8791 -0.1791
10483WAT    EPW42640   3.462   3.919   2.541 -1.6089  1.0864 -0.3371
10484WAT      O42641   1.123   2.471   3.117 -0.2487  0.2302  0.3277
10484WAT     H142642   1.055   2.416   3.113  0.6298 -0.9890  1.2662
10484WAT     H242643   1.191   2.419   3.104  0.5156  1.4396 -0.6008
10484WAT    EPW42644   1.123   2.455   3.115  0.6179 -0.4040  0.0513
10485WAT      O42645   1.995   5.514   1.184 -0.0132 -0.3067 -0.1802
10485WAT     H142646   1.924   5.465   1.169 -0.5449  0.4216 -0.0920
10485WAT     H242647   1.993   5.573   1.120  1.0229 -0.8152 -0.7094
10485WAT    EPW42648   1.984   5.515   1.172 -0.0273 -0.1647  0.1239
10486WAT      O42649   1.692   4.948   0.635 -0.3944 -0.1300 -0.0001
10486WAT     H142650   1.676   4.928   0.718  2.2728 -1.2757  0.3506
10486WAT     H242651   1.705   5.034   0.637 -0.8401 -0.0683  0.6617
10486WAT    EPW42652   1.692   4.958   0.648  0.7848  0.0478  0.0116
10487WAT      O42653   1.188   4.359   1.037  0.1630  0.0518  0.4480
10487WAT     H142654   1.119   4.358   1.090  0.0909 -2.4940  0.4227
10487WAT     H242655   1.255   4.368   1.091 -0.0970  1.6284  0.5520
10487WAT    EPW42656   1.187   4.360   1.052 -0.3851 -0.4921  0.1158
10488WAT      O42657   1.755   3.201   1.658  0.7131  0.0854 -0.4358
10488WAT     H142658   1.675   3.211   1.625 -0.9636 -4.5221  1.4701
10488WAT     H242659   1.749   3.237   1.737 -0.5914 -2.6534  0.8291
10488WAT    EPW42660   1.742   3.208   1.665  0.3982 -0.4700 -0.6490
10489WAT      O42661   0.791   4.058   1.956  0.1789  0.0440  0.0503
10489WAT     H142662   0.751   4.030   2.029 -0.0890 -0.1666 -0.1732
10489WAT     H242663   0.797   4.144   1.968  2.4030 -0.2135  1.4462
10489WAT    EPW42664   0.786   4.066   1.969  0.4406  0.4300 -0.3175
10490WAT      O42665   3.894   3.453   1.773 -0.1000  0.2472  0.0635
10490WAT     H142666   3.877   3.407   1.701 -1.4580  0.0277  0.4971
10490WAT     H242667   3.867   3.534   1.752  1.4695  0.6800 -0.3919
10490WAT    EPW42668   3.887   3.458   1.760 -0.2120  0.7627  0.5144
10491WAT      O42669   2.604   4.847   1.621 -0.3064 -0.5041  0.4413
10491WAT     H142670   2.586   4.856   1.706 -0.2483 -0.7736  0.4816
10491WAT     H242671   2.543   4.791   1.593  0.0472 -0.8814  0.4308
10491WAT    EPW42672   2.592   4.840   1.630  0.0459  0.2357  0.2640
10492WAT      O42673   1.949   2.702   1.780 -0.4414 -0.0296  0.3429
10492WAT     H142674   1.979   2.733   1.704 -0.9280  1.8993  0.8813
10492WAT     H242675   2.014   2.719   1.836  0.0026 -1.6367  0.3595
10492WAT    EPW42676   1.963   2.709   1.777 -0.0295  0.4273  0.3085
10493WAT      O42677   4.206   4.622   1.780  0.4592 -0.0839 -0.1706
10493WAT     H142678   4.129   4.586   1.797 -0.1517  1.1443 -0.2137
10493WAT     H242679   4.262   4.556   1.790 -0.5123 -0.8310  0.5645
10493WAT    EPW42680   4.203   4.607   1.784  0.3266  0.0675 -0.2613
10494WAT      O42681   1.532   4.026   2.241 -0.1295  0.1228  0.7160
10494WAT     H142682   1.605   3.979   2.246  0.2540  0.5689 -0.4415
10494WAT     H242683   1.502   4.011   2.161  1.1177  3.3337 -0.5383
10494WAT    EPW42684   1.538   4.017   2.230 -0.9974 -0.3736  0.3346
10495WAT      O42685   2.092   4.749   2.601  0.0241 -0.6519  0.1047
10495WAT     H142686   2.025   4.743   2.545 -0.1266 -1.1570  0.3376
10495WAT     H242687   2.116   4.666   2.615 -0.2785 -0.5808  1.1815
10495WAT    EPW42688   2.085   4.736   2.595  0.3927 -0.4100 -0.7842
10496WAT      O42689   0.860   4.844   2.923  0.1923  0.2863 -1.0716
10496WAT     H142690   0.853   4.907   2.983 -2.0375 -2.0078  1.3510
10496WAT     H242691   0.919   4.790   2.958 -1.4487 -1.2973 -0.6107
10496WAT    EPW42692   0.868   4.845   2.937 -0.2501 -0.5328 -0.0354
10497WAT      O42693   1.277   3.084   1.397  0.0250 -0.4050  0.1647
10497WAT     H142694   1.218   3.143   1.372  0.4729 -0.9988 -2.5010
10497WAT     H242695   1.278   3.026   1.332 -0.7062 -3.7247  2.7938
10497WAT    EPW42696   1.268   3.084   1.384 -0.1638  0.1302 -0.1409
10498WAT      O42697   0.941   3.685   1.468 -0.0122  0.1967  0.5459
10498WAT     H142698   1.023   3.712   1.468  0.6801 -1.7777  0.1478
10498WAT     H242699   0.911   3.710   1.547  0.7723  1.3937  0.4784
10498WAT    EPW42700   0.948   3.693   1.480 -0.2220 -0.9014 -0.8055
10499WAT      O42701   2.851   3.532   2.613 -0.1449  0.4310 -0.1798
10499WAT     H142702   2.868   3.511   2.695 -1.1900  0.9845  0.1907
10499WAT     H242703   2.859   3.619   2.612  1.2691  0.3335 -1.0149
10499WAT    EPW42704   2.855   3.542   2.625  0.5483 -0.2828 -0.6315
10500WAT      O42705   1.543   4.742   3.543 -0.2509  0.2940 -0.8962
10500WAT     H142706   1.559   4.758   3.627  3.0919 -0.3073 -1.2878
10500WAT     H242707   1.534   4.821   3.509  0.3087  0.6369 -0.2768
10500WAT    EPW42708   1.544   4.756   3.551  1.5405 -0.4956 -0.1894
10501WAT      O42709   1.942   5.074   2.793  0.2106 -0.2438 -0.3762
10501WAT     H142710   1.884   5.079   2.858  1.1158  1.7190  0.3606
10501WAT     H242711   1.907   5.124   2.730  1.0008  0.8475  0.0245
10501WAT    EPW42712   1.928   5.082   2.793  0.3608 -0.1054 -0.1880
10502WAT      O42713   3.870   2.189   2.490  0.3122  0.3158  0.1485
10502WAT     H142714   3.793   2.198   2.530 -0.3197  0.9475 -1.1689
10502WAT     H242715   3.849   2.159   2.411  1.4507  0.2214 -0.1399
10502WAT    EPW42716   3.856   2.186   2.484  0.2094 -1.2119  0.2474
10503WAT      O42717   0.267   4.299   2.350  0.3320 -0.0896  0.0769
10503WAT     H142718   0.273   4.213   2.342 -0.1076 -0.0550 -0.7080
10503WAT     H242719   0.240   4.325   2.272 -2.5764  0.4811  1.1458
10503WAT    EPW42720   0.264   4.290   2.338 -0.3849  0.4898 -0.6928
10504WAT      O42721   2.487   2.715   2.151 -0.0592  0.3722 -0.6181
10504WAT     H142722   2.400   2.708   2.149  0.0406 -2.1130  0.3156
10504WAT     H242723   2.509   2.720   2.067 -1.0184 -1.7373 -1.0701
10504WAT    EPW42724   2.478   2.715   2.139 -0.0482 -0.3775  0.4447
10505WAT      O42725   2.173   3.928   0.051  0.4520  0.1677 -0.2170
10505WAT     H142726   2.228   3.972   0.001  2.9210  0.0489  2.1614
10505WAT     H242727   2.151   3.985   0.113 -0.7509 -0.3431 -0.1383
10505WAT    EPW42728   2.178   3.943   0.053 -0.3840 -0.3474  0.5222
10506WAT      O42729   1.280   3.190   2.168  0.7596  0.1866 -0.0277
10506WAT     H142730   1.361   3.167   2.145  0.7670  0.7545 -0.5926
10506WAT     H242731   1.238   3.114   2.171  1.6082 -0.2597  1.5422
10506WAT    EPW42732   1.286   3.175   2.165  0.8346 -0.2144 -1.0863
10507WAT      O42733   0.970   5.645   1.006 -0.1676  0.1215  0.2908
10507WAT     H142734   0.901   5.686   1.041 -0.5651  2.8034 -3.0278
10507WAT     H242735   0.934   5.582   0.958 -0.1681  0.2332  0.1421
10507WAT    EPW42736   0.955   5.642   1.004  0.5498 -0.2049 -0.7409
10508WAT      O42737   0.399   3.512   2.616  0.0967 -0.9058  0.0421
10508WAT     H142738   0.446   3.506   2.543 -0.9991  0.6482 -0.8384
10508WAT     H242739   0.457   3.499   2.680  1.5175  0.0247 -1.0294
10508WAT    EPW42740   0.414   3.509   2.615 -0.2670 -0.4115 -0.1969
10509WAT      O42741   4.547   5.390   1.645 -0.4077 -0.1033 -0.3442
10509WAT     H142742   4.496   5.405   1.715  0.2101  0.5010 -0.0127
10509WAT     H242743   4.596   5.462   1.640  0.2145 -0.5541 -0.8341
10509WAT    EPW42744   4.546   5.403   1.655 -0.0311  0.4690  0.8464
10510WAT      O42745   0.632   5.647   1.830  0.2825  0.1546 -0.4432
10510WAT     H142746   0.689   5.584   1.849 -0.0930 -0.0705 -0.0508
10510WAT     H242747   0.565   5.605   1.792 -0.3935  0.1791  0.6828
10510WAT    EPW42748   0.630   5.632   1.827  0.1321  0.3051  0.4055
10511WAT      O42749   1.462   5.804   0.949  0.0003 -0.2759 -0.2019
10511WAT     H142750   1.379   5.784   0.935 -0.3918  0.7303  0.6008
10511WAT     H242751   1.466   5.890   0.934  0.5575 -0.0344  1.1805
10511WAT    EPW42752   1.451   5.813   0.945 -1.0919 -0.5284 -0.0965
10512WAT      O42753   1.957   3.248   1.449  0.3533  0.3027  0.2504
10512WAT     H142754   1.899   3.238   1.514 -0.8103 -0.5466 -0.8879
10512WAT     H242755   2.031   3.266   1.492 -0.9003  2.4034  1.7138
10512WAT    EPW42756   1.959   3.249   1.465 -0.3399 -0.5820 -0.1889
10513WAT      O42757   1.568   3.932   1.794  0.1000 -0.4419  0.1766
10513WAT     H142758   1.634   3.875   1.789 -0.1774 -0.8200  0.6385
10513WAT     H242759   1.526   3.920   1.719  2.3328  2.1134 -1.6589
10513WAT    EPW42760   1.572   3.922   1.782  0.2140 -0.8472  0.1084
10514WAT      O42761   1.354   4.711   1.984 -0.8353 -0.5379  0.6030
10514WAT     H142762   1.418   4.713   2.042  0.1860  1.3331 -0.4800
10514WAT     H242763   1.319   4.791   1.989 -0.5668 -0.2242 -1.4427
10514WAT    EPW42764   1.358   4.723   1.993  0.1386  0.0598  0.0358
10515WAT      O42765   3.543   4.322   2.160  0.4652  0.1637  0.3375
10515WAT     H142766   3.622   4.343   2.131  0.2627 -0.6955 -0.9371
10515WAT     H242767   3.491   4.338   2.092  0.0059 -2.1772  0.0335
10515WAT    EPW42768   3.547   4.327   2.145  0.2015  0.4894 -0.5847
10516WAT      O42769   8.064   3.875   1.788 -0.1802 -0.0667 -0.2695
10516WAT     H142770   8.043   3.794   1.763 -0.2388 -0.1467  0.0374
10516WAT     H242771   8.010   3.890   1.855  0.2704 -0.0136  0.0820
10516WAT    EPW42772   8.053   3.865   1.794  0.2199  0.2971  0.3688
10517WAT      O42773   1.825   3.920   1.973 -0.2275  0.0079  0.7529
10517WAT     H142774   1.842   3.886   2.051  0.2374  0.9358  1.0643
10517WAT     H242775   1.747   3.959   1.984 -0.0883  0.2726  0.7920
10517WAT    EPW42776   1.816   3.920   1.986 -0.3926 -0.3836 -0.6170
10518WAT      O42777   2.131   4.434   8.041  0.0466 -0.1499 -0.1555
10518WAT     H142778   2.054   4.402   8.015 -1.3018  1.8506  1.1134
10518WAT     H242779   2.114   4.464   8.121  1.7267  1.8132 -0.4757
10518WAT    EPW42780   2.117   4.434   8.049 -0.5474  0.2591  0.8876
10519WAT      O42781   0.249   3.676   1.291 -0.4064  0.0011  0.2505
10519WAT     H142782   0.220   3.721   1.360  1.3977  2.2153 -0.3096
10519WAT     H242783   0.242   3.733   1.225 -0.7811 -1.5889 -1.1423
10519WAT    EPW42784   0.243   3.691   1.291 -0.1543 -0.0175  0.5402
10520WAT      O42785   0.529   3.978   1.820 -0.1458 -1.0942  0.6424
10520WAT     H142786   0.449   3.996   1.851 -0.5837 -1.3967 -0.2844
10520WAT     H242787   0.569   4.056   1.821 -0.3542 -0.9891  1.3641
10520WAT    EPW42788   0.523   3.993   1.825 -0.5212 -0.5865  0.5529
10521WAT      O42789   2.834   3.821   2.643 -0.4017  0.4351  0.1126
10521WAT     H142790   2.801   3.822   2.562 -1.3499  0.5058  0.4862
10521WAT     H242791   2.763   3.821   2.694  0.1685  1.5497  0.9544
10521WAT    EPW42792   2.819   3.821   2.638 -0.1555 -0.0487 -0.0245
10522WAT      O42793   0.093   3.717   0.679 -0.0570  0.5183  0.4329
10522WAT     H142794   0.117   3.795   0.649  0.9326 -0.0199 -0.2195
10522WAT     H242795   0.155   3.698   0.738 -1.0099  0.7829  1.5553
10522WAT    EPW42796   0.106   3.726   0.683 -0.2765  0.0408  0.0919
10523WAT      O42797   6.545   3.362   2.446  0.9404  0.3262  0.1053
10523WAT     H142798   6.559   3.373   2.531 -2.0810 -1.0664  0.9146
10523WAT     H242799   6.577   3.283   2.430 -0.3595 -0.3327  0.5477
10523WAT    EPW42800   6.551   3.352   2.456  0.8119 -0.5935  0.2830
10524WAT      O42801   1.203   4.534   0.837 -0.1845 -0.3778  0.2728
10524WAT     H142802   1.198   4.469   0.895  1.4470  0.2757  1.2091
10524WAT     H242803   1.257   4.591   0.874  0.3494  0.4090 -1.5721
10524WAT    EPW42804   1.210   4.532   0.851 -0.4416  0.1207  0.5149
10525WAT      O42805   2.610   4.785   3.029  0.8643 -0.0996 -0.0463
10525WAT     H142806   2.536   4.818   2.996 -1.0187 -1.2726  2.6638
10525WAT     H242807   2.652   4.855   3.060 -0.3773  0.3842  0.6292
10525WAT    EPW42808   2.605   4.801   3.029 -0.2098 -0.0438 -0.2830
10526WAT      O42809   0.490   3.951   0.923  0.4016  0.6961 -0.1208
10526WAT     H142810   0.481   3.910   0.847 -0.0981  1.6909 -0.6164
10526WAT     H242811   0.574   3.973   0.926  0.5296  0.2191 -0.1473
10526WAT    EPW42812   0.501   3.948   0.912 -0.0380  0.3317 -1.1897
10527WAT      O42813   2.869   5.581   1.668  0.2146  0.5279  0.9267
10527WAT     H142814   2.931   5.641   1.680  0.2906  0.4972  0.6947
10527WAT     H242815   2.904   5.527   1.609 -0.3843  1.0024  0.1323
10527WAT    EPW42816   2.883   5.582   1.661  1.0790 -0.1950 -0.4824
10528WAT      O42817   7.881   3.153   0.972  0.0981  0.7820 -0.5138
10528WAT     H142818   7.805   3.160   1.013 -0.5884 -1.1733 -1.3503
10528WAT     H242819   7.863   3.178   0.890  0.0798 -0.6128 -0.9601
10528WAT    EPW42820   7.867   3.158   0.966 -0.8211 -0.2162  0.0454
10529WAT      O42821   0.793   3.618   0.833 -0.0827  0.2785  0.1667
10529WAT     H142822   0.783   3.625   0.747 -0.7853  0.1771  0.2279
10529WAT     H242823   0.816   3.535   0.845  0.2019  0.3429  0.0606
10529WAT    EPW42824   0.795   3.607   0.822  0.8083  0.3579 -0.4205
10530WAT      O42825   1.610   3.338   1.329 -0.0441  0.3190 -0.0988
10530WAT     H142826   1.549   3.371   1.276 -0.7817 -1.5996 -0.5561
10530WAT     H242827   1.613   3.253   1.305  1.8831  0.0833  0.7950
10530WAT    EPW42828   1.602   3.330   1.318 -0.4170 -0.8066 -0.0362
10531WAT      O42829   3.191   4.261   2.085  0.1024 -0.1951  0.1135
10531WAT     H142830   3.191   4.348   2.080  1.2439 -0.1819  0.1728
10531WAT     H242831   3.106   4.241   2.089 -0.1612  0.9596  0.8652
10531WAT    EPW42832   3.178   4.271   2.085  0.4110  0.0366 -0.1005
10532WAT      O42833   1.833   4.589   1.688 -0.0531 -0.4178 -0.5784
10532WAT     H142834   1.860   4.523   1.739  1.2918 -2.4457 -3.6159
10532WAT     H242835   1.777   4.550   1.633  1.7292  0.5483 -3.2848
10532WAT    EPW42836   1.828   4.574   1.688 -0.8994  0.3309 -0.4425
10533WAT      O42837   2.533   2.921   1.007 -0.6628 -0.4559 -0.0796
10533WAT     H142838   2.615   2.890   1.011 -0.3364 -0.0625 -2.4585
10533WAT     H242839   2.497   2.890   1.080  1.9951  0.6620  1.9004
10533WAT    EPW42840   2.540   2.912   1.018 -0.3364  0.5922 -1.3369
10534WAT      O42841   2.724   3.319   2.972  0.0085 -0.4409  0.6918
10534WAT     H142842   2.699   3.275   2.901 -3.0155  0.1285  1.2418
10534WAT     H242843   2.803   3.350   2.951  0.0775 -1.9650 -1.5981
10534WAT    EPW42844   2.732   3.317   2.958 -0.2657 -0.5809 -0.1660
10535WAT      O42845   2.248   3.952   1.831 -0.6549  0.7372 -0.3319
10535WAT     H142846   2.194   3.959   1.899  0.5049 -2.3974  1.1274
10535WAT     H242847   2.229   3.874   1.798  1.2246  0.6409 -1.3410
10535WAT    EPW42848   2.237   3.941   1.836  0.6984  0.2935 -1.5133
10536WAT      O42849   4.087   4.660   2.298  0.7757 -0.1645  0.3815
10536WAT     H142850   4.124   4.629   2.226  0.3392 -1.0621  0.5234
10536WAT     H242851   4.071   4.588   2.345 -1.4106  0.1138  0.1871
10536WAT    EPW42852   4.090   4.645   2.294  0.7357  0.6753 -0.0180
10537WAT      O42853   2.620   4.592   1.809  0.1315 -0.3316  0.9818
10537WAT     H142854   2.669   4.645   1.760 -1.3075  2.6179  2.4459
10537WAT     H242855   2.565   4.557   1.751 -0.4707  1.7894  0.1459
10537WAT    EPW42856   2.619   4.595   1.793  0.5150  0.2391 -0.7741
10538WAT      O42857   1.517   2.487   1.278 -0.2205  0.4888 -0.1464
10538WAT     H142858   1.580   2.539   1.308 -0.2325  2.3645 -2.9391
10538WAT     H242859   1.446   2.513   1.322  0.2240  1.2648  0.1367
10538WAT    EPW42860   1.515   2.499   1.289  0.0809  0.0251 -0.1267
10539WAT      O42861   1.558   3.505   0.127 -0.2961 -0.0282  0.8490
10539WAT     H142862   1.551   3.498   0.214 -1.2459 -1.3850  0.7092
10539WAT     H242863   1.476   3.492   0.100  0.3040 -1.7003 -0.3222
10539WAT    EPW42864   1.545   3.502   0.136 -0.2038  0.6866  0.5118
10540WAT      O42865   3.251   4.192   1.508 -0.5829 -0.4225  0.5175
10540WAT     H142866   3.176   4.150   1.526  0.7258 -2.6453  1.0657
10540WAT     H242867   3.224   4.263   1.464 -3.1784  0.0360  2.5405
10540WAT    EPW42868   3.236   4.196   1.504  0.4264 -0.0511 -0.2233
10541WAT      O42869   2.219   3.316   1.574 -0.1048 -0.0032  0.3381
10541WAT     H142870   2.298   3.279   1.582  0.1311 -0.1967 -2.1390
10541WAT     H242871   2.235   3.391   1.534 -1.1617  0.0002 -0.1093
10541WAT    EPW42872   2.233   3.321   1.569  0.7979  0.1321  0.0525
10542WAT      O42873   2.293   5.027   0.508  0.1671  0.0269  0.7492
10542WAT     H142874   2.253   4.962   0.465 -2.5860  1.2431  1.2840
10542WAT     H242875   2.378   5.011   0.494 -0.4517 -2.5681 -0.7255
10542WAT    EPW42876   2.300   5.015   0.499 -0.2355  1.5609  0.0710
10543WAT      O42877   7.934   3.483   0.921  0.0455 -0.1311 -0.5487
10543WAT     H142878   7.956   3.541   0.859  0.6120 -0.1683 -0.3858
10543WAT     H242879   7.994   3.421   0.913  1.0901  0.6220  1.0703
10543WAT    EPW42880   7.946   3.483   0.910 -0.7353 -0.5812 -0.0185
10544WAT      O42881   1.165   4.623   1.582 -0.0137  0.2760  0.1064
10544WAT     H142882   1.180   4.557   1.526 -0.9921  0.4195 -0.3428
10544WAT     H242883   1.244   4.637   1.618  0.4501 -0.3842 -0.6100
10544WAT    EPW42884   1.179   4.615   1.579 -0.3980  0.1812 -0.2489
10545WAT      O42885   0.274   4.435   0.165  0.0237  0.1769  0.3934
10545WAT     H142886   0.333   4.459   0.106  0.7384 -1.2495  0.4875
10545WAT     H242887   0.198   4.459   0.129  0.4225 -0.7746 -1.1630
10545WAT    EPW42888   0.272   4.442   0.151 -0.7868  0.7487 -0.4086
10546WAT      O42889   1.905   3.600   2.635 -1.0138  0.1101  0.4450
10546WAT     H142890   1.824   3.624   2.612 -1.6444 -2.1308  0.0805
10546WAT     H242891   1.941   3.577   2.559 -0.3869  0.1374  0.7332
10546WAT    EPW42892   1.898   3.600   2.620  0.0561 -1.1277 -0.0734
10547WAT      O42893   2.177   4.894   1.747  0.1308 -0.4905  0.0551
10547WAT     H142894   2.137   4.878   1.672  0.2558 -2.4540  0.3709
10547WAT     H242895   2.116   4.934   1.795  0.0646  0.8112 -1.0582
10547WAT    EPW42896   2.162   4.898   1.743 -0.3013  0.2053 -0.6322
10548WAT      O42897   2.131   3.248   3.269 -0.2138  0.3766  0.4636
10548WAT     H142898   2.204   3.271   3.227  0.0563  0.9545  1.2049
10548WAT     H242899   2.160   3.192   3.330 -0.4064  0.5114  0.6805
10548WAT    EPW42900   2.146   3.243   3.272  0.0854  0.3531 -0.1994
10549WAT      O42901   0.202   3.389   1.132  0.4211  0.1771 -0.4683
10549WAT     H142902   0.272   3.336   1.139  1.7653  1.4284 -3.1187
10549WAT     H242903   0.205   3.436   1.205 -1.0537 -3.4228  2.2096
10549WAT    EPW42904   0.213   3.388   1.144  0.3900 -0.4295 -0.0259
10550WAT      O42905   1.207   3.799   1.387  0.7923  0.0669 -0.0811
10550WAT     H142906   1.265   3.839   1.438  0.6140  0.4124 -0.1488
10550WAT     H242907   1.203   3.849   1.316  0.2971  0.1319 -0.0109
10550WAT    EPW42908   1.215   3.812   1.384 -0.6160 -0.0342 -0.4141
10551WAT      O42909   0.473   2.417   1.754 -0.0564  0.3730 -0.0048
10551WAT     H142910   0.489   2.493   1.712 -0.7043  0.4587 -0.0996
10551WAT     H242911   0.524   2.422   1.825  1.0120  0.2552 -0.7388
10551WAT    EPW42912   0.483   2.429   1.758 -0.3402  0.2711  0.2905
10552WAT      O42913   3.540   4.318   0.980 -0.2642 -0.0977 -0.4203
10552WAT     H142914   3.549   4.382   1.037 -0.9119 -1.1062  0.8697
10552WAT     H242915   3.580   4.250   1.018 -0.2834 -0.6703 -1.3754
10552WAT    EPW42916   3.547   4.317   0.994 -0.0525 -0.1147 -1.0340
10553WAT      O42917   2.292   4.507   0.926  0.7158  0.0683 -0.5438
10553WAT     H142918   2.311   4.549   1.001  1.4317 -0.9738 -0.1093
10553WAT     H242919   2.321   4.426   0.941 -1.7763 -0.9760 -0.8496
10553WAT    EPW42920   2.299   4.502   0.939 -0.1736  0.1982  0.4877
10554WAT      O42921   0.133   2.534   1.739  0.3704 -0.2691  0.5731
10554WAT     H142922   0.187   2.572   1.682  0.7442 -0.7732  0.5871
10554WAT     H242923   0.186   2.488   1.791  0.2599  1.7791  2.6465
10554WAT    EPW42924   0.149   2.532   1.738 -0.1622  0.9291 -0.1938
10555WAT      O42925   1.260   4.681   1.218 -0.3458 -0.1598  0.4585
10555WAT     H142926   1.297   4.678   1.139 -2.2551 -1.9718 -0.4842
10555WAT     H242927   1.193   4.737   1.207  0.2843  0.8004  1.2895
10555WAT    EPW42928   1.255   4.689   1.205  0.0112 -0.7024  0.6485
10556WAT      O42929   7.845   3.777   0.789 -0.3443 -0.0831  0.3962
10556WAT     H142930   7.927   3.800   0.811  0.6553 -0.1364 -2.8374
10556WAT     H242931   7.856   3.721   0.724 -2.9887  0.1028 -0.3320
10556WAT    EPW42932   7.859   3.772   0.783 -0.3913  0.2765 -0.1797
10557WAT      O42933   0.775   3.934   1.400 -0.3803 -0.6103 -0.0745
10557WAT     H142934   0.817   3.858   1.388 -0.4568 -0.5708 -0.6159
10557WAT     H242935   0.786   3.950   1.485  0.6802 -0.6126 -0.1884
10557WAT    EPW42936   0.783   3.925   1.410 -0.4063 -0.3271 -0.6135
10558WAT      O42937   1.885   3.840   1.265 -0.7198  0.5479 -0.1861
10558WAT     H142938   1.944   3.792   1.309 -1.1060 -0.2845 -0.5445
10558WAT     H242939   1.812   3.793   1.273 -1.1464  1.1686 -0.4221
10558WAT    EPW42940   1.883   3.826   1.273 -1.0485  0.3627 -1.4186
10559WAT      O42941   1.879   4.828   0.479 -0.3223 -0.3038 -0.0208
10559WAT     H142942   1.898   4.871   0.405 -1.3243 -0.0506 -0.1438
10559WAT     H242943   1.808   4.869   0.508 -0.3596 -0.8753  0.7076
10559WAT    EPW42944   1.871   4.841   0.472  0.6892  0.6352  0.6838
10560WAT      O42945   8.063   3.127   1.776  1.1172 -0.0520  0.2176
10560WAT     H142946   8.105   3.148   1.850 -0.6890  0.5456  1.1493
10560WAT     H242947   8.048   3.204   1.738  2.6590 -0.3954 -1.2003
10560WAT    EPW42948   8.067   3.141   1.782  0.4066  0.2402 -0.0616
10561WAT      O42949   3.371   4.456   1.685  0.3564  0.0925 -0.6488
10561WAT     H142950   3.315   4.404   1.641 -1.5267  1.1364  0.3862
10561WAT     H242951   3.343   4.536   1.665  1.2071  0.6320  0.2825
10561WAT    EPW42952   3.358   4.460   1.675 -0.7591  0.7031 -0.4616
10562WAT      O42953   1.169   4.072   1.257  0.0494 -0.2571  0.7867
10562WAT     H142954   1.153   4.043   1.176  0.8095 -1.4450  1.0415
10562WAT     H242955   1.213   4.146   1.244 -0.6054  0.0202  0.1144
10562WAT    EPW42956   1.173   4.079   1.243 -0.1489  0.6975  0.2326
10563WAT      O42957   1.596   5.302   0.065 -0.5418  0.4700  0.2224
10563WAT     H142958   1.583   5.290   0.150  0.9775 -0.0841  0.4035
10563WAT     H242959   1.598   5.221   0.033 -1.2473  0.6791 -0.3824
10563WAT    EPW42960   1.595   5.288   0.073 -0.9593 -0.2410  0.1155
10564WAT      O42961   3.860   3.823   1.816  0.1299  0.0569  0.0720
10564WAT     H142962   3.892   3.769   1.876 -1.6112 -0.6425  0.4120
10564WAT     H242963   3.929   3.840   1.765  0.9346 -1.7141  0.5094
10564WAT    EPW42964   3.875   3.818   1.817 -0.3425  0.3720 -0.8716
10565WAT      O42965   0.608   3.381   2.444  0.2834 -0.3677  0.3518
10565WAT     H142966   0.694   3.394   2.441 -0.0367  2.0842 -0.3619
10565WAT     H242967   0.601   3.295   2.455  2.8092 -0.6195  0.7018
10565WAT    EPW42968   0.620   3.370   2.445  0.0702  0.8273  0.2199
10566WAT      O42969   3.382   4.617   3.181 -0.7394 -0.3342  0.0663
10566WAT     H142970   3.426   4.676   3.227  0.8788 -1.9251  0.6757
10566WAT     H242971   3.351   4.662   3.113 -0.9614  1.5208  1.3451
10566WAT    EPW42972   3.384   4.632   3.178  0.4480  0.2278  0.0189
10567WAT      O42973   1.935   4.662   2.928  0.9259 -0.2498  0.3299
10567WAT     H142974   2.000   4.706   2.891  1.1424 -1.0292 -0.2423
10567WAT     H242975   1.918   4.707   3.001  0.9605  0.9148 -0.3606
10567WAT    EPW42976   1.942   4.675   2.933  0.5156 -0.0284  0.3118
10568WAT      O42977   2.417   4.609   1.167  0.0807 -0.3534  0.0552
10568WAT     H142978   2.378   4.687   1.171 -2.5615 -1.5848  1.4232
10568WAT     H242979   2.502   4.628   1.175 -0.1202  2.5256 -2.5712
10568WAT    EPW42980   2.424   4.624   1.169 -0.5895  0.0504  0.6737
10569WAT      O42981   2.082   3.539   2.420  0.1866 -0.2992  0.4208
10569WAT     H142982   2.098   3.592   2.353 -0.7403 -0.3499  0.1426
10569WAT     H242983   2.134   3.470   2.406 -0.9211 -0.9034 -0.9581
10569WAT    EPW42984   2.092   3.537   2.408  0.4149 -0.3472  0.0100
10570WAT      O42985   2.875   3.933   2.183  0.3296 -0.0086  0.1951
10570WAT     H142986   2.811   3.943   2.240  0.2117  1.0272 -0.0979
10570WAT     H242987   2.948   3.945   2.230  0.2709 -0.0504  0.2962
10570WAT    EPW42988   2.876   3.936   2.198  1.0200 -0.6097 -0.6582
10571WAT      O42989   1.300   5.049   1.399 -0.0827  0.2913 -0.3027
10571WAT     H142990   1.318   5.118   1.349  0.8596  0.5003  0.3178
10571WAT     H242991   1.351   4.986   1.366 -1.5940 -0.3979 -1.4526
10571WAT    EPW42992   1.310   5.050   1.387  0.5390  0.5917  0.1108
10572WAT      O42993   2.358   4.262   2.103 -0.2328  0.3162  0.1011
10572WAT     H142994   2.326   4.244   2.182 -0.7650 -1.3523 -0.4623
10572WAT     H242995   2.421   4.321   2.119  0.6428 -1.0300  1.9505
10572WAT    EPW42996   2.363   4.268   2.117  0.4620  0.3121 -1.2975
10573WAT      O42997   2.550   4.106   2.574  0.2779  0.3406 -0.1027
10573WAT     H142998   2.537   4.181   2.618  0.2983  1.0601 -1.2721
10573WAT     H242999   2.483   4.056   2.599 -1.0836  1.6014 -1.0417
10573WAT    EPW43000   2.538   4.110   2.584  0.4277 -0.4415 -0.1351
10574WAT      O43001   1.477   4.483   0.803  1.1329 -0.2815 -0.2089
10574WAT     H143002   1.419   4.540   0.773  0.5219 -0.1130  1.2342
10574WAT     H243003   1.539   4.482   0.741  0.8638  1.4741 -0.5537
10574WAT    EPW43004   1.478   4.491   0.789 -0.3766 -0.1875  0.9265
10575WAT      O43005   2.520   4.718   2.707 -0.3409  0.5243 -0.5434
10575WAT     H143006   2.449   4.669   2.721 -0.9693  2.0705  2.6638
10575WAT     H243007   2.487   4.791   2.672 -0.2606  0.8973  0.1359
10575WAT    EPW43008   2.505   4.722   2.704 -0.3226  0.2153 -0.0863
10576WAT      O43009   0.390   4.247   1.650 -0.0559 -0.2313 -0.8532
10576WAT     H143010   0.375   4.322   1.692  1.7784  0.4690 -1.3805
10576WAT     H243011   0.475   4.233   1.662 -0.6744 -3.3996  1.0874
10576WAT    EPW43012   0.400   4.256   1.658 -0.4761 -0.1312 -0.3664
10577WAT      O43013   2.452   5.037   2.049 -0.2859  0.1620  0.4152
10577WAT     H143014   2.424   5.089   2.114 -0.8723 -0.2147  0.4704
10577WAT     H243015   2.525   5.001   2.081  1.2417  2.3745 -0.3186
10577WAT    EPW43016   2.458   5.040   2.063  1.1084  0.0646 -0.1502
10578WAT      O43017   1.449   4.362   1.593 -0.1375  0.3567  0.0021
10578WAT     H143018   1.384   4.306   1.603 -2.3736  2.2002 -2.7508
10578WAT     H243019   1.427   4.428   1.646  1.1818 -0.2136  1.3433
10578WAT    EPW43020   1.437   4.364   1.602 -0.1801  0.3893 -0.6294
10579WAT      O43021   1.313   3.909   2.380 -0.8776  0.1617  0.6882
10579WAT     H143022   1.240   3.945   2.349 -0.8593 -0.8912 -0.6587
10579WAT     H243023   1.376   3.943   2.330 -0.6693 -0.3661  0.5848
10579WAT    EPW43024   1.312   3.919   2.368 -0.4157  0.4700 -0.3893
10580WAT      O43025   1.353   6.157   0.552 -0.5954  0.1888 -0.1584
10580WAT     H143026   1.363   6.163   0.638  0.7338  1.3945 -0.3529
10580WAT     H243027   1.339   6.072   0.538  1.1490 -0.3602  1.0929
10580WAT    EPW43028   1.353   6.145   0.562 -0.2554 -0.8319 -0.0805
10581WAT      O43029   3.682   3.763   2.862 -0.1822  0.5536  0.1428
10581WAT     H143030   3.688   3.848   2.842  2.0004  0.7594  1.3967
10581WAT     H243031   3.707   3.760   2.945 -2.2613 -1.1085  0.8013
10581WAT    EPW43032   3.687   3.775   2.871  0.1052  0.8760 -0.1282
10582WAT      O43033   1.690   3.157   2.556 -0.2448 -0.7496  0.1839
10582WAT     H143034   1.625   3.201   2.517 -1.3951 -1.0401  1.6505
10582WAT     H243035   1.713   3.210   2.622  1.8841 -0.1021 -1.0158
10582WAT    EPW43036   1.684   3.171   2.560  0.6321 -0.4437 -0.5431
10583WAT      O43037   1.655   3.970   2.561 -0.5493  0.0918  0.6028
10583WAT     H143038   1.631   4.042   2.518  0.4580 -0.3654 -0.7948
10583WAT     H243039   1.621   3.981   2.641  1.5182  3.2092  1.2256
10583WAT    EPW43040   1.646   3.982   2.567  0.1026  0.1794  0.2844
10584WAT      O43041   2.265   4.559   2.703  0.1460 -0.1673 -0.3137
10584WAT     H143042   2.230   4.516   2.771  0.8907  0.6098  0.5958
10584WAT     H243043   2.276   4.497   2.643 -0.7134 -0.8423  0.1980
10584WAT    EPW43044   2.262   4.543   2.704  0.2162  0.0364 -0.5074
10585WAT      O43045   2.603   3.691   1.457  0.1054 -0.4078 -0.0800
10585WAT     H143046   2.648   3.617   1.457  0.1244 -0.3969 -0.2571
10585WAT     H243047   2.552   3.685   1.386  1.3497  0.4979 -1.1042
10585WAT    EPW43048   2.602   3.679   1.446  0.3385  0.0204 -0.3796
10586WAT      O43049   2.195   4.381   1.910 -0.5682 -0.2654 -0.3137
10586WAT     H143050   2.228   4.334   1.976 -0.9095 -1.2500 -0.8247
10586WAT     H243051   2.208   4.464   1.935 -2.8113 -0.5274  2.1291
10586WAT    EPW43052   2.202   4.386   1.924  0.1654  0.4982 -0.2439
10587WAT      O43053   2.136   4.350   1.376  0.2702 -0.0646  0.3759
10587WAT     H143054   2.211   4.337   1.334  1.9177  0.7367  2.8285
10587WAT     H243055   2.157   4.339   1.460 -2.7806 -1.4652  1.1065
10587WAT    EPW43056   2.150   4.347   1.383  0.5269  0.0596 -0.2872
10588WAT      O43057   1.530   2.854   1.525  0.1252  0.0066  0.3061
10588WAT     H143058   1.593   2.874   1.583 -0.3240 -1.6933  1.4716
10588WAT     H243059   1.562   2.783   1.485 -0.2598  0.2352 -0.4180
10588WAT    EPW43060   1.544   2.847   1.528 -0.2171  0.2763  0.2798
10589WAT      O43061   2.074   3.306   4.041  0.1817  0.9160 -0.1961
10589WAT     H143062   2.065   3.235   4.090  2.5658  1.1231  0.6629
10589WAT     H243063   2.144   3.290   3.993  0.7949  2.6468  0.0295
10589WAT    EPW43064   2.083   3.293   4.041 -0.4743  0.8073  0.4036
10590WAT      O43065   2.589   4.019   3.245 -0.5221  0.1933  0.1216
10590WAT     H143066   2.588   4.041   3.160  1.8820  0.2757  0.0512
10590WAT     H243067   2.614   4.092   3.285  2.0250 -0.7759  0.4587
10590WAT    EPW43068   2.593   4.033   3.238 -0.2094 -0.6330  0.4088
10591WAT      O43069   1.907   5.078   3.241 -0.0417  0.5240 -0.2361
10591WAT     H143070   1.938   5.135   3.182 -1.3126  1.2151 -0.2950
10591WAT     H243071   1.828   5.111   3.261 -0.5761 -0.9260  0.1683
10591WAT    EPW43072   1.900   5.092   3.236 -0.3598  0.7176  0.3484
10592WAT      O43073   2.912   4.306   1.092  1.1690 -0.4331  0.3955
10592WAT     H143074   2.951   4.232   1.070  0.9867 -0.5351  0.4159
10592WAT     H243075   2.978   4.355   1.125  1.7618  0.3347 -1.7842
10592WAT    EPW43076   2.928   4.302   1.094 -0.8231 -0.4399  0.1532
10593WAT      O43077   0.462   2.739   2.016 -0.3331  0.2788  0.4836
10593WAT     H143078   0.452   2.721   1.931  1.5309 -2.0220  0.6616
10593WAT     H243079   0.419   2.674   2.056 -0.3244  0.7705  1.3237
10593WAT    EPW43080   0.454   2.727   2.009 -0.3706 -0.0905  0.5999
10594WAT      O43081   2.105   2.781   2.425 -0.1951  0.3270 -0.2479
10594WAT     H143082   2.061   2.809   2.495 -0.4353  0.9655 -0.6453
10594WAT     H243083   2.137   2.855   2.389  1.7772 -0.1480  0.3840
10594WAT    EPW43084   2.103   2.796   2.430 -0.1923  0.4200 -0.5673
10595WAT      O43085   2.938   3.390   7.239 -0.0309  0.7107  0.6154
10595WAT     H143086   2.996   3.324   7.243 -1.0784 -0.2116  1.0568
10595WAT     H243087   2.878   3.361   7.183 -0.1066  1.6539  0.1822
10595WAT    EPW43088   2.938   3.376   7.231  1.5155  0.1045  0.1382
10596WAT      O43089   2.305   5.218   1.695 -0.4832  0.4076 -0.1380
10596WAT     H143090   2.296   5.247   1.776 -0.4190 -2.9719  1.2405
10596WAT     H243091   2.232   5.172   1.681  0.2338 -0.4384 -1.3302
10596WAT    EPW43092   2.293   5.215   1.705  0.4897  1.1142 -0.5394
10597WAT      O43093   0.086   3.443   1.527 -0.9347 -0.0999  0.3864
10597WAT     H143094   0.149   3.432   1.468 -0.1405 -2.8065  1.5721
10597WAT     H243095   0.034   3.503   1.491  1.3280  0.9111 -1.4423
10597WAT    EPW43096   0.087   3.450   1.513  0.5987  0.6524 -0.2448
10598WAT      O43097   2.405   4.086   1.627  0.9809 -0.2362  0.2595
10598WAT     H143098   2.477   4.103   1.674 -0.0552 -0.0025  1.8338
10598WAT     H243099   2.360   4.032   1.678  0.1334 -0.5751 -0.8167
10598WAT    EPW43100   2.409   4.081   1.642 -0.9951 -0.2689 -0.5813
10599WAT      O43101   0.103   4.113   3.131 -0.1875 -0.9695 -0.1484
10599WAT     H143102   0.162   4.169   3.101 -0.0433 -0.0745  1.6910
10599WAT     H243103   0.077   4.148   3.207 -0.5393 -3.0652  0.7805
10599WAT    EPW43104   0.108   4.126   3.138  0.0138  0.3110 -0.7754
10600WAT      O43105   1.578   4.226   1.830 -0.2537  0.1252 -0.4188
10600WAT     H143106   1.608   4.149   1.803 -0.3239  0.1398 -0.5390
10600WAT     H243107   1.584   4.277   1.760  2.0539  0.9163  0.2772
10600WAT    EPW43108   1.583   4.222   1.816  0.3117 -0.1578 -1.5765
10601WAT      O43109   2.693   5.308   1.514 -0.2331  0.6988  0.3771
10601WAT     H143110   2.669   5.341   1.591  1.6263  2.9993  0.0953
10601WAT     H243111   2.642   5.238   1.505 -1.8000  1.3877  2.8265
10601WAT    EPW43112   2.682   5.303   1.524 -0.3747 -0.1878 -0.4923
10602WAT      O43113   2.472   4.425   1.667  0.2284 -0.1502 -0.3497
10602WAT     H143114   2.395   4.384   1.669  0.9045 -1.4710  1.1910
10602WAT     H243115   2.523   4.371   1.620  0.6951 -0.2554  0.2639
10602WAT    EPW43116   2.469   4.411   1.660 -0.2849 -0.0362  0.5171
10603WAT      O43117   3.868   4.201   2.379  0.0111 -0.2464 -0.0555
10603WAT     H143118   3.854   4.125   2.338 -0.3333 -2.2092  3.3394
10603WAT     H243119   3.788   4.230   2.397  0.0475  1.9907 -2.7458
10603WAT    EPW43120   3.854   4.194   2.376 -0.5660 -0.4369  0.3229
10604WAT      O43121   1.841   5.028   4.012  0.7244  0.7224 -0.4240
10604WAT     H143122   1.860   5.050   3.929 -0.3383 -0.9198 -1.1684
10604WAT     H243123   1.915   4.994   4.041  0.5916 -0.4662 -1.3879
10604WAT    EPW43124   1.854   5.026   4.004  0.7319  0.0660 -0.3397
10605WAT      O43125   1.082   4.027   2.265 -0.2823  0.1845  0.5073
10605WAT     H143126   1.087   4.110   2.294 -0.5921 -0.2395  1.8287
10605WAT     H243127   1.020   3.992   2.315  1.0613 -1.3293  1.1874
10605WAT    EPW43128   1.074   4.034   2.277  1.5463  0.3858 -0.3247
10606WAT      O43129   2.326   4.078   4.091  0.1575  0.5113  0.3601
10606WAT     H143130   2.394   4.039   4.052  0.2698  1.3357 -0.2852
10606WAT     H243131   2.270   4.013   4.102  1.8993 -0.7373  3.0440
10606WAT    EPW43132   2.328   4.063   4.087  0.4865 -0.1378 -1.0314
10607WAT      O43133   3.144   4.516   2.228  0.9449 -0.0111  0.0293
10607WAT     H143134   3.080   4.568   2.258  2.3221  0.7156  1.9166
10607WAT     H243135   3.201   4.573   2.195  1.9698 -0.3870  1.1133
10607WAT    EPW43136   3.143   4.532   2.227 -0.4672  0.2245  0.2788
10608WAT      O43137   1.309   3.978   2.742 -0.1984  0.0629 -0.0051
10608WAT     H143138   1.263   3.958   2.813 -1.8182 -0.3693 -1.1382
10608WAT     H243139   1.318   3.902   2.701  0.5700  0.3392 -0.3737
10608WAT    EPW43140   1.304   3.964   2.747 -0.6569  0.2832  0.1706
10609WAT      O43141   3.572   5.353   3.306  0.4125  0.5655 -0.5034
10609WAT     H143142   3.565   5.333   3.390 -0.0154 -0.9680 -0.8712
10609WAT     H243143   3.615   5.429   3.306 -0.9554  1.4202  1.1540
10609WAT    EPW43144   3.577   5.361   3.318  0.0203  0.0668 -0.9759
10610WAT      O43145   1.046   3.451   2.286 -0.0633  0.5494  0.4156
10610WAT     H143146   1.112   3.505   2.302  0.2695  0.1370  0.4412
10610WAT     H243147   1.073   3.406   2.217 -0.0270 -0.1072  0.8572
10610WAT    EPW43148   1.060   3.453   2.278  0.2650 -0.0804 -0.0293
10611WAT      O43149   3.618   4.354   0.586  0.2431 -0.4918 -0.4534
10611WAT     H143150   3.631   4.295   0.523  3.1004 -1.4803  0.8596
10611WAT     H243151   3.559   4.317   0.638  1.2744 -1.8007 -0.1773
10611WAT    EPW43152   3.611   4.340   0.584 -0.3080 -0.2318 -0.7721
10612WAT      O43153   2.930   4.215   2.101  0.2265 -0.1983  0.1412
10612WAT     H143154   2.860   4.265   2.115  0.5428 -0.1342  1.6835
10612WAT     H243155   2.907   4.137   2.134  0.0765 -0.8397 -1.4034
10612WAT    EPW43156   2.916   4.211   2.108  0.9167 -0.0005  0.2772
10613WAT      O43157   2.524   3.708   3.085 -0.5000 -0.3068 -0.5802
10613WAT     H143158   2.453   3.713   3.136 -1.5448 -0.6568 -1.9309
10613WAT     H243159   2.533   3.622   3.071 -0.4694 -0.1896 -1.3051
10613WAT    EPW43160   2.515   3.696   3.090  0.3184 -0.0097 -0.3330
10614WAT      O43161   1.904   5.342   1.492  0.6893 -0.1624 -0.6985
10614WAT     H143162   1.944   5.269   1.465 -1.0646 -1.1607 -0.7586
10614WAT     H243163   1.820   5.319   1.494  0.2333  1.4656  0.6259
10614WAT    EPW43164   1.897   5.328   1.488  0.0895 -0.1319 -0.2319
10615WAT      O43165   2.412   5.009   0.952 -0.2552 -0.1454  0.5348
10615WAT     H143166   2.496   4.989   0.943 -0.7979 -2.0438 -1.0685
10615WAT     H243167   2.408   5.091   0.921  0.8407 -0.4142 -0.3916
10615WAT    EPW43168   2.424   5.018   0.946  0.0528  0.0508  0.8274
10616WAT      O43169   0.742   4.828   1.424 -0.1018 -0.0601 -0.0011
10616WAT     H143170   0.795   4.777   1.471 -0.6728 -1.5039 -0.8742
10616WAT     H243171   0.668   4.830   1.470 -0.1592 -0.2202 -0.0866
10616WAT    EPW43172   0.739   4.821   1.438  0.3954  0.7950 -0.4499
10617WAT      O43173   1.813   3.359   2.730  0.2948 -0.0486 -0.0122
10617WAT     H143174   1.842   3.440   2.723 -1.0608  0.7377  2.2297
10617WAT     H243175   1.858   3.327   2.798 -1.0471 -0.2006  0.8527
10617WAT    EPW43176   1.824   3.366   2.739 -0.5162 -0.1613 -0.2003
10618WAT      O43177   2.338   4.928   3.001 -0.4614  0.0246  0.1361
10618WAT     H143178   2.307   4.938   3.082 -1.5519 -0.7382 -0.1568
10618WAT     H243179   2.270   4.894   2.958  0.7242 -1.4989 -0.6107
10618WAT    EPW43180   2.323   4.925   3.007  0.5513 -0.0069 -0.2673
10619WAT      O43181   2.458   3.849   2.237  0.3906  0.9548  0.4352
10619WAT     H143182   2.473   3.766   2.214 -1.8627  0.9758 -1.5740
10619WAT     H243183   2.493   3.895   2.172  1.2261  1.5952  1.3093
10619WAT    EPW43184   2.465   3.844   2.224 -0.2554 -0.9225  0.1203
10620WAT      O43185   0.267   4.080   0.659 -0.1547  0.0601  0.0657
10620WAT     H143186   0.336   4.038   0.625 -0.2625 -1.6628  1.7955
10620WAT     H243187   0.302   4.132   0.719 -0.3655 -2.6364  2.7454
10620WAT    EPW43188   0.283   4.081   0.663 -0.8859  0.5881 -0.3141
10621WAT      O43189   2.005   3.924   2.356  0.1279  0.1288  0.0347
10621WAT     H143190   2.055   3.864   2.317 -1.5847 -1.4016  0.0529
10621WAT     H243191   2.018   3.996   2.309 -0.1477 -1.0854 -2.0051
10621WAT    EPW43192   2.014   3.926   2.343 -0.9750  0.4980 -0.0012
10622WAT      O43193   0.853   4.372   3.620  0.0703 -0.0103  0.0871
10622WAT     H143194   0.808   4.443   3.641 -0.5324 -0.8445  1.7574
10622WAT     H243195   0.807   4.337   3.554 -0.7166  0.1173  0.5589
10622WAT    EPW43196   0.840   4.377   3.613 -0.1965 -0.7532 -0.0922
10623WAT      O43197   2.934   3.678   2.338 -0.6872 -0.1342  1.0004
10623WAT     H143198   3.017   3.664   2.362 -0.5177 -0.5329  0.2005
10623WAT     H243199   2.934   3.763   2.315 -0.2016 -0.4046 -0.0996
10623WAT    EPW43200   2.946   3.689   2.338  0.0092 -0.1868  0.7590
10624WAT      O43201   2.968   5.298   1.259 -0.0462 -0.0638 -0.1120
10624WAT     H143202   2.883   5.310   1.243 -0.0040  0.0513 -0.2511
10624WAT     H243203   3.007   5.328   1.187  0.0743 -0.9651 -0.4222
10624WAT    EPW43204   2.961   5.304   1.246  0.0534 -0.5806  0.4990
10625WAT      O43205   7.278   5.199   0.837 -0.2155 -0.2759 -0.6923
10625WAT     H143206   7.225   5.267   0.821 -1.4932 -0.7982  1.0920
10625WAT     H243207   7.326   5.226   0.905  0.1721 -0.7086 -0.7842
10625WAT    EPW43208   7.277   5.213   0.845  0.3971  0.1120 -0.5939
10626WAT      O43209   7.697   4.042   0.259 -0.0540  0.3408  0.2471
10626WAT     H143210   7.706   4.113   0.310  2.7568  1.3151 -1.3258
10626WAT     H243211   7.703   3.976   0.315 -2.2217  1.2783  1.7082
10626WAT    EPW43212   7.699   4.043   0.275  0.2871 -0.2335 -0.3527
10627WAT      O43213   1.168   4.525   2.094 -0.0957  0.1699  1.0403
10627WAT     H143214   1.108   4.509   2.032 -0.0462 -0.2863  1.1090
10627WAT     H243215   1.211   4.594   2.063 -1.9418  1.8176  1.8959
10627WAT    EPW43216   1.165   4.533   2.080 -1.0398  0.1161 -0.2027
10628WAT      O43217   3.975   1.663   2.226  0.3706 -0.1358  0.1991
10628WAT     H143218   3.901   1.656   2.271 -0.3584 -0.9105 -1.0733
10628WAT     H243219   4.029   1.703   2.282 -1.2841  1.3792  0.7891
10628WAT    EPW43220   3.972   1.668   2.241 -0.3514  0.3149 -0.6284
10629WAT      O43221   1.667   3.681   2.517 -0.1090  0.6899  0.1043
10629WAT     H143222   1.656   3.767   2.502  1.1209  1.1850  1.7015
10629WAT     H243223   1.647   3.644   2.440  0.8648  2.5375 -1.1233
10629WAT    EPW43224   1.662   3.689   2.503 -0.3907 -0.1108 -0.4375
10630WAT      O43225   2.083   5.552   1.850 -0.0188  0.0227  0.4928
10630WAT     H143226   2.010   5.598   1.864 -1.8055 -2.6241  0.5703
10630WAT     H243227   2.110   5.580   1.773 -0.3258  2.0002  1.0366
10630WAT    EPW43228   2.076   5.563   1.841  0.3820 -0.0397 -0.7730
10631WAT      O43229   3.051   6.248   0.834  0.4559  0.3429 -0.3182
10631WAT     H143230   3.088   6.249   0.913  2.3462  0.6645 -1.1281
10631WAT     H243231   3.076   6.325   0.799  0.5990 -0.2537 -1.5956
10631WAT    EPW43232   3.060   6.260   0.841 -0.8034  0.5328  0.0516
10632WAT      O43233   1.753   3.565   2.998  0.0336 -0.2746 -0.4472
10632WAT     H143234   1.696   3.501   2.986  0.0901 -0.2393 -0.8911
10632WAT     H243235   1.751   3.577   3.085 -0.7514 -0.1590 -0.4735
10632WAT    EPW43236   1.744   3.557   3.009  0.1951  0.3001 -0.3606
10633WAT      O43237   0.501   3.240   1.944 -0.4117  0.0365 -0.0495
10633WAT     H143238   0.556   3.298   1.979 -1.1809  0.9784 -0.3380
10633WAT     H243239   0.462   3.205   2.014 -0.1316  0.0628  0.1226
10633WAT    EPW43240   0.503   3.244   1.960  0.3972  0.1307 -0.5491
10634WAT      O43241   3.817   5.612   2.722  0.2621  0.4770 -0.9880
10634WAT     H143242   3.839   5.535   2.688 -2.2662 -0.3575 -0.9419
10634WAT     H243243   3.800   5.593   2.806  0.6913  1.3087 -0.7048
10634WAT    EPW43244   3.817   5.598   2.730 -1.2747  0.7764 -0.3700
10635WAT      O43245   8.001   4.855   2.707 -0.5136 -0.2919 -0.3436
10635WAT     H143246   7.983   4.789   2.653  0.6447 -1.3193  0.4544
10635WAT     H243247   8.085   4.841   2.729 -1.0561 -0.2445  2.0769
10635WAT    EPW43248   8.011   4.843   2.703 -0.6630 -0.4735  0.1123
10636WAT      O43249   3.048   4.762   2.499 -0.4974 -0.2776 -0.4856
10636WAT     H143250   3.092   4.825   2.457  0.6547 -0.3723  0.5149
10636WAT     H243251   3.051   4.786   2.582 -0.9815 -1.1069 -0.2093
10636WAT    EPW43252   3.055   4.775   2.505 -0.0966  0.0616  0.0350
10637WAT      O43253   7.421   4.144   1.705  0.9061  0.7196 -0.0210
10637WAT     H143254   7.472   4.183   1.646  1.9443  0.0301  0.3846
10637WAT     H243255   7.422   4.060   1.680 -0.3564  0.7472 -0.2195
10637WAT    EPW43256   7.429   4.137   1.693 -0.2292 -0.7688  0.4214
10638WAT      O43257   3.794   2.453   2.640  0.2411 -0.1337 -0.1419
10638WAT     H143258   3.785   2.507   2.708  2.0865  0.5688 -0.3905
10638WAT     H243259   3.730   2.395   2.651  0.6890 -0.2608  2.4114
10638WAT    EPW43260   3.783   2.453   2.652  0.5354  0.2630 -0.4642
10639WAT      O43261   1.385   4.544   2.913 -0.4075 -0.7731  0.3927
10639WAT     H143262   1.387   4.555   2.827 -2.9154 -0.5688  0.2621
10639WAT     H243263   1.307   4.507   2.926  0.4291 -1.9650  2.4823
10639WAT    EPW43264   1.373   4.540   2.902  0.6462  0.5773  0.9537
10640WAT      O43265   1.995   4.793   1.546  0.1547  0.2951  0.5071
10640WAT     H143266   1.933   4.816   1.489 -0.8877 -1.3641  0.8791
10640WAT     H243267   1.954   4.735   1.597  2.1131 -1.1689  0.5388
10640WAT    EPW43268   1.979   4.788   1.545 -0.4916  0.2191 -0.2108
10641WAT      O43269   0.891   3.029   1.565  0.0229  0.0933  0.5336
10641WAT     H143270   0.882   2.943   1.553 -0.7413  0.3124 -0.6084
10641WAT     H243271   0.817   3.062   1.534  0.3885  1.1890  0.7820
10641WAT    EPW43272   0.879   3.021   1.559 -0.3997  0.5762 -0.5343
10642WAT      O43273   2.092   5.158   2.150 -0.5623  0.0536 -0.4128
10642WAT     H143274   2.066   5.115   2.078  2.4181  0.1576 -1.7047
10642WAT     H243275   2.022   5.205   2.172 -2.4438 -1.9417 -1.6655
10642WAT    EPW43276   2.078   5.158   2.142  0.1581 -0.3226  0.8156
10643WAT      O43277   1.847   4.717   1.125 -0.4756  0.6759 -0.1289
10643WAT     H143278   1.825   4.633   1.133  0.0171  0.5474 -0.0626
10643WAT     H243279   1.888   4.720   1.048  0.4728  0.6326  0.3624
10643WAT    EPW43280   1.850   4.705   1.115 -1.0065 -0.5579 -0.0717
10644WAT      O43281   7.423   4.050   0.553  0.0492 -0.4002  0.2178
10644WAT     H143282   7.368   4.088   0.609 -0.4888  1.0874 -1.2251
10644WAT     H243283   7.484   4.111   0.540 -1.2406  0.4549 -2.7621
10644WAT    EPW43284   7.424   4.065   0.559 -0.0863 -0.2723  0.0111
10645WAT      O43285   1.362   4.699   0.961  0.0245  0.2524  0.3787
10645WAT     H143286   1.327   4.779   0.951  0.2637  0.1982 -1.3125
10645WAT     H243287   1.447   4.712   0.947  0.0887 -0.2537  0.2764
10645WAT    EPW43288   1.369   4.713   0.957  0.7133  0.2556 -0.3113
10646WAT      O43289   7.589   4.105   1.224  0.0269  0.0933 -0.4874
10646WAT     H143290   7.626   4.048   1.279 -2.1864 -2.5228 -1.4631
10646WAT     H243291   7.656   4.154   1.198  2.1750 -2.1398  0.3747
10646WAT    EPW43292   7.604   4.104   1.228  0.1143 -0.8329 -0.5903
10647WAT      O43293   3.274   3.812   2.147  0.8157 -0.3534 -0.4054
10647WAT     H143294   3.322   3.884   2.144 -0.4381  0.5442  0.2041
10647WAT     H243295   3.204   3.836   2.193  0.2605 -1.8971 -0.3859
10647WAT    EPW43296   3.271   3.826   2.153 -0.2310  0.0466  0.1177
10648WAT      O43297   2.403   4.327   0.604 -0.3631 -0.2686  0.1917
10648WAT     H143298   2.469   4.293   0.558 -0.5044 -0.6630  0.2780
10648WAT     H243299   2.440   4.345   0.681 -0.1036  0.4757 -0.0973
10648WAT    EPW43300   2.419   4.325   0.609  0.0032  0.3301 -0.0226
10649WAT      O43301   3.078   3.582   3.286  0.0056 -0.7468  0.2200
10649WAT     H143302   3.064   3.606   3.203  0.7488  0.4888  0.4390
10649WAT     H243303   3.164   3.567   3.288 -0.0900 -1.2598  0.6580
10649WAT    EPW43304   3.089   3.583   3.274 -0.5201 -0.2749 -0.4550
10650WAT      O43305   1.452   3.191   1.636  0.7954 -0.6139  0.0450
10650WAT     H143306   1.403   3.163   1.570  0.7992  0.1523 -0.2952
10650WAT     H243307   1.420   3.271   1.653  1.0243 -0.6579  0.7343
10650WAT    EPW43308   1.440   3.199   1.629  0.5715  0.5612 -1.0945
10651WAT      O43309   1.407   3.456   1.634 -1.2168  0.8635 -0.5346
10651WAT     H143310   1.493   3.449   1.620 -0.8849 -1.5895  1.8527
10651WAT     H243311   1.401   3.513   1.700 -1.1442 -0.3874  0.6169
10651WAT    EPW43312   1.419   3.463   1.642 -0.4075 -0.9205 -0.5196
10652WAT      O43313   2.930   3.889   3.165  0.3119 -0.4680  0.3209
10652WAT     H143314   2.984   3.931   3.219  0.5866 -0.7874  0.3036
10652WAT     H243315   2.910   3.949   3.104 -0.5305  0.0947  1.1281
10652WAT    EPW43316   2.935   3.904   3.164  0.2922 -0.2303 -0.1956
10653WAT      O43317   1.287   4.772   0.323  0.4844 -0.4899 -0.0818
10653WAT     H143318   1.252   4.830   0.268 -2.1842 -2.4345 -0.5868
10653WAT     H243319   1.358   4.814   0.353 -0.6950  2.6189 -1.1614
10653WAT    EPW43320   1.293   4.787   0.319 -0.1609 -0.1253 -0.7122
10654WAT      O43321   0.354   3.752   0.411 -0.0793 -0.2764  0.2893
10654WAT     H143322   0.276   3.731   0.445  0.5087 -0.2194  1.7774
10654WAT     H243323   0.387   3.675   0.386 -0.1323 -0.4641  0.7777
10654WAT    EPW43324   0.347   3.738   0.412  1.4525 -0.2908  0.2796
10655WAT      O43325   0.982   4.715   1.876  0.0652 -0.2976  0.2824
10655WAT     H143326   0.999   4.785   1.826 -0.3632  0.4701  1.1879
10655WAT     H243327   0.969   4.748   1.955 -1.3204 -1.2684  0.5102
10655WAT    EPW43328   0.982   4.730   1.880 -0.9312 -0.8194  0.0227
10656WAT      O43329   1.427   3.215   0.045 -0.0395 -0.1141  0.4801
10656WAT     H143330   1.359   3.263   0.068  1.2857  2.1750 -0.0774
10656WAT     H243331   1.470   3.201   0.120  0.1151  0.4918  0.5063
10656WAT    EPW43332   1.423   3.220   0.059  0.3518  1.1790 -0.2583
10657WAT      O43333   0.711   4.085   0.951 -0.0641 -0.5363 -0.0855
10657WAT     H143334   0.743   4.089   1.032 -1.3095 -2.6521  0.5821
10657WAT     H243335   0.699   4.168   0.930  0.3074  0.0784  1.8911
10657WAT    EPW43336   0.714   4.098   0.960  0.4931 -0.0072 -0.3758
10658WAT      O43337   0.169   4.169   7.959 -0.3854 -0.1290 -0.0159
10658WAT     H143338   0.192   4.128   8.033 -1.5282  0.3659  0.6539
10658WAT     H243339   0.188   4.111   7.897  0.0787 -0.7897  0.7142
10658WAT    EPW43340   0.175   4.154   7.961 -0.5118 -0.1545 -0.2156
10659WAT      O43341   2.232   5.553   0.583 -0.0002 -0.6028  0.2143
10659WAT     H143342   2.292   5.610   0.557 -1.1362  0.6036  0.1604
10659WAT     H243343   2.270   5.476   0.570  0.4490 -0.0148 -2.6560
10659WAT    EPW43344   2.246   5.550   0.577 -0.2157 -0.5215  0.1488
10660WAT      O43345   0.859   4.105   1.195  0.0753 -0.0902  0.0308
10660WAT     H143346   0.836   4.070   1.272  1.1523 -2.5274 -0.6668
10660WAT     H243347   0.925   4.055   1.169 -0.0369  0.8824 -2.3571
10660WAT    EPW43348   0.865   4.093   1.203  0.1694  0.4810  0.0700
10661WAT      O43349   0.523   2.564   0.699  0.5000 -0.6113  0.3754
10661WAT     H143350   0.584   2.626   0.705 -0.1429  0.0287  0.4480
10661WAT     H243351   0.523   2.543   0.615  0.0483  0.1894  0.1685
10661WAT    EPW43352   0.532   2.570   0.688  0.3230 -1.2194  0.4930
10662WAT      O43353   1.545   3.869   0.529 -0.2547 -0.5927 -0.2465
10662WAT     H143354   1.509   3.935   0.485 -0.8902 -0.4619  0.4570
10662WAT     H243355   1.529   3.799   0.478 -1.8537 -0.5995  0.2269
10662WAT    EPW43356   1.538   3.868   0.515  0.4755 -0.0668 -0.4696
10663WAT      O43357   1.279   2.818   0.537 -0.2751  0.4430  0.0593
10663WAT     H143358   1.307   2.882   0.590  0.8245 -0.3139  0.4256
10663WAT     H243359   1.193   2.832   0.531 -0.8236 -0.5082  3.5831
10663WAT    EPW43360   1.270   2.830   0.544  0.6639 -0.0111 -0.0925
10664WAT      O43361   0.175   2.333   1.067 -0.0364 -0.2323  0.0319
10664WAT     H143362   0.091   2.316   1.084  0.1973 -2.9804 -1.0710
10664WAT     H243363   0.217   2.307   1.138 -0.0243  0.4291  0.2776
10664WAT    EPW43364   0.169   2.327   1.080 -1.1488 -0.0927 -0.4340
10665WAT      O43365   1.996   3.614   1.447 -0.1802 -0.4690  0.0309
10665WAT     H143366   1.950   3.563   1.393  1.3391 -1.9421  0.0578
10665WAT     H243367   1.984   3.577   1.526  0.7909 -0.7205  0.0773
10665WAT    EPW43368   1.988   3.601   1.451 -0.7160  0.4562  0.3511
10666WAT      O43369   2.296   4.781   0.843 -0.4160  0.1238 -0.5891
10666WAT     H143370   2.317   4.850   0.893  0.6337 -0.5340 -0.0972
10666WAT     H243371   2.258   4.818   0.774  0.5347  1.2541 -0.5522
10666WAT    EPW43372   2.294   4.797   0.840  0.9557  0.0909  0.2620
10667WAT      O43373   0.910   2.710   1.122 -0.1453  0.0752  0.1409
10667WAT     H143374   0.883   2.765   1.061 -1.7415  0.6226  1.2679
10667WAT     H243375   0.880   2.632   1.094 -0.7864  0.3080  0.1589
10667WAT    EPW43376   0.902   2.706   1.109 -1.1660  0.5174 -0.2216
10668WAT      O43377   7.991   4.272   2.155 -0.2629 -0.1171  0.2555
10668WAT     H143378   7.932   4.314   2.106 -0.5007 -1.8001 -1.0099
10668WAT     H243379   7.943   4.212   2.197  0.4613 -1.3089 -0.5497
10668WAT    EPW43380   7.975   4.269   2.154 -0.0938  0.6479  0.2697
10669WAT      O43381   8.049   5.079   7.676 -0.3130 -0.8043 -0.1960
10669WAT     H143382   8.032   5.134   7.611  2.2845  0.1334 -0.1711
10669WAT     H243383   8.041   5.128   7.747  2.3306 -0.2656 -0.1901
10669WAT    EPW43384   8.045   5.094   7.677 -0.5380 -0.0853  0.2169
10670WAT      O43385   0.914   3.776   1.187 -0.0022  0.0319  0.5791
10670WAT     H143386   0.840   3.749   1.149 -0.8782 -0.5281  2.5358
10670WAT     H243387   0.936   3.708   1.237  0.3291  1.2228  2.0891
10670WAT    EPW43388   0.907   3.762   1.189 -0.3244 -0.4406  0.3533
10671WAT      O43389   8.051   0.766   0.448  0.4980 -0.0893 -0.7002
10671WAT     H143390   8.087   0.816   0.386 -0.9769  0.5536 -1.0840
10671WAT     H243391   8.017   0.824   0.504 -1.3627 -0.6186 -1.2230
10671WAT    EPW43392   8.052   0.782   0.447 -0.3450 -0.3640  0.1239
10672WAT      O43393   1.102   3.282   1.385  0.6690 -0.2949  0.6786
10672WAT     H143394   1.017   3.292   1.401  0.2295 -3.3173  0.8579
10672WAT     H243395   1.132   3.364   1.382 -2.2937  0.9143  0.1435
10672WAT    EPW43396   1.094   3.296   1.387 -0.5167 -0.3842 -0.1250
10673WAT      O43397   1.762   4.445   0.163 -0.3609 -0.2077 -0.5624
10673WAT     H143398   1.800   4.499   0.220  0.5266  0.7013 -1.9563
10673WAT     H243399   1.680   4.439   0.193  0.1011  0.1594  0.8471
10673WAT    EPW43400   1.755   4.452   0.176 -0.2912 -1.2955 -0.0361
10674WAT      O43401   1.677   6.313   0.963  0.2084 -0.3880 -0.2240
10674WAT     H143402   1.689   6.271   1.039 -0.2823  0.1350  0.1502
10674WAT     H243403   1.597   6.345   0.970  0.9021  1.4367 -0.0919
10674WAT    EPW43404   1.667   6.312   0.976 -0.0849  0.1071  0.1919
10675WAT      O43405   7.247   2.811   0.802 -0.4660 -0.6360  0.7797
10675WAT     H143406   7.190   2.846   0.858  0.1716  1.4848  0.2182
10675WAT     H243407   7.222   2.845   0.725  0.6962 -0.7848  0.3227
10675WAT    EPW43408   7.235   2.821   0.799 -0.9876  0.3897  0.2399
10676WAT      O43409   0.297   3.984   7.793  0.3080  0.5235  0.7435
10676WAT     H143410   0.371   4.005   7.752  0.9472 -0.6697  1.2730
10676WAT     H243411   0.309   3.902   7.819 -1.4184  0.0969  0.3457
10676WAT    EPW43412   0.309   3.975   7.791  0.8973  0.2202 -0.1615
10677WAT      O43413   0.826   3.261   0.220  0.3741  0.4713  0.1779
10677WAT     H143414   0.882   3.200   0.195 -0.3020 -0.9767  1.9096
10677WAT     H243415   0.797   3.296   0.146  1.7041 -0.4538 -0.8062
10677WAT    EPW43416   0.830   3.257   0.206  0.1801  0.0683 -0.1234
10678WAT      O43417   7.881   4.745   0.350 -0.0183  0.0013  0.3453
10678WAT     H143418   7.918   4.817   0.385  0.5658 -0.1320  0.0214
10678WAT     H243419   7.800   4.747   0.380 -0.0104  0.8062  0.3408
10678WAT    EPW43420   7.875   4.756   0.360  0.2424 -0.2539  1.1178
10679WAT      O43421   8.030   4.333   7.894 -0.1906 -0.0373 -0.2141
10679WAT     H143422   8.097   4.291   7.930 -0.4788  0.5100  1.0220
10679WAT     H243423   7.961   4.304   7.939 -0.3909  1.7096  0.6832
10679WAT    EPW43424   8.030   4.323   7.906 -0.0447 -0.4407  0.1358
10680WAT      O43425   8.084   4.477   0.128 -0.2857 -0.4920  0.3298
10680WAT     H143426   8.041   4.481   0.052  0.5901 -2.4942 -0.3383
10680WAT     H243427   8.054   4.404   0.165 -0.3007  0.1680  1.6859
10680WAT    EPW43428   8.073   4.466   0.123 -0.2662 -0.8673  0.0076
10681WAT      O43429   1.977   4.366   0.698  0.1789  0.2618  0.1987
10681WAT     H143430   2.054   4.403   0.680 -0.3199  0.5490 -1.5241
10681WAT     H243431   1.925   4.434   0.716 -0.2591  0.2824 -1.0695
10681WAT    EPW43432   1.981   4.381   0.698  0.0209 -1.0303 -0.8878
10682WAT      O43433   0.266   2.231   1.320  0.5750  0.0960 -0.1325
10682WAT     H143434   0.223   2.259   1.390  1.3918 -0.1364  0.4765
10682WAT     H243435   0.347   2.260   1.332  0.6395  0.4000 -1.1881
10682WAT    EPW43436   0.272   2.239   1.332  0.9017 -0.8360 -0.8019
10683WAT      O43437   2.015   4.348   1.021  0.4748 -0.0518  0.3855
10683WAT     H143438   2.047   4.403   0.961 -1.0184 -1.3775 -1.7818
10683WAT     H243439   2.084   4.302   1.045  0.6413 -2.2643 -3.5200
10683WAT    EPW43440   2.030   4.350   1.015 -0.2916  0.9265 -1.0660
10684WAT      O43441   1.092   3.952   1.027 -0.3170  0.3376 -0.0752
10684WAT     H143442   1.063   3.877   1.059  2.9216 -1.3503 -0.7114
10684WAT     H243443   1.031   3.975   0.970 -1.0459 -2.2773 -0.4750
10684WAT    EPW43444   1.079   3.945   1.024  0.2984  0.0289 -1.1133
10685WAT      O43445   1.475   4.688   0.531 -0.7250 -0.0343 -0.0057
10685WAT     H143446   1.428   4.614   0.528 -0.6642 -0.0815  0.2281
10685WAT     H243447   1.557   4.660   0.536 -0.7994  0.0227  2.3352
10685WAT    EPW43448   1.480   4.673   0.531 -0.0273 -0.1557 -0.8096
10686WAT      O43449   0.396   3.182   1.174 -0.2593 -0.2137  0.1192
10686WAT     H143450   0.427   3.173   1.093 -0.3694  2.0991 -0.2512
10686WAT     H243451   0.323   3.134   1.173  0.1415 -0.8403 -0.9032
10686WAT    EPW43452   0.390   3.174   1.162 -0.2496 -0.1051  0.1848
10687WAT      O43453   2.953   4.763   0.920 -0.4756 -0.0953  0.2364
10687WAT     H143454   2.898   4.701   0.946 -1.0293  0.3592  0.1801
10687WAT     H243455   2.969   4.743   0.837 -1.1022  0.1507  0.0517
10687WAT    EPW43456   2.947   4.751   0.912 -0.0627 -0.2893  1.1705
10688WAT      O43457   7.878   2.582   1.534 -0.0544 -0.4702  0.1961
10688WAT     H143458   7.835   2.560   1.461  0.6522  0.3974 -0.5038
10688WAT     H243459   7.849   2.662   1.552 -1.0253 -1.0801  1.5181
10688WAT    EPW43460   7.867   2.590   1.526  0.0242 -0.2136 -0.2858
10689WAT      O43461   0.849   2.726   7.863  0.0854  0.3948  0.0995
10689WAT     H143462   0.810   2.804   7.858 -1.3473 -0.2666  0.3312
10689WAT     H243463   0.932   2.745   7.882 -0.7482  1.7963  2.8371
10689WAT    EPW43464   0.855   2.740   7.865  0.0446 -0.0597  0.4353
10690WAT      O43465   1.723   3.525   7.530  0.2993 -0.1132  0.1319
10690WAT     H143466   1.677   3.460   7.565 -2.6076  2.2003  1.1254
10690WAT     H243467   1.784   3.542   7.589 -0.1503 -0.7076  0.7838
10690WAT    EPW43468   1.725   3.518   7.544  0.4330  0.3550 -0.2181
10691WAT      O43469   2.071   4.908   7.548  0.1752 -0.0983 -0.0294
10691WAT     H143470   2.022   4.964   7.593 -1.0059 -0.4998 -0.7418
10691WAT     H243471   2.122   4.959   7.499  1.5407  0.3336  1.7801
10691WAT    EPW43472   2.071   4.923   7.547  0.2723  0.2485  0.6774
10692WAT      O43473   1.133   3.097   0.449 -0.5167  0.4328  0.8179
10692WAT     H143474   1.160   3.043   0.386 -2.2133 -0.6561  0.9617
10692WAT     H243475   1.202   3.148   0.463 -0.3676  1.4176 -2.6289
10692WAT    EPW43476   1.147   3.096   0.442  0.5864  0.9844 -0.7877
10693WAT      O43477   7.827   4.026   0.594  0.5587 -1.1337 -0.6577
10693WAT     H143478   7.802   3.954   0.551 -0.3225 -1.5666  0.5458
10693WAT     H243479   7.850   3.997   0.673  1.6632 -0.2773 -0.6311
10693WAT    EPW43480   7.827   4.011   0.599 -0.4062  0.2221 -0.8028
10694WAT      O43481   1.079   4.855   1.135 -0.1288 -0.2731  0.4008
10694WAT     H143482   0.997   4.884   1.137  0.5710  1.8875  2.1240
10694WAT     H243483   1.118   4.908   1.078  0.6938  0.7979  1.9020
10694WAT    EPW43484   1.073   4.867   1.127 -0.5549 -0.1258 -0.1192
10695WAT      O43485   7.506   4.130   0.094  0.2703  0.0992  0.6272
10695WAT     H143486   7.443   4.127   0.154  0.3569 -2.1130  0.6993
10695WAT     H243487   7.574   4.094   0.133  0.2193 -1.7636 -0.8456
10695WAT    EPW43488   7.507   4.124   0.108  1.3808  0.8182  0.0627
10696WAT      O43489   0.710   2.713   1.339 -0.4213  0.3727 -0.3149
10696WAT     H143490   0.691   2.783   1.291  0.2982 -0.2990 -1.6589
10696WAT     H243491   0.774   2.674   1.294 -0.2528 -0.7273  0.8005
10696WAT    EPW43492   0.717   2.717   1.325  0.3999 -0.2251 -0.0610
10697WAT      O43493   2.326   3.331   7.919 -0.0533 -0.0380  0.3460
10697WAT     H143494   2.254   3.378   7.936 -1.4080 -1.8740  0.0093
10697WAT     H243495   2.354   3.307   7.998  1.2260  2.0228  0.5971
10697WAT    EPW43496   2.320   3.335   7.933  0.2689 -0.1111  0.3197
10698WAT      O43497   0.464   3.835   8.019  0.2811 -0.3585 -0.9732
10698WAT     H143498   0.394   3.799   7.981 -0.4442  0.8443 -0.8579
10698WAT     H243499   0.485   3.778   8.082 -1.1169 -0.3725 -0.4825
10698WAT    EPW43500   0.457   3.821   8.023  0.4907  0.1327 -0.2026
10699WAT      O43501   1.936   4.975   0.954 -0.0947  0.4824  0.0069
10699WAT     H143502   2.001   5.003   1.004 -0.5773  0.4893  0.6481
10699WAT     H243503   1.955   5.007   0.875  1.7565 -1.2133 -0.3316
10699WAT    EPW43504   1.948   4.984   0.950  0.3607 -0.3289 -0.4483
10700WAT      O43505  -0.003   4.974   0.288 -0.1873 -0.7990 -0.1253
10700WAT     H143506   0.035   4.900   0.263  1.4437  0.3665 -1.3675
10700WAT     H243507   0.059   5.013   0.336 -0.6186  0.1865 -0.3427
10700WAT    EPW43508   0.012   4.969   0.292  0.0115  0.8749 -0.5015
10701WAT      O43509   3.742   2.137   2.240  0.0266 -0.4696  0.6862
10701WAT     H143510   3.757   2.090   2.168 -0.8556 -1.9143  1.3860
10701WAT     H243511   3.707   2.211   2.210 -2.1499 -1.8200 -0.3263
10701WAT    EPW43512   3.739   2.141   2.225 -0.1778 -0.8512 -0.7168
10702WAT      O43513   0.748   3.377   2.027 -0.2843 -0.7304 -0.0931
10702WAT     H143514   0.823   3.333   2.038 -0.8546 -2.0341 -1.0745
10702WAT     H243515   0.772   3.460   2.029  1.2163 -1.1275 -0.5016
10702WAT    EPW43516   0.762   3.382   2.029  0.8911  0.0682 -0.2882
10703WAT      O43517   1.640   3.705   1.387  0.4104  0.7655 -0.1273
10703WAT     H143518   1.639   3.625   1.421  2.1736  0.0546 -1.5925
10703WAT     H243519   1.577   3.703   1.327  0.2347  0.5902  0.0616
10703WAT    EPW43520   1.631   3.693   1.384  0.0312  0.2987 -0.4336
10704WAT      O43521   0.015   3.452   0.628 -0.4430 -0.1934  0.1968
10704WAT     H143522   0.041   3.527   0.666 -2.1813  1.2752 -1.3169
10704WAT     H243523   0.036   3.391   0.687  1.8073  1.3496  1.1479
10704WAT    EPW43524   0.022   3.454   0.643 -0.1345 -0.0566 -0.3624
10705WAT      O43525   0.292   3.108   1.489 -0.4140 -0.1383  0.1452
10705WAT     H143526   0.267   3.051   1.551 -1.8698 -0.0905 -0.3366
10705WAT     H243527   0.269   3.067   1.415  0.9397 -0.0294 -0.3539
10705WAT    EPW43528   0.285   3.093   1.487 -1.0565 -0.0670  0.9011
10706WAT      O43529   2.397   2.876   1.256  0.0578  0.8756 -0.2306
10706WAT     H143530   2.454   2.812   1.273  1.1669  2.2345  1.5105
10706WAT     H243531   2.320   2.839   1.272  0.7485  0.3992  2.6965
10706WAT    EPW43532   2.394   2.861   1.261  1.1372  0.1576  0.2284
10707WAT      O43533   0.934   3.476   1.136 -0.0166 -0.1386 -0.1216
10707WAT     H143534   0.848   3.491   1.123 -0.3364 -2.3523 -0.8603
10707WAT     H243535   0.936   3.441   1.216  0.2975  0.4507  0.1353
10707WAT    EPW43536   0.921   3.473   1.146 -0.5379 -0.8445 -0.4931
10708WAT      O43537   2.206   4.124   1.048 -0.0065  0.2449  0.1778
10708WAT     H143538   2.144   4.093   0.996 -1.3918  0.6299  1.5310
10708WAT     H243539   2.215   4.061   1.109 -1.2341  1.4194  1.6582
10708WAT    EPW43540   2.199   4.110   1.049  0.0845  0.3117 -0.1501
10709WAT      O43541   1.071   3.279   0.859 -0.5924 -0.5326 -0.1286
10709WAT     H143542   1.080   3.361   0.887 -2.4216 -0.6360  0.9051
10709WAT     H243543   1.027   3.240   0.924  1.7603 -2.8439  0.2476
10709WAT    EPW43544   1.066   3.285   0.873  0.3956 -0.2717  0.4045
10710WAT      O43545   2.835   4.330   7.961  0.4531 -0.6231 -0.4677
10710WAT     H143546   2.897   4.280   7.996  2.6969  2.3689  0.2916
10710WAT     H243547   2.798   4.369   8.029  0.8976  0.9637 -1.0772
10710WAT    EPW43548   2.839   4.329   7.976  0.4778 -0.3270 -0.0985
10711WAT      O43549   1.689   5.068   1.281  0.4775 -0.3617  0.6091
10711WAT     H143550   1.672   5.124   1.346 -1.5503  0.1051 -0.2388
10711WAT     H243551   1.624   5.010   1.286  0.9013 -0.9474 -0.3424
10711WAT    EPW43552   1.677   5.068   1.291 -0.5315  0.1201 -0.0270
10712WAT      O43553   1.878   4.630   0.691 -0.4336 -0.3647 -0.3294
10712WAT     H143554   1.900   4.683   0.625  2.4886 -2.1271 -0.9657
10712WAT     H243555   1.914   4.668   0.760  0.4271 -0.7490 -0.5511
10712WAT    EPW43556   1.887   4.644   0.691  0.6736  0.4063 -0.5530
10713WAT      O43557   1.974   3.568   1.037 -0.4593  0.4615 -0.0647
10713WAT     H143558   1.910   3.611   0.997 -0.3229  1.2692  0.5662
10713WAT     H243559   1.947   3.563   1.120 -0.5007 -0.7378 -0.1286
10713WAT    EPW43560   1.961   3.574   1.044  0.3247  0.1675 -0.4821
10714WAT      O43561   2.363   3.345   0.395 -0.0651 -0.2742 -0.2592
10714WAT     H143562   2.327   3.321   0.470 -0.5603  0.4953 -0.2479
10714WAT     H243563   2.449   3.342   0.411 -0.0978 -1.9668 -0.2434
10714WAT    EPW43564   2.370   3.341   0.408 -0.6990 -0.0919 -0.2078
10715WAT      O43565   6.347   4.752   0.909 -0.4886 -0.6127 -0.2651
10715WAT     H143566   6.351   4.679   0.862 -0.3534  0.4320 -1.9277
10715WAT     H243567   6.282   4.797   0.873  1.1628  1.2559 -1.0366
10715WAT    EPW43568   6.338   4.748   0.897 -0.0672  0.0325 -0.0637
10716WAT      O43569   0.384   4.625   0.957  0.3773  0.6416 -0.3099
10716WAT     H143570   0.383   4.616   1.043 -0.5705 -0.6493 -0.4290
10716WAT     H243571   0.465   4.600   0.935  1.0702  2.2187  0.2790
10716WAT    EPW43572   0.396   4.620   0.966 -0.7310  0.9688  0.0947
10717WAT      O43573   1.339   4.180   0.810  0.0304  0.3566  0.3502
10717WAT     H143574   1.360   4.124   0.875 -0.6044  0.5445  0.7177
10717WAT     H243575   1.355   4.258   0.844  1.2692  0.4101 -0.2901
10717WAT    EPW43576   1.345   4.183   0.825 -0.2410 -0.4159 -0.9105
10718WAT      O43577   8.082   4.277   0.539  0.3447 -0.4833  0.2557
10718WAT     H143578   8.010   4.286   0.492  1.3087  0.6025 -1.1096
10718WAT     H243579   8.128   4.349   0.520  1.2457 -0.5372  2.0515
10718WAT    EPW43580   8.078   4.289   0.529 -0.3824 -0.4757 -0.3221
10719WAT      O43581   7.654   4.233   0.589 -0.2371  0.7230  0.8511
10719WAT     H143582   7.725   4.181   0.588 -0.4717  0.2880  2.6166
10719WAT     H243583   7.684   4.309   0.559  0.4695 -0.0117 -0.3833
10719WAT    EPW43584   7.669   4.237   0.584 -0.1706  0.4300  0.8078
10720WAT      O43585   3.271   3.683   1.020 -0.2851 -0.2383 -0.3669
10720WAT     H143586   3.211   3.626   0.993 -1.4043  1.1069 -0.7839
10720WAT     H243587   3.229   3.731   1.080  0.8072 -0.1791  0.3894
10720WAT    EPW43588   3.256   3.682   1.025  0.1897 -0.6984  0.4168
10721WAT      O43589   1.104   2.756   1.787  0.2438 -0.0089  0.2851
10721WAT     H143590   1.129   2.765   1.704  0.2287 -1.7059  0.0568
10721WAT     H243591   1.042   2.817   1.796  1.5611  1.5007 -0.3506
10721WAT    EPW43592   1.098   2.767   1.776  0.7936 -0.2213  0.9337
10722WAT      O43593   1.274   3.480   0.554  0.1111 -0.2978  0.4521
10722WAT     H143594   1.212   3.460   0.496  1.5138 -0.1112 -1.1850
10722WAT     H243595   1.284   3.406   0.600 -0.7869 -0.5509  0.2506
10722WAT    EPW43596   1.267   3.466   0.552  0.1826 -0.4505 -0.2249
10723WAT      O43597   0.551   4.927   1.199  0.3162 -0.0549 -0.1156
10723WAT     H143598   0.628   4.898   1.169 -0.1526 -1.1912 -0.2717
10723WAT     H243599   0.571   4.958   1.279  1.7044  3.6398 -1.6825
10723WAT    EPW43600   0.565   4.927   1.207 -0.2939  0.3852 -0.8651
10724WAT      O43601   1.802   4.202   0.526 -0.0347 -0.5165 -0.0612
10724WAT     H143602   1.837   4.257   0.584 -0.5025  2.8736 -2.6560
10724WAT     H243603   1.718   4.198   0.549 -0.2556  0.9630 -0.5205
10724WAT    EPW43604   1.794   4.209   0.538 -0.6304  0.5250  0.5394
10725WAT      O43605   0.542   3.152   0.887 -0.2025  0.5305  0.2520
10725WAT     H143606   0.580   3.218   0.930  1.9039 -0.4066 -0.0174
10725WAT     H243607   0.563   3.167   0.804  1.4037 -1.0773  0.3115
10725WAT    EPW43608   0.551   3.164   0.881  0.2952 -0.1638 -0.2350
10726WAT      O43609   8.021   3.603   1.371 -0.2774  0.4477 -0.0187
10726WAT     H143610   8.004   3.675   1.325 -2.4613 -0.0354 -0.0615
10726WAT     H243611   7.979   3.540   1.328 -1.1941 -0.2667  1.8175
10726WAT    EPW43612   8.013   3.605   1.358 -0.2644 -0.0706  0.2877
10727WAT      O43613   0.386   2.980   0.572 -0.2008  0.0840 -0.4938
10727WAT     H143614   0.358   3.062   0.582 -1.5507 -0.3886 -0.2296
10727WAT     H243615   0.317   2.938   0.541  0.4285 -0.9996 -0.4768
10727WAT    EPW43616   0.372   2.986   0.569  0.5922  0.2354  0.9110
10728WAT      O43617   0.625   4.455   0.421 -0.0110  0.7501 -0.5214
10728WAT     H143618   0.650   4.494   0.495  0.1294  0.4292 -0.3998
10728WAT     H243619   0.553   4.411   0.443 -0.3582  1.1985 -0.7365
10728WAT    EPW43620   0.618   4.454   0.435 -1.1376 -0.3839  0.2269
10729WAT      O43621   1.444   2.510   1.697  0.0845  0.0643  0.1433
10729WAT     H143622   1.527   2.510   1.670 -0.0386 -0.7345 -0.2606
10729WAT     H243623   1.400   2.540   1.628  0.0269  0.4996  0.3615
10729WAT    EPW43624   1.450   2.514   1.683 -0.1321  0.3608 -0.3525
10730WAT      O43625   0.930   4.680   7.833  0.2800 -0.1037 -0.4390
10730WAT     H143626   1.011   4.648   7.832  0.4769 -0.3397  3.7298
10730WAT     H243627   0.880   4.608   7.835  0.1345 -0.0058 -0.5826
10730WAT    EPW43628   0.935   4.665   7.833 -0.0787  0.8960 -0.2035
10731WAT      O43629   0.857   3.402   1.429  0.4938 -0.1414 -0.0923
10731WAT     H143630   0.855   3.487   1.449  0.3741 -0.1564 -0.0429
10731WAT     H243631   0.773   3.380   1.423  0.5283 -0.1766 -0.4476
10731WAT    EPW43632   0.844   3.411   1.431 -0.8460 -0.0753  0.7007
10732WAT      O43633   0.603   4.861   7.512 -0.2241  0.5765  0.2653
10732WAT     H143634   0.676   4.897   7.545  0.6100  0.5389 -1.4256
10732WAT     H243635   0.562   4.928   7.475 -0.0763  0.2889 -0.4385
10732WAT    EPW43636   0.608   4.876   7.511  0.2815  0.3554 -0.4517
10733WAT      O43637   2.990   5.703   1.177 -0.2098  0.2257  0.4155
10733WAT     H143638   2.948   5.750   1.237  1.0694  3.2801 -0.8641
10733WAT     H243639   2.927   5.680   1.121 -1.2528 -1.8443  2.2798
10733WAT    EPW43640   2.974   5.706   1.178  0.2576  0.5669 -0.2027
10734WAT      O43641   2.571   3.189   1.106  0.1988  0.5655  0.1799
10734WAT     H143642   2.487   3.208   1.119  0.3368  1.5613 -0.2628
10734WAT     H243643   2.570   3.107   1.076 -0.4584 -0.1219  1.9443
10734WAT    EPW43644   2.558   3.180   1.103  0.2015 -0.0394 -0.4850
10735WAT      O43645   1.797   4.424   1.172 -0.1068 -0.5999 -0.5950
10735WAT     H143646   1.791   4.384   1.249 -0.6511  0.3414 -0.1330
10735WAT     H243647   1.862   4.382   1.132 -0.0974 -1.3771  0.2045
10735WAT    EPW43648   1.806   4.412   1.177  0.6393  0.3067 -1.1156
10736WAT      O43649   7.612   5.421   0.228  0.1032  0.2171  0.2513
10736WAT     H143650   7.618   5.501   0.194 -0.8820  0.3700  0.3999
10736WAT     H243651   7.615   5.368   0.158 -1.4025  0.5024 -0.0555
10736WAT    EPW43652   7.614   5.425   0.213  0.1657 -0.4638 -0.0008
10737WAT      O43653   0.160   4.492   0.551  0.0410 -0.0394 -0.0331
10737WAT     H143654   0.138   4.557   0.498 -1.4524  0.3184  0.9842
10737WAT     H243655   0.160   4.528   0.631  0.7905 -0.9079  0.3927
10737WAT    EPW43656   0.157   4.507   0.555  1.0450 -0.3134  0.0993
10738WAT      O43657   2.246   3.800   0.542 -0.0945 -0.6507  0.5919
10738WAT     H143658   2.198   3.801   0.469  2.4622  1.0709 -1.2846
10738WAT     H243659   2.240   3.882   0.571  0.2296 -0.8950  1.3783
10738WAT    EPW43660   2.238   3.812   0.535  0.0882 -0.2929 -1.1852
10739WAT      O43661   1.794   3.921   0.613 -0.3826 -0.3228  0.1716
10739WAT     H143662   1.808   4.005   0.593  0.2263 -0.5133 -0.2312
10739WAT     H243663   1.712   3.908   0.589 -0.0495 -0.2090 -1.0957
10739WAT    EPW43664   1.784   3.932   0.606  1.2135 -0.2369  0.4861
10740WAT      O43665   1.416   3.825   0.779  0.0416 -0.2339  0.1423
10740WAT     H143666   1.450   3.856   0.705 -1.0212  1.0374  0.1559
10740WAT     H243667   1.336   3.798   0.756 -0.3082  0.1966  0.8123
10740WAT    EPW43668   1.409   3.826   0.765 -0.2580  0.4044 -0.7629
10741WAT      O43669   1.224   2.252   2.205 -0.5416 -0.0219 -0.3349
10741WAT     H143670   1.202   2.208   2.132 -0.8832 -0.4359  0.0109
10741WAT     H243671   1.149   2.292   2.228 -0.4369  0.1003 -0.2064
10741WAT    EPW43672   1.209   2.251   2.198  0.3706 -0.2660  0.3949
10742WAT      O43673   7.586   3.388   2.398 -0.2538 -0.4369  0.1922
10742WAT     H143674   7.582   3.311   2.358  1.5187  1.1111 -3.3517
10742WAT     H243675   7.508   3.424   2.380 -0.7646 -0.9851  1.1663
10742WAT    EPW43676   7.574   3.382   2.390 -0.5411  0.0009 -0.2523
10743WAT      O43677   0.231   1.924   1.898  0.6043 -0.0925 -0.5323
10743WAT     H143678   0.160   1.948   1.943  2.0812  1.3286  1.1819
10743WAT     H243679   0.221   1.964   1.821 -0.4585  0.0271 -0.3516
10743WAT    EPW43680   0.219   1.934   1.893 -0.0236 -0.0396 -0.8572
10744WAT      O43681   2.301   3.235   0.675  0.0470  0.6242 -0.0241
10744WAT     H143682   2.235   3.216   0.729 -1.0417 -1.9312 -2.0426
10744WAT     H243683   2.372   3.229   0.726 -0.9603 -1.2418  1.2733
10744WAT    EPW43684   2.302   3.232   0.690  0.0904  0.5056 -0.1824
10745WAT      O43685   0.618   3.181   1.528 -0.4378  0.3510 -0.6751
10745WAT     H143686   0.603   3.261   1.560  0.4379 -0.3816  1.8561
10745WAT     H243687   0.538   3.147   1.517 -0.7983  1.0553 -0.2725
10745WAT    EPW43688   0.604   3.188   1.531 -0.4379 -0.7954 -0.1012
10746WAT      O43689   1.521   4.028   1.280 -0.1935 -0.4824 -0.6787
10746WAT     H143690   1.471   3.973   1.234  0.9531 -0.5309 -1.9427
10746WAT     H243691   1.485   4.106   1.264  0.4155 -0.4441 -2.0723
10746WAT    EPW43692   1.508   4.032   1.271  0.4997 -0.4650 -0.6879
10747WAT      O43693   1.968   2.837   0.327  0.1725  0.3198  0.0884
10747WAT     H143694   1.985   2.862   0.246 -0.8418 -0.9347 -0.5420
10747WAT     H243695   2.036   2.786   0.347  0.8445  1.2814  0.3714
10747WAT    EPW43696   1.981   2.833   0.318 -0.1941  0.1170  0.6439
10748WAT      O43697   0.889   3.304   2.479 -0.1938  0.0913 -0.3760
10748WAT     H143698   0.896   3.220   2.456  2.1974 -0.6880  2.5028
10748WAT     H243699   0.954   3.343   2.435 -0.0624  0.0426 -0.2238
10748WAT    EPW43700   0.900   3.298   2.469  0.7151  0.9211 -0.1190
10749WAT      O43701   7.940   2.542   0.225 -0.3470  0.0210  0.1497
10749WAT     H143702   8.009   2.489   0.229  0.9901  1.7129  0.9736
10749WAT     H243703   7.910   2.530   0.144 -0.8528 -2.7858  0.6460
10749WAT    EPW43704   7.945   2.533   0.214  0.0872 -0.2899  0.3634
10750WAT      O43705   3.686   4.529   0.817 -0.0134 -0.0740 -0.0969
10750WAT     H143706   3.604   4.555   0.829  0.2868  0.8657 -0.0428
10750WAT     H243707   3.681   4.472   0.751 -0.7875 -0.5080  0.3207
10750WAT    EPW43708   3.673   4.524   0.809  0.6769  0.0472 -0.2254
10751WAT      O43709   2.287   3.375   1.067  0.1418  0.1062 -0.0942
10751WAT     H143710   2.239   3.391   0.996 -1.0425 -0.7426  0.4815
10751WAT     H243711   2.265   3.293   1.089  3.9379 -1.4791 -1.3867
10751WAT    EPW43712   2.276   3.365   1.060  0.1373 -0.0293 -0.2420
10752WAT      O43713   2.241   5.821   7.567  0.1238  0.1923 -0.4286
10752WAT     H143714   2.272   5.792   7.643  0.6691 -1.1549 -1.1311
10752WAT     H243715   2.312   5.822   7.516 -0.4316  0.0369 -1.2191
10752WAT    EPW43716   2.256   5.817   7.571 -0.0179  0.4115  0.5596
10753WAT      O43717   1.335   5.089   0.029  0.1557 -0.1954  0.1692
10753WAT     H143718   1.317   5.166   0.066 -1.6478 -0.6038  0.2151
10753WAT     H243719   1.280   5.033   0.067 -0.9720 -0.8641 -2.2020
10753WAT    EPW43720   1.324   5.092   0.040  0.3690 -0.3241  0.4282
10754WAT      O43721   0.881   3.147   1.017  0.6751 -0.0709 -0.1324
10754WAT     H143722   0.846   3.072   0.989  1.3443 -0.4503  0.0233
10754WAT     H243723   0.922   3.125   1.091 -2.1421  1.1435  1.9966
10754WAT    EPW43724   0.882   3.133   1.024 -0.7523  0.2120 -0.3664
10755WAT      O43725   1.540   5.575   0.474 -0.4032 -0.4127 -0.8355
10755WAT     H143726   1.560   5.649   0.516 -1.1898 -1.2708  1.1694
10755WAT     H243727   1.505   5.602   0.399 -0.2729  1.2323 -0.3297
10755WAT    EPW43728   1.538   5.590   0.469  0.3495  0.0856 -0.0494
10756WAT      O43729   7.668   3.170   0.095  0.1403  0.3887 -0.5680
10756WAT     H143730   7.606   3.199   0.042 -0.3359  1.4180  0.5113
10756WAT     H243731   7.732   3.147   0.040  0.0509  2.2964 -1.5886
10756WAT    EPW43732   7.668   3.171   0.079 -0.5415 -0.9519 -0.6938
10757WAT      O43733   2.500   5.211   7.621  0.0146  0.1832  0.0949
10757WAT     H143734   2.576   5.186   7.656  0.4881 -0.0664 -1.0864
10757WAT     H243735   2.459   5.249   7.688  0.1891 -1.7429  1.4041
10757WAT    EPW43736   2.505   5.213   7.636  0.7244  0.1590  0.1382
10758WAT      O43737   0.023   2.724   1.502  0.0077  0.1317  0.3775
10758WAT     H143738  -0.027   2.654   1.514  0.3551 -0.1950 -0.0809
10758WAT     H243739  -0.002   2.753   1.423 -0.2445  0.6160  0.6305
10758WAT    EPW43740   0.012   2.718   1.492 -0.6006  0.4308  0.3240
10759WAT      O43741   1.460   3.649   0.379 -0.3134 -0.1886  0.3956
10759WAT     H143742   1.385   3.676   0.344 -0.9018 -2.0590  0.1055
10759WAT     H243743   1.435   3.588   0.436  0.9005  0.2493  1.4522
10759WAT    EPW43744   1.445   3.644   0.382 -0.5297 -0.3742 -0.0445
10760WAT      O43745   1.695   4.450   1.497  0.2343  0.1235  0.5947
10760WAT     H143746   1.752   4.384   1.499  0.9917  0.7530  0.4553
10760WAT     H243747   1.623   4.416   1.531  0.7060 -0.6902  0.8135
10760WAT    EPW43748   1.693   4.435   1.502 -0.5881 -0.3513 -1.9822
10761WAT      O43749   0.675   4.191   7.489  0.8607  0.1317 -0.1797
10761WAT     H143750   0.704   4.131   7.433  1.9524  2.3097 -2.0948
10761WAT     H243751   0.734   4.255   7.483 -1.2560  2.2414  0.2371
10761WAT    EPW43752   0.688   4.192   7.480  0.3852 -0.0349 -0.7090
10762WAT      O43753   1.607   4.851   0.910  0.2579  0.3185  0.3860
10762WAT     H143754   1.685   4.826   0.939 -0.0318  1.1745  2.0161
10762WAT     H243755   1.596   4.929   0.946 -0.0666  1.6144 -2.3071
10762WAT    EPW43756   1.617   4.859   0.919 -0.1451  0.0527  0.5542
10763WAT      O43757   1.508   3.532   2.009 -0.3684 -0.1021  0.2958
10763WAT     H143758   1.569   3.492   1.960 -1.0089 -1.7979  0.7838
10763WAT     H243759   1.508   3.485   2.083 -1.6311  0.4275  0.6559
10763WAT    EPW43760   1.517   3.519   2.013  0.3029 -0.0535  0.1696
10764WAT      O43761   4.651   4.992   1.504 -0.3071 -0.5786 -0.0227
10764WAT     H143762   4.687   4.929   1.456 -1.5527 -1.6202  0.3612
10764WAT     H243763   4.577   5.011   1.460 -0.3404  0.0660  0.2919
10764WAT    EPW43764   4.645   4.986   1.490  0.5621  0.7343 -1.0624
10765WAT      O43765   0.654   3.227   0.619  0.0336  0.1247 -0.1617
10765WAT     H143766   0.620   3.211   0.540 -0.7724 -0.7520  0.3344
10765WAT     H243767   0.736   3.196   0.613 -0.5841 -1.6293 -0.1309
10765WAT    EPW43768   0.661   3.220   0.607 -0.4199 -0.4152 -0.1807
10766WAT      O43769   2.778   3.924   1.614  0.2599  0.3353 -0.3092
10766WAT     H143770   2.749   3.981   1.674 -2.1141 -0.2288 -0.8058
10766WAT     H243771   2.751   3.847   1.645 -0.1554 -0.0687 -1.6144
10766WAT    EPW43772   2.769   3.921   1.628 -0.8579 -0.0620 -0.1502
10767WAT      O43773   0.001   4.026   7.679 -0.1741 -0.0877 -0.0065
10767WAT     H143774  -0.040   3.993   7.749 -1.0981 -1.5017 -1.1376
10767WAT     H243775   0.086   4.016   7.697 -0.3480  0.9773  1.5190
10767WAT    EPW43776   0.008   4.020   7.692  0.4687 -0.6701  0.3285
10768WAT      O43777   1.104   3.632   7.809  0.0068 -0.0567 -0.5415
10768WAT     H143778   1.086   3.633   7.724 -0.4440  0.7407 -0.4416
10768WAT     H243779   1.190   3.617   7.811  0.5180  2.3056 -1.2531
10768WAT    EPW43780   1.114   3.630   7.796  0.4118  0.7837  0.9101
10769WAT      O43781   2.798   7.850   6.912 -0.4158  0.4354  0.3833
10769WAT     H143782   2.879   7.867   6.884 -0.6145 -0.0056 -0.5004
10769WAT     H243783   2.788   7.765   6.894 -1.2475  0.5992  0.0261
10769WAT    EPW43784   2.809   7.840   6.905  0.1140 -0.1485 -1.0082
10770WAT      O43785   1.071   1.682   0.963  0.2202  0.5367  0.3873
10770WAT     H143786   1.002   1.727   0.994  0.3693 -0.6963  2.7454
10770WAT     H243787   1.138   1.714   1.008  0.4797 -1.2498  1.3742
10770WAT    EPW43788   1.071   1.693   0.974 -0.2420  0.3075  0.4542
10771WAT      O43789   2.342   1.735   7.438 -0.2755  0.2340  0.1256
10771WAT     H143790   2.282   1.708   7.382  1.3166  0.3841 -1.7607
10771WAT     H243791   2.306   1.804   7.477 -2.0640 -0.9089  0.5800
10771WAT    EPW43792   2.328   1.741   7.436 -0.4656 -0.0395 -0.0002
10772WAT      O43793   3.033   1.296   6.935 -0.1896  0.8053  0.2777
10772WAT     H143794   3.078   1.225   6.958 -0.1547  0.7715  0.1088
10772WAT     H243795   2.961   1.263   6.899  0.1749  0.8384 -0.5097
10772WAT    EPW43796   3.029   1.281   6.933  0.5039 -0.8740 -0.6096
10773WAT      O43797   0.983   1.709   7.998 -0.1485  0.0047  0.0108
10773WAT     H143798   0.957   1.639   8.044  1.5723  0.5056  1.8719
10773WAT     H243799   1.069   1.701   7.994 -0.0178  1.4409 -0.7347
10773WAT    EPW43800   0.992   1.698   8.004  0.4128  0.5770  0.0882
10774WAT      O43801   1.655   1.815   1.574 -0.6909  0.6076  0.3888
10774WAT     H143802   1.661   1.765   1.645 -0.5275  1.6353  1.1224
10774WAT     H243803   1.724   1.792   1.526 -0.9235 -0.2483  0.4464
10774WAT    EPW43804   1.666   1.804   1.577 -0.9514 -0.0216  0.3810
10775WAT      O43805   0.644   0.664   0.131 -0.2061  0.1936 -0.5408
10775WAT     H143806   0.595   0.728   0.099 -0.2667 -0.4129 -1.7161
10775WAT     H243807   0.726   0.693   0.121 -0.2677  1.1176  1.2310
10775WAT    EPW43808   0.649   0.677   0.125  0.4115 -0.3208  0.7783
10776WAT      O43809   3.152   0.072   0.245  0.6067  0.4705 -0.7053
10776WAT     H143810   3.212   0.134   0.231  1.4344 -0.6417 -2.6310
10776WAT     H243811   3.201  -0.000   0.256 -0.3547 -0.2588 -1.0937
10776WAT    EPW43812   3.168   0.070   0.244  0.5054 -1.0616  0.3625
10777WAT      O43813   2.005   2.548   7.172 -0.0448  0.3541 -0.3129
10777WAT     H143814   1.968   2.558   7.250 -0.7905  0.3397 -0.6559
10777WAT     H243815   2.021   2.630   7.147 -2.5676  0.5995 -1.4228
10777WAT    EPW43816   2.002   2.562   7.180 -0.0133  0.4734  0.3883
10778WAT      O43817   1.084   1.645   0.646 -0.2852  0.2126 -0.3659
10778WAT     H143818   1.091   1.569   0.605 -2.2746 -0.2041 -0.0401
10778WAT     H243819   1.057   1.623   0.726  2.6333  1.0573  1.0201
10778WAT    EPW43820   1.081   1.631   0.652  0.0730 -0.3166 -0.7600
10779WAT      O43821   1.307   1.256   0.433  0.2217 -0.4461  0.1990
10779WAT     H143822   1.318   1.185   0.484  1.0448  1.3719  2.7584
10779WAT     H243823   1.386   1.292   0.431  0.4312 -0.7536 -3.1601
10779WAT    EPW43824   1.320   1.251   0.440  0.7757  0.2410  0.0195
10780WAT      O43825   2.017   2.058   1.341  0.6422 -0.6047  0.1649
10780WAT     H143826   1.944   2.086   1.305  0.7325 -2.0649 -1.2744
10780WAT     H243827   2.063   2.027   1.274  1.5454 -1.8864  1.3024
10780WAT    EPW43828   2.013   2.057   1.326  0.9230  0.0828 -0.2746
10781WAT      O43829   2.694   3.184   0.177  0.1185  0.0035 -0.4218
10781WAT     H143830   2.732   3.192   0.099  0.1407  0.9077 -0.3367
10781WAT     H243831   2.624   3.236   0.171 -1.2701 -1.7757 -0.6430
10781WAT    EPW43832   2.689   3.193   0.165  0.5466 -0.0109  0.6648
10782WAT      O43833   2.088   2.117   0.373 -0.0271  0.1031  0.0798
10782WAT     H143834   2.135   2.092   0.442 -0.6353 -0.2635  0.3724
10782WAT     H243835   2.042   2.045   0.353 -0.2911  0.3854 -0.3441
10782WAT    EPW43836   2.088   2.103   0.380 -0.2310 -0.2455 -0.2217
10783WAT      O43837   1.567   1.101   1.707 -0.0193 -0.1744  0.1752
10783WAT     H143838   1.613   1.050   1.760  1.0435  1.3096  0.7648
10783WAT     H243839   1.566   1.178   1.748  0.8629  1.0481 -1.8985
10783WAT    EPW43840   1.574   1.105   1.721 -1.1136  0.0082 -0.0380
10784WAT      O43841   3.685   1.186   6.724 -0.1342  0.0155 -0.1876
10784WAT     H143842   3.682   1.133   6.793 -0.9415 -0.8599 -0.8587
10784WAT     H243843   3.651   1.137   6.660 -0.8053  1.3105 -0.8564
10784WAT    EPW43844   3.679   1.171   6.725 -0.0511  0.0048 -0.8419
10785WAT      O43845   0.495   2.876   0.806  0.2504 -0.7022  0.1343
10785WAT     H143846   0.515   2.952   0.842  1.0804 -0.6741 -0.3674
10785WAT     H243847   0.437   2.897   0.744 -0.2391 -0.6006  0.6236
10785WAT    EPW43848   0.489   2.890   0.802  0.0351 -0.2831 -0.6775
10786WAT      O43849   1.387   3.462   7.228 -0.0552 -0.2620  0.2973
10786WAT     H143850   1.349   3.500   7.296  1.2495 -0.8444  1.4114
10786WAT     H243851   1.366   3.377   7.237 -0.1057 -0.3057 -0.1938
10786WAT    EPW43852   1.378   3.455   7.239 -0.0179 -0.1232 -0.2811
10787WAT      O43853   1.738   2.990   6.738  0.6600  0.7158  0.2614
10787WAT     H143854   1.691   2.920   6.761 -1.5274  1.9033 -0.2531
10787WAT     H243855   1.802   2.957   6.690 -1.1443 -0.8768 -1.2401
10787WAT    EPW43856   1.740   2.975   6.734  0.2671 -0.0001  1.0264
10788WAT      O43857   2.452   4.917   7.780 -0.4488  0.5324  0.1583
10788WAT     H143858   2.462   4.877   7.703 -2.4935  0.1343  0.0238
10788WAT     H243859   2.504   4.987   7.774 -0.4437  0.4320 -1.5385
10788WAT    EPW43860   2.461   4.921   7.768  0.7104  0.6572 -0.4787
10789WAT      O43861   1.302   2.789   1.031  0.6424  0.5754 -0.0314
10789WAT     H143862   1.246   2.802   0.965 -0.9201 -2.0241  0.6136
10789WAT     H243863   1.376   2.765   0.991  0.6753  1.9798 -0.8578
10789WAT    EPW43864   1.305   2.787   1.015  0.2584  0.1325  0.0223
10790WAT      O43865   1.941   2.158   7.077 -0.1537 -0.1136 -0.1037
10790WAT     H143866   1.867   2.113   7.069  0.3300 -0.8781 -0.3076
10790WAT     H243867   1.914   2.241   7.077 -1.2093 -0.4015  1.8367
10790WAT    EPW43868   1.926   2.164   7.076  0.3990 -0.1542  1.0955
10791WAT      O43869   3.001   2.293   0.081 -0.9505  0.0216 -0.6596
10791WAT     H143870   3.052   2.254   0.140 -0.7379 -0.8518 -1.3981
10791WAT     H243871   3.043   2.281   0.005 -1.8983 -0.1000 -1.1872
10791WAT    EPW43872   3.014   2.285   0.078 -0.3566 -0.2575  0.2229
10792WAT      O43873   0.156   2.512   0.024 -0.0026  0.5287  0.2303
10792WAT     H143874   0.106   2.536  -0.043  0.3290  0.0173 -0.2005
10792WAT     H243875   0.234   2.497  -0.011 -0.4732 -2.4558  0.1932
10792WAT    EPW43876   0.160   2.513   0.009 -0.2059 -0.4544 -0.4320
10793WAT      O43877   2.364   2.668   0.814 -0.2458 -0.4676  0.2804
10793WAT     H143878   2.317   2.686   0.743 -1.5722 -0.3115  1.1676
10793WAT     H243879   2.446   2.668   0.784 -0.5168  2.2321 -0.7188
10793WAT    EPW43880   2.369   2.670   0.799 -0.5519 -0.4524 -0.1159
10794WAT      O43881   2.772   1.122   6.002  0.1499  0.5740 -0.1354
10794WAT     H143882   2.848   1.107   6.041  0.1149  0.3237 -0.1584
10794WAT     H243883   2.724   1.160   6.065 -0.2664 -0.7927  0.4296
10794WAT    EPW43884   2.776   1.125   6.017 -0.0620  0.7237  0.0318
10795WAT      O43885   3.209   1.172   6.562 -0.1003 -0.5655  0.0653
10795WAT     H143886   3.259   1.134   6.623  0.3482  0.8771  0.6345
10795WAT     H243887   3.165   1.233   6.607 -1.7121 -1.1732 -0.6011
10795WAT    EPW43888   3.210   1.176   6.578 -0.7473 -0.3165 -0.7831
10796WAT      O43889   3.447   2.366   7.255  0.7454  0.1643  0.6008
10796WAT     H143890   3.504   2.412   7.303  2.1710 -1.2201  0.3185
10796WAT     H243891   3.495   2.340   7.187 -0.9329  1.1266 -1.0495
10796WAT    EPW43892   3.462   2.369   7.252 -0.2116 -0.5887  0.7649
10797WAT      O43893   2.509   2.508   7.036  0.0065 -0.1221  0.0329
10797WAT     H143894   2.504   2.489   6.951 -0.5890  0.5443 -0.0924
10797WAT     H243895   2.437   2.554   7.051  0.3562  0.2034  0.7860
10797WAT    EPW43896   2.498   2.512   7.026 -0.0154 -0.2028  0.3915
10798WAT      O43897   3.016   0.496   6.800  0.3440  0.6728 -0.5849
10798WAT     H143898   2.982   0.568   6.835  2.5982  0.2911  2.8929
10798WAT     H243899   3.091   0.524   6.764  0.0040  0.4189 -1.5045
10798WAT    EPW43900   3.022   0.511   6.800  0.2228  0.1301  0.3405
10799WAT      O43901   2.354   1.110   0.441  0.4453  0.0006 -0.2810
10799WAT     H143902   2.318   1.073   0.511  0.5062 -0.7821 -0.6514
10799WAT     H243903   2.291   1.104   0.380 -0.6218  3.0174  0.3587
10799WAT    EPW43904   2.339   1.104   0.442  0.7329  0.6567 -0.0417
10800WAT      O43905   2.286   2.264   7.029  0.5978 -0.1011  0.0097
10800WAT     H143906   2.271   2.180   7.008  0.9786 -0.5216  1.3528
10800WAT     H243907   2.372   2.273   7.014  0.5925  0.0073  0.0472
10800WAT    EPW43908   2.297   2.253   7.023  0.2960 -0.8877 -0.3786
10801WAT      O43909   2.114   1.206   6.303  0.3365  0.0300  0.3333
10801WAT     H143910   2.169   1.155   6.259  0.8507 -0.4599  1.5048
10801WAT     H243911   2.062   1.239   6.241  1.5257 -0.0221 -0.7157
10801WAT    EPW43912   2.114   1.204   6.288 -0.7274  0.3892 -0.1000
10802WAT      O43913   2.540   2.552   7.896  0.1574  0.2907 -0.1474
10802WAT     H143914   2.545   2.479   7.848 -2.1583 -0.0110 -0.0643
10802WAT     H243915   2.579   2.612   7.846 -0.0895 -0.5108 -1.3598
10802WAT    EPW43916   2.546   2.550   7.881  0.1403  0.1349 -0.6233
10803WAT      O43917   1.036   2.236   0.359  0.0113  0.5058 -0.0203
10803WAT     H143918   0.982   2.169   0.342 -0.1988  0.5626  0.4143
10803WAT     H243919   1.071   2.215   0.436  1.6115 -0.1648 -0.8951
10803WAT    EPW43920   1.033   2.223   0.368 -0.2833 -0.1744 -0.7487
10804WAT      O43921   2.047   3.871   7.003 -0.0442 -0.3262 -0.1457
10804WAT     H143922   2.108   3.911   7.051 -0.3352  0.6930 -0.6188
10804WAT     H243923   1.973   3.886   7.047  0.1231 -2.5493  1.0738
10804WAT    EPW43924   2.045   3.879   7.017 -0.0509  0.7088  0.3393
10805WAT      O43925   1.378   1.475   7.280 -0.6663  0.3528 -0.9851
10805WAT     H143926   1.435   1.446   7.220 -0.0016  0.4713 -0.4240
10805WAT     H243927   1.301   1.446   7.251 -0.0205 -2.4806 -0.2107
10805WAT    EPW43928   1.375   1.466   7.267  0.2429  0.1757 -0.0450
10806WAT      O43929   3.411   0.734   5.708  0.0909 -0.6545 -0.0070
10806WAT     H143930   3.489   0.751   5.743  0.5636 -2.0551 -0.3149
10806WAT     H243931   3.381   0.813   5.687  2.3506 -0.1591 -1.8285
10806WAT    EPW43932   3.418   0.748   5.710 -0.4581  0.0759  0.2164
10807WAT      O43933   1.656   1.916   1.199  0.2330 -0.0592  0.1812
10807WAT     H143934   1.712   1.851   1.215 -0.2923 -0.5797 -0.0639
10807WAT     H243935   1.646   1.914   1.112 -1.7409 -1.3273  0.3817
10807WAT    EPW43936   1.663   1.906   1.188 -0.0778 -0.9656 -0.4317
10808WAT      O43937   3.131   2.817   7.925 -0.5091 -0.0771 -0.4201
10808WAT     H143938   3.092   2.772   7.988  2.7252 -0.0598  1.8303
10808WAT     H243939   3.215   2.797   7.933  0.7435  3.7875 -1.4067
10808WAT    EPW43940   3.138   2.808   7.935  0.0175  0.5036 -0.3988
10809WAT      O43941   1.949   1.709   0.070  0.0905 -0.4832  0.5281
10809WAT     H143942   1.967   1.631   0.105  2.0032 -0.2924  0.0624
10809WAT     H243943   1.940   1.761   0.139  1.8054 -0.5290  0.8337
10809WAT    EPW43944   1.950   1.705   0.085 -0.6871 -0.0530 -0.3383
10810WAT      O43945   0.860   2.887   0.921  0.3057 -0.3141 -0.0879
10810WAT     H143946   0.824   2.867   0.844  0.1385  0.0004 -0.0914
10810WAT     H243947   0.946   2.886   0.904  0.2728 -0.3525 -0.2530
10810WAT    EPW43948   0.867   2.884   0.907  0.4489 -0.6351 -0.3800
10811WAT      O43949   3.415   2.121   7.815 -0.9682 -0.5621 -0.4180
10811WAT     H143950   3.469   2.154   7.754  0.6377 -1.1496  0.6068
10811WAT     H243951   3.411   2.036   7.794 -2.5148 -0.3414 -1.1756
10811WAT    EPW43952   3.423   2.113   7.803 -0.6181  0.1127 -0.8352
10812WAT      O43953   1.826   1.839   7.922  0.1846 -0.0915  0.2968
10812WAT     H143954   1.876   1.785   7.970 -0.0523  0.4952  1.2288
10812WAT     H243955   1.872   1.850   7.849  0.7254 -0.7339  0.5314
10812WAT    EPW43956   1.841   1.833   7.918  0.0477  0.6731  0.6239
10813WAT      O43957   2.626   0.915   7.279 -0.1006 -0.1537 -0.2168
10813WAT     H143958   2.561   0.934   7.334 -0.4055 -0.1981 -0.5581
10813WAT     H243959   2.611   0.967   7.210  0.6465  0.3649  0.0039
10813WAT    EPW43960   2.614   0.925   7.277 -0.3108 -0.3267 -0.4245
10814WAT      O43961   0.049   1.708   0.791 -0.3154 -0.1813  0.0894
10814WAT     H143962  -0.038   1.711   0.795 -0.3797  0.3892 -1.1507
10814WAT     H243963   0.074   1.775   0.841 -0.5135 -1.1939  1.6011
10814WAT    EPW43964   0.040   1.718   0.799  0.1297  0.1430 -0.3575
10815WAT      O43965   1.275   1.767   1.318 -0.2985 -0.3691  0.4911
10815WAT     H143966   1.304   1.776   1.236 -0.8673 -2.0675  0.0741
10815WAT     H243967   1.332   1.813   1.365  1.0661 -0.8017 -0.6753
10815WAT    EPW43968   1.287   1.775   1.313  0.8323 -0.7660  0.2017
10816WAT      O43969   3.252   1.818   7.505 -0.2538  0.0981  0.5638
10816WAT     H143970   3.268   1.733   7.497  0.1750  0.1812  0.5090
10816WAT     H243971   3.331   1.855   7.498  0.1277  0.2912  3.9389
10816WAT    EPW43972   3.266   1.811   7.503  0.2599 -0.4682 -0.5623
10817WAT      O43973   2.248   3.000   0.503 -0.2365  0.1290  0.3825
10817WAT     H143974   2.280   3.065   0.552 -0.0429 -0.3525  0.9064
10817WAT     H243975   2.233   2.936   0.561 -1.0361 -0.0699 -0.0283
10817WAT    EPW43976   2.250   3.000   0.519  0.4167  0.7934  0.2211
10818WAT      O43977   0.894   2.468   1.588  0.5188  0.3332 -0.0091
10818WAT     H143978   0.925   2.413   1.528 -0.9059 -0.5079 -0.0212
10818WAT     H243979   0.932   2.440   1.662  1.9606  1.1211 -0.4236
10818WAT    EPW43980   0.904   2.456   1.590  0.0723  0.8031 -0.0374
10819WAT      O43981   2.523   0.875   0.263 -0.5594  0.0780 -0.5533
10819WAT     H143982   2.514   0.908   0.182 -0.3455  0.8017 -0.2962
10819WAT     H243983   2.485   0.935   0.314 -0.2590 -0.1324 -0.0756
10819WAT    EPW43984   2.516   0.889   0.258  0.4511 -0.5022  0.3278
10820WAT      O43985   3.229   2.516   7.724  0.0504 -0.2776 -0.7216
10820WAT     H143986   3.235   2.533   7.809  0.6487 -0.5385 -0.7092
10820WAT     H243987   3.152   2.551   7.702 -0.8411 -1.5583  0.2445
10820WAT    EPW43988   3.218   2.524   7.733  0.0014 -0.7473 -0.8852
10821WAT      O43989   1.410   1.569   7.953  0.0961  0.1172  0.0014
10821WAT     H143990   1.419   1.611   7.877 -2.0827  0.2285 -0.2705
10821WAT     H243991   1.344   1.514   7.937  0.3330 -0.6391  1.5005
10821WAT    EPW43992   1.402   1.567   7.939  0.2834  0.0345 -0.0991
10822WAT      O43993   2.745   1.748   6.918  0.3164 -0.7128 -0.1448
10822WAT     H143994   2.739   1.694   6.986 -1.2288 -0.2188  0.1637
10822WAT     H243995   2.677   1.727   6.869 -0.4516  1.0272  0.0813
10822WAT    EPW43996   2.734   1.737   6.921  0.4074 -0.0796 -0.4382
10823WAT      O43997   0.855   2.658   0.231  0.9283 -0.1895 -0.3159
10823WAT     H143998   0.783   2.687   0.190  1.4932  1.1987 -0.3817
10823WAT     H243999   0.829   2.582   0.265 -1.2985  1.2679  1.5946
10823WAT    EPW44000   0.840   2.651   0.230  0.3061  0.4353  0.0012
10824WAT      O44001   1.489   1.692   7.711  0.8806  0.3825 -0.3550
10824WAT     H144002   1.562   1.653   7.737  0.3763  0.1818  0.8199
10824WAT     H244003   1.498   1.774   7.740 -0.0530 -0.0575  1.2354
10824WAT    EPW44004   1.501   1.699   7.719 -0.1445  0.5527 -0.6631
10825WAT      O44005   1.470   1.934   1.431  0.1306 -0.0525 -0.4339
10825WAT     H144006   1.534   1.919   1.488 -0.5185 -0.9555  0.0780
10825WAT     H244007   1.511   1.934   1.354  1.4137  3.3558  0.0598
10825WAT    EPW44008   1.485   1.932   1.428  0.3664 -0.8207  0.0579
10826WAT      O44009   2.951   2.394   7.184 -0.3581  0.3563 -0.2783
10826WAT     H144010   2.948   2.312   7.154  0.3792  0.8247 -1.7136
10826WAT     H244011   2.986   2.386   7.264  0.1301 -0.6818 -0.5811
10826WAT    EPW44012   2.956   2.381   7.191  0.1780 -1.1599 -0.3009
10827WAT      O44013   3.376   3.044   7.810  0.2083  0.0780  1.4128
10827WAT     H144014   3.379   3.115   7.760 -2.8780 -1.3965 -1.2382
10827WAT     H244015   3.300   3.051   7.852  0.1700 -1.2929  1.6322
10827WAT    EPW44016   3.366   3.056   7.809 -0.9067 -0.1237  0.1298
10828WAT      O44017   2.838   3.688   1.039 -0.3414 -0.0033  0.6846
10828WAT     H144018   2.816   3.718   1.118 -1.3343  1.6405 -0.1564
10828WAT     H244019   2.769   3.641   1.014 -0.2964  0.0090  0.5358
10828WAT    EPW44020   2.825   3.686   1.047 -0.0255 -0.6903 -0.2639
10829WAT      O44021   0.906   1.246   1.574  0.2187 -0.6850  0.3484
10829WAT     H144022   0.832   1.278   1.607 -1.0468 -2.6090 -0.4255
10829WAT     H244023   0.899   1.262   1.488  1.0160 -0.3551  0.3312
10829WAT    EPW44024   0.894   1.253   1.566  0.6801  0.6520 -0.4612
10830WAT      O44025   1.829   3.384   0.074  0.2337  0.1830  0.2263
10830WAT     H144026   1.852   3.328   0.137  0.9270 -0.1390 -0.2986
10830WAT     H244027   1.745   3.401   0.092 -0.6391 -2.5336 -0.6848
10830WAT    EPW44028   1.820   3.378   0.086 -0.2427 -0.5973 -0.2793
10831WAT      O44029   2.566   1.015   6.401 -0.4052 -0.4288  0.0949
10831WAT     H144030   2.481   0.994   6.394 -0.2641 -0.7948 -0.6248
10831WAT     H244031   2.607   0.941   6.379  0.0982  0.0191 -0.4813
10831WAT    EPW44032   2.559   1.001   6.397  0.3153  0.0430 -0.4476
10832WAT      O44033   2.378   2.729   7.563 -0.4053 -0.5073  0.2384
10832WAT     H144034   2.440   2.749   7.621  0.6012 -0.3994 -0.8328
10832WAT     H244035   2.418   2.673   7.509 -1.5860 -1.2991  0.1566
10832WAT    EPW44036   2.393   2.723   7.563 -0.4015  0.3351 -0.8606
10833WAT      O44037   3.666   0.501   0.680  0.0473 -0.0656  0.4839
10833WAT     H144038   3.614   0.549   0.628  1.5892  2.0411  0.7606
10833WAT     H244039   3.722   0.464   0.624  0.0954  0.0977  0.4219
10833WAT    EPW44040   3.666   0.503   0.664  0.1775  1.2335 -0.1321
10834WAT      O44041   1.894   1.883   0.566 -0.4683 -0.2506  0.4476
10834WAT     H144042   1.974   1.865   0.597 -0.6496  0.3800  1.3028
10834WAT     H244043   1.887   1.969   0.576 -1.6451 -0.4341  1.3570
10834WAT    EPW44044   1.905   1.893   0.572 -0.3656  0.2632 -0.2957
10835WAT      O44045   3.297   2.184   0.517 -0.3955  0.0840 -0.1837
10835WAT     H144046   3.329   2.264   0.532 -0.9390 -0.1575  3.0328
10835WAT     H244047   3.368   2.134   0.508 -0.0424  0.6510 -0.5906
10835WAT    EPW44048   3.312   2.188   0.518 -0.0258  0.3820 -0.0906
10836WAT      O44049   1.943   2.127   8.021 -0.1854  0.2541 -0.0606
10836WAT     H144050   1.881   2.067   8.007 -1.6376  2.0327 -1.9600
10836WAT     H244051   1.902   2.187   8.069  0.8089  0.4092  0.6125
10836WAT    EPW44052   1.928   2.127   8.026  0.4321  0.2901  0.3552
10837WAT      O44053   1.554   1.347   1.806 -0.2611 -0.2139 -0.4058
10837WAT     H144054   1.493   1.347   1.869  0.2217 -3.2471  0.2067
10837WAT     H244055   1.629   1.351   1.850  0.0572  0.5498 -0.9991
10837WAT    EPW44056   1.556   1.348   1.822  0.4073 -0.0196  1.0539
10838WAT      O44057   1.294   2.234   7.416  0.3687 -0.0727 -0.1860
10838WAT     H144058   1.327   2.160   7.448  0.1764  0.3884  1.1419
10838WAT     H244059   1.254   2.270   7.485 -0.0236  0.9914 -0.9468
10838WAT    EPW44060   1.293   2.228   7.431  0.5942  0.5257 -0.7674
10839WAT      O44061   2.594   1.348   7.017 -0.3643  0.1800 -0.3527
10839WAT     H144062   2.543   1.366   6.948  2.4200 -0.1176 -2.6737
10839WAT     H244063   2.624   1.426   7.042 -0.8923  0.2218  0.1923
10839WAT    EPW44064   2.591   1.362   7.011 -0.4786  0.3791  0.2805
10840WAT      O44065   1.628   3.197   7.428 -0.5793 -1.0055  0.0676
10840WAT     H144066   1.562   3.178   7.482  0.4555 -2.2200  0.9643
10840WAT     H244067   1.699   3.184   7.477  0.3464  1.3105 -0.5443
10840WAT    EPW44068   1.629   3.192   7.443  0.1108 -0.7313 -0.3580
10841WAT      O44069   1.699   1.323   6.279 -0.0302 -0.3343 -0.0650
10841WAT     H144070   1.758   1.270   6.316 -0.3549 -0.0733  0.8528
10841WAT     H244071   1.718   1.318   6.194  0.1095 -1.7213  0.0212
10841WAT    EPW44072   1.710   1.315   6.272  0.1691  0.0360 -0.1142
10842WAT      O44073   2.275   2.608   7.937 -0.3781  0.2356 -0.1205
10842WAT     H144074   2.244   2.602   7.856 -0.2873  0.9777 -0.2192
10842WAT     H244075   2.358   2.583   7.930 -0.8730 -1.6277  0.1176
10842WAT    EPW44076   2.283   2.604   7.924  0.1075 -0.1818 -0.8374
10843WAT      O44077   2.879   1.196   0.367  0.2967 -0.6069 -0.2891
10843WAT     H144078   2.939   1.230   0.312 -1.3029  1.9646 -0.6172
10843WAT     H244079   2.853   1.124   0.326  1.3163 -0.3828 -1.4093
10843WAT    EPW44080   2.884   1.191   0.352  0.5060  0.8912  0.2165
10844WAT      O44081   2.813   0.759   7.874  0.2952 -0.9434 -0.3593
10844WAT     H144082   2.854   0.798   7.808 -1.0828 -1.1300 -1.3626
10844WAT     H244083   2.868   0.695   7.898  1.9110  0.6301  0.3429
10844WAT    EPW44084   2.827   0.755   7.868 -0.4293 -0.0724  1.0313
10845WAT      O44085   1.060   1.875   1.607  0.2440 -0.3100 -0.3658
10845WAT     H144086   1.096   1.866   1.528 -3.2295 -0.9469 -2.0362
10845WAT     H244087   1.014   1.949   1.599 -2.6314 -1.9684 -0.1004
10845WAT    EPW44088   1.059   1.885   1.594  0.3670 -0.5540  0.2651
10846WAT      O44089   1.731   2.045   0.215 -0.2257  0.0595  0.2518
10846WAT     H144090   1.677   2.048   0.283 -1.2275  0.2580 -0.5190
10846WAT     H244091   1.752   2.129   0.203 -0.2712  0.0578  0.1582
10846WAT    EPW44092   1.726   2.058   0.223 -0.5031 -0.3204  0.2946
10847WAT      O44093   3.033   2.368   6.784 -0.3827 -0.0107 -0.3960
10847WAT     H144094   3.071   2.303   6.829  1.5539  0.8235 -0.7252
10847WAT     H244095   3.080   2.438   6.806 -2.3402  1.2952 -0.1484
10847WAT    EPW44096   3.046   2.369   6.794 -0.3498 -0.7289  0.2188
10848WAT      O44097   2.858   1.170   6.739 -0.2016 -0.3052  0.0570
10848WAT     H144098   2.834   1.244   6.699 -0.0477  0.1369  0.7655
10848WAT     H244099   2.785   1.122   6.739 -0.1386 -0.4327 -0.9910
10848WAT    EPW44100   2.844   1.174   6.733 -0.5641 -0.0642  0.2942
10849WAT      O44101   3.471   1.610   7.985  0.0972  0.1578 -0.2751
10849WAT     H144102   3.522   1.681   7.978 -0.5234  0.6389  0.0628
10849WAT     H244103   3.394   1.642   8.009 -0.2156 -0.6276 -0.2121
10849WAT    EPW44104   3.467   1.625   7.987  0.1689 -0.1068 -0.3275
10850WAT      O44105   8.088   1.948   0.501 -0.8015  0.1009  0.2281
10850WAT     H144106   8.100   1.869   0.535 -0.0682  0.2506  0.3289
10850WAT     H244107   8.145   1.951   0.434  1.1303  1.4877  1.8108
10850WAT    EPW44108   8.098   1.937   0.496 -0.0487  0.9463  0.0005
10851WAT      O44109   2.715   2.460   0.368 -0.8177  0.0356 -0.0686
10851WAT     H144110   2.666   2.434   0.301 -1.6836 -0.9919  0.9289
10851WAT     H244111   2.748   2.385   0.399  1.5722  0.6859 -0.7943
10851WAT    EPW44112   2.713   2.445   0.362  0.2440 -0.3890 -1.1410
10852WAT      O44113   2.182   0.520   6.091 -0.2837  0.2242 -0.6510
10852WAT     H144114   2.244   0.519   6.030 -0.0895  1.1900 -0.4763
10852WAT     H244115   2.191   0.597   6.130 -0.6648 -0.2078  0.3448
10852WAT    EPW44116   2.192   0.531   6.088 -0.2133  0.1837  0.6603
10853WAT      O44117   3.014   1.889   0.962 -0.1358  0.4812 -0.4015
10853WAT     H144118   3.096   1.898   0.935 -0.2352 -1.4208 -1.4932
10853WAT     H244119   3.020   1.899   1.048  1.0206  1.6374 -0.5896
10853WAT    EPW44120   3.027   1.892   0.971 -0.3816 -0.8162  0.6038
10854WAT      O44121   2.980   1.894   7.595  0.2170  0.6418  0.0620
10854WAT     H144122   3.053   1.938   7.578  0.5624  0.4562  1.0086
10854WAT     H244123   2.926   1.918   7.530  0.7996  1.5019 -0.1206
10854WAT    EPW44124   2.983   1.904   7.583 -0.0909  0.0742  0.5935
10855WAT      O44125   3.215   3.115   0.879  0.3539  0.3546  0.4767
10855WAT     H144126   3.203   3.036   0.913  0.7251 -0.1583 -0.5650
10855WAT     H244127   3.136   3.152   0.885  0.0489 -0.2926  0.4762
10855WAT    EPW44128   3.202   3.109   0.885  0.1203  0.2075 -0.7913
10856WAT      O44129   1.105   3.071   7.002 -0.1817 -0.3094 -0.1691
10856WAT     H144130   1.024   3.073   7.033 -0.1060  0.9805  0.0163
10856WAT     H244131   1.096   3.104   6.921  0.3293  1.2209  0.3620
10856WAT    EPW44132   1.092   3.076   6.995 -0.0131 -0.3578 -0.5765
10857WAT      O44133   1.918   2.329   7.803  0.2908  0.0527 -0.0748
10857WAT     H144134   1.985   2.315   7.749  0.3047 -0.6077  0.1079
10857WAT     H244135   1.938   2.282   7.873 -0.2415  0.0563  0.0832
10857WAT    EPW44136   1.931   2.320   7.805  0.2261 -0.9232 -0.4665
10858WAT      O44137   2.658   1.448   1.387  0.5068  0.2766 -0.0937
10858WAT     H144138   2.678   1.527   1.419 -0.1508  0.3814  0.0784
10858WAT     H244139   2.667   1.395   1.455 -1.8723  0.6456  0.5968
10858WAT    EPW44140   2.662   1.452   1.402 -0.2908  0.6586 -0.1992
10859WAT      O44141   1.587   3.778   0.033 -0.0806 -0.1231  0.0805
10859WAT     H144142   1.657   3.816   0.068  0.3622 -0.1590 -0.7317
10859WAT     H244143   1.592   3.696   0.062  0.4564 -0.2324 -0.3092
10859WAT    EPW44144   1.598   3.771   0.042 -0.1969 -0.4346 -0.3699
10860WAT      O44145   2.583   1.807   7.265 -0.9145 -0.4244 -0.1660
10860WAT     H144146   2.552   1.880   7.229  0.4933  0.9389  1.2186
10860WAT     H244147   2.521   1.786   7.323 -1.2749 -0.2653 -0.4860
10860WAT    EPW44148   2.569   1.815   7.268  0.4002 -0.0655 -0.1308
10861WAT      O44149   1.316   3.642   2.277 -0.3825 -0.7221  0.1097
10861WAT     H144150   1.323   3.727   2.295  1.5673 -0.6258 -0.8229
10861WAT     H244151   1.298   3.641   2.192 -0.4824 -1.2379  0.1350
10861WAT    EPW44152   1.314   3.655   2.267  0.6418  0.2558  0.0663
10862WAT      O44153   3.435   1.212   7.047 -0.0354  0.2507  1.0932
10862WAT     H144154   3.498   1.152   7.051 -0.9537 -0.8921 -0.3875
10862WAT     H244155   3.478   1.287   7.039  1.2081 -0.6009 -1.2013
10862WAT    EPW44156   3.451   1.214   7.047  0.0914  0.1436  0.3366
10863WAT      O44157   3.167   1.569   7.030 -0.5279 -0.3110 -0.1107
10863WAT     H144158   3.107   1.601   6.976 -0.1591 -0.7329 -0.7888
10863WAT     H244159   3.155   1.483   7.025 -1.3040 -0.3229  1.4459
10863WAT    EPW44160   3.156   1.561   7.021 -0.0881  0.3937  0.1529
10864WAT      O44161   2.118   1.527   0.640  0.6516 -0.2795 -0.2117
10864WAT     H144162   2.126   1.614   0.637 -0.1606 -0.0191  2.3438
10864WAT     H244163   2.197   1.499   0.664  0.6857 -0.1516 -0.1772
10864WAT    EPW44164   2.131   1.536   0.643  0.1106  1.5201 -0.3188
10865WAT      O44165   3.123   2.857   0.439  0.0345  0.1718  1.0298
10865WAT     H144166   3.150   2.927   0.484  0.9935  0.9052 -0.5839
10865WAT     H244167   3.066   2.891   0.383  0.6322 -0.3048  0.1148
10865WAT    EPW44168   3.118   2.873   0.437 -0.0292  0.0318 -0.9204
10866WAT      O44169   2.613   4.020   0.820  0.2115 -0.2873  0.0057
10866WAT     H144170   2.548   3.968   0.848 -0.3267  0.1904 -0.3490
10866WAT     H244171   2.588   4.099   0.847  1.0246 -0.2069  0.5341
10866WAT    EPW44172   2.599   4.024   0.828 -0.0067 -0.3235 -0.5594
10867WAT      O44173   2.102   2.474   0.057 -0.2062  0.4334 -0.2749
10867WAT     H144174   2.159   2.500  -0.004  0.6399  0.3690  0.4766
10867WAT     H244175   2.127   2.393   0.077 -0.3003  0.5497  0.3523
10867WAT    EPW44176   2.114   2.466   0.051  0.7369 -0.3069  0.1356
10868WAT      O44177   2.876   2.604   7.634 -0.9475  0.0211  0.5074
10868WAT     H144178   2.876   2.606   7.721 -0.8802  1.7481  0.5040
10868WAT     H244179   2.897   2.686   7.612 -0.0977 -0.5982 -1.1352
10868WAT    EPW44180   2.879   2.616   7.643 -0.0252  0.2821  0.7659
10869WAT      O44181   2.292   1.132   6.527 -0.1886  0.3894  0.7685
10869WAT     H144182   2.319   1.212   6.503 -2.0258  0.8877  0.1981
10869WAT     H244183   2.222   1.118   6.477 -0.1570 -1.4133  1.1708
10869WAT    EPW44184   2.286   1.142   6.516 -0.9983  0.2604 -0.7156
10870WAT      O44185   3.162   1.856   7.249 -0.5909 -0.0608 -0.0504
10870WAT     H144186   3.166   1.869   7.335  2.7029 -3.2503  0.5006
10870WAT     H244187   3.117   1.782   7.241  0.5316 -0.6783 -0.8902
10870WAT    EPW44188   3.156   1.847   7.260  1.2173  0.1476 -0.6894
10871WAT      O44189   1.494   2.070   1.789  0.0539  0.1602  0.4120
10871WAT     H144190   1.580   2.064   1.779  0.2430 -1.2834  2.2900
10871WAT     H244191   1.468   1.987   1.795 -1.2526  0.5990  1.3096
10871WAT    EPW44192   1.503   2.057   1.788 -0.0784 -1.0255 -0.4636
10872WAT      O44193   2.431   2.054   7.228 -0.4397  0.0960  0.4254
10872WAT     H144194   2.476   2.124   7.201  1.0069 -1.1695 -0.6341
10872WAT     H244195   2.363   2.051   7.175 -0.9898  1.1608  1.0352
10872WAT    EPW44196   2.428   2.064   7.216 -0.3794 -0.9203 -0.5748
10873WAT      O44197   0.747   2.852   0.656  0.3329 -0.3701 -0.7102
10873WAT     H144198   0.772   2.895   0.584  1.4353  0.0149 -0.1228
10873WAT     H244199   0.676   2.895   0.682  0.9114  0.5751 -0.6271
10873WAT    EPW44200   0.741   2.865   0.649  0.4024 -0.4150  1.2400
10874WAT      O44201   1.882   2.625   0.022  0.5498 -0.1399  0.1745
10874WAT     H144202   1.859   2.627  -0.062 -0.0360  1.1066  0.3365
10874WAT     H244203   1.957   2.580   0.022  0.0908 -0.9603 -0.8800
10874WAT    EPW44204   1.890   2.619   0.010  0.2397 -0.0294 -1.0151
10875WAT      O44205   2.517   2.190   6.657 -0.2219 -0.2241 -0.5624
10875WAT     H144206   2.534   2.187   6.571 -0.2922  3.6555 -0.8472
10875WAT     H244207   2.596   2.199   6.693 -0.3560  0.5569 -0.4499
10875WAT    EPW44208   2.531   2.191   6.649 -0.7809  0.2008 -0.0015
10876WAT      O44209   1.567   2.011   0.454  0.2725 -0.1978 -0.2609
10876WAT     H144210   1.503   1.985   0.508  0.1241 -0.6021 -0.6302
10876WAT     H244211   1.590   2.089   0.487 -0.2885 -0.1259 -0.0167
10876WAT    EPW44212   1.561   2.019   0.467 -0.8318  0.2455  0.7174
10877WAT      O44213   0.354   1.948   1.329 -0.2057 -0.0369 -0.2163
10877WAT     H144214   0.300   1.890   1.293 -0.3348 -0.1503  0.1560
10877WAT     H244215   0.302   2.017   1.345 -0.1515  0.0110 -0.2475
10877WAT    EPW44216   0.338   1.950   1.326 -0.0439 -0.3084  0.0917
10878WAT      O44217   3.506   1.134   0.028 -0.6028  0.2486  0.9913
10878WAT     H144218   3.456   1.108   0.095 -1.7161  0.6318  0.3317
10878WAT     H244219   3.532   1.214   0.051 -0.8577  0.3190  1.0359
10878WAT    EPW44220   3.503   1.142   0.041  0.0270  0.1438 -0.4744
10879WAT      O44221   2.895   0.463   6.515  0.0663  0.0572  0.4999
10879WAT     H144222   2.959   0.510   6.552 -0.5296  1.3089  0.0256
10879WAT     H244223   2.902   0.482   6.430 -2.6212  2.6218  0.6367
10879WAT    EPW44224   2.905   0.473   6.508 -0.2518 -0.1511  0.2709
10880WAT      O44225   4.123   1.244   4.710 -0.3694  0.4255  0.1799
10880WAT     H144226   4.066   1.183   4.737 -0.9724  1.0055  0.2379
10880WAT     H244227   4.093   1.317   4.747  0.3473  0.7623  0.1077
10880WAT    EPW44228   4.110   1.246   4.720  0.1505 -0.6238  0.7187
10881WAT      O44229   2.228   2.014   5.078  0.6406 -0.0399 -0.3644
10881WAT     H144230   2.311   2.034   5.098  0.4609 -0.1422  0.5538
10881WAT     H244231   2.182   2.057   5.139  0.0844 -0.8778 -0.1839
10881WAT    EPW44232   2.234   2.023   5.090 -0.1750 -0.0902 -0.2911
10882WAT      O44233   3.814   2.564   5.078 -0.1907  0.0026 -0.3140
10882WAT     H144234   3.876   2.622   5.100 -0.9610  0.9732 -0.5910
10882WAT     H244235   3.746   2.615   5.059 -0.7135 -0.9886 -1.1623
10882WAT    EPW44236   3.813   2.580   5.079  0.0844  0.2256 -0.9879
10883WAT      O44237   2.460   1.370   5.922 -0.1632  0.7390  0.1110
10883WAT     H144238   2.375   1.370   5.940 -0.4573  3.4706 -0.6727
10883WAT     H244239   2.464   1.414   5.846  2.0230  2.2294  0.9925
10883WAT    EPW44240   2.448   1.377   5.913  0.0193  0.5650  0.2440
10884WAT      O44241   3.449   1.484   5.076  0.0823 -0.2170 -0.5768
10884WAT     H144242   3.363   1.468   5.075  0.1564 -0.9646 -3.6234
10884WAT     H244243   3.484   1.407   5.055  1.5409  0.0998  0.5247
10884WAT    EPW44244   3.441   1.470   5.073  0.8492  0.1581  0.4461
10885WAT      O44245   3.572   2.218   7.019 -0.0243 -0.2079  0.7125
10885WAT     H144246   3.517   2.182   7.077 -0.8020 -0.2297 -0.0280
10885WAT     H244247   3.599   2.150   6.972 -0.4614 -0.0044  0.1673
10885WAT    EPW44248   3.568   2.202   7.021  0.2335 -0.1756 -0.0340
10886WAT      O44249   1.313   3.316   5.268  0.4019  0.3765 -0.2401
10886WAT     H144250   1.365   3.249   5.248 -1.0610 -0.7175 -0.6296
10886WAT     H244251   1.298   3.354   5.190  0.2535  0.3911 -0.2056
10886WAT    EPW44252   1.318   3.312   5.253 -0.3903 -0.5566 -0.3239
10887WAT      O44253   2.577   0.840   5.262 -0.0647 -0.5746 -0.0763
10887WAT     H144254   2.590   0.755   5.279  1.1626 -0.3410  0.2437
10887WAT     H244255   2.570   0.876   5.341  0.9748 -0.1694 -0.1516
10887WAT    EPW44256   2.578   0.833   5.276  0.5285 -0.2723 -0.7279
10888WAT      O44257   2.556   1.196   6.190  0.2864 -0.0071  0.4497
10888WAT     H144258   2.571   1.160   6.268  0.5349 -1.7176 -0.3538
10888WAT     H244259   2.477   1.166   6.168  1.2938 -1.7151 -1.0790
10888WAT    EPW44260   2.547   1.186   6.199 -0.0150  0.3958 -0.6893
10889WAT      O44261   2.230   2.709   6.425  0.3778  0.0634  0.0679
10889WAT     H144262   2.157   2.755   6.411  0.4209 -0.0162 -0.4619
10889WAT     H244263   2.261   2.697   6.344  1.3151  0.6426  0.3293
10889WAT    EPW44264   2.224   2.714   6.411 -0.7321 -0.7942 -0.6636
10890WAT      O44265   2.379   2.275   7.698  0.3477  0.5191  0.1292
10890WAT     H144266   2.440   2.316   7.650  1.0004  0.0430  0.5395
10890WAT     H244267   2.306   2.287   7.652  1.0872 -0.6603 -1.4547
10890WAT    EPW44268   2.377   2.283   7.684  0.8625 -0.2043 -0.2940
10891WAT      O44269   2.583   2.541   5.888  0.1694  0.3231  0.0326
10891WAT     H144270   2.530   2.503   5.945  0.6074 -0.0235  0.2056
10891WAT     H244271   2.577   2.626   5.908 -2.5277  0.6935 -1.7467
10891WAT    EPW44272   2.574   2.548   5.899 -0.5625  0.1582 -0.7008
10892WAT      O44273   3.142   1.431   5.135  0.1338 -0.5792  0.1407
10892WAT     H144274   3.096   1.365   5.171  1.0251 -0.9087  0.7304
10892WAT     H244275   3.138   1.493   5.196  1.5870 -1.1115  0.8373
10892WAT    EPW44276   3.135   1.430   5.149  0.4724  0.3406 -0.1847
10893WAT      O44277   1.810   3.142   6.974  0.0120  0.2825  0.0107
10893WAT     H144278   1.770   3.107   6.904  0.0337  1.0323 -0.3899
10893WAT     H244279   1.748   3.141   7.035  0.6096 -2.4527  0.7302
10893WAT    EPW44280   1.795   3.137   6.972  0.4516  0.1927  0.0513
10894WAT      O44281   2.716   1.587   7.134 -0.2683 -0.2924  0.6658
10894WAT     H144282   2.758   1.540   7.195 -0.3642 -0.3195  0.7116
10894WAT     H244283   2.682   1.654   7.180  1.4242  0.8704  0.3278
10894WAT    EPW44284   2.717   1.590   7.150  0.2056 -0.5795  0.0017
10895WAT      O44285   3.106   2.251   6.329 -0.3033  0.2127  0.2424
10895WAT     H144286   3.046   2.192   6.352 -0.3057  0.4116  0.7610
10895WAT     H244287   3.180   2.205   6.323 -0.2037  0.2377  1.1524
10895WAT    EPW44288   3.108   2.236   6.331  0.6852 -0.8397 -0.3992
10896WAT      O44289   3.954   2.771   6.396 -0.2353 -0.0160  0.3879
10896WAT     H144290   3.907   2.699   6.411 -0.0651 -0.3831 -0.7427
10896WAT     H244291   4.028   2.741   6.361  0.2812  0.6465  0.8767
10896WAT    EPW44292   3.958   2.756   6.393 -0.0600  0.7407 -0.1738
10897WAT      O44293   2.464   2.440   6.758  0.0780 -0.2675 -0.5985
10897WAT     H144294   2.444   2.362   6.724 -0.0891 -0.7886  0.6325
10897WAT     H244295   2.547   2.453   6.734 -0.3408 -0.1121 -2.0711
10897WAT    EPW44296   2.473   2.431   6.749 -0.2469 -0.3038 -0.5730
10898WAT      O44297   2.081   0.481   4.417 -0.6689  0.4258  0.2339
10898WAT     H144298   2.018   0.537   4.392  0.8375  1.8874 -0.4689
10898WAT     H244299   2.135   0.480   4.348  0.3076 -0.4705  0.9915
10898WAT    EPW44300   2.080   0.489   4.403 -0.5043  0.2424 -0.0638
10899WAT      O44301   4.184   0.294   6.696 -0.1278 -0.0563  0.4897
10899WAT     H144302   4.237   0.293   6.627  0.4288  1.9418  0.8258
10899WAT     H244303   4.144   0.217   6.692  0.3186 -0.2450 -1.7105
10899WAT    EPW44304   4.186   0.282   6.685  0.6758  0.1530 -0.0793
10900WAT      O44305   2.660   1.108   4.692 -0.2071 -0.0525  0.2436
10900WAT     H144306   2.644   1.161   4.759 -1.4511 -1.8060  1.4302
10900WAT     H244307   2.686   1.033   4.729  1.0964 -0.4634 -1.3357
10900WAT    EPW44308   2.661   1.104   4.707  0.2559 -0.3307  0.5643
10901WAT      O44309   3.343   7.246   5.550  0.0120  0.4954  0.3666
10901WAT     H144310   3.358   7.278   5.630  2.2340 -0.5801  0.4623
10901WAT     H244311   3.368   7.162   5.556 -2.9651 -0.5872 -0.6021
10901WAT    EPW44312   3.349   7.238   5.562 -0.4046 -0.3001 -0.2762
10902WAT      O44313   1.756   1.709   7.135 -0.1449 -0.1980  0.3327
10902WAT     H144314   1.826   1.676   7.094  0.6852  1.9448 -0.1016
10902WAT     H244315   1.774   1.695   7.220  1.3509  1.2053  0.2923
10902WAT    EPW44316   1.769   1.702   7.142  0.2254 -0.3276  0.2631
10903WAT      O44317   3.614   3.369   6.171  0.0959  0.6408  0.3521
10903WAT     H144318   3.563   3.305   6.202  0.7024  0.3552  0.7609
10903WAT     H244319   3.625   3.347   6.087  0.4982  0.0837  0.5502
10903WAT    EPW44320   3.608   3.356   6.163  0.1028  0.2107  0.3174
10904WAT      O44321   3.255   2.261   4.670 -0.1333  0.2505  0.6352
10904WAT     H144322   3.238   2.345   4.651  1.5011  0.6561  0.8826
10904WAT     H244323   3.330   2.245   4.630  1.1943 -0.1525  3.0695
10904WAT    EPW44324   3.263   2.271   4.661 -0.4378  0.2298  0.3903
10905WAT      O44325   3.362   2.814   5.298  0.2669 -0.0193  0.2590
10905WAT     H144326   3.447   2.793   5.298  0.0007 -1.2968  1.2977
10905WAT     H244327   3.351   2.854   5.375  0.1506  1.3103 -0.4187
10905WAT    EPW44328   3.373   2.817   5.310 -0.6487 -0.4251  0.1354
10906WAT      O44329   2.977   3.149   3.769  0.7201  0.3727  0.7010
10906WAT     H144330   2.957   3.138   3.685 -1.3070  1.0681  1.0276
10906WAT     H244331   2.991   3.235   3.775  1.2260  0.2711  1.0166
10906WAT    EPW44332   2.976   3.160   3.757 -0.1943 -0.1360 -0.1833
10907WAT      O44333   3.342   0.216   5.622  0.0371 -0.5107  0.4240
10907WAT     H144334   3.259   0.189   5.631 -0.3453  0.4699 -0.0635
10907WAT     H244335   3.339   0.266   5.551  1.0992 -0.6261  0.2930
10907WAT    EPW44336   3.329   0.219   5.613 -0.2378  0.6313 -0.5461
10908WAT      O44337   2.974   0.496   7.217 -0.3909 -0.0856  0.0036
10908WAT     H144338   2.940   0.452   7.150  0.8603 -0.4406 -0.4311
10908WAT     H244339   2.912   0.554   7.237 -0.5287  0.5401 -1.9613
10908WAT    EPW44340   2.960   0.498   7.210 -0.4776  0.1073 -0.6104
10909WAT      O44341   1.706   1.982   7.035  1.1663 -0.1410 -0.0861
10909WAT     H144342   1.708   1.899   7.061 -3.0214 -0.6047 -0.5795
10909WAT     H244343   1.666   2.023   7.101 -0.4193  0.6414 -1.4677
10909WAT    EPW44344   1.700   1.976   7.049 -0.0373 -0.0170 -0.3530
10910WAT      O44345   4.616   1.429   5.032  0.0203  0.3001 -0.6115
10910WAT     H144346   4.647   1.453   5.110  0.1663 -1.0256 -0.2363
10910WAT     H244347   4.669   1.365   5.008 -2.4753 -2.2838  0.1772
10910WAT    EPW44348   4.628   1.423   5.040  0.0883  0.2252 -0.8823
10911WAT      O44349   2.587   3.068   5.993 -0.0870 -0.2338 -0.4830
10911WAT     H144350   2.617   2.994   6.027  1.3115 -0.0638 -1.2629
10911WAT     H244351   2.500   3.061   6.000  0.0485 -1.7264 -0.1280
10911WAT    EPW44352   2.578   3.056   5.999  0.1583  0.3990 -0.4186
10912WAT      O44353   2.095   1.080   5.911  0.5287  0.4975  0.5504
10912WAT     H144354   2.069   1.013   5.960 -0.1656 -0.7532 -1.4286
10912WAT     H244355   2.086   1.051   5.830  1.5272  2.5289 -0.3583
10912WAT    EPW44356   2.090   1.066   5.906 -0.5692  0.1910 -0.7185
10913WAT      O44357   1.757   2.300   0.085 -0.2987  0.0429  0.5738
10913WAT     H144358   1.767   2.379   0.121 -0.3128 -0.0515  0.7864
10913WAT     H244359   1.677   2.303   0.051 -0.5218 -0.0707  1.0740
10913WAT    EPW44360   1.747   2.312   0.086 -0.2515  0.5734 -0.9838
10914WAT      O44361   2.669   3.327   5.397  0.0388  0.2928  0.5650
10914WAT     H144362   2.657   3.257   5.447 -0.7045 -0.2471 -0.3484
10914WAT     H244363   2.736   3.369   5.436 -0.0332 -0.4959  1.5621
10914WAT    EPW44364   2.677   3.323   5.410 -0.0657 -0.4104 -0.1159
10915WAT      O44365   4.471   1.528   7.477 -0.4427  0.3955  0.3153
10915WAT     H144366   4.525   1.588   7.508  1.4068 -0.5152 -0.9483
10915WAT     H244367   4.424   1.504   7.546 -0.0364  2.0412  1.1960
10915WAT    EPW44368   4.472   1.533   7.492 -1.0981  0.7184 -0.6434
10916WAT      O44369   2.212   1.818   6.113  0.0482  0.2827  0.3426
10916WAT     H144370   2.189   1.900   6.093 -1.1245 -0.1495 -0.1681
10916WAT     H244371   2.143   1.771   6.089  1.0032 -0.9584 -0.0992
10916WAT    EPW44372   2.199   1.823   6.106 -0.2582 -0.2331  0.6554
10917WAT      O44373   4.139   3.346   6.253  0.0374 -0.6758  0.2329
10917WAT     H144374   4.056   3.346   6.227  0.2364 -0.3367 -0.4413
10917WAT     H244375   4.136   3.316   6.335 -0.5650 -2.3574 -0.3545
10917WAT    EPW44376   4.126   3.341   6.261  0.7287 -0.2017 -0.5620
10918WAT      O44377   2.172   3.530   3.663  0.3571 -0.3645 -0.2017
10918WAT     H144378   2.135   3.589   3.716 -1.8228 -2.0735  0.3330
10918WAT     H244379   2.128   3.539   3.588  0.5785 -0.7551 -0.3832
10918WAT    EPW44380   2.160   3.540   3.660  0.2593 -0.3599  0.3268
10919WAT      O44381   1.259   3.197   7.242 -0.2935  0.1715 -0.0751
10919WAT     H144382   1.174   3.210   7.231 -0.3556 -0.0141  0.1854
10919WAT     H244383   1.274   3.123   7.199 -0.3154  0.0569  0.1169
10919WAT    EPW44384   1.249   3.188   7.234  0.0273 -0.3973  0.1452
10920WAT      O44385   2.750   7.725   5.254 -0.3030  0.3988  0.1522
10920WAT     H144386   2.766   7.762   5.176  0.0788 -1.7465 -0.8752
10920WAT     H244387   2.675   7.762   5.279  0.1494  1.9705 -0.6781
10920WAT    EPW44388   2.741   7.736   5.246  0.6228  0.3511 -0.9000
10921WAT      O44389   3.434   1.325   5.485  0.4391  0.3159  0.3255
10921WAT     H144390   3.449   1.326   5.571  0.0051  3.4147  0.4909
10921WAT     H244391   3.356   1.362   5.478  0.0379 -0.7838 -1.3903
10921WAT    EPW44392   3.425   1.331   5.497  0.4766 -0.4746 -0.4092
10922WAT      O44393   2.282   2.160   0.587 -0.4030 -0.3146  0.2752
10922WAT     H144394   2.361   2.125   0.600  0.0621  0.3387 -0.7107
10922WAT     H244395   2.266   2.203   0.661 -0.0689 -0.8790  0.6826
10922WAT    EPW44396   2.291   2.161   0.600 -0.6821 -0.2371  0.5788
10923WAT      O44397   3.842   1.651   5.079  0.3386 -0.3848 -0.4103
10923WAT     H144398   3.925   1.673   5.063  0.7079 -0.3347  1.3532
10923WAT     H244399   3.849   1.577   5.125 -0.5195  0.3089  0.8935
10923WAT    EPW44400   3.855   1.643   5.084 -0.2013  0.0145  0.7746
10924WAT      O44401   2.827   1.648   3.030 -0.1231  0.0855  0.5007
10924WAT     H144402   2.794   1.687   2.959  0.9412 -0.0604 -0.0918
10924WAT     H244403   2.899   1.693   3.047  0.3634 -0.7248  0.6621
10924WAT    EPW44404   2.833   1.660   3.022 -0.9103  1.0079  0.0724
10925WAT      O44405   2.714   7.987   3.850  0.0608 -0.0074  0.2636
10925WAT     H144406   2.757   7.925   3.895  0.9040  1.5430  1.7031
10925WAT     H244407   2.663   8.024   3.910 -4.1680 -2.2322 -1.4726
10925WAT    EPW44408   2.713   7.983   3.866  0.1542  0.3848  0.2798
10926WAT      O44409   1.580   2.575   7.485  0.1729  0.2070 -0.0481
10926WAT     H144410   1.597   2.533   7.559  1.1939 -0.2654 -0.5297
10926WAT     H244411   1.603   2.657   7.502  3.8183 -0.4860 -0.8515
10926WAT    EPW44412   1.586   2.581   7.498 -0.4468 -0.1563 -0.6503
10927WAT      O44413   2.921   0.729   5.243  0.6007  0.2885  0.0225
10927WAT     H144414   2.853   0.761   5.200  0.4868  0.8232  0.5794
10927WAT     H244415   2.983   0.722   5.182 -0.0491 -0.5647 -0.5705
10927WAT    EPW44416   2.920   0.733   5.228 -0.3326  0.8625 -0.8316
10928WAT      O44417   1.669   2.742   7.025 -0.3103 -0.9334  0.8839
10928WAT     H144418   1.623   2.779   7.090 -0.8445  1.0205 -0.5095
10928WAT     H244419   1.739   2.711   7.066 -0.6428  0.1944  2.4234
10928WAT    EPW44420   1.672   2.743   7.041  0.9160  0.5441 -0.8234
10929WAT      O44421   3.361   2.163   4.926  0.4008  0.2576 -0.6291
10929WAT     H144422   3.318   2.192   4.857 -0.3719 -1.4561 -0.9179
10929WAT     H244423   3.435   2.210   4.926 -0.3250  1.4273 -1.6263
10929WAT    EPW44424   3.366   2.174   4.916  0.0027 -0.7421 -0.0633
10930WAT      O44425   2.950   3.626   5.280  0.3408  0.1994  0.0359
10930WAT     H144426   2.934   3.567   5.342 -0.3730  0.3640  0.0172
10930WAT     H244427   3.027   3.660   5.304 -0.6233  1.3484  1.7395
10930WAT    EPW44428   2.959   3.623   5.293  0.1811  0.3567  0.8437
10931WAT      O44429   2.760   1.354   5.517 -0.5747 -0.6578  0.3275
10931WAT     H144430   2.785   1.314   5.590 -0.5475 -2.3413 -0.5558
10931WAT     H244431   2.673   1.361   5.526 -0.4312  0.3280  1.0656
10931WAT    EPW44432   2.750   1.349   5.529  0.8963 -0.4344  0.2366
10932WAT      O44433   2.995   0.936   4.747 -0.0025  0.1693  0.0981
10932WAT     H144434   3.045   0.865   4.752  0.0904  0.2038 -0.3664
10932WAT     H244435   2.916   0.907   4.773  0.4710  0.3658  1.9326
10932WAT    EPW44436   2.991   0.921   4.752 -0.7647 -0.9347  0.5603
10933WAT      O44437   1.038   3.426   0.415  0.1652  0.0728  0.5880
10933WAT     H144438   0.989   3.373   0.463  0.4615 -1.0500 -0.3135
10933WAT     H244439   1.003   3.420   0.335 -0.7035  2.3616  0.6979
10933WAT    EPW44440   1.025   3.417   0.410 -0.5624 -0.6617 -0.0513
10934WAT      O44441   3.064   0.328   5.738  0.4662 -0.7149  0.3923
10934WAT     H144442   3.057   0.341   5.652 -0.9840  3.1864  0.9141
10934WAT     H244443   3.130   0.379   5.762  0.5388 -1.3685  1.7093
10934WAT    EPW44444   3.073   0.337   5.729 -0.1968  0.0842 -0.6435
10935WAT      O44445   3.038   2.356   5.964 -0.1278 -0.3340 -0.0715
10935WAT     H144446   3.122   2.367   5.986 -0.4871  0.2220  1.1416
10935WAT     H244447   3.041   2.304   5.894  1.2377 -0.0769 -0.2299
10935WAT    EPW44448   3.051   2.350   5.957 -0.0003 -0.1121  0.1354
10936WAT      O44449   4.156   2.001   6.966 -0.0413  0.6945 -0.4822
10936WAT     H144450   4.229   2.030   7.003  0.0300 -0.7434  0.5406
10936WAT     H244451   4.101   1.990   7.033 -0.3104 -0.7765 -0.9205
10936WAT    EPW44452   4.158   2.004   6.981 -1.9122 -0.0627  0.9203
10937WAT      O44453   2.043   2.401   6.667 -0.7523 -0.6442  0.6956
10937WAT     H144454   2.043   2.327   6.712 -1.9900 -1.0775  0.0382
10937WAT     H244455   2.084   2.458   6.719 -0.2648 -1.6519  1.4296
10937WAT    EPW44456   2.049   2.399   6.681 -0.4960 -0.2464 -0.6768
10938WAT      O44457   2.024   1.896   6.784 -1.0923  0.3678  0.0188
10938WAT     H144458   2.090   1.876   6.837 -1.8941 -1.0251  0.5592
10938WAT     H244459   2.023   1.983   6.783  0.7916  0.4289 -0.0928
10938WAT    EPW44460   2.034   1.906   6.792  0.7326 -0.1254 -0.4180
10939WAT      O44461   3.281   7.400   5.313 -0.2971 -0.1962 -0.4404
10939WAT     H144462   3.313   7.371   5.389  1.1073  2.8994  0.3048
10939WAT     H244463   3.210   7.446   5.336  0.3718  1.1179 -0.8638
10939WAT    EPW44464   3.275   7.403   5.328  0.1431  0.5677 -0.0754
10940WAT      O44465   1.173   1.938   0.722  0.5016  0.0537 -0.3158
10940WAT     H144466   1.145   1.956   0.802 -0.7281 -0.3150 -0.6401
10940WAT     H244467   1.141   1.858   0.707  0.9270  0.0176 -1.0819
10940WAT    EPW44468   1.164   1.929   0.732  0.3321  0.2265 -0.7323
10941WAT      O44469   3.389   2.159   6.295  0.4013 -0.1401  0.9685
10941WAT     H144470   3.415   2.145   6.213 -2.5884  0.2843 -0.1622
10941WAT     H244471   3.405   2.083   6.335 -1.4873 -1.6906 -1.0284
10941WAT    EPW44472   3.395   2.146   6.289 -0.2037 -0.8404  0.3154
10942WAT      O44473   2.060   0.369   5.748 -0.7311 -0.0932  0.1531
10942WAT     H144474   2.125   0.314   5.727  0.3167  0.6870  1.1963
10942WAT     H244475   2.021   0.328   5.815 -2.8283 -1.6436 -1.8623
10942WAT    EPW44476   2.064   0.355   5.755  0.0778  0.6768 -0.2733
10943WAT      O44477   4.059   1.201   5.496  0.6839  0.2666  0.0787
10943WAT     H144478   4.060   1.257   5.429  0.7217  0.5495  0.3134
10943WAT     H244479   4.066   1.123   5.458  1.9145  0.4852 -0.1642
10943WAT    EPW44480   4.060   1.198   5.480  0.2957  0.0514  0.1868
10944WAT      O44481   3.639   2.209   5.793 -0.2644  0.5131  0.4727
10944WAT     H144482   3.574   2.189   5.739  0.0397  1.1590 -0.1466
10944WAT     H244483   3.699   2.147   5.777 -0.7480 -0.1461  1.1225
10944WAT    EPW44484   3.638   2.197   5.783  0.3755 -0.6463  0.9665
10945WAT      O44485   2.524   3.773   5.408  0.2002 -0.1781  0.0288
10945WAT     H144486   2.501   3.692   5.430 -1.5874  0.9056  2.5623
10945WAT     H244487   2.471   3.792   5.341 -3.1693  0.5448  2.6652
10945WAT    EPW44488   2.513   3.764   5.401 -0.6270 -0.0448 -0.0880
10946WAT      O44489   1.839   0.072   5.652  0.1967  0.4272  0.7420
10946WAT     H144490   1.792   0.074   5.579  0.0958 -0.2283  0.7823
10946WAT     H244491   1.848   0.156   5.674 -1.4305  0.5447  1.0356
10946WAT    EPW44492   1.834   0.085   5.645  0.0915 -0.9235 -0.7447
10947WAT      O44493   3.668   2.585   0.423 -1.0551  0.1680  0.3759
10947WAT     H144494   3.702   2.550   0.351 -0.7217 -2.6368  1.7692
10947WAT     H244495   3.625   2.655   0.393 -0.8613 -0.8094 -2.5210
10947WAT    EPW44496   3.666   2.590   0.408  1.2029  0.3276 -0.6724
10948WAT      O44497   2.861   2.986   5.249  0.0225 -0.3209  0.3884
10948WAT     H144498   2.819   2.981   5.325 -0.4993  1.5405  0.2512
10948WAT     H244499   2.944   2.971   5.272 -0.1853 -0.2435  1.2508
10948WAT    EPW44500   2.867   2.983   5.264  0.0698 -0.3840  0.2280
10949WAT      O44501   3.482   1.829   5.593 -0.0868  0.2615  0.0804
10949WAT     H144502   3.511   1.778   5.658 -0.6095 -0.6167 -0.3578
10949WAT     H244503   3.544   1.823   5.532  0.2934  0.9041  0.3860
10949WAT    EPW44504   3.495   1.821   5.593 -0.0019 -1.0071 -0.3068
10950WAT      O44505   4.734   1.011   3.781  0.2208  0.2065 -0.1073
10950WAT     H144506   4.778   1.045   3.714 -2.5910  1.3574 -1.5547
10950WAT     H244507   4.709   0.932   3.752 -1.8532  1.1025 -0.9293
10950WAT    EPW44508   4.737   1.004   3.767 -0.1853 -0.5380  0.0311
10951WAT      O44509   2.497   2.089   5.786 -0.0522 -0.6863 -0.1008
10951WAT     H144510   2.571   2.071   5.743 -0.4888 -0.6652 -0.8731
10951WAT     H244511   2.479   2.015   5.828 -0.4370 -1.2144 -1.1788
10951WAT    EPW44512   2.505   2.076   5.786  0.2171  0.9813 -0.0003
10952WAT      O44513   2.320   1.056   6.975 -0.3636 -0.2366 -0.0583
10952WAT     H144514   2.270   1.036   7.044 -0.0543  2.4630  1.0675
10952WAT     H244515   2.263   1.089   6.918 -0.2755  0.0248  0.0034
10952WAT    EPW44516   2.304   1.058   6.977 -0.1422  0.3247 -0.2782
10953WAT      O44517   2.506   2.485   6.421  0.2948 -0.3256 -0.4435
10953WAT     H144518   2.551   2.548   6.381 -0.6883  0.8595  0.2328
10953WAT     H244519   2.566   2.442   6.466  0.8593  0.7716 -0.1170
10953WAT    EPW44520   2.522   2.488   6.421  0.5136  0.1759 -0.5740
10954WAT      O44521   3.161   0.471   4.657 -0.0157  0.0575  0.1316
10954WAT     H144522   3.212   0.427   4.713 -1.8788  0.1299  1.9682
10954WAT     H244523   3.095   0.416   4.642 -0.3461  0.6731 -0.7793
10954WAT    EPW44524   3.159   0.456   4.663  0.1711  0.2940  0.3882
10955WAT      O44525   3.627   1.304   4.468 -0.4835  0.0136  0.4439
10955WAT     H144526   3.702   1.260   4.460 -0.6115 -0.2296  0.5709
10955WAT     H244527   3.625   1.326   4.552 -0.8861 -0.5833  0.5958
10955WAT    EPW44528   3.638   1.301   4.479  0.5013  0.1759 -0.2745
10956WAT      O44529   2.486   4.373   5.347  0.1913  0.1929  0.1377
10956WAT     H144530   2.565   4.362   5.311  0.4913  0.6419  0.6548
10956WAT     H244531   2.481   4.309   5.406  0.1180  0.0930  0.0241
10956WAT    EPW44532   2.497   4.362   5.350  0.3275 -0.3170 -0.6998
10957WAT      O44533   1.958   3.571   5.993  0.2826 -0.0596 -0.3513
10957WAT     H144534   1.893   3.556   5.936 -0.2906  0.9442  0.0123
10957WAT     H244535   1.930   3.533   6.066  0.9342 -1.1851 -0.6652
10957WAT    EPW44536   1.944   3.563   5.995  0.4984 -0.4141  0.1873
10958WAT      O44537   0.745   3.746   7.161  0.2431 -0.1376 -0.0352
10958WAT     H144538   0.821   3.710   7.184  0.6362 -0.3534 -1.5472
10958WAT     H244539   0.760   3.775   7.080 -0.9884  0.7263  0.0193
10958WAT    EPW44540   0.758   3.745   7.153  0.0081  0.4835  0.5242
10959WAT      O44541   3.831   1.869   6.208 -0.1100  0.3558  0.5018
10959WAT     H144542   3.860   1.909   6.281 -1.6637  0.7995  0.9254
10959WAT     H244543   3.867   1.916   6.144 -0.1796  1.1167  0.9992
10959WAT    EPW44544   3.841   1.882   6.210  0.3577  0.0519  0.2255
10960WAT      O44545   2.876   3.140   4.428  0.5095  0.5412  0.3749
10960WAT     H144546   2.905   3.134   4.346  1.0853  0.8531  0.5534
10960WAT     H244547   2.835   3.217   4.429 -0.1805  0.1843  0.1731
10960WAT    EPW44548   2.874   3.151   4.416  0.0919  0.1384 -0.0290
10961WAT      O44549   3.108   1.827   6.197  0.5430  0.0267 -0.7583
10961WAT     H144550   3.031   1.815   6.235  1.0334  0.0209  0.2615
10961WAT     H244551   3.099   1.904   6.156  0.1373  0.2210 -0.3045
10961WAT    EPW44552   3.096   1.837   6.196  0.3029 -0.7690 -0.6954
10962WAT      O44553   3.516   1.210   4.984  0.2350 -0.0246  0.9349
10962WAT     H144554   3.458   1.146   4.973  0.7545 -0.3921  0.2620
10962WAT     H244555   3.518   1.250   4.906 -0.0838  0.8263  1.3444
10962WAT    EPW44556   3.507   1.207   4.971  0.1209 -0.2847  0.2584
10963WAT      O44557   2.655   2.748   6.676  0.0370 -0.3318  0.5650
10963WAT     H144558   2.678   2.666   6.693 -0.2029 -0.3267  0.9329
10963WAT     H244559   2.570   2.743   6.657  0.0726 -0.1972  0.3559
10963WAT    EPW44560   2.645   2.735   6.676  0.3822 -0.2103  0.3035
10964WAT      O44561   2.266   1.479   5.036 -0.3125 -0.3587  0.2649
10964WAT     H144562   2.218   1.438   4.976 -0.7019 -0.1993  0.4602
10964WAT     H244563   2.245   1.563   5.025  0.8984 -0.1415 -0.4984
10964WAT    EPW44564   2.256   1.485   5.026  0.0744 -0.5270 -0.2956
10965WAT      O44565   2.292   1.089   6.133  0.3226  0.1277 -0.1828
10965WAT     H144566   2.294   1.004   6.153  1.1494  0.0576 -0.5172
10965WAT     H244567   2.249   1.091   6.057  1.8407 -0.2005 -1.0765
10965WAT    EPW44568   2.286   1.077   6.125 -0.3112  0.4795  0.1673
10966WAT      O44569   3.378   1.343   6.429 -0.3607  0.1778 -0.1937
10966WAT     H144570   3.447   1.300   6.397 -1.2354 -0.2449 -1.6257
10966WAT     H244571   3.330   1.281   6.465 -0.6787  0.2408 -0.5004
10966WAT    EPW44572   3.381   1.328   6.429 -0.7085 -0.4415 -0.6906
10967WAT      O44573   1.572   1.464   7.098  0.2858 -0.1282 -0.3393
10967WAT     H144574   1.559   1.488   7.015  1.5482  0.4207 -0.4004
10967WAT     H244575   1.619   1.530   7.131  0.6119 -0.7848  0.5404
10967WAT    EPW44576   1.577   1.477   7.091  0.2098  0.4663  0.7287
10968WAT      O44577   3.313   1.395   6.135 -0.5864  0.2059  0.1812
10968WAT     H144578   3.386   1.422   6.095 -1.1153  0.2034 -0.8101
10968WAT     H244579   3.336   1.393   6.219  1.2025 -1.7927 -0.2699
10968WAT    EPW44580   3.327   1.399   6.141 -0.7266  0.1084 -0.5222
10969WAT      O44581   3.046   2.058   5.127  0.3876  0.2802 -0.1834
10969WAT     H144582   3.081   2.119   5.074 -0.8084  0.6364 -0.5934
10969WAT     H244583   3.046   1.986   5.078  0.4082  0.3099 -0.2277
10969WAT    EPW44584   3.051   2.056   5.112 -0.7653 -0.1553  0.1088
10970WAT      O44585   1.807   1.581   6.262 -0.0167  0.2104  0.2448
10970WAT     H144586   1.765   1.648   6.299 -0.5369  0.6822 -1.1343
10970WAT     H244587   1.760   1.512   6.287 -0.2379  0.4879  0.6159
10970WAT    EPW44588   1.794   1.581   6.271  0.6082 -0.6334 -1.1617
10971WAT      O44589   2.134   0.629   5.795 -0.3104  0.7449  0.0985
10971WAT     H144590   2.221   0.626   5.792 -0.2510  0.8761  1.1306
10971WAT     H244591   2.109   0.553   5.762  0.2334  0.3634  0.5412
10971WAT    EPW44592   2.143   0.617   5.790  0.8659  0.5541  0.4379
10972WAT      O44593   4.480   0.683   4.567  0.2108 -0.6494  0.0334
10972WAT     H144594   4.529   0.755   4.568  0.8584 -1.0376 -1.3371
10972WAT     H244595   4.471   0.663   4.652 -0.8829  1.5949  0.5155
10972WAT    EPW44596   4.486   0.691   4.580 -0.0277 -0.6301 -0.4206
10973WAT      O44597   2.101   1.887   6.518 -0.3741 -0.2537 -0.1793
10973WAT     H144598   2.091   1.885   6.605  0.4875  0.1175 -0.0642
10973WAT     H244599   2.177   1.847   6.505 -0.5175 -0.3380 -0.7700
10973WAT    EPW44600   2.111   1.881   6.529  0.0702 -0.6388 -0.1625
10974WAT      O44601   3.101   3.244   0.149  0.0860 -0.0237 -0.6428
10974WAT     H144602   3.165   3.196   0.184  1.8758  1.4823 -1.7063
10974WAT     H244603   3.056   3.272   0.218  1.1976 -0.2530  0.1963
10974WAT    EPW44604   3.104   3.241   0.164 -0.4258 -0.7787 -0.3258
10975WAT      O44605   3.123   2.106   7.463 -0.0488  0.4163  0.4077
10975WAT     H144606   3.203   2.135   7.445 -0.8062  1.2697 -1.9099
10975WAT     H244607   3.084   2.175   7.499  0.2577 -0.0604  1.7268
10975WAT    EPW44608   3.129   2.121   7.465  0.3969 -0.0487  0.5610
10976WAT      O44609   3.693   1.043   6.987 -0.1814 -0.1793 -0.3435
10976WAT     H144610   3.778   1.053   7.007 -0.3772 -0.6182  0.7452
10976WAT     H244611   3.685   0.957   6.977 -0.4769 -0.1222 -0.6120
10976WAT    EPW44612   3.705   1.032   6.988  0.0827  0.0594  0.5397
10977WAT      O44613   3.165   0.723   4.736  0.1024 -0.4377 -0.9500
10977WAT     H144614   3.182   0.641   4.713  0.2238 -0.7901  0.3523
10977WAT     H244615   3.241   0.765   4.723  1.3002 -1.4028  2.1556
10977WAT    EPW44616   3.179   0.717   4.731 -0.6935  0.4702  0.3335
10978WAT      O44617   3.230   0.623   3.516 -0.0460  0.0859 -0.3685
10978WAT     H144618   3.227   0.678   3.583  1.3648 -0.0063 -0.2025
10978WAT     H244619   3.261   0.549   3.551  1.6964  0.3325 -1.2726
10978WAT    EPW44620   3.234   0.620   3.531  0.7525 -0.3644 -0.4798
10979WAT      O44621   3.336   3.285   7.294  0.1736  0.0803  0.1576
10979WAT     H144622   3.364   3.255   7.217  1.0870  1.2543 -0.0040
10979WAT     H244623   3.318   3.368   7.278  1.6927  0.7260  1.4874
10979WAT    EPW44624   3.338   3.293   7.280 -0.2908 -0.7720 -0.7810
10980WAT      O44625   3.875   2.515   7.711 -0.2520  0.7616 -0.1483
10980WAT     H144626   3.858   2.594   7.744 -0.3950  0.1431  1.3409
10980WAT     H244627   3.916   2.533   7.637  0.0229  2.2427  0.3178
10980WAT    EPW44628   3.878   2.530   7.705 -0.4904  0.1081 -0.3328
10981WAT      O44629   1.435   2.794   6.548  0.1680 -0.4466  0.7900
10981WAT     H144630   1.495   2.778   6.610 -0.8572 -1.8603  1.4802
10981WAT     H244631   1.483   2.816   6.479  1.5770 -2.4756  1.0254
10981WAT    EPW44632   1.451   2.795   6.547 -0.3983  0.1369 -0.1277
10982WAT      O44633   2.743   2.769   4.559  0.1398  0.6063 -0.0643
10982WAT     H144634   2.745   2.718   4.631 -0.5597 -1.6585 -1.5332
10982WAT     H244635   2.754   2.849   4.591  1.2515 -0.4223  2.4402
10982WAT    EPW44636   2.745   2.773   4.574  0.2852  0.3276 -0.0171
10983WAT      O44637   2.638   3.240   5.719 -0.2145  0.1179 -0.4050
10983WAT     H144638   2.567   3.224   5.670 -0.9336 -0.3839  0.7402
10983WAT     H244639   2.627   3.187   5.787  1.3431 -0.0427 -0.2573
10983WAT    EPW44640   2.626   3.230   5.722 -0.0507 -0.7705 -0.1886
10984WAT      O44641   3.960   1.605   7.774 -0.4217  0.7004 -0.3520
10984WAT     H144642   3.972   1.529   7.815  1.5309  1.1693  0.0702
10984WAT     H244643   3.996   1.592   7.695  1.7956  1.7138  0.4104
10984WAT    EPW44644   3.967   1.592   7.768 -0.1499  0.1322 -0.3200
10985WAT      O44645   2.700   2.680   6.327 -0.3563 -0.4178  0.5045
10985WAT     H144646   2.683   2.745   6.383 -0.7225 -1.1807  1.3072
10985WAT     H244647   2.787   2.671   6.331 -0.3459 -0.2297  0.6789
10985WAT    EPW44648   2.711   2.688   6.336  0.4749 -0.3863  0.3525
10986WAT      O44649   3.336   7.763   6.602  0.6495  0.0740  0.1677
10986WAT     H144650   3.312   7.769   6.519 -1.1529  0.1420  0.6654
10986WAT     H244651   3.405   7.710   6.600  1.3767  1.0085 -1.4735
10986WAT    EPW44652   3.343   7.756   6.590 -0.4560  0.0668 -0.8220
10987WAT      O44653   3.835   0.657   5.778 -0.4116  0.4086 -0.0351
10987WAT     H144654   3.790   0.631   5.707 -0.7197 -1.4340  0.7726
10987WAT     H244655   3.909   0.688   5.744 -1.3063  1.2976 -1.2608
10987WAT    EPW44656   3.839   0.657   5.762  0.0427 -0.7597 -0.2475
10988WAT      O44657   2.551   2.160   6.404  0.2865  0.0134 -0.4033
10988WAT     H144658   2.502   2.110   6.352 -1.6498  2.6993 -1.3504
10988WAT     H244659   2.614   2.188   6.352  1.4174 -1.3732  0.1484
10988WAT    EPW44660   2.553   2.156   6.389  0.2025  0.0836  0.5284
10989WAT      O44661   2.674   0.595   4.839 -0.6942 -0.1178 -0.7759
10989WAT     H144662   2.679   0.547   4.911  0.2038  0.5578 -0.3844
10989WAT     H244663   2.687   0.537   4.775 -0.2187 -0.4945 -0.3398
10989WAT    EPW44664   2.676   0.580   4.840 -0.3146 -0.0573 -0.2877
10990WAT      O44665   3.135   1.549   4.184  0.0788 -0.4129  0.5452
10990WAT     H144666   3.169   1.491   4.128 -0.5839 -1.1093  0.8458
10990WAT     H244667   3.138   1.507   4.260  1.0895  0.5764  1.0826
10990WAT    EPW44668   3.141   1.534   4.187 -0.7738  0.1242  0.8840
10991WAT      O44669   3.069   2.187   5.752 -0.1725 -0.2505  0.6859
10991WAT     H144670   3.097   2.202   5.671 -1.8429 -1.2451 -0.1514
10991WAT     H244671   3.128   2.132   5.784  0.9510  0.7877  0.4637
10991WAT    EPW44672   3.082   2.181   5.745 -0.4407 -0.5073  0.4614
10992WAT      O44673   2.407   0.094   3.732 -0.9207  0.0409  0.0527
10992WAT     H144674   2.417   0.141   3.805 -1.2074 -0.2094  0.2557
10992WAT     H244675   2.350   0.140   3.685  1.4700  1.7873 -1.3736
10992WAT    EPW44676   2.400   0.108   3.736 -0.2393 -0.2949  0.1429
10993WAT      O44677   1.926   1.288   5.846 -0.0018  0.0786 -0.1437
10993WAT     H144678   1.854   1.241   5.856 -0.8464  1.5346  0.8827
10993WAT     H244679   1.990   1.229   5.853 -1.0436 -1.4615 -2.3118
10993WAT    EPW44680   1.925   1.273   5.848  0.6720  0.6599 -0.1864
10994WAT      O44681   2.108   3.198   6.153 -0.2400  0.2942 -0.1698
10994WAT     H144682   2.135   3.117   6.170  0.0512  0.3726 -0.2525
10994WAT     H244683   2.174   3.232   6.107 -0.9353  0.1507 -1.3149
10994WAT    EPW44684   2.122   3.191   6.149 -0.0491 -0.3894 -0.1175
10995WAT      O44685   1.721   2.318   6.340 -0.1120  0.7181  0.1361
10995WAT     H144686   1.687   2.310   6.260 -2.0314  0.9074  0.8824
10995WAT     H244687   1.751   2.238   6.358 -0.9507  0.3116 -0.2314
10995WAT    EPW44688   1.720   2.305   6.331  0.4443 -0.4077 -0.8997
10996WAT      O44689   2.326   0.146   5.323 -1.0878  0.0063 -0.1317
10996WAT     H144690   2.258   0.096   5.298 -0.4969 -0.3840 -0.9984
10996WAT     H244691   2.381   0.089   5.359 -1.6781  0.4784  1.6751
10996WAT    EPW44692   2.324   0.130   5.325  0.2812  0.2090  0.0719
10997WAT      O44693   2.282   3.672   5.030 -0.4080  0.2261 -0.3780
10997WAT     H144694   2.212   3.623   5.044 -0.2883 -0.6510 -2.5685
10997WAT     H244695   2.343   3.615   5.004  0.2591  1.2967 -1.2875
10997WAT    EPW44696   2.281   3.657   5.029  0.0630  0.3956  0.1479
10998WAT      O44697   2.636   2.751   5.554  0.5755 -0.5165  0.0089
10998WAT     H144698   2.600   2.688   5.507  0.4837  0.5592 -1.4141
10998WAT     H244699   2.575   2.769   5.614 -0.1732 -0.4892 -0.7464
10998WAT    EPW44700   2.622   2.744   5.556  0.1394 -0.1395  0.7009
10999WAT      O44701   2.179   2.374   7.297  0.4178  0.1427 -0.8609
10999WAT     H144702   2.188   2.321   7.228  0.9344  0.8878 -1.3787
10999WAT     H244703   2.115   2.428   7.272  0.1252 -0.0225 -0.4708
10999WAT    EPW44704   2.171   2.374   7.283 -0.3567  0.0978  0.3226
11000WAT      O44705   2.474   7.855   5.264 -0.0415 -0.0455 -0.6499
11000WAT     H144706   2.480   7.911   5.197 -1.1048 -0.3540 -1.0369
11000WAT     H244707   2.391   7.828   5.260  0.9238 -3.2938 -1.8128
11000WAT    EPW44708   2.462   7.859   5.254 -0.0532 -0.3557 -0.3396
11001WAT      O44709   3.284   3.477   7.929 -0.5702  0.6275 -0.2425
11001WAT     H144710   3.353   3.531   7.933 -1.7703  2.2282 -0.1651
11001WAT     H244711   3.219   3.526   7.961 -1.5443 -1.2075  0.7099
11001WAT    EPW44712   3.285   3.492   7.935  0.7232  0.0397 -0.3941
11002WAT      O44713   3.266   2.069   5.906  0.6026 -0.6467 -0.1228
11002WAT     H144714   3.202   2.080   5.964  0.6659  1.1515 -0.3534
11002WAT     H244715   3.338   2.094   5.948  0.6278  0.8092 -0.9712
11002WAT    EPW44716   3.267   2.074   5.920 -0.1332 -0.0838 -0.2975
11003WAT      O44717   3.345   1.716   4.459  0.2226 -0.5360 -0.1043
11003WAT     H144718   3.270   1.743   4.423  0.0888 -0.3758  0.2929
11003WAT     H244719   3.406   1.747   4.405 -0.0551 -2.1656 -1.4199
11003WAT    EPW44720   3.343   1.725   4.446  0.6280  0.1558  0.0055
11004WAT      O44721   4.009   1.079   7.825  0.2095  0.0663 -0.8711
11004WAT     H144722   3.992   1.034   7.898 -1.5946  1.5983 -0.2784
11004WAT     H244723   4.029   1.017   7.767 -2.9536 -1.6778 -0.3198
11004WAT    EPW44724   4.009   1.063   7.827  0.3288 -0.2793 -0.3629
11005WAT      O44725   2.998   0.088   5.827 -0.1601  0.1264 -0.4694
11005WAT     H144726   3.018   0.167   5.797  1.7137  0.0419  0.4588
11005WAT     H244727   2.935   0.104   5.885 -1.5597  0.6249 -2.0473
11005WAT    EPW44728   2.992   0.102   5.831 -0.1964 -0.3442 -0.1545
11006WAT      O44729   3.808   2.930   5.390 -0.3036 -0.1619  0.6116
11006WAT     H144730   3.817   2.912   5.475 -2.8275  1.2341  1.2948
11006WAT     H244731   3.745   2.991   5.389  0.2731  0.5238 -2.2174
11006WAT    EPW44732   3.800   2.936   5.403  0.1253 -0.7002 -0.4866
11007WAT      O44733   3.039   1.106   6.364  0.0171 -0.2969  0.2249
11007WAT     H144734   2.970   1.088   6.414  0.0022  0.7746  0.6147
11007WAT     H244735   3.103   1.119   6.422 -0.0856  1.3362  0.0136
11007WAT    EPW44736   3.039   1.105   6.380  0.2885 -0.6525 -0.1682
11008WAT      O44737   2.360   1.397   6.416 -0.9186 -0.1210  0.0548
11008WAT     H144738   2.435   1.371   6.379  0.0436  1.7119  0.6279
11008WAT     H244739   2.321   1.443   6.353 -1.6684 -1.2022 -0.2938
11008WAT    EPW44740   2.366   1.400   6.401 -0.2368 -0.6950 -0.8984
11009WAT      O44741   2.704   2.739   4.852 -0.5858 -0.2283  0.1050
11009WAT     H144742   2.644   2.802   4.858  0.7367  1.0858  0.0825
11009WAT     H244743   2.725   2.722   4.935  0.1763  0.4941  0.0686
11009WAT    EPW44744   2.698   2.746   4.865  0.2175 -0.9697  0.1839
11010WAT      O44745   2.575   2.461   0.133 -0.1969 -0.2648  0.2949
11010WAT     H144746   2.528   2.394   0.101  0.3128 -0.3521 -0.2814
11010WAT     H244747   2.566   2.523   0.072  1.7545 -0.8417 -0.6541
11010WAT    EPW44748   2.567   2.460   0.119  0.1855 -0.3082 -0.4574
11011WAT      O44749   3.057   1.489   7.812  0.2605  0.1739 -0.1904
11011WAT     H144750   3.089   1.480   7.893  1.6121  5.0848  0.0890
11011WAT     H244751   3.126   1.474   7.761  0.3155  0.5963 -0.2363
11011WAT    EPW44752   3.072   1.485   7.817 -0.1369 -0.3822 -0.5576
11012WAT      O44753   2.748   2.486   6.725  0.5185  0.4185  0.0400
11012WAT     H144754   2.813   2.490   6.783 -0.4543 -0.9539  1.3184
11012WAT     H244755   2.788   2.463   6.651  1.4934 -0.7805  0.8756
11012WAT    EPW44756   2.763   2.483   6.723 -0.2237  0.0612  0.0337
11013WAT      O44757   2.755   2.321   4.563 -0.2730 -0.1577 -0.3088
11013WAT     H144758   2.695   2.384   4.558  1.7577  1.7977 -2.7246
11013WAT     H244759   2.759   2.289   4.482  2.3227  0.2710 -0.4378
11013WAT    EPW44760   2.747   2.326   4.551 -0.3078 -0.1914  1.6673
11014WAT      O44761   2.320   2.699   6.163 -0.3301  0.1134  0.1988
11014WAT     H144762   2.275   2.624   6.162 -1.2533  0.6562  0.3540
11014WAT     H244763   2.396   2.676   6.128 -0.7567 -0.8036 -0.1863
11014WAT    EPW44764   2.324   2.684   6.158  0.2171 -0.1202 -0.4860
11015WAT      O44765   2.748   2.220   6.792  0.3331  0.4164 -0.1963
11015WAT     H144766   2.820   2.170   6.787 -1.1796 -1.9956 -5.5149
11015WAT     H244767   2.775   2.298   6.766  1.5000  0.4847  1.1083
11015WAT    EPW44768   2.763   2.224   6.787  0.1047  0.3770  0.1208
11016WAT      O44769   2.785   2.611   7.059  0.0506 -0.2384 -0.0808
11016WAT     H144770   2.828   2.549   7.103  1.2946 -1.2896 -2.5521
11016WAT     H244771   2.705   2.579   7.050  0.2455 -0.7686  0.0386
11016WAT    EPW44772   2.780   2.598   7.064 -0.1248  0.5701  0.9911
11017WAT      O44773   2.135   1.728   7.239 -0.3074  0.3567 -0.2314
11017WAT     H144774   2.163   1.718   7.157 -1.3968  1.2394 -0.7340
11017WAT     H244775   2.085   1.800   7.236  0.7106  1.2056  1.4945
11017WAT    EPW44776   2.132   1.737   7.226  0.4667 -1.0159 -0.6379
11018WAT      O44777   3.589   1.133   5.381 -0.1655 -0.4444  0.7972
11018WAT     H144778   3.633   1.102   5.450 -2.1198 -1.0301  1.8415
11018WAT     H244779   3.542   1.198   5.414  0.6313  0.8615 -0.5104
11018WAT    EPW44780   3.589   1.138   5.396 -0.3192 -0.5793 -0.4028
11019WAT      O44781   3.250   2.654   5.732  0.5441  0.0744 -0.0490
11019WAT     H144782   3.223   2.655   5.649 -1.4404 -0.9001  0.5116
11019WAT     H244783   3.274   2.571   5.745 -1.7163 -0.4952  1.0225
11019WAT    EPW44784   3.249   2.642   5.722  0.1005 -0.4620  0.0180
11020WAT      O44785   4.770   0.653   6.160  0.1067 -0.4067  0.0632
11020WAT     H144786   4.726   0.647   6.085  0.0938  2.0932 -0.2325
11020WAT     H244787   4.720   0.707   6.208  1.3143  0.0021  0.9035
11020WAT    EPW44788   4.756   0.660   6.156  0.4019 -1.1156 -0.2376
11021WAT      O44789   2.737   7.890   6.546  0.4181 -0.5561  0.0371
11021WAT     H144790   2.780   7.945   6.598 -0.2886 -0.6367  0.7216
11021WAT     H244791   2.678   7.940   6.506  0.4600 -0.6329 -0.1231
11021WAT    EPW44792   2.734   7.906   6.548 -0.9052 -0.2718  0.7838
11022WAT      O44793   1.773   2.906   7.316 -0.5303 -0.0275 -0.6985
11022WAT     H144794   1.833   2.952   7.361 -2.9241  0.5573  2.2434
11022WAT     H244795   1.750   2.959   7.251  1.9784 -0.2554 -1.8879
11022WAT    EPW44796   1.779   2.921   7.313 -0.9500 -0.5619 -0.3598
11023WAT      O44797   2.868   2.588   0.590 -0.3324 -0.1364  0.1948
11023WAT     H144798   2.855   2.533   0.523  0.5222  0.0638 -0.1526
11023WAT     H244799   2.909   2.539   0.649  1.3159  0.3483 -0.5052
11023WAT    EPW44800   2.872   2.572   0.589 -0.0296  0.7491 -0.4558
11024WAT      O44801   2.253   2.413   0.402 -0.2721 -0.0756 -0.0879
11024WAT     H144802   2.239   2.328   0.390  0.6248 -0.3463  0.6395
11024WAT     H244803   2.184   2.439   0.448 -0.5529 -0.4071 -0.3138
11024WAT    EPW44804   2.241   2.404   0.407  0.8604 -0.3184 -0.1748
11025WAT      O44805   4.347   1.480   5.113  0.0670  0.3730  0.3064
11025WAT     H144806   4.422   1.461   5.072  0.1109  0.6993  0.2302
11025WAT     H244807   4.291   1.420   5.083 -0.0976  1.0590 -0.8097
11025WAT    EPW44808   4.350   1.468   5.102  0.4901  0.1698  0.4984
11026WAT      O44809   5.088   2.389   4.019  1.2105  0.5159  0.6275
11026WAT     H144810   5.055   2.448   4.074  1.5665  1.8222 -0.4895
11026WAT     H244811   5.026   2.328   4.014  0.2795  1.4207  0.8674
11026WAT    EPW44812   5.074   2.389   4.026 -0.6476 -0.2412  0.0958
11027WAT      O44813   1.997   2.498   5.874 -0.2225 -0.2655  0.4582
11027WAT     H144814   2.069   2.527   5.835 -0.1593  0.2418  0.9392
11027WAT     H244815   1.960   2.571   5.905  0.6107 -0.7628  2.8463
11027WAT    EPW44816   2.002   2.513   5.873  0.7863  0.5213 -0.1438
11028WAT      O44817   2.893   1.990   6.943 -0.3685  0.3129  0.2045
11028WAT     H144818   2.852   1.913   6.949  0.1379  0.0141 -0.0680
11028WAT     H244819   2.955   1.976   6.883 -0.1016  0.8598  0.3393
11028WAT    EPW44820   2.896   1.977   6.935  0.3901 -0.3082 -0.2804
11029WAT      O44821   2.584   1.641   6.513 -0.1691 -0.4347 -0.1963
11029WAT     H144822   2.600   1.574   6.460 -2.0904 -0.3719 -0.9311
11029WAT     H244823   2.551   1.604   6.584 -0.3321 -0.3383 -0.2203
11029WAT    EPW44824   2.581   1.626   6.516 -0.2400  0.4459 -0.5370
11030WAT      O44825   1.947   3.302   1.001  0.3472 -0.1445 -0.5286
11030WAT     H144826   1.949   3.389   1.014 -1.2285 -0.1326 -0.1227
11030WAT     H244827   1.936   3.270   1.082 -0.2537 -0.6419 -0.8014
11030WAT    EPW44828   1.946   3.310   1.015 -0.0034  0.5233 -0.3992
11031WAT      O44829   3.265   1.479   5.793  0.4222 -0.0998 -0.0173
11031WAT     H144830   3.224   1.481   5.716  1.6203 -1.9304 -0.7541
11031WAT     H244831   3.200   1.492   5.850 -0.7331 -0.1625 -1.2541
11031WAT    EPW44832   3.249   1.481   5.790  0.2939 -0.5338 -0.1821
11032WAT      O44833   4.237   1.366   6.296  0.2811 -0.4359  0.0176
11032WAT     H144834   4.290   1.417   6.342  0.7325 -1.7450  1.0064
11032WAT     H244835   4.275   1.363   6.217  1.7266 -1.3430  0.7040
11032WAT    EPW44836   4.250   1.373   6.291 -0.3259  1.2951  0.2397
11033WAT      O44837   2.675   0.365   6.627 -0.2251 -0.0500 -0.0882
11033WAT     H144838   2.742   0.415   6.599  0.0187  0.1866  0.8916
11033WAT     H244839   2.653   0.401   6.703 -0.9203 -0.6534  0.0030
11033WAT    EPW44840   2.682   0.378   6.634 -0.2854  0.5319 -0.0589
11034WAT      O44841   2.202   2.448   6.166  0.0636 -0.2861 -0.0391
11034WAT     H144842   2.199   2.454   6.253  1.1194 -0.3629  0.0130
11034WAT     H244843   2.121   2.472   6.142  0.7536  3.6227  0.7472
11034WAT    EPW44844   2.189   2.453   6.175  0.5259  0.0021 -0.0137
11035WAT      O44845   3.034   3.409   6.821 -0.0720 -0.0143 -0.1071
11035WAT     H144846   3.114   3.383   6.800  1.0431  2.3592  0.9168
11035WAT     H244847   3.042   3.436   6.904 -2.7135 -2.6403  1.2219
11035WAT    EPW44848   3.047   3.409   6.830  0.0820 -0.2539  0.1385
11036WAT      O44849   2.618   0.484   7.819  0.2446  0.2503 -0.1163
11036WAT     H144850   2.559   0.461   7.759  1.4300 -0.6438 -0.9947
11036WAT     H244851   2.673   0.536   7.775  1.0670 -0.3230  0.2075
11036WAT    EPW44852   2.618   0.488   7.803 -0.2207  0.1511  0.2693
11037WAT      O44853   2.581   2.806   7.736  0.0686 -0.7605 -0.3674
11037WAT     H144854   2.575   2.886   7.769 -2.7192 -0.6150 -0.9117
11037WAT     H244855   2.655   2.807   7.690 -0.6213  2.0253 -1.5999
11037WAT    EPW44856   2.591   2.818   7.734 -0.4962  0.4407  0.4886
11038WAT      O44857   3.211   1.818   5.496  0.4651 -0.0493 -0.2851
11038WAT     H144858   3.290   1.820   5.533  0.8131  1.6428 -1.0231
11038WAT     H244859   3.157   1.837   5.561  0.9359  1.3931 -0.2791
11038WAT    EPW44860   3.215   1.821   5.511 -0.1318 -0.7562  0.3645
11039WAT      O44861   4.397   1.781   5.406 -0.0723 -0.0383 -0.1531
11039WAT     H144862   4.455   1.738   5.455  1.2566  0.7305 -0.9952
11039WAT     H244863   4.439   1.793   5.330 -1.5009  0.1611 -0.9577
11039WAT    EPW44864   4.412   1.776   5.402  0.2283 -1.3138  0.0802
11040WAT      O44865   2.657   1.762   5.783 -0.2968 -0.4275  0.3236
11040WAT     H144866   2.578   1.751   5.818  0.1325 -2.6910  0.7309
11040WAT     H244867   2.711   1.730   5.843  1.1302  2.3277  0.6463
11040WAT    EPW44868   2.653   1.756   5.797 -0.4661 -0.5038 -0.4111
11041WAT      O44869   3.365   2.959   6.939  0.2962 -0.1149  0.3008
11041WAT     H144870   3.431   2.947   6.883  2.0414  0.5571  2.0944
11041WAT     H244871   3.301   2.908   6.907  1.5955 -0.6253 -1.6309
11041WAT    EPW44872   3.365   2.949   6.926  0.1344  0.4219 -0.4029
11042WAT      O44873   2.211   1.964   7.524 -0.5464 -0.3487 -0.2240
11042WAT     H144874   2.262   2.032   7.544  1.8666 -1.6930 -1.4114
11042WAT     H244875   2.180   1.984   7.445 -1.4032  0.1636  0.2190
11042WAT    EPW44876   2.214   1.977   7.515 -0.1346 -0.2283  0.0056
11043WAT      O44877   3.463   2.468   6.642  0.2931  0.0038 -0.1288
11043WAT     H144878   3.395   2.457   6.695  0.1373 -1.0779 -0.5301
11043WAT     H244879   3.531   2.476   6.697 -0.1020  0.7758  0.2600
11043WAT    EPW44880   3.463   2.467   6.658  0.6522  0.3734 -0.2272
11044WAT      O44881   2.335   3.776   6.782 -0.4568 -0.4664 -0.4540
11044WAT     H144882   2.254   3.793   6.756  0.2320  1.3628 -1.5899
11044WAT     H244883   2.382   3.781   6.709  0.8776  0.0119  0.3865
11044WAT    EPW44884   2.330   3.779   6.768  0.0364 -0.8346 -0.2295
11045WAT      O44885   3.326   2.128   6.821 -0.1560  0.2475  1.0798
11045WAT     H144886   3.333   2.132   6.908  0.8581 -2.0720  1.1518
11045WAT     H244887   3.407   2.142   6.793 -0.2386 -0.2691  0.5695
11045WAT    EPW44888   3.339   2.131   6.829 -0.4522 -0.2946  0.9047
11046WAT      O44889   2.714   2.940   6.477  0.0083  0.0714  0.1130
11046WAT     H144890   2.704   2.872   6.531  0.4540 -0.1183 -0.0405
11046WAT     H244891   2.693   3.009   6.527  0.4544 -0.1014  0.5506
11046WAT    EPW44892   2.710   2.940   6.493 -0.1830 -0.1878 -0.3818
11047WAT      O44893   2.121   2.138   6.361 -0.5939 -0.0625  0.3332
11047WAT     H144894   2.150   2.215   6.389 -0.1999 -0.9399  2.4631
11047WAT     H244895   2.123   2.087   6.432 -1.5643 -1.8442 -0.8306
11047WAT    EPW44896   2.125   2.142   6.375  0.3486  0.3846  0.3882
11048WAT      O44897   3.612   2.487   6.890 -0.4983  0.1167  0.3647
11048WAT     H144898   3.600   2.559   6.936  0.9587 -0.3524  1.5766
11048WAT     H244899   3.587   2.423   6.943 -0.7713 -0.3335 -0.2854
11048WAT    EPW44900   3.607   2.488   6.904 -0.1722 -0.1979  0.1373
11049WAT      O44901   2.446   1.314   5.142 -0.5740 -0.5956 -0.1883
11049WAT     H144902   2.486   1.282   5.072 -0.1531 -0.6655  0.0823
11049WAT     H244903   2.383   1.364   5.109 -0.5804 -0.8847 -0.6148
11049WAT    EPW44904   2.442   1.317   5.127  0.2261  0.8410 -0.6440
11050WAT      O44905   2.856   0.566   5.470 -0.5957  0.2967  0.1806
11050WAT     H144906   2.771   0.551   5.459 -0.3645 -1.4946  0.3891
11050WAT     H244907   2.879   0.613   5.400 -1.4044 -0.7908 -0.8508
11050WAT    EPW44908   2.847   0.570   5.458  0.3845 -0.2333  0.5737
11051WAT      O44909   3.319   1.017   4.901  0.0477 -0.1492  0.0961
11051WAT     H144910   3.359   0.982   4.832 -0.3076 -0.3692 -0.0037
11051WAT     H244911   3.250   1.057   4.866 -0.5762 -0.9345  0.3947
11051WAT    EPW44912   3.314   1.018   4.886  0.3555  0.2228 -0.0484
11052WAT      O44913   3.262   2.531   6.834  0.1704  0.3105  0.2785
11052WAT     H144914   3.234   2.611   6.854  1.8059  1.2338 -0.8524
11052WAT     H244915   3.260   2.489   6.910 -2.5455  0.7706  0.5669
11052WAT    EPW44916   3.257   2.537   6.848 -0.0466 -0.2801  0.0933
11053WAT      O44917   3.405   1.924   5.093 -0.3767 -0.2791 -0.1839
11053WAT     H144918   3.390   1.990   5.038  2.0625  1.1666  0.7170
11053WAT     H244919   3.378   1.955   5.170 -1.1971 -1.1916 -0.0924
11053WAT    EPW44920   3.399   1.938   5.096 -0.1794  0.3675  0.0368
11054WAT      O44921   3.054   2.757   6.174 -0.8685 -0.0059 -0.3700
11054WAT     H144922   2.999   2.824   6.165 -0.5322  0.6973  2.0945
11054WAT     H244923   3.114   2.771   6.112 -1.6389  1.0674 -0.9130
11054WAT    EPW44924   3.055   2.769   6.163  0.8643  0.4503 -0.2611
11055WAT      O44925   2.497   1.091   5.805 -0.0597 -0.3316  0.1107
11055WAT     H144926   2.495   1.160   5.858  0.5028  1.5406 -2.1470
11055WAT     H244927   2.517   1.025   5.858 -1.4221  1.0412  2.5261
11055WAT    EPW44928   2.500   1.091   5.820  0.2524 -0.8102 -0.6174
11056WAT      O44929   3.531   0.255   4.566 -0.1332 -0.0936  0.7952
11056WAT     H144930   3.578   0.183   4.583  0.3975  0.1012  0.1794
11056WAT     H244931   3.586   0.306   4.522 -1.1129 -0.1349 -0.5461
11056WAT    EPW44932   3.546   0.252   4.562  0.0136  0.2435  0.0239
11057WAT      O44933   2.706   1.729   7.670 -0.4864  0.3091 -0.7347
11057WAT     H144934   2.777   1.682   7.652 -0.3311 -0.0410  0.6522
11057WAT     H244935   2.721   1.805   7.631  0.4847  0.1072 -0.7762
11057WAT    EPW44936   2.719   1.733   7.662  0.5492  0.3489  0.5382
11058WAT      O44937   3.838   1.421   5.218  0.5107  0.2406 -0.3375
11058WAT     H144938   3.766   1.440   5.264 -0.5925 -1.8954 -1.0214
11058WAT     H244939   3.823   1.340   5.190  3.1293 -0.2083 -0.7042
11058WAT    EPW44940   3.825   1.412   5.221 -0.3012  0.1407 -0.4789
11059WAT      O44941   3.120   2.872   5.004  0.2009 -0.1815 -0.3558
11059WAT     H144942   3.098   2.833   4.930  0.3244 -0.9966  0.0234
11059WAT     H244943   3.129   2.806   5.060 -1.4821  0.4950  0.8187
11059WAT    EPW44944   3.118   2.856   5.002 -0.7451  0.3075 -0.2070
11060WAT      O44945   2.912   1.509   6.399  0.0199  0.6557  0.2366
11060WAT     H144946   2.966   1.454   6.358  0.7072  1.7792 -0.4257
11060WAT     H244947   2.946   1.515   6.479  1.4145  1.9854 -0.4108
11060WAT    EPW44948   2.925   1.502   6.404 -0.2965 -0.0775 -0.7869
11061WAT      O44949   2.989   1.450   5.931  0.4649  0.6664  0.4455
11061WAT     H144950   3.010   1.436   6.014  1.9174  0.8747  0.1431
11061WAT     H244951   2.980   1.536   5.926  0.2775  0.6450  0.4030
11061WAT    EPW44952   2.991   1.460   5.942  1.0316 -0.1896  0.0710
11062WAT      O44953   2.932   1.748   5.839 -0.1224 -0.0278  0.0173
11062WAT     H144954   3.015   1.771   5.827 -0.5553  1.9624  0.4327
11062WAT     H244955   2.900   1.744   5.758  0.0108  0.7502 -0.0810
11062WAT    EPW44956   2.940   1.751   5.825  0.2347  0.2511  0.1233
11063WAT      O44957   3.457   2.589   5.060 -0.1204 -0.4468  0.1043
11063WAT     H144958   3.507   2.518   5.064  0.1859 -0.1554  2.4354
11063WAT     H244959   3.511   2.651   5.031  0.4499 -0.4834  1.0822
11063WAT    EPW44960   3.472   2.587   5.056  0.0818  0.5825 -0.5667
11064WAT      O44961   3.342   0.983   3.959  0.2420  0.1118  0.4964
11064WAT     H144962   3.317   0.985   4.042  1.7110  0.2020  0.9592
11064WAT     H244963   3.425   0.955   3.962  0.7034  1.1709 -0.8337
11064WAT    EPW44964   3.351   0.979   3.971  0.0077 -0.0885  0.1984
11065WAT      O44965   3.055   1.419   4.426 -0.0161  0.0811  0.6136
11065WAT     H144966   2.977   1.388   4.449 -0.2054 -0.1428 -0.3126
11065WAT     H244967   3.102   1.414   4.500  0.1631 -2.9791  0.4083
11065WAT    EPW44968   3.051   1.414   4.441  0.5667 -0.1716 -0.2653
11066WAT      O44969   3.095   7.704   4.958 -0.0360  0.1365 -0.5416
11066WAT     H144970   3.162   7.688   4.904  0.7963  1.4136  0.0607
11066WAT     H244971   3.129   7.759   5.017 -1.5430  0.5932 -0.0565
11066WAT    EPW44972   3.110   7.710   4.959  0.3139 -0.3512 -1.1256
11067WAT      O44973   4.276   1.181   7.816  0.5801 -0.0728 -0.0253
11067WAT     H144974   4.205   1.139   7.788  1.0738  1.1190 -3.5369
11067WAT     H244975   4.342   1.132   7.788  1.2993 -0.9589  2.8507
11067WAT    EPW44976   4.275   1.168   7.808  1.0737 -0.4321 -0.7686
11068WAT      O44977   3.211   1.811   5.781  0.1981  0.0539  0.3368
11068WAT     H144978   3.236   1.870   5.840 -1.6459  0.9244  0.3223
11068WAT     H244979   3.246   1.736   5.811  1.1929  0.8519  1.2621
11068WAT    EPW44980   3.220   1.809   5.794  0.0286 -0.7757 -0.7935
11069WAT      O44981   1.853   3.183   6.099 -1.0399 -0.2238  0.5498
11069WAT     H144982   1.812   3.260   6.112  0.5327  0.7519  0.0502
11069WAT     H244983   1.935   3.200   6.121 -0.4483 -1.4800 -0.5694
11069WAT    EPW44984   1.859   3.197   6.104  1.2389 -0.4911  0.4854
11070WAT      O44985   2.078   2.814   7.091  0.5623  0.6154 -0.3788
11070WAT     H144986   2.062   2.847   7.171 -0.2410 -1.0007  0.1697
11070WAT     H244987   2.101   2.884   7.045 -1.6216  2.0682  0.5494
11070WAT    EPW44988   2.079   2.829   7.096 -0.3974  0.2699 -1.2087
11071WAT      O44989   2.460   1.162   7.656 -0.2898 -0.3213  0.0854
11071WAT     H144990   2.394   1.118   7.693 -0.7090  0.7331  0.6213
11071WAT     H244991   2.449   1.243   7.685  1.6141 -0.2443  0.7113
11071WAT    EPW44992   2.449   1.167   7.666  0.8569  0.0604 -0.3177
11072WAT      O44993   4.582   2.078   3.926  0.3282 -0.3284 -0.1981
11072WAT     H144994   4.593   2.077   3.840 -0.1710 -0.4557 -0.2644
11072WAT     H244995   4.654   2.039   3.957  1.2918  1.1939 -0.4586
11072WAT    EPW44996   4.594   2.072   3.918  0.2430  0.1578 -0.1953
11073WAT      O44997   2.790   1.592   5.392  0.1802  0.0247  0.8264
11073WAT     H144998   2.777   1.539   5.460  0.1775 -1.4920 -0.3066
11073WAT     H244999   2.726   1.569   5.337  0.4831  0.8842  0.1067
11073WAT    EPW45000   2.779   1.581   5.394 -0.6569 -0.6245 -0.1497
11074WAT      O45001   3.306   2.089   7.117 -0.4587 -0.5936  0.9311
11074WAT     H145002   3.219   2.092   7.111 -0.4946 -1.3327  1.0064
11074WAT     H245003   3.321   2.021   7.170  0.1314  0.3649  2.0484
11074WAT    EPW45004   3.296   2.080   7.124  0.3714  0.5046 -0.4883
11075WAT      O45005   1.788   2.986   5.912 -0.1179  0.3338 -0.2862
11075WAT     H145006   1.798   3.043   5.977  1.0956 -0.5457  0.3434
11075WAT     H245007   1.821   3.028   5.843  1.1497  0.2767  0.2567
11075WAT    EPW45008   1.794   3.000   5.912 -0.0660 -0.8774 -0.3163
11076WAT      O45009   2.252   1.374   7.460  0.0663  0.1130 -0.3151
11076WAT     H145010   2.285   1.376   7.540 -0.2223 -0.5965 -0.1741
11076WAT     H245011   2.320   1.393   7.409 -0.0201  1.8902  0.1506
11076WAT    EPW45012   2.267   1.377   7.464 -0.2360  0.0945 -0.1695
11077WAT      O45013   1.812   2.090   7.698  0.1828  0.5952 -1.1707
11077WAT     H145014   1.823   2.168   7.737 -2.3139 -0.0062  1.0442
11077WAT     H245015   1.881   2.044   7.724  0.0041  1.1128  0.3405
11077WAT    EPW45016   1.824   2.095   7.708  0.0779 -0.4363 -0.0371
11078WAT      O45017   2.232   3.054   0.235 -0.3303  0.2462 -0.2852
11078WAT     H145018   2.260   2.978   0.204  2.3603  0.9819  0.0137
11078WAT     H245019   2.240   3.044   0.322 -1.2658  0.4436 -0.1666
11078WAT    EPW45020   2.238   3.041   0.243  0.1822  0.0589  0.1817
11079WAT      O45021   2.950   1.119   5.608 -0.0095 -0.3377 -0.1288
11079WAT     H145022   2.891   1.058   5.589  0.0607 -0.7194  0.8307
11079WAT     H245023   2.916   1.158   5.679  0.0967  0.5422 -0.5422
11079WAT    EPW45024   2.936   1.116   5.615 -0.2633 -0.7555 -0.1243
11080WAT      O45025   2.577   1.551   5.221  0.1643  0.1935 -0.1172
11080WAT     H145026   2.501   1.515   5.200  0.0330 -1.3788  2.5131
11080WAT     H245027   2.589   1.611   5.160 -1.2755 -2.0692 -2.8723
11080WAT    EPW45028   2.567   1.554   5.209  0.3055 -0.4630 -1.1362
11081WAT      O45029   1.491   1.296   0.069 -0.3829 -0.1471  0.0039
11081WAT     H145030   1.404   1.295   0.083 -0.2558  0.2521  0.8767
11081WAT     H245031   1.510   1.381   0.069  0.5657 -0.2090  3.5862
11081WAT    EPW45032   1.481   1.309   0.071 -0.2799 -0.1101  0.1652
11082WAT      O45033   4.435   1.858   4.141  0.3100 -0.2932  0.0603
11082WAT     H145034   4.358   1.894   4.121 -0.0496 -0.3400  1.2722
11082WAT     H245035   4.458   1.817   4.068 -0.4118  0.4213 -0.5930
11082WAT    EPW45036   4.427   1.858   4.127 -0.4517 -0.5601  0.4584
11083WAT      O45037   2.511   2.992   5.311  0.1619 -0.5658 -0.4028
11083WAT     H145038   2.513   2.919   5.264 -0.3775 -0.7206 -0.1866
11083WAT     H245039   2.456   2.974   5.376  0.3033 -0.0909 -0.1423
11083WAT    EPW45040   2.503   2.979   5.314 -0.1959  0.1838 -0.6619
11084WAT      O45041   2.916   1.797   5.537  0.4665 -0.5069 -0.3504
11084WAT     H145042   2.896   1.867   5.489 -1.4452  0.2259  1.3834
11084WAT     H245043   2.873   1.732   5.498 -1.1609  0.0978  0.3460
11084WAT    EPW45044   2.907   1.798   5.524 -0.0563 -0.5778 -0.0289
11085WAT      O45045   2.099   3.011   4.800  0.4172 -0.8376 -0.1875
11085WAT     H145046   2.112   2.925   4.805  1.6809 -0.6857 -0.5443
11085WAT     H245047   2.172   3.046   4.834 -0.6006  0.1179  1.1634
11085WAT    EPW45048   2.111   3.004   4.806 -0.2968  0.1524 -0.3271
11086WAT      O45049   2.730   0.980   5.066 -0.2248 -0.1651 -0.0248
11086WAT     H145050   2.681   0.960   5.135  0.0015  2.6515  1.0777
11086WAT     H245051   2.785   1.040   5.097  1.9499 -1.0258 -1.9549
11086WAT    EPW45052   2.731   0.986   5.081 -0.8673  0.3961 -0.4219
11087WAT      O45053   2.709   3.021   5.501  0.1266  0.3905 -0.6508
11087WAT     H145054   2.701   2.945   5.543  0.8576  1.0928  0.8247
11087WAT     H245055   2.639   3.022   5.449 -1.8935  0.2504  1.8566
11087WAT    EPW45056   2.697   3.010   5.500  0.5309 -0.3372  0.0929
11088WAT      O45057   3.021   1.704   6.848 -0.0130 -0.1787 -0.1827
11088WAT     H145058   2.943   1.712   6.888  1.2385 -0.0144  2.4765
11088WAT     H245059   3.035   1.783   6.814 -1.3642 -0.4728 -1.5510
11088WAT    EPW45060   3.011   1.717   6.849 -0.9945  0.6004 -0.3086
11089WAT      O45061   3.571   2.818   7.762 -0.3200  0.1200  0.8590
11089WAT     H145062   3.595   2.799   7.680 -0.9963  1.8500  0.2276
11089WAT     H245063   3.553   2.903   7.759 -1.9145 -0.1097  2.4257
11089WAT    EPW45064   3.572   2.827   7.749  0.6704  0.1654 -0.1152
11090WAT      O45065   3.531   1.461   5.891  0.1070  0.4248  0.4001
11090WAT     H145066   3.597   1.446   5.835 -0.9446  1.3786 -1.1566
11090WAT     H245067   3.460   1.459   5.840 -0.8620  1.7468  1.6390
11090WAT    EPW45068   3.530   1.458   5.875 -1.1565 -0.3017 -0.4380
11091WAT      O45069   2.444   2.185   0.060  0.2887 -0.1437 -0.2126
11091WAT     H145070   2.359   2.172   0.069  0.5999 -1.4283  1.3123
11091WAT     H245071   2.460   2.164  -0.023 -0.7476 -0.6777 -0.2824
11091WAT    EPW45072   2.434   2.180   0.049  0.1470  0.4423 -0.5986
11092WAT      O45073   2.859   3.085   6.872 -0.0293  0.0745 -0.2654
11092WAT     H145074   2.843   3.134   6.943 -1.2367  0.8119 -0.9971
11092WAT     H245075   2.884   3.143   6.813  0.3850 -0.4583 -0.6163
11092WAT    EPW45076   2.860   3.101   6.874  0.9717 -0.0309  0.5298
11093WAT      O45077   2.065   2.879   5.109 -0.2172 -0.1713 -0.1136
11093WAT     H145078   2.126   2.940   5.119  0.2673 -0.8942  1.7368
11093WAT     H245079   1.991   2.924   5.097  0.1398  0.8039  1.1816
11093WAT    EPW45080   2.063   2.894   5.109  0.5189 -0.0047 -1.0352
11094WAT      O45081   2.779   3.636   7.623  0.0671  0.1376 -0.2554
11094WAT     H145082   2.848   3.646   7.676  0.8045  1.3339 -1.3673
11094WAT     H245083   2.799   3.686   7.554 -2.7278  2.0189  0.1594
11094WAT    EPW45084   2.792   3.645   7.621  0.1616  0.3899 -1.1023
11095WAT      O45085   2.886   1.130   3.891  1.2792 -0.3195  0.3292
11095WAT     H145086   2.873   1.214   3.908  1.2074 -0.0787 -0.8409
11095WAT     H245087   2.971   1.125   3.873  1.1379 -0.3378 -0.3823
11095WAT    EPW45088   2.897   1.141   3.891  0.8524 -0.5473 -0.1401
11096WAT      O45089   2.380   2.188   3.114  0.1900  0.0418  0.0479
11096WAT     H145090   2.325   2.120   3.113  0.4033 -0.1255 -0.6416
11096WAT     H245091   2.408   2.193   3.031 -0.3342  1.3779 -0.0770
11096WAT    EPW45092   2.376   2.179   3.102  0.4146 -0.2517  0.2502
11097WAT      O45093   1.940   2.457   2.338 -0.8330  0.0478  0.4316
11097WAT     H145094   2.014   2.502   2.329 -0.3963 -0.8050 -0.4961
11097WAT     H245095   1.895   2.502   2.398 -0.1291  1.3030  0.0444
11097WAT    EPW45096   1.944   2.470   2.346 -1.0309  0.3711 -0.0354
11098WAT      O45097   2.978   1.920   3.385 -0.5392 -0.1770  0.3854
11098WAT     H145098   3.049   1.945   3.428 -1.1787 -0.2842  1.5398
11098WAT     H245099   2.941   1.996   3.361  0.3559 -0.1236 -0.9405
11098WAT    EPW45100   2.983   1.935   3.387  0.0656 -0.2720 -0.0341
11099WAT      O45101   2.587   1.042   3.434  0.2720 -0.0934  0.0936
11099WAT     H145102   2.666   1.063   3.462  0.5126 -0.2130 -0.4847
11099WAT     H245103   2.599   0.967   3.391 -0.5182 -1.3240  1.8727
11099WAT    EPW45104   2.600   1.034   3.432 -0.4535 -0.1956 -0.9171
11100WAT      O45105   1.323   1.162   2.782  0.2182  0.4668 -0.0986
11100WAT     H145106   1.245   1.197   2.800 -0.5580 -0.0690 -2.0934
11100WAT     H245107   1.309   1.076   2.792  0.0182  0.2267 -2.0078
11100WAT    EPW45108   1.310   1.154   2.786 -0.1313  0.5661 -0.5854
11101WAT      O45109   2.275   2.497   2.581 -0.0906  0.2473 -0.3863
11101WAT     H145110   2.287   2.436   2.643 -2.0664 -1.3125 -1.4127
11101WAT     H245111   2.274   2.451   2.507 -0.6960  1.6719 -1.3069
11101WAT    EPW45112   2.276   2.481   2.580 -0.9946  0.9668 -0.5947
11102WAT      O45113   1.277   1.481   2.449 -0.6083 -0.1552  0.4685
11102WAT     H145114   1.197   1.459   2.474 -0.3439 -1.7253  0.0915
11102WAT     H245115   1.264   1.540   2.387 -1.3532  1.5324  2.1236
11102WAT    EPW45116   1.264   1.486   2.444  0.0158 -0.1820 -0.5366
11103WAT      O45117   2.351   2.130   3.448  0.4192 -0.3137 -0.3551
11103WAT     H145118   2.302   2.200   3.428 -1.0541 -1.0957  0.3673
11103WAT     H245119   2.425   2.164   3.478 -0.5007  0.9692  0.5497
11103WAT    EPW45120   2.354   2.145   3.449  0.4925  0.0327  0.7270
11104WAT      O45121   0.946   3.302   2.796 -0.0961  0.2797  0.1205
11104WAT     H145122   0.990   3.248   2.848  0.6383  0.3924 -0.3758
11104WAT     H245123   0.866   3.266   2.792 -0.2383  0.4032  1.4977
11104WAT    EPW45124   0.941   3.289   2.803  0.1239  0.1560 -0.4810
11105WAT      O45125   1.974   1.814   4.807  0.0353  0.0551 -0.1474
11105WAT     H145126   2.027   1.851   4.748 -0.1398 -0.6458 -0.7604
11105WAT     H245127   2.029   1.772   4.860  0.1154 -0.7578 -0.8426
11105WAT    EPW45128   1.990   1.813   4.806  0.5664 -0.6845 -0.5489
11106WAT      O45129   3.525   1.187   3.903 -0.0041  0.4269  0.3115
11106WAT     H145130   3.453   1.144   3.928  2.2423 -3.2115  1.4307
11106WAT     H245131   3.538   1.244   3.967 -1.1540  0.1396  0.8269
11106WAT    EPW45132   3.516   1.189   3.916  0.0829  0.5108 -0.0055
11107WAT      O45133   1.187   2.709   4.678 -0.3754 -0.5688 -0.0875
11107WAT     H145134   1.118   2.756   4.653 -0.8694 -0.2770  1.6638
11107WAT     H245135   1.254   2.745   4.635 -1.1537 -0.1698 -1.0032
11107WAT    EPW45136   1.187   2.721   4.668 -0.2065 -0.4825 -0.7567
11108WAT      O45137   2.450   1.588   3.358 -0.3097 -0.0653 -0.4246
11108WAT     H145138   2.492   1.645   3.309 -2.0656  1.5678 -0.1541
11108WAT     H245139   2.507   1.523   3.368  1.5017  1.3064 -1.3320
11108WAT    EPW45140   2.464   1.587   3.352  0.6703 -0.1646 -0.5484
11109WAT      O45141   1.775   2.423   5.211 -0.1447 -0.2602 -0.3240
11109WAT     H145142   1.824   2.494   5.197  1.4924 -0.6879  2.5627
11109WAT     H245143   1.711   2.452   5.263 -0.9703 -0.4468 -1.1949
11109WAT    EPW45144   1.772   2.438   5.217  0.2800 -0.5005 -0.1939
11110WAT      O45145   0.804   2.189   3.356  0.6386 -0.3714 -0.2251
11110WAT     H145146   0.866   2.199   3.416 -0.9996  1.1331  1.3669
11110WAT     H245147   0.734   2.226   3.393 -1.4879 -2.8014 -1.5035
11110WAT    EPW45148   0.803   2.196   3.370 -0.7033  0.3026  0.2562
11111WAT      O45149   2.569   3.327   3.603 -0.0721  0.0739  0.3369
11111WAT     H145150   2.487   3.331   3.630  0.2829  0.0798  1.4494
11111WAT     H245151   2.604   3.263   3.650  0.7083  0.4518  0.3011
11111WAT    EPW45152   2.562   3.318   3.614  0.6607 -0.2100 -0.1649
11112WAT      O45153   2.609   1.455   2.840  0.2998  0.1553 -0.0794
11112WAT     H145154   2.530   1.448   2.804  0.3279 -0.5674 -0.0247
11112WAT     H245155   2.597   1.432   2.923  0.9607 -2.3785 -0.6055
11112WAT    EPW45156   2.596   1.451   2.847 -0.2913  0.0509 -0.1243
11113WAT      O45157   3.454   1.659   3.948 -0.3136 -0.1673  0.3424
11113WAT     H145158   3.464   1.602   4.013  1.1829 -0.3397 -0.0205
11113WAT     H245159   3.434   1.609   3.880 -2.8836  0.0840  0.8094
11113WAT    EPW45160   3.452   1.644   3.948 -0.4779  0.6651  1.1105
11114WAT      O45161   2.644   2.327   3.027 -0.4161 -0.3906 -0.4087
11114WAT     H145162   2.703   2.365   3.078 -0.5249 -0.5872 -0.1364
11114WAT     H245163   2.572   2.376   3.039 -0.3077 -0.1436 -0.7494
11114WAT    EPW45164   2.642   2.340   3.036  0.3588 -0.1892 -1.2871
11115WAT      O45165   3.516   1.423   4.087 -0.2721  0.4631  0.4051
11115WAT     H145166   3.597   1.428   4.053  0.5292 -1.0905  1.9200
11115WAT     H245167   3.527   1.446   4.170 -1.3015 -0.2713  0.7603
11115WAT    EPW45168   3.530   1.427   4.094 -0.7869 -0.3246 -0.2600
11116WAT      O45169   4.616   1.164   4.200 -0.2090  0.3566 -0.3462
11116WAT     H145170   4.672   1.214   4.156  0.4892 -0.0041  0.1054
11116WAT     H245171   4.666   1.100   4.232 -1.2588 -1.3759 -1.9479
11116WAT    EPW45172   4.631   1.162   4.199  0.6764 -0.6581  0.0851
11117WAT      O45173   2.188   1.730   2.536 -1.0407  0.5351 -0.4399
11117WAT     H145174   2.231   1.680   2.480  1.4562  1.3555  0.6204
11117WAT     H245175   2.197   1.810   2.504  0.4395  1.0219  1.0498
11117WAT    EPW45176   2.196   1.734   2.523  0.0574 -0.8859  0.3945
11118WAT      O45177   1.597   1.566   3.126 -0.4761 -0.6865  0.3730
11118WAT     H145178   1.608   1.577   3.212 -1.2050 -1.1507  0.5270
11118WAT     H245179   1.644   1.495   3.108 -0.4660 -0.6905  0.4164
11118WAT    EPW45180   1.606   1.557   3.136 -0.0370 -1.1967 -0.3328
11119WAT      O45181   2.998   2.815   3.406 -0.2916  1.0660  0.1557
11119WAT     H145182   2.928   2.826   3.354 -0.4405  3.1515  0.7167
11119WAT     H245183   2.965   2.774   3.476 -0.2069 -1.1996 -1.0221
11119WAT    EPW45184   2.983   2.811   3.408  0.3955  0.1675  0.3776
11120WAT      O45185   2.325   1.976   3.672  0.2723  0.5457  0.0456
11120WAT     H145186   2.263   2.018   3.716  0.8644 -0.0921  1.5828
11120WAT     H245187   2.323   2.013   3.593 -1.1985  1.3867  0.4318
11120WAT    EPW45188   2.316   1.988   3.667 -0.3453 -1.0366 -0.6344
11121WAT      O45189   3.261   4.038   2.741 -0.0880 -0.0195 -0.2924
11121WAT     H145190   3.339   4.046   2.703 -0.6416  0.4155 -1.3869
11121WAT     H245191   3.274   3.975   2.800  0.3868 -2.1362 -2.4740
11121WAT    EPW45192   3.275   4.030   2.744  0.0880  0.0034 -0.3389
11122WAT      O45193   2.879   3.113   3.118 -0.0584 -0.2343 -0.7091
11122WAT     H145194   2.839   3.190   3.112 -0.1276 -0.1937  0.1979
11122WAT     H245195   2.833   3.062   3.064  0.9144  0.7041 -2.5323
11122WAT    EPW45196   2.866   3.117   3.109  0.0611 -0.2169  0.1010
11123WAT      O45197   2.978   1.181   3.217  0.2203  1.0554  0.2055
11123WAT     H145198   3.041   1.239   3.198 -0.7423  1.6643 -1.4440
11123WAT     H245199   2.915   1.230   3.253  0.4533  0.5446  1.3477
11123WAT    EPW45200   2.978   1.197   3.219  0.6156 -0.5635 -0.6663
11124WAT      O45201   2.530   0.880   3.661 -0.1158 -0.6193  0.1307
11124WAT     H145202   2.528   0.938   3.595  0.0981  0.3193  0.9330
11124WAT     H245203   2.605   0.838   3.649  0.1923 -0.0695  0.0812
11124WAT    EPW45204   2.540   0.882   3.649 -0.3351 -0.7396  0.6326
11125WAT      O45205   1.165   1.806   3.280  0.3282 -0.2854 -0.0044
11125WAT     H145206   1.230   1.751   3.296 -0.0602 -0.4280  1.1402
11125WAT     H245207   1.192   1.881   3.316  0.1160 -0.1801 -0.0614
11125WAT    EPW45208   1.179   1.809   3.287 -0.6756  0.5545 -0.7440
11126WAT      O45209   2.216   1.945   3.288 -0.3078  0.0330 -0.2749
11126WAT     H145210   2.290   1.978   3.321  0.5723 -0.0910 -2.0000
11126WAT     H245211   2.243   1.874   3.244 -1.3133  0.4713 -1.6711
11126WAT    EPW45212   2.231   1.939   3.286  1.0441  0.3851 -0.4330
11127WAT      O45213   3.190   3.495   6.209  0.0713 -0.2984  0.0753
11127WAT     H145214   3.131   3.446   6.251  0.9775 -0.8417  0.7592
11127WAT     H245215   3.203   3.452   6.134 -0.9437  0.2340 -0.4302
11127WAT    EPW45216   3.183   3.481   6.204  0.9053  0.2876  0.2183
11128WAT      O45217   4.166   1.701   3.530  0.4142 -0.8069 -0.6472
11128WAT     H145218   4.185   1.722   3.447 -0.7782 -1.2275 -1.0457
11128WAT     H245219   4.123   1.626   3.522 -0.2504 -0.5380  0.3079
11128WAT    EPW45220   4.163   1.693   3.517 -0.3659 -0.1662  0.1165
11129WAT      O45221   2.150   2.028   3.893  0.2549 -0.4803  0.6276
11129WAT     H145222   2.137   2.098   3.943 -0.4233 -0.3600  0.2982
11129WAT     H245223   2.206   1.980   3.940  0.0805 -0.1054  1.2423
11129WAT    EPW45224   2.156   2.031   3.908  0.6626  0.3470 -0.6423
11130WAT      O45225   2.200   3.752   4.109 -0.0161 -0.1988 -0.1603
11130WAT     H145226   2.168   3.672   4.096 -0.0768 -0.0632 -0.8604
11130WAT     H245227   2.184   3.794   4.034  1.0429  0.1285 -0.2247
11130WAT    EPW45228   2.193   3.747   4.096 -0.2199  0.2383 -0.0749
11131WAT      O45229   1.868   2.172   3.535 -0.1755 -0.1659 -0.7303
11131WAT     H145230   1.920   2.188   3.603 -0.0923 -1.0839 -0.5675
11131WAT     H245231   1.919   2.130   3.479 -0.8299 -1.4391 -0.4036
11131WAT    EPW45232   1.883   2.168   3.536  0.1152  0.8281  0.7430
11132WAT      O45233   3.261   1.227   3.562 -0.1268  0.5591  0.0566
11132WAT     H145234   3.191   1.278   3.564 -2.5121 -2.4469  0.6050
11132WAT     H245235   3.245   1.173   3.496  1.4254 -0.5378  0.5231
11132WAT    EPW45236   3.248   1.227   3.553  0.1463  0.3163  0.3643
11133WAT      O45237   0.665   1.356   1.685 -0.3912  0.0547  0.1087
11133WAT     H145238   0.620   1.355   1.759  0.4804 -0.2859  0.6371
11133WAT     H245239   0.656   1.438   1.657  0.6630  0.6420  1.4499
11133WAT    EPW45240   0.657   1.368   1.692  0.3277 -0.3607 -0.5864
11134WAT      O45241   2.885   2.364   3.741 -0.7194 -1.0717 -0.2572
11134WAT     H145242   2.966   2.353   3.711 -0.5104  0.8546 -0.5732
11134WAT     H245243   2.874   2.298   3.796  2.0606  0.0408  1.8643
11134WAT    EPW45244   2.895   2.353   3.745  0.2803  0.3632 -0.2319
11135WAT      O45245   1.844   1.815   6.473 -0.0414 -0.1782 -0.0816
11135WAT     H145246   1.926   1.841   6.486  0.1212 -1.0791  0.8182
11135WAT     H245247   1.802   1.839   6.545 -0.1577 -1.2498  0.2386
11135WAT    EPW45248   1.850   1.822   6.486  0.6180 -0.0442  0.4082
11136WAT      O45249   4.712   1.004   2.614  0.5877  0.0696 -0.1110
11136WAT     H145250   4.753   1.081   2.608  2.9748 -1.2026 -1.3511
11136WAT     H245251   4.742   0.971   2.689  0.2429 -0.0667 -0.0298
11136WAT    EPW45252   4.723   1.011   2.624 -0.7058 -0.6626 -0.3587
11137WAT      O45253   1.647   2.018   4.746 -0.1087  0.2300 -0.1211
11137WAT     H145254   1.565   2.013   4.717  0.3425  0.8746 -1.6164
11137WAT     H245255   1.647   2.090   4.795 -0.2141  0.8718 -1.0249
11137WAT    EPW45256   1.635   2.028   4.749  0.2587  0.0430  0.0334
11138WAT      O45257   2.516   2.942   4.878 -0.3593  0.0493 -0.0910
11138WAT     H145258   2.511   3.028   4.892 -1.3614 -0.1933  1.2320
11138WAT     H245259   2.437   2.921   4.849  0.0718 -0.3407 -1.0040
11138WAT    EPW45260   2.504   2.952   4.876  0.2934 -0.0263  0.4498
11139WAT      O45261   3.190   3.592   1.726  0.5150 -0.0317  0.1434
11139WAT     H145262   3.139   3.526   1.750  1.5842 -0.4500  1.3242
11139WAT     H245263   3.143   3.632   1.664 -0.4681 -1.4355 -0.0578
11139WAT    EPW45264   3.176   3.588   1.720 -0.2823 -0.0113 -0.6064
11140WAT      O45265   3.039   0.645   2.217 -0.1176  0.4707 -0.0591
11140WAT     H145266   3.040   0.561   2.194  1.1819 -0.1849  2.1890
11140WAT     H245267   2.958   0.657   2.248 -0.6692  0.4100 -1.3773
11140WAT    EPW45268   3.027   0.635   2.218  0.5289 -0.9779  0.3256
11141WAT      O45269   0.133   0.806   1.909 -0.1159  0.1832  0.1190
11141WAT     H145270   0.214   0.775   1.898  0.7901  1.9631  1.2573
11141WAT     H245271   0.094   0.744   1.956 -0.0295 -1.5118 -1.9108
11141WAT    EPW45272   0.139   0.792   1.914 -0.3153 -0.6613  0.1811
11142WAT      O45273   1.736   3.174   4.536 -0.4870 -0.0215 -0.0164
11142WAT     H145274   1.655   3.206   4.533 -1.0461 -1.4401 -2.3654
11142WAT     H245275   1.771   3.199   4.460  1.0742  0.0311  0.6899
11142WAT    EPW45276   1.729   3.182   4.524  0.1557 -0.2615  1.1069
11143WAT      O45277   2.686   1.190   2.782 -0.1965  0.1354  0.2416
11143WAT     H145278   2.610   1.153   2.803 -0.0747 -0.1173  0.2503
11143WAT     H245279   2.673   1.275   2.797 -0.8123  0.2283 -0.7542
11143WAT    EPW45280   2.673   1.197   2.788 -0.3871  0.2903 -0.2716
11144WAT      O45281   3.019   3.413   3.685 -0.0640 -0.2016 -0.4426
11144WAT     H145282   3.080   3.474   3.677 -1.4270  1.5997  1.7561
11144WAT     H245283   2.945   3.459   3.696 -1.4673 -2.2618 -0.6859
11144WAT    EPW45284   3.017   3.429   3.685 -0.3932 -0.2887 -0.3882
11145WAT      O45285   1.356   0.871   2.798  0.1992 -0.2386 -0.0310
11145WAT     H145286   1.354   0.873   2.885  0.4298 -0.8489 -0.0080
11145WAT     H245287   1.303   0.805   2.778  1.2553 -1.0251 -0.2944
11145WAT    EPW45288   1.348   0.861   2.808  0.0829 -0.1522 -0.3189
11146WAT      O45289   3.206   3.297   4.274  0.2623 -0.0623  0.0791
11146WAT     H145290   3.291   3.316   4.277  0.4352 -0.4234 -1.5135
11146WAT     H245291   3.205   3.220   4.232 -0.7867 -0.6833  1.1816
11146WAT    EPW45292   3.219   3.288   4.268 -0.5553  0.4144 -0.4348
11147WAT      O45293   2.374   0.333   2.418  0.3908  0.4375 -0.7797
11147WAT     H145294   2.362   0.274   2.482 -1.9877  1.4052 -0.2159
11147WAT     H245295   2.365   0.286   2.346 -1.5551  0.0210 -0.3377
11147WAT    EPW45296   2.371   0.317   2.417 -0.2721 -0.8584 -0.3911
11148WAT      O45297   4.823   1.098   3.314  0.1876 -0.3647  0.2891
11148WAT     H145298   4.849   1.071   3.393  0.4325 -0.6629  0.1114
11148WAT     H245299   4.897   1.102   3.269  0.0529 -0.1419  0.0901
11148WAT    EPW45300   4.838   1.094   3.319  0.1275 -0.8579 -0.2187
11149WAT      O45301   2.125   3.339   4.842 -0.6088 -0.2658  0.2013
11149WAT     H145302   2.088   3.381   4.909  0.7993 -2.7544  2.7713
11149WAT     H245303   2.058   3.294   4.808 -1.1683  0.2012  0.6454
11149WAT    EPW45304   2.109   3.338   4.847 -0.0542  0.1982 -0.5581
11150WAT      O45305   2.339   1.173   3.699  0.3441  0.1573  0.0332
11150WAT     H145306   2.305   1.254   3.702  1.9780  0.8883  0.2198
11150WAT     H245307   2.275   1.122   3.728 -0.4415  1.5088  0.7567
11150WAT    EPW45308   2.325   1.178   3.704  0.6247  0.1828 -0.1454
11151WAT      O45309   1.833   3.085   2.877 -0.0355  0.4711 -0.2474
11151WAT     H145310   1.748   3.079   2.897 -0.2982  1.6234 -0.9299
11151WAT     H245311   1.873   3.064   2.952 -0.8827 -0.8959 -0.1357
11151WAT    EPW45312   1.826   3.081   2.891 -0.2233  0.5434  0.0641
11152WAT      O45313   3.204   1.161   3.824  0.3574  0.3777 -0.5195
11152WAT     H145314   3.241   1.171   3.746  1.1623  0.7489 -0.0988
11152WAT     H245315   3.246   1.093   3.858  0.8082  0.9210  0.0393
11152WAT    EPW45316   3.215   1.152   3.817  0.8275  0.0835 -0.1671
11153WAT      O45317   2.694   2.012   4.185  0.1117 -0.3043  0.2257
11153WAT     H145318   2.736   1.982   4.114 -2.4541 -0.8083 -1.1880
11153WAT     H245319   2.683   1.941   4.234 -1.6862 -0.8256 -0.8487
11153WAT    EPW45320   2.699   1.997   4.182  0.6376  0.5230 -0.7430
11154WAT      O45321   3.072   2.675   4.810 -0.5134 -0.1005  0.0469
11154WAT     H145322   3.127   2.613   4.837 -1.3212 -0.1299  1.7440
11154WAT     H245323   3.008   2.629   4.771 -0.6206 -0.2730  0.4181
11154WAT    EPW45324   3.071   2.659   4.808  0.4118 -0.7921  0.1359
11155WAT      O45325   2.440   1.056   2.782 -0.2429 -0.4703 -0.1315
11155WAT     H145326   2.450   0.970   2.790 -3.6550 -1.0000 -0.2647
11155WAT     H245327   2.385   1.065   2.715 -1.8490  1.5887  1.3164
11155WAT    EPW45328   2.434   1.045   2.773 -0.0264  0.3881 -0.3375
11156WAT      O45329   1.749   2.970   4.860 -0.9931 -0.3681  0.0212
11156WAT     H145330   1.792   2.899   4.886  0.6892  0.6453  0.1217
11156WAT     H245331   1.667   2.941   4.849 -0.3286 -2.3628 -0.1464
11156WAT    EPW45332   1.743   2.955   4.862 -0.1557  0.1771 -0.2401
11157WAT      O45333   3.607   2.088   3.467 -0.1358 -0.2928  0.8144
11157WAT     H145334   3.557   2.040   3.519 -0.8944 -0.5697 -0.1250
11157WAT     H245335   3.651   2.139   3.521 -1.7608  0.2581  1.6761
11157WAT    EPW45336   3.606   2.088   3.482  0.5899 -0.3608 -0.5939
11158WAT      O45337   2.005   8.035   3.606  0.6621 -0.2072 -0.1843
11158WAT     H145338   2.030   8.119   3.602  1.1322 -0.3729 -1.8766
11158WAT     H245339   2.080   7.992   3.615  0.5397 -0.4833 -0.4690
11158WAT    EPW45340   2.020   8.041   3.606  0.4360  0.2274  0.2212
11159WAT      O45341   3.983   1.931   3.804 -0.2510 -0.5579  0.3171
11159WAT     H145342   3.964   1.918   3.719 -0.6688 -0.4886  0.3958
11159WAT     H245343   3.992   1.851   3.835  1.6022 -0.5833 -0.1468
11159WAT    EPW45344   3.981   1.918   3.796 -0.2929 -0.3453  0.7728
11160WAT      O45345   1.357   2.864   3.338 -0.0662 -0.7155 -0.0094
11160WAT     H145346   1.426   2.910   3.311 -0.1800 -2.0003 -2.8066
11160WAT     H245347   1.317   2.918   3.394  0.1931  2.3371 -2.4771
11160WAT    EPW45348   1.361   2.879   3.342  0.6308  0.1617 -0.0786
11161WAT      O45349   2.371   2.457   4.490 -0.4432  0.6476  0.0797
11161WAT     H145350   2.331   2.510   4.547 -0.8373  1.3228 -0.7943
11161WAT     H245351   2.456   2.471   4.505 -0.5367  0.5833  0.6992
11161WAT    EPW45352   2.378   2.467   4.501 -0.2077  0.4743 -0.3853
11162WAT      O45353   3.479   0.977   2.460 -0.1584  0.1503 -0.5239
11162WAT     H145354   3.444   0.910   2.504 -1.1300  0.5061 -0.7344
11162WAT     H245355   3.561   0.981   2.491 -0.3022 -0.6828  0.0001
11162WAT    EPW45356   3.486   0.968   2.471  0.4824  0.3136  0.3380
11163WAT      O45357   1.442   2.843   2.784  0.4630  0.0619 -0.0006
11163WAT     H145358   1.411   2.873   2.708 -1.1665 -0.0955  0.5565
11163WAT     H245359   1.377   2.857   2.839  1.3912 -0.3885  1.2479
11163WAT    EPW45360   1.428   2.850   2.781  0.9827  0.0322 -0.5539
11164WAT      O45361   1.791   0.417   1.055 -0.0077  0.6539  0.3608
11164WAT     H145362   1.784   0.330   1.062 -0.5523  0.5780 -0.7659
11164WAT     H245363   1.741   0.447   1.120 -0.3863  0.1097  0.3335
11164WAT    EPW45364   1.782   0.409   1.066  0.7236 -0.2376  0.2155
11165WAT      O45365   1.275   3.141   2.600 -0.4816 -0.1477  0.1585
11165WAT     H145366   1.191   3.120   2.612 -1.1395  1.0300 -1.9391
11165WAT     H245367   1.293   3.194   2.667 -1.7893  0.5567 -0.0262
11165WAT    EPW45368   1.265   3.146   2.612  0.6689  0.3011  0.0246
11166WAT      O45369   1.646   0.882   4.117  0.2804 -0.0393 -0.1904
11166WAT     H145370   1.620   0.864   4.198 -0.1804  3.1374  0.5049
11166WAT     H245371   1.572   0.897   4.074  0.5870  0.3307 -0.6060
11166WAT    EPW45372   1.631   0.882   4.123  0.3469  0.1410  0.3839
11167WAT      O45373   4.375   1.322   4.454  0.3418 -0.1662 -0.2969
11167WAT     H145374   4.378   1.335   4.540 -1.4098  0.2276 -0.2556
11167WAT     H245375   4.444   1.367   4.424 -0.5580  1.9954  0.6625
11167WAT    EPW45376   4.386   1.331   4.462  0.1956 -0.8278 -0.5023
11168WAT      O45377   2.162   2.236   4.053 -0.2645  0.0574  0.2428
11168WAT     H145378   2.194   2.317   4.066  1.1387 -0.2941 -0.8498
11168WAT     H245379   2.186   2.193   4.125 -0.2270  0.3860  0.4301
11168WAT    EPW45380   2.170   2.242   4.066  0.3370 -0.6080 -0.8255
11169WAT      O45381   2.184   1.267   2.872  0.1486 -0.0130 -0.2720
11169WAT     H145382   2.157   1.305   2.946  0.2519  1.0529 -0.7726
11169WAT     H245383   2.265   1.242   2.890  0.5551  1.1967 -0.3516
11169WAT    EPW45384   2.192   1.269   2.886 -0.1226 -0.8960  0.3834
11170WAT      O45385   2.297   2.170   4.505 -0.0030  0.2750  0.3728
11170WAT     H145386   2.319   2.251   4.484 -1.4974  0.4078 -0.8576
11170WAT     H245387   2.289   2.130   4.427 -1.7629 -0.3333  0.8262
11170WAT    EPW45388   2.299   2.176   4.490  0.4892  1.0219  0.2401
11171WAT      O45389   2.087   2.422   1.133 -0.0429  0.5611  0.1192
11171WAT     H145390   2.132   2.347   1.143 -1.7566 -0.7855 -1.5537
11171WAT     H245391   2.140   2.471   1.085  1.7210  1.0893  2.4240
11171WAT    EPW45392   2.102   2.418   1.128 -0.2585 -0.3246 -0.3029
11172WAT      O45393   2.151   2.736   4.768 -0.5482  0.2855 -0.1320
11172WAT     H145394   2.153   2.651   4.789  0.3804  0.5433  0.8960
11172WAT     H245395   2.198   2.740   4.694  0.5169  0.0784  0.5156
11172WAT    EPW45396   2.158   2.724   4.760 -0.5270  0.3993 -0.1848
11173WAT      O45397   1.623   2.213   2.412 -0.1637  0.7892 -0.2188
11173WAT     H145398   1.686   2.208   2.473 -0.0919 -1.3980 -0.4016
11173WAT     H245399   1.652   2.275   2.358  1.2185  0.7097  0.3772
11173WAT    EPW45400   1.636   2.222   2.413  0.5663 -0.0696 -0.3775
11174WAT      O45401   1.734   3.815   2.863  0.1791 -0.0743 -0.3717
11174WAT     H145402   1.751   3.730   2.856  0.8009 -0.0904  1.0523
11174WAT     H245403   1.807   3.849   2.896 -0.0419  1.0338 -0.9626
11174WAT    EPW45404   1.747   3.808   2.867  0.2094 -0.5020 -1.0673
11175WAT      O45405   1.127   2.692   2.051 -0.2863  0.1432  0.4592
11175WAT     H145406   1.198   2.641   2.052 -1.1860 -1.4863 -3.1009
11175WAT     H245407   1.123   2.719   1.968 -2.4472  2.3104  1.1673
11175WAT    EPW45408   1.137   2.688   2.039 -0.2493 -0.2182 -0.4538
11176WAT      O45409   1.934   1.729   5.179 -0.7008 -0.0059  0.6680
11176WAT     H145410   1.910   1.805   5.145  0.7251 -0.0474 -0.5620
11176WAT     H245411   1.979   1.751   5.250  0.0707  0.3528  0.0840
11176WAT    EPW45412   1.937   1.743   5.185 -0.8551 -0.1031  0.0022
11177WAT      O45413   1.189   2.065   3.093 -0.1067 -0.0237 -0.6160
11177WAT     H145414   1.231   1.999   3.056  0.6888  0.5388 -0.7323
11177WAT     H245415   1.213   2.060   3.177  1.2468  1.0507 -0.8987
11177WAT    EPW45416   1.199   2.055   3.100  0.3404 -0.0377  0.0531
11178WAT      O45417   2.816   2.156   3.908  0.7051 -0.2775  0.4707
11178WAT     H145418   2.776   2.097   3.857  0.5772  0.1163  0.1148
11178WAT     H245419   2.880   2.109   3.945 -0.5711 -1.1324  1.7206
11178WAT    EPW45420   2.820   2.140   3.906 -0.5432 -0.1800  0.0715
11179WAT      O45421   2.050   0.985   4.061 -0.4196  0.3994  0.1697
11179WAT     H145422   2.114   0.925   4.061  0.5556  1.3974 -1.0659
11179WAT     H245423   2.092   1.061   4.053 -1.7786  0.9892 -3.4451
11179WAT    EPW45424   2.066   0.987   4.060 -0.0498 -0.1078  0.5153
11180WAT      O45425   2.476   2.787   3.303  0.2327 -0.4577  0.5035
11180WAT     H145426   2.439   2.755   3.230 -0.1522 -1.0417  0.9496
11180WAT     H245427   2.489   2.716   3.352 -0.3444  0.0263  1.3872
11180WAT    EPW45428   2.473   2.772   3.299  0.1818 -0.1342  0.0818
11181WAT      O45429   2.889   3.674   3.469 -0.1864  0.7680 -0.4077
11181WAT     H145430   2.920   3.739   3.518 -1.0630  0.4494  0.5923
11181WAT     H245431   2.960   3.645   3.427  1.0231 -0.1741  2.0944
11181WAT    EPW45432   2.904   3.679   3.470 -0.2527  0.8366  0.3527
11182WAT      O45433   3.698   2.039   4.462 -0.5685 -0.1738  0.3920
11182WAT     H145434   3.632   2.076   4.505 -0.7638 -2.8299  2.7494
11182WAT     H245435   3.659   1.988   4.403 -0.7445 -1.5107  1.5842
11182WAT    EPW45436   3.683   2.037   4.460  0.1588 -0.1405  0.2925
11183WAT      O45437   2.258   2.477   4.191  0.4111  0.2554  0.2455
11183WAT     H145438   2.205   2.545   4.204 -0.0511  0.0860 -0.6801
11183WAT     H245439   2.309   2.478   4.262 -1.6353 -0.3453  1.8262
11183WAT    EPW45440   2.258   2.488   4.204  0.7717  0.0265 -0.4925
11184WAT      O45441   3.629   1.948   4.792 -0.1773 -0.2701  0.1110
11184WAT     H145442   3.651   2.027   4.761  0.2547 -0.9186 -1.3503
11184WAT     H245443   3.548   1.936   4.762 -0.1496 -0.4715  0.1125
11184WAT    EPW45444   3.620   1.958   4.783  0.0652 -0.0561 -0.3428
11185WAT      O45445   1.957   1.087   2.576  0.4083 -0.9363  0.2315
11185WAT     H145446   1.911   1.076   2.649  0.4712 -0.4913  0.3428
11185WAT     H245447   1.903   1.060   2.513 -0.5987  0.9595  0.2201
11185WAT    EPW45448   1.943   1.081   2.577  0.5757  0.4485  0.2853
11186WAT      O45449   4.262   2.801   7.109 -0.0053  0.2939 -0.2553
11186WAT     H145450   4.200   2.747   7.081  0.9349 -0.0711 -1.6974
11186WAT     H245451   4.251   2.873   7.061  1.0637 -0.0040 -0.9789
11186WAT    EPW45452   4.251   2.804   7.098 -0.4647 -0.2132 -0.5173
11187WAT      O45453   2.423   1.908   4.074  0.7721 -0.1893  0.0942
11187WAT     H145454   2.494   1.860   4.086  1.5424  1.0813  0.7844
11187WAT     H245455   2.441   1.953   4.001  0.9149  0.5177  0.5550
11187WAT    EPW45456   2.436   1.907   4.065 -0.3837  0.6120  0.1028
11188WAT      O45457   2.879   2.606   5.576 -0.4553  0.1838 -0.7195
11188WAT     H145458   2.911   2.607   5.657  1.2270  1.0677 -1.3218
11188WAT     H245459   2.816   2.666   5.578 -0.2307  0.4055 -0.1223
11188WAT    EPW45460   2.874   2.615   5.588  0.1298 -0.2193 -0.6827
11189WAT      O45461   2.079   0.430   2.930 -0.4144  0.3873 -0.6475
11189WAT     H145462   2.117   0.352   2.933 -0.0994  0.2899 -3.9131
11189WAT     H245463   2.137   0.482   2.969  0.0671 -0.7527  0.2065
11189WAT    EPW45464   2.093   0.426   2.936 -1.0648  0.0139  0.0521
11190WAT      O45465   1.723   1.881   2.121  0.4417  0.2005  0.1678
11190WAT     H145466   1.776   1.895   2.188 -0.1574 -0.2867  0.7581
11190WAT     H245467   1.656   1.935   2.136  0.6629  0.6690 -0.4656
11190WAT    EPW45468   1.721   1.891   2.133  0.6226 -0.8478  0.0914
11191WAT      O45469   2.759   2.516   3.213  0.1512  0.0176  0.5696
11191WAT     H145470   2.795   2.594   3.198  0.4773 -0.1481  0.4729
11191WAT     H245471   2.820   2.475   3.260  0.7601 -0.8193 -0.8920
11191WAT    EPW45472   2.774   2.522   3.218  0.0427  1.0973 -0.1064
11192WAT      O45473   3.099   3.075   4.596  0.0683  0.3602 -0.6170
11192WAT     H145474   3.032   3.079   4.540 -1.0537  0.5769  0.6888
11192WAT     H245475   3.108   2.990   4.610  0.2704  0.3122 -1.0155
11192WAT    EPW45476   3.090   3.063   4.590  0.1344  0.6392 -0.3932
11193WAT      O45477   3.509   2.299   4.222  1.1207 -0.3302  0.1942
11193WAT     H145478   3.562   2.345   4.274  1.2646 -0.0502 -0.1938
11193WAT     H245479   3.562   2.274   4.156  0.6126  0.5956 -0.5865
11193WAT    EPW45480   3.525   2.302   4.220 -0.0104 -0.7563  0.1318
11194WAT      O45481   2.960   2.408   3.409 -0.5783 -0.4939  0.1007
11194WAT     H145482   3.006   2.379   3.477 -0.9011  2.0853  1.5342
11194WAT     H245483   3.012   2.469   3.374 -1.4614 -0.0225 -0.4143
11194WAT    EPW45484   2.974   2.413   3.414 -0.1240  0.4868  0.3229
11195WAT      O45485   7.747   2.020   2.420 -0.1931 -0.3147  0.0147
11195WAT     H145486   7.805   1.971   2.379 -0.7133 -1.3665  0.4942
11195WAT     H245487   7.703   1.963   2.469 -0.8996  0.6131  0.4944
11195WAT    EPW45488   7.749   2.004   2.421 -0.0265 -0.4361  0.3076
11196WAT      O45489   1.911   3.129   3.142 -0.1825  0.1291 -0.3845
11196WAT     H145490   1.989   3.162   3.162 -0.4235  0.0588  0.7224
11196WAT     H245491   1.901   3.062   3.197 -2.4742  2.1977  1.9681
11196WAT    EPW45492   1.921   3.124   3.153 -0.6601 -0.3477 -0.2257
11197WAT      O45493   3.053   1.855   3.792  0.7625  0.3617  0.5787
11197WAT     H145494   3.098   1.895   3.729  0.3241 -0.9896 -0.6620
11197WAT     H245495   3.115   1.821   3.843  1.1614 -0.3853 -0.3797
11197WAT    EPW45496   3.069   1.856   3.790 -0.8558 -1.4826 -0.5039
11198WAT      O45497   2.501   2.098   5.161  0.2196 -0.3719 -0.0537
11198WAT     H145498   2.494   2.183   5.180 -2.7806 -0.0985 -1.7778
11198WAT     H245499   2.482   2.059   5.236  1.7842  0.4004  0.8024
11198WAT    EPW45500   2.497   2.105   5.175  0.0287 -0.1292 -0.3705
11199WAT      O45501   3.064   0.218   4.007  0.5941 -0.1931 -0.0304
11199WAT     H145502   3.138   0.251   4.039  0.1161 -0.2498  1.1550
11199WAT     H245503   3.029   0.175   4.074 -0.9070  0.4954 -0.3317
11199WAT    EPW45504   3.070   0.217   4.021 -0.2634  0.2914 -0.1568
11200WAT      O45505   2.084   1.778   3.509  0.5864  0.3177 -0.1247
11200WAT     H145506   2.095   1.830   3.440  1.6123 -1.0164 -0.9887
11200WAT     H245507   2.165   1.754   3.531  0.1194 -1.3688 -0.1087
11200WAT    EPW45508   2.097   1.782   3.502 -0.4242 -1.2634  0.1570
11201WAT      O45509   2.231   1.072   2.590 -0.0133  0.5702  0.5074
11201WAT     H145510   2.252   1.134   2.532 -0.7534  0.4947  0.1412
11201WAT     H245511   2.144   1.078   2.595 -0.0063  0.1846  1.1769
11201WAT    EPW45512   2.221   1.082   2.582  0.2434 -0.0745 -0.8332
11202WAT      O45513   1.336   1.210   2.458 -0.2782  0.1618 -0.1494
11202WAT     H145514   1.339   1.296   2.445 -0.2313  0.1062 -0.5454
11202WAT     H245515   1.258   1.197   2.493 -0.4219  0.3293 -0.4010
11202WAT    EPW45516   1.325   1.221   2.461 -0.6361  0.1212  0.1542
11203WAT      O45517   3.524   1.335   1.736 -0.2979  0.7139 -0.2930
11203WAT     H145518   3.530   1.416   1.767 -0.0376  0.5608  0.0690
11203WAT     H245519   3.440   1.315   1.745 -0.0717  0.3456  1.1656
11203WAT    EPW45520   3.513   1.344   1.742  0.0201 -0.9062 -0.0288
11204WAT      O45521   1.800   3.026   5.148 -0.1382  0.7483 -0.2638
11204WAT     H145522   1.847   3.084   5.193  2.5107 -0.6543 -0.9783
11204WAT     H245523   1.776   3.070   5.077 -0.8518  1.8020  0.5950
11204WAT    EPW45524   1.804   3.041   5.144  0.2918  0.1533  0.1671
11205WAT      O45525   2.063   1.215   3.773 -0.5434 -0.6496  0.2306
11205WAT     H145526   2.055   1.234   3.688 -0.1156  0.1166  0.3470
11205WAT     H245527   2.064   1.128   3.775  2.6069 -0.7532 -0.8893
11205WAT    EPW45528   2.062   1.205   3.761  0.1675 -0.3965 -0.0844
11206WAT      O45529   3.387   2.052   3.216 -0.1481  0.2683  0.2005
11206WAT     H145530   3.336   2.110   3.175 -1.5662 -0.9855  0.1052
11206WAT     H245531   3.364   2.060   3.300 -0.1161  0.0808  0.2270
11206WAT    EPW45532   3.376   2.061   3.222  0.1335  0.2448  0.1200
11207WAT      O45533   2.175   2.360   3.635  0.5106 -0.2798 -0.0341
11207WAT     H145534   2.153   2.349   3.551 -0.2865  0.4067  0.0670
11207WAT     H245535   2.202   2.443   3.638 -1.5510  0.4268  0.7821
11207WAT    EPW45536   2.175   2.371   3.623 -0.3626 -0.1339  0.4034
11208WAT      O45537   2.070   2.650   4.313  0.3356 -0.0635 -0.1275
11208WAT     H145538   2.053   2.614   4.390 -0.4985  0.0300 -0.2574
11208WAT     H245539   2.025   2.724   4.314  1.6409  0.7534 -0.0629
11208WAT    EPW45540   2.060   2.655   4.324 -0.6462  0.0784 -0.7156
11209WAT      O45541   0.973   0.507   1.998 -0.3380  0.4482  0.1708
11209WAT     H145542   1.006   0.576   2.040 -0.4050  1.1251 -0.8536
11209WAT     H245543   0.904   0.484   2.047 -2.2692  3.0999 -1.0864
11209WAT    EPW45544   0.968   0.514   2.012  0.0089 -0.0132 -0.1942
11210WAT      O45545   1.988   2.291   3.831 -0.4236  0.4615  0.4685
11210WAT     H145546   2.039   2.274   3.900 -2.8530 -1.4679  1.9820
11210WAT     H245547   2.044   2.321   3.771  2.2151 -0.1247  2.4367
11210WAT    EPW45548   2.004   2.293   3.833 -0.0486  0.8210 -0.4948
11211WAT      O45549   3.114   2.785   4.560  0.2175  0.1890  0.1033
11211WAT     H145550   3.043   2.762   4.515  0.4684 -1.8260  0.6270
11211WAT     H245551   3.093   2.766   4.643  0.5457  1.8027  0.5941
11211WAT    EPW45552   3.100   2.779   4.566  0.1956 -0.5457 -0.6628
11212WAT      O45553   4.048   1.214   3.246  0.2317  0.4338  0.0753
11212WAT     H145554   3.982   1.161   3.225  1.5116 -1.1161 -0.2462
11212WAT     H245555   4.086   1.174   3.314  1.9995  0.2008 -0.9771
11212WAT    EPW45556   4.044   1.201   3.253  0.3365 -0.7869  0.0102
11213WAT      O45557   2.165   1.741   5.011 -0.0882  0.1023 -0.2537
11213WAT     H145558   2.196   1.819   5.035 -0.8099  0.5564 -0.7542
11213WAT     H245559   2.102   1.726   5.070  2.3534 -1.8126  2.1213
11213WAT    EPW45560   2.160   1.751   5.024 -0.1853  0.2685 -0.6022
11214WAT      O45561   4.137   2.453   4.177  0.6800  0.8545  0.0311
11214WAT     H145562   4.183   2.498   4.118  3.7262 -2.7208 -0.7049
11214WAT     H245563   4.069   2.423   4.131  0.9364  1.2271 -0.6071
11214WAT    EPW45564   4.133   2.455   4.161 -0.5825  0.0880 -0.5396
11215WAT      O45565   2.021   0.728   2.839  0.6161  0.2354 -0.4535
11215WAT     H145566   2.028   0.815   2.841  0.6075  0.2731  2.8623
11215WAT     H245567   2.059   0.706   2.763 -0.1243  3.1315 -1.7714
11215WAT    EPW45568   2.028   0.737   2.828  0.5595  0.5161  0.9463
11216WAT      O45569   2.901   2.537   4.679 -0.3490 -0.1974  0.1005
11216WAT     H145570   2.895   2.462   4.634 -1.3200  0.1810 -0.4237
11216WAT     H245571   2.827   2.539   4.725 -1.8030  1.8286 -2.1274
11216WAT    EPW45572   2.889   2.526   4.679  0.1354  0.1606 -0.4551
11217WAT      O45573   7.916   2.394   3.892 -0.1904 -0.0880 -0.7215
11217WAT     H145574   7.903   2.474   3.926 -0.2545 -0.2687 -0.3125
11217WAT     H245575   7.872   2.342   3.946  2.4923 -0.7798  0.9848
11217WAT    EPW45576   7.908   2.398   3.905  0.4576 -0.0519  0.1898
11218WAT      O45577   3.546   2.206   5.257 -0.1487 -0.3151 -0.1713
11218WAT     H145578   3.579   2.166   5.187 -1.3496  0.3472 -1.1733
11218WAT     H245579   3.476   2.157   5.277  0.5827 -0.9067  1.0407
11218WAT    EPW45580   3.540   2.193   5.250  0.8666 -0.5510  0.4974
11219WAT      O45581   4.202   3.881   1.937  0.6162  0.6702 -0.1913
11219WAT     H145582   4.135   3.936   1.929  0.8641  0.8950 -0.8119
11219WAT     H245583   4.163   3.803   1.945  0.2471  0.9887  1.3973
11219WAT    EPW45584   4.186   3.877   1.937 -0.0996 -1.7003 -0.2007
11220WAT      O45585   3.554   7.920   5.413  0.1544 -0.2563 -0.3104
11220WAT     H145586   3.509   7.972   5.359 -0.8750  0.7096  1.3739
11220WAT     H245587   3.495   7.896   5.473  1.2054 -1.3838  0.3391
11220WAT    EPW45588   3.539   7.924   5.414 -0.3585 -0.4883 -0.5438
11221WAT      O45589   4.147   0.934   5.464 -0.2496 -0.2061 -0.0359
11221WAT     H145590   4.116   0.927   5.382  0.7815 -0.4898 -0.4158
11221WAT     H245591   4.232   0.952   5.452 -0.1343 -0.0198  0.9783
11221WAT    EPW45592   4.155   0.936   5.450 -0.1674 -0.3800 -0.3157
11222WAT      O45593   1.734   2.380   5.818  0.3008  0.3584  0.5880
11222WAT     H145594   1.820   2.396   5.810  0.4199  1.5718  3.2384
11222WAT     H245595   1.697   2.440   5.767  0.9910 -0.3077 -0.7424
11222WAT    EPW45596   1.742   2.391   5.809  0.9615 -0.4717  0.8167
11223WAT      O45597   3.194   1.746   3.988 -0.2022 -0.2946  0.2569
11223WAT     H145598   3.151   1.686   4.035 -0.4520 -1.2200 -1.1103
11223WAT     H245599   3.277   1.717   3.991 -0.0696  0.1240  0.8221
11223WAT    EPW45600   3.200   1.733   3.995  0.4946 -0.7186 -0.1789
11224WAT      O45601   2.550   3.280   3.335  0.1517  0.5219 -0.0282
11224WAT     H145602   2.567   3.198   3.313  0.1427  0.7784 -1.0249
11224WAT     H245603   2.580   3.286   3.417  1.3486 -0.1065 -0.4037
11224WAT    EPW45604   2.557   3.269   3.344 -0.1651 -0.9516 -0.3619
11225WAT      O45605   1.766   2.340   4.695  0.1399  0.2915  0.0453
11225WAT     H145606   1.742   2.330   4.778  0.2136  1.4086  0.2155
11225WAT     H245607   1.853   2.333   4.697  0.3490  2.3598  0.4227
11225WAT    EPW45608   1.775   2.338   4.707  0.2893  0.2181 -0.0395
11226WAT      O45609   3.682   1.542   4.289  0.3104 -0.2395 -0.0685
11226WAT     H145610   3.659   1.510   4.367 -1.7619 -0.5413 -0.7436
11226WAT     H245611   3.743   1.487   4.261  0.2550 -0.7904  0.8727
11226WAT    EPW45612   3.687   1.529   4.296  0.2997 -0.0166  0.3443
11227WAT      O45613   3.723   1.725   3.145  0.2781  0.0910 -0.2704
11227WAT     H145614   3.724   1.736   3.058 -0.3283  0.0856 -0.2882
11227WAT     H245615   3.737   1.640   3.155  1.2728  0.2422 -0.3151
11227WAT    EPW45616   3.725   1.714   3.133 -0.9282 -0.0535 -0.0629
11228WAT      O45617   2.075   1.828   4.244 -0.7164  0.2267 -0.3310
11228WAT     H145618   2.113   1.787   4.177 -1.0648 -1.3635  0.4193
11228WAT     H245619   2.005   1.866   4.207  0.5197  1.6263 -1.3564
11228WAT    EPW45620   2.070   1.828   4.228 -0.6446 -0.6006  0.0040
11229WAT      O45621   2.979   3.039   2.812  0.2234 -0.3277  0.0942
11229WAT     H145622   3.004   3.012   2.733 -0.1700  1.2496 -0.6074
11229WAT     H245623   3.021   3.115   2.823 -1.6036  0.7259  0.2936
11229WAT    EPW45624   2.989   3.046   2.802 -0.1004  0.6052 -0.3796
11230WAT      O45625   4.207   7.878   3.813  0.4579  0.2118  0.2448
11230WAT     H145626   4.156   7.855   3.881  0.0742  0.7692  0.1484
11230WAT     H245627   4.195   7.964   3.807 -1.6456 -0.1434 -2.2206
11230WAT    EPW45628   4.198   7.887   3.822 -0.4258  0.0624 -0.3055
11231WAT      O45629   2.745   1.725   3.346 -0.5953  0.0120  0.3532
11231WAT     H145630   2.828   1.751   3.347 -0.4136 -0.5327  0.0566
11231WAT     H245631   2.702   1.793   3.313 -0.3227  0.4469  0.8813
11231WAT    EPW45632   2.751   1.739   3.342  0.4750 -0.0958 -1.3936
11232WAT      O45633   2.600   2.090   3.737  0.3601  0.4591 -0.2745
11232WAT     H145634   2.625   2.088   3.653  1.8714 -0.0851  0.1753
11232WAT     H245635   2.524   2.047   3.736  0.0568  0.9709 -1.4468
11232WAT    EPW45636   2.592   2.084   3.724 -0.4111 -0.8831 -0.2590
11233WAT      O45637   2.383   2.122   4.772 -0.1249 -0.0541  0.7180
11233WAT     H145638   2.439   2.056   4.784 -0.1531 -0.2096  0.0325
11233WAT     H245639   2.370   2.123   4.686  0.6710  1.5121  0.5907
11233WAT    EPW45640   2.389   2.112   4.761 -0.1810  0.4846  0.1480
11234WAT      O45641   1.866   1.514   5.012  0.1126 -0.8414 -0.0808
11234WAT     H145642   1.788   1.506   5.051 -0.1928  0.5184 -0.3576
11234WAT     H245643   1.900   1.585   5.049  1.2618 -1.4531  0.0713
11234WAT    EPW45644   1.860   1.523   5.023  0.7904 -0.2023  0.2414
11235WAT      O45645   1.591   1.234   3.524  0.4253 -0.6506  0.3707
11235WAT     H145646   1.629   1.174   3.574  0.1075 -0.9273  0.2821
11235WAT     H245647   1.650   1.251   3.463  1.0948  0.1936  1.2299
11235WAT    EPW45648   1.605   1.228   3.522  0.3752  0.2208  0.2914
11236WAT      O45649   2.818   2.155   2.684 -0.5242 -0.0252  0.0064
11236WAT     H145650   2.742   2.114   2.700  0.1141 -0.7460  1.4287
11236WAT     H245651   2.839   2.128   2.604 -0.7393 -1.5816  0.4287
11236WAT    EPW45652   2.810   2.145   2.675  0.8869  1.4281  0.2311
11237WAT      O45653   2.811   1.853   3.968 -0.3846  0.0127 -0.0387
11237WAT     H145654   2.796   1.839   3.884  0.3281  1.0364 -0.3700
11237WAT     H245655   2.804   1.774   4.005  0.5204 -0.6701 -1.2569
11237WAT    EPW45656   2.808   1.839   3.961  0.8239 -0.4920  0.7514
11238WAT      O45657   3.095   1.130   4.339 -0.7926 -0.1700  1.0255
11238WAT     H145658   3.159   1.091   4.295 -0.5529 -0.7933  1.9006
11238WAT     H245659   3.119   1.214   4.341 -0.9708 -0.0629 -0.2874
11238WAT    EPW45660   3.108   1.137   4.333 -0.1119 -0.7071  0.6384
11239WAT      O45661   1.921   2.574   3.658 -0.1423  0.3286  0.1934
11239WAT     H145662   1.875   2.507   3.624 -0.3055 -0.5130  1.9727
11239WAT     H245663   2.002   2.558   3.630 -0.6648  1.2029 -2.0322
11239WAT    EPW45664   1.926   2.561   3.649 -0.5424  0.8897  0.0648
11240WAT      O45665   2.560   4.004   3.950 -0.0109  0.2759  0.0971
11240WAT     H145666   2.622   3.944   3.967 -0.8308 -1.1966 -1.7618
11240WAT     H245667   2.561   4.010   3.863 -1.9538  0.7833  0.0667
11240WAT    EPW45668   2.569   3.996   3.940 -0.6989  0.6136 -0.3173
11241WAT      O45669   3.895   2.063   4.089  0.1444  0.4066 -0.0961
11241WAT     H145670   3.980   2.050   4.076 -0.1044 -0.6789 -0.7821
11241WAT     H245671   3.893   2.124   4.152  1.4211 -0.5587  0.9338
11241WAT    EPW45672   3.907   2.070   4.097 -0.2323 -0.0908  0.6113
11242WAT      O45673   3.278   2.120   3.865  0.3336  0.6641 -0.0009
11242WAT     H145674   3.287   2.206   3.853 -2.4323  1.1988  1.0358
11242WAT     H245675   3.282   2.088   3.784  0.1645  1.9170 -0.5327
11242WAT    EPW45676   3.280   2.128   3.851  0.5906  0.4538 -0.0761
11243WAT      O45677   2.641   0.598   3.335 -0.2704  0.1244 -0.1177
11243WAT     H145678   2.589   0.536   3.369  0.9371 -1.7675 -1.4871
11243WAT     H245679   2.720   0.577   3.365  0.4113 -0.0098 -1.8544
11243WAT    EPW45680   2.645   0.585   3.344 -0.8094  0.0386  0.3603
11244WAT      O45681   3.936   1.855   3.508 -0.6452  0.2709  0.2462
11244WAT     H145682   4.004   1.803   3.518 -0.5437  0.5357  0.9965
11244WAT     H245683   3.868   1.800   3.501 -0.1604 -0.1160 -2.9166
11244WAT    EPW45684   3.936   1.840   3.508  0.3536 -0.3677  0.0411
11245WAT      O45685   3.279   2.495   4.856 -0.0360  0.0935 -0.3596
11245WAT     H145686   3.324   2.525   4.924 -0.7331  0.4097 -0.0313
11245WAT     H245687   3.326   2.520   4.787 -1.2151  3.1469 -0.1915
11245WAT    EPW45688   3.292   2.503   4.856 -0.4346 -0.2071  0.0748
11246WAT      O45689   2.918   2.512   3.975  0.3686 -0.5846  0.1633
11246WAT     H145690   2.901   2.473   3.899  1.2646 -0.4515 -0.1149
11246WAT     H245691   2.994   2.552   3.961  0.0048  0.3606  0.7920
11246WAT    EPW45692   2.926   2.512   3.962  0.0385  0.1500  0.2037
11247WAT      O45693   1.655   2.236   6.060 -0.2811 -0.6825 -0.2273
11247WAT     H145694   1.672   2.277   5.985 -0.4146 -1.3637 -0.6358
11247WAT     H245695   1.660   2.152   6.039 -1.8948 -0.9110  0.1348
11247WAT    EPW45696   1.658   2.230   6.046  0.3150 -0.7328 -0.7725
11248WAT      O45697   1.176   0.891   3.865  0.1509 -0.0312 -0.4471
11248WAT     H145698   1.227   0.832   3.905 -1.2010 -0.0512  1.3454
11248WAT     H245699   1.205   0.967   3.895  0.3441  0.0713 -0.8937
11248WAT    EPW45700   1.188   0.893   3.875  0.6253  0.7382 -0.0856
11249WAT      O45701   2.154   3.092   3.506 -0.1332 -0.2809  0.4488
11249WAT     H145702   2.134   3.045   3.577  0.9745 -3.0995 -0.9677
11249WAT     H245703   2.197   3.161   3.538 -0.9410 -0.6839  2.5586
11249WAT    EPW45704   2.157   3.095   3.521 -0.6926  0.6341 -0.2449
11250WAT      O45705   2.564   2.412   4.813 -0.4130  0.2185  0.2852
11250WAT     H145706   2.627   2.370   4.855 -0.0470  0.4146 -0.0687
11250WAT     H245707   2.507   2.349   4.792  0.1744 -0.1168 -0.3256
11250WAT    EPW45708   2.565   2.397   4.816  0.1529 -1.0859  0.2718
11251WAT      O45709   1.922   1.577   3.439  0.0011 -0.4491  0.0031
11251WAT     H145710   1.933   1.514   3.499 -1.8025  0.5783  1.5203
11251WAT     H245711   1.959   1.647   3.475  0.4219 -0.1940 -0.8886
11251WAT    EPW45712   1.929   1.578   3.453 -0.4109 -0.3893 -1.1861
11252WAT      O45713   2.803   2.732   5.153 -0.2302 -0.3768 -0.1801
11252WAT     H145714   2.828   2.804   5.196 -0.8506 -0.6424  0.6609
11252WAT     H245715   2.719   2.725   5.173 -0.3065 -1.0319 -0.7046
11252WAT    EPW45716   2.794   2.742   5.162 -0.5569 -0.2728 -0.2201
11253WAT      O45717   2.095   2.186   4.889 -0.4968  0.1279 -0.1211
11253WAT     H145718   2.178   2.160   4.892 -0.2115  1.0405  0.9055
11253WAT     H245719   2.058   2.143   4.955 -1.0331 -0.8431 -1.0380
11253WAT    EPW45720   2.102   2.176   4.899 -0.2512 -0.2643  0.2699
11254WAT      O45721   1.424   3.880   5.214  0.0780 -0.0240  0.0945
11254WAT     H145722   1.442   3.957   5.176  1.2433 -0.5990 -0.5696
11254WAT     H245723   1.360   3.848   5.166  0.5505 -0.0904 -0.5021
11254WAT    EPW45724   1.417   3.887   5.201  0.1801  0.2643  0.0569
11255WAT      O45725   2.963   2.002   4.441  0.6043 -0.4283 -0.7140
11255WAT     H145726   2.986   1.928   4.400  2.1421  0.7108 -2.0215
11255WAT     H245727   2.876   2.001   4.437  0.5704 -2.3876 -0.2742
11255WAT    EPW45728   2.954   1.991   4.434  0.3847  0.0328 -0.2010
11256WAT      O45729   2.327   4.103   2.371  0.7595 -0.3615  0.4087
11256WAT     H145730   2.323   4.017   2.356  1.4702 -0.0955 -1.6152
11256WAT     H245731   2.407   4.125   2.345  1.1135  0.7368  2.2290
11256WAT    EPW45732   2.338   4.093   2.365 -0.0141 -0.4686  0.2707
11257WAT      O45733   2.033   3.129   5.301  0.0574 -0.4969 -0.3637
11257WAT     H145734   2.116   3.152   5.309 -0.4612  0.9727  1.7836
11257WAT     H245735   1.993   3.204   5.282 -1.0281 -0.6547  1.0794
11257WAT    EPW45736   2.039   3.144   5.299  0.1680 -0.0629 -0.2748
11258WAT      O45737   2.827   3.083   4.992  0.3568 -0.5298  0.1731
11258WAT     H145738   2.845   3.031   5.060  0.4336 -1.3486 -0.4566
11258WAT     H245739   2.821   3.028   4.925  1.3089  0.3588 -0.6850
11258WAT    EPW45740   2.829   3.067   4.992  0.4032  0.6054  0.8373
11259WAT      O45741   1.993   1.874   4.519  0.2996 -0.4506  0.1064
11259WAT     H145742   2.028   1.873   4.439  0.0088  0.1007 -0.0290
11259WAT     H245743   1.963   1.955   4.527 -0.0731 -0.6379  0.6054
11259WAT    EPW45744   1.994   1.885   4.508  0.1787  0.3241  0.2567
11260WAT      O45745   2.669   1.402   4.296 -0.1047  0.5994 -0.3054
11260WAT     H145746   2.645   1.344   4.236  1.2450 -0.3758  0.0593
11260WAT     H245747   2.711   1.355   4.355 -1.1465  1.5753  1.3037
11260WAT    EPW45748   2.671   1.387   4.296 -0.2375 -0.3958  0.1933
11261WAT      O45749   4.878   2.017   3.861  0.1301 -0.3134  0.0764
11261WAT     H145750   4.867   2.044   3.779  0.9945 -0.2728 -0.0287
11261WAT     H245751   4.860   2.088   3.909 -0.2415 -0.3000 -0.0811
11261WAT    EPW45752   4.874   2.031   3.856  0.4089  0.3251 -0.8324
11262WAT      O45753   2.895   7.756   3.935  0.7560  0.5609 -0.3561
11262WAT     H145754   2.869   7.708   4.003 -2.7500  3.4238  0.6306
11262WAT     H245755   2.961   7.803   3.967 -0.1019  1.0426  0.7703
11262WAT    EPW45756   2.901   7.756   3.950 -0.0298 -0.8603 -0.0161
11263WAT      O45757   2.372   3.944   2.702  0.4915  0.2158  0.3965
11263WAT     H145758   2.313   3.969   2.761  0.5907  2.3687 -0.3234
11263WAT     H245759   2.328   3.891   2.649 -0.1804  0.0300  1.1285
11263WAT    EPW45760   2.357   3.940   2.703  0.6061 -0.6108 -0.4126
11264WAT      O45761   3.287   2.111   4.357  0.3845 -0.6865  0.4437
11264WAT     H145762   3.291   2.131   4.442 -0.3740  4.1165 -0.3338
11264WAT     H245763   3.339   2.170   4.320 -1.6613 -0.5340 -2.5535
11264WAT    EPW45764   3.295   2.123   4.364  0.2246 -1.1136 -0.1464
11265WAT      O45765   0.964   2.618   4.343  0.0646  0.0580  0.0867
11265WAT     H145766   0.969   2.702   4.366  2.0042 -0.1696  0.6458
11265WAT     H245767   1.012   2.613   4.271  0.1948 -0.6223  0.2089
11265WAT    EPW45768   0.972   2.629   4.336  0.1439  0.0243  0.2425
11266WAT      O45769   0.856   1.867   1.047 -0.2358  0.4554 -0.2089
11266WAT     H145770   0.864   1.903   1.126 -1.6898  0.2907  0.0459
11266WAT     H245771   0.776   1.891   1.022  1.1793  2.9753 -2.9276
11266WAT    EPW45772   0.845   1.876   1.055 -1.0701  0.0357  0.1243
11267WAT      O45773   3.844   7.356   3.816  0.4477  0.6867  0.5469
11267WAT     H145774   3.849   7.365   3.903  0.7946  2.2372  0.3899
11267WAT     H245775   3.920   7.318   3.795  1.2922  2.1900  0.7370
11267WAT    EPW45776   3.856   7.352   3.826  0.1875  0.5833  0.4074
11268WAT      O45777   3.046   0.464   2.975  0.2668  0.5874  0.0484
11268WAT     H145778   2.980   0.521   2.968 -0.1137  0.0449 -0.9889
11268WAT     H245779   3.107   0.508   3.020 -0.9872  0.9120  1.5014
11268WAT    EPW45780   3.045   0.479   2.981 -0.2210 -0.7649 -0.5591
11269WAT      O45781   2.273   3.002   2.789 -0.3669  0.3578 -0.2115
11269WAT     H145782   2.236   3.058   2.845  0.5613  0.8178 -0.0456
11269WAT     H245783   2.211   2.941   2.778 -1.0193  0.8917  0.3708
11269WAT    EPW45784   2.258   3.001   2.795  0.3225 -0.3848 -0.5845
11270WAT      O45785   2.708   2.499   4.175 -0.5505 -0.0634  0.3185
11270WAT     H145786   2.769   2.512   4.113 -0.6141 -0.4787  0.1696
11270WAT     H245787   2.633   2.511   4.132 -0.5832  0.3013  0.4694
11270WAT    EPW45788   2.706   2.503   4.159 -0.2256  0.0478 -0.1013
11271WAT      O45789   3.113   1.835   4.938 -0.5042 -0.3820  0.4915
11271WAT     H145790   3.116   1.880   4.864 -1.7777 -0.9560  0.0814
11271WAT     H245791   3.189   1.792   4.939  0.6707  1.5644  0.8031
11271WAT    EPW45792   3.125   1.836   4.927  0.5680  0.4060 -1.1356
11272WAT      O45793   2.807   1.411   3.873 -0.4643 -0.3883 -0.2173
11272WAT     H145794   2.723   1.424   3.894 -0.2839  0.1525  0.1902
11272WAT     H245795   2.850   1.468   3.923  0.1900 -1.0331 -0.0294
11272WAT    EPW45796   2.801   1.422   3.884  0.1761 -0.1140 -0.1870
11273WAT      O45797   2.931   2.705   4.338 -0.5388 -0.1151 -0.3700
11273WAT     H145798   2.941   2.770   4.280 -0.1691 -1.6926 -2.1747
11273WAT     H245799   2.866   2.733   4.389 -0.2379  1.7604 -0.9455
11273WAT    EPW45800   2.923   2.719   4.337  0.9188 -0.0013 -1.1472
11274WAT      O45801   2.117   3.369   1.843  0.1444  0.0363  0.3380
11274WAT     H145802   2.076   3.299   1.876 -0.3103 -0.1173 -0.5225
11274WAT     H245803   2.170   3.335   1.782  0.5588  0.3674  0.5085
11274WAT    EPW45804   2.119   3.354   1.839  0.8515 -0.7158  0.2193
11275WAT      O45805   2.695   3.907   2.411  0.1084 -0.4311 -0.4894
11275WAT     H145806   2.618   3.873   2.391 -0.6509  1.4847 -1.1189
11275WAT     H245807   2.676   3.965   2.474  1.3669 -1.2781  0.7335
11275WAT    EPW45808   2.681   3.911   2.417 -0.5247  0.0638  0.8665
11276WAT      O45809   2.453   2.320   3.747 -0.1086  0.3244  0.0685
11276WAT     H145810   2.382   2.304   3.700 -0.3381  1.0586  0.1522
11276WAT     H245811   2.495   2.244   3.748 -0.3429  0.1645 -0.9138
11276WAT    EPW45812   2.449   2.307   3.740  1.7435 -0.7538 -1.0589
11277WAT      O45813   4.311   1.410   4.018 -0.2807  0.1977  0.0313
11277WAT     H145814   4.312   1.332   4.057 -0.6662 -0.2090 -0.7467
11277WAT     H245815   4.396   1.427   4.006 -0.1545  0.3545  1.0759
11277WAT    EPW45816   4.324   1.401   4.022 -0.1153  0.1387  0.0063
11278WAT      O45817   3.711   1.691   2.312  0.2380  0.0394 -0.2073
11278WAT     H145818   3.709   1.694   2.400 -0.3729  1.4320 -0.2322
11278WAT     H245819   3.669   1.764   2.289  0.7776 -0.0827 -1.6635
11278WAT    EPW45820   3.704   1.702   2.322  0.0738  0.0497  0.1570
11279WAT      O45821   2.641   2.046   5.486 -0.2784  0.3774 -0.1622
11279WAT     H145822   2.695   2.074   5.548  0.0836  0.0364 -0.3102
11279WAT     H245823   2.695   2.009   5.428 -0.5986  0.7516 -0.7141
11279WAT    EPW45824   2.657   2.045   5.486 -0.3990 -0.0170  0.3068
11280WAT      O45825   2.093   3.075   4.531  0.4066 -0.0782  0.2224
11280WAT     H145826   2.158   3.027   4.500 -0.6402 -0.8115 -0.9616
11280WAT     H245827   2.100   3.067   4.618  1.1439 -1.1365  0.0770
11280WAT    EPW45828   2.103   3.067   4.539  0.0605 -0.3873 -0.5560
11281WAT      O45829   2.989   1.131   5.127  0.1557  0.0176  0.1678
11281WAT     H145830   3.034   1.062   5.156 -2.7308 -1.6529  1.1138
11281WAT     H245831   2.956   1.165   5.200 -0.9994  0.4918 -0.5581
11281WAT    EPW45832   2.991   1.125   5.142  0.3025 -0.5999 -0.1303
11282WAT      O45833   1.048   1.409   0.999 -0.4006  0.7808  0.0046
11282WAT     H145834   1.053   1.496   0.990 -0.1776  0.8078  0.3741
11282WAT     H245835   1.048   1.397   1.086 -2.6412  0.5372  0.0142
11282WAT    EPW45836   1.049   1.420   1.011  0.2674  0.1687 -0.6698
11283WAT      O45837   3.246   2.521   4.567 -0.1971 -0.0675 -0.0504
11283WAT     H145838   3.329   2.531   4.542  0.7044 -1.3619  2.1182
11283WAT     H245839   3.223   2.601   4.592  1.0973 -0.0030  1.1032
11283WAT    EPW45840   3.255   2.534   4.567  0.0157 -0.4498 -0.4849
11284WAT      O45841   2.104   3.095   6.491  0.0690  0.3857 -0.4823
11284WAT     H145842   2.183   3.063   6.509  0.2632  1.9249  1.8389
11284WAT     H245843   2.051   3.028   6.509  0.6285  0.4931  2.0379
11284WAT    EPW45844   2.108   3.080   6.497 -0.0599  0.0019 -0.1342
11285WAT      O45845   2.554   1.536   3.929 -0.0231  0.0578 -0.7920
11285WAT     H145846   2.564   1.566   4.010 -0.1043 -1.3419 -0.2305
11285WAT     H245847   2.469   1.516   3.924  0.4118 -2.1201 -0.3497
11285WAT    EPW45848   2.543   1.537   3.940 -0.3684  0.0500  0.0495
11286WAT      O45849   2.652   2.196   3.485 -0.2187 -0.2409 -0.9959
11286WAT     H145850   2.689   2.272   3.510 -0.3587  0.0976 -1.7879
11286WAT     H245851   2.698   2.174   3.414  0.6856 -1.5918 -0.0364
11286WAT    EPW45852   2.664   2.204   3.478 -0.2280  0.4015 -0.3663
11287WAT      O45853   2.773   2.246   4.289  0.2776 -0.2324  0.0583
11287WAT     H145854   2.755   2.320   4.246 -1.4793  0.3533  1.6554
11287WAT     H245855   2.749   2.183   4.234 -1.9165  0.4896  0.0834
11287WAT    EPW45856   2.767   2.248   4.275  0.4998 -0.1727  0.2907
11288WAT      O45857   1.932   2.879   4.378  0.4960 -0.0616 -0.0049
11288WAT     H145858   1.974   2.929   4.436 -0.4619  0.2320  0.4411
11288WAT     H245859   1.852   2.870   4.411 -0.6778  1.5901 -2.0936
11288WAT    EPW45860   1.927   2.885   4.391 -0.8255  0.5309 -0.1759
11289WAT      O45861   2.271   2.142   2.186 -0.1182 -0.4265 -0.4815
11289WAT     H145862   2.304   2.139   2.105  0.4429 -0.4079 -0.2509
11289WAT     H245863   2.186   2.156   2.172  0.0190 -0.1381 -1.0601
11289WAT    EPW45864   2.263   2.143   2.172  0.9445  0.4869 -1.3636
11290WAT      O45865   2.379   2.721   3.841 -0.4161  0.4551 -0.1616
11290WAT     H145866   2.410   2.651   3.881 -2.3059  0.6223  1.7675
11290WAT     H245867   2.450   2.763   3.814  0.7758 -1.6297 -0.4114
11290WAT    EPW45868   2.394   2.717   3.843  0.6349  0.3926  0.1329
11291WAT      O45869   2.769   1.869   4.704 -0.4737  0.1107  0.6681
11291WAT     H145870   2.806   1.948   4.702 -0.0703 -0.0628  1.0101
11291WAT     H245871   2.831   1.816   4.672 -0.8661 -0.0273  0.1130
11291WAT    EPW45872   2.784   1.873   4.699 -0.1409 -0.4743  0.4095
11292WAT      O45873   1.997   1.852   2.708 -0.1118 -0.8310 -0.0613
11292WAT     H145874   2.062   1.795   2.696 -1.1405 -2.0219 -0.1497
11292WAT     H245875   2.037   1.930   2.702  1.4925 -1.5215  0.9806
11292WAT    EPW45876   2.013   1.855   2.705 -0.0939  0.3924  0.1507
11293WAT      O45877   2.190   2.643   3.645 -0.1458  0.7904  0.3569
11293WAT     H145878   2.258   2.656   3.699  0.1084  1.5209 -0.1289
11293WAT     H245879   2.215   2.682   3.571 -1.3935  1.6904  0.3987
11293WAT    EPW45880   2.204   2.651   3.642  0.1083  0.7382 -0.8775
11294WAT      O45881   1.969   2.116   2.945  0.4429  0.3913 -0.1365
11294WAT     H145882   1.918   2.046   2.952  2.2664 -0.9970 -0.1294
11294WAT     H245883   1.935   2.171   3.004 -0.2846 -0.9689  0.7661
11294WAT    EPW45884   1.957   2.114   2.955 -0.3919  0.3034  0.9682
11295WAT      O45885   3.817   3.416   2.051  0.2822 -0.7291 -0.2825
11295WAT     H145886   3.837   3.427   1.967  0.1225  1.0594 -0.1301
11295WAT     H245887   3.755   3.476   2.065 -0.5739 -1.8215  0.8308
11295WAT    EPW45888   3.811   3.426   2.041 -0.3412 -0.2261 -0.7758
11296WAT      O45889   4.140   1.077   4.386  0.1961 -0.3448 -0.0793
11296WAT     H145890   4.212   1.067   4.435 -0.0653 -0.1385  0.3514
11296WAT     H245891   4.167   1.129   4.321  0.7791 -1.3447 -0.6777
11296WAT    EPW45892   4.155   1.083   4.384 -0.2670 -0.1860 -0.8649
11297WAT      O45893   2.489   2.682   2.621 -0.3724 -1.1290 -0.5746
11297WAT     H145894   2.508   2.694   2.705 -0.1924 -1.4546 -0.5668
11297WAT     H245895   2.411   2.643   2.623 -1.0507  0.1661 -0.6052
11297WAT    EPW45896   2.481   2.678   2.634 -0.4434  0.0749  0.2546
11298WAT      O45897   4.292   1.961   2.549  0.0774 -0.2040 -0.0409
11298WAT     H145898   4.346   1.892   2.556  0.2100 -0.2684 -1.4494
11298WAT     H245899   4.223   1.928   2.507  0.1254  0.4974 -0.6897
11298WAT    EPW45900   4.290   1.946   2.544 -0.1773 -0.2590 -0.1393
11299WAT      O45901   3.990   2.062   4.721  0.3933  0.1736 -0.1113
11299WAT     H145902   4.006   2.043   4.638 -0.4966  1.5488 -0.6298
11299WAT     H245903   4.064   2.099   4.749  0.3860  0.5365 -0.5673
11299WAT    EPW45904   4.003   2.064   4.713 -0.2345  0.4096 -0.5136
11300WAT      O45905   3.805   0.654   4.318 -0.2203  0.6863  0.4941
11300WAT     H145906   3.730   0.617   4.295 -0.4382  0.1730  1.9029
11300WAT     H245907   3.826   0.614   4.393  1.1403  1.2504  0.4524
11300WAT    EPW45908   3.797   0.643   4.326  1.0985  0.4468 -1.2093
11301WAT      O45909   3.860   1.768   4.713  0.5721  0.2254 -0.7084
11301WAT     H145910   3.831   1.848   4.698  1.7876  0.7812 -0.2201
11301WAT     H245911   3.791   1.727   4.747  0.2582  1.3939  0.1073
11301WAT    EPW45912   3.845   1.774   4.716 -0.7953  0.0236 -0.2501
11302WAT      O45913   2.295   3.296   3.671  0.2074 -0.2200 -0.0057
11302WAT     H145914   2.283   3.262   3.750  0.3625 -0.2865 -0.0113
11302WAT     H245915   2.262   3.377   3.678 -0.2081 -0.3914 -0.0112
11302WAT    EPW45916   2.289   3.303   3.683 -0.7918 -0.1706 -0.1944
11303WAT      O45917   3.110   3.863   2.585 -0.1552  0.4475 -0.1016
11303WAT     H145918   3.165   3.912   2.632 -0.1933  1.0774 -0.6988
11303WAT     H245919   3.039   3.857   2.637  0.7353 -1.0777  1.0342
11303WAT    EPW45920   3.107   3.869   2.600  0.5441  0.2152  0.1160
11304WAT      O45921   1.543   2.188   4.008  0.0837  0.1867 -0.4463
11304WAT     H145922   1.496   2.151   3.944  0.0863  1.0426 -0.9613
11304WAT     H245923   1.625   2.172   3.984  0.1814 -2.7164  1.2660
11304WAT    EPW45924   1.548   2.180   3.995 -0.3438  0.6350  0.9508
11305WAT      O45925   1.142   1.671   2.029  0.2670  0.1950  0.7695
11305WAT     H145926   1.196   1.693   2.094  0.5829  1.4072  0.1421
11305WAT     H245927   1.074   1.725   2.040 -0.2919 -0.5157  0.8656
11305WAT    EPW45928   1.140   1.682   2.040  0.5455  0.0883  0.3500
11306WAT      O45929   2.551   3.589   2.185  0.4780 -0.2812 -0.2919
11306WAT     H145930   2.632   3.581   2.155 -0.0240 -0.6864 -1.5895
11306WAT     H245931   2.553   3.545   2.260  1.4041 -0.4688 -0.4121
11306WAT    EPW45932   2.563   3.581   2.192  1.1603 -0.3983  0.0602
11307WAT      O45933   1.046   2.073   0.954  0.3752 -0.2714 -0.5363
11307WAT     H145934   1.109   2.082   1.014 -0.0391  0.5148 -0.1986
11307WAT     H245935   1.002   2.003   0.981  1.1456 -0.8963 -0.8320
11307WAT    EPW45936   1.049   2.064   0.967 -0.3638 -0.1775  0.0497
11308WAT      O45937   3.951   2.425   2.955 -0.0586 -0.2429  0.0642
11308WAT     H145938   4.025   2.463   2.930  0.4760 -1.1851  0.1717
11308WAT     H245939   3.889   2.471   2.913  0.7100 -0.7850 -1.7740
11308WAT    EPW45940   3.952   2.438   2.945  0.5877 -0.2012 -0.2506
11309WAT      O45941   0.792   1.648   1.265 -0.4306 -0.2418 -0.9352
11309WAT     H145942   0.715   1.667   1.228 -1.4810 -1.1999  0.6370
11309WAT     H245943   0.801   1.711   1.325 -0.4207 -0.5967 -0.5565
11309WAT    EPW45944   0.782   1.660   1.269 -0.9091  0.2454 -0.7568
11310WAT      O45945   0.012   0.452   2.399  0.0949 -0.2178 -0.3512
11310WAT     H145946   0.094   0.427   2.384  0.6909  1.0235  0.6448
11310WAT     H245947  -0.011   0.405   2.468  0.3564  0.1812  0.0161
11310WAT    EPW45948   0.021   0.442   2.407  0.1623  0.1238 -0.4604
11311WAT      O45949   1.596   2.463   1.004  0.6226 -0.7334  0.0231
11311WAT     H145950   1.649   2.414   0.955  0.8414 -1.6628  1.1648
11311WAT     H245951   1.627   2.454   1.085 -0.3575 -0.0643  0.5000
11311WAT    EPW45952   1.609   2.455   1.009 -0.1359  0.7495 -0.0534
11312WAT      O45953   0.838   1.725   0.771  0.8435 -0.3568  0.0594
11312WAT     H145954   0.821   1.645   0.801  0.1894 -0.1678  0.2024
11312WAT     H245955   0.864   1.768   0.842  0.9970 -0.3867  0.0213
11312WAT    EPW45956   0.840   1.720   0.786  0.3538 -0.3172 -0.2713
11313WAT      O45957   2.100   2.297   1.967 -0.5166  0.2219 -0.2791
11313WAT     H145958   2.027   2.338   1.942 -0.3493 -0.7313 -2.5511
11313WAT     H245959   2.152   2.305   1.898  0.8359 -0.7447  0.5891
11313WAT    EPW45960   2.097   2.304   1.953 -0.1818  0.1174  0.0640
11314WAT      O45961   1.224   1.842   1.830  0.2082  0.2061 -0.0126
11314WAT     H145962   1.173   1.789   1.876 -1.4146  1.8958  0.2763
11314WAT     H245963   1.179   1.856   1.757 -0.3153  2.5431  0.6815
11314WAT    EPW45964   1.210   1.836   1.826  0.2977 -0.1387 -0.1025
11315WAT      O45965   0.241   2.017   1.629  0.2185 -0.1736  0.4277
11315WAT     H145966   0.298   1.953   1.613 -0.6385 -1.1663  1.2503
11315WAT     H245967   0.290   2.089   1.628  2.1479 -1.2091  4.0518
11315WAT    EPW45968   0.257   2.018   1.627  0.3257  0.5976 -0.1354
11316WAT      O45969   2.127   3.868   3.867 -0.3512 -0.3728  0.5462
11316WAT     H145970   2.045   3.898   3.868 -0.8605 -1.6276 -0.3084
11316WAT     H245971   2.168   3.921   3.811 -1.5733 -1.9231 -2.0341
11316WAT    EPW45972   2.121   3.880   3.859  0.5786 -0.4925 -0.4234
11317WAT      O45973   1.514   3.170   2.060  0.3688 -0.1830 -0.2026
11317WAT     H145974   1.488   3.105   2.008  0.0159  0.5613 -0.9909
11317WAT     H245975   1.561   3.130   2.121  1.0635 -1.0702 -1.2735
11317WAT    EPW45976   1.517   3.154   2.061  0.2660  0.0674 -0.3271
11318WAT      O45977   1.354   1.351   1.988  0.7268 -0.6547  0.4644
11318WAT     H145978   1.306   1.422   2.004  1.1046 -0.5766  1.3362
11318WAT     H245979   1.296   1.287   1.981  0.4493 -0.4275  0.6876
11318WAT    EPW45980   1.338   1.352   1.989 -0.0952 -0.7731 -0.2893
11319WAT      O45981   3.361   3.522   3.240  0.4697 -0.0694  0.0204
11319WAT     H145982   3.415   3.529   3.172  0.5919  1.8647  0.2450
11319WAT     H245983   3.409   3.550   3.307 -0.1701 -0.3098  0.5891
11319WAT    EPW45984   3.376   3.527   3.240 -0.1902  0.2680 -0.5057
11320WAT      O45985   1.477   1.559   1.621 -0.8207 -0.2937  0.2935
11320WAT     H145986   1.529   1.518   1.677 -0.2945  0.1008  0.1084
11320WAT     H245987   1.477   1.642   1.649  1.1560  0.3905 -1.4413
11320WAT    EPW45988   1.484   1.565   1.633 -0.4816 -0.6655  0.7390
11321WAT      O45989   2.630   1.748   1.475 -0.3580 -0.4126  0.2179
11321WAT     H145990   2.561   1.773   1.427 -0.2564 -0.2840  0.1392
11321WAT     H245991   2.653   1.820   1.517  1.2764  0.2349 -1.6337
11321WAT    EPW45992   2.623   1.762   1.474 -0.3256 -0.9260 -1.2104
11322WAT      O45993   1.354   2.353   0.709 -0.2477  0.3460  0.0438
11322WAT     H145994   1.283   2.316   0.674  0.0607 -0.3504  0.1363
11322WAT     H245995   1.349   2.436   0.684 -0.3096 -0.0241 -1.2141
11322WAT    EPW45996   1.343   2.360   0.700 -0.3557  0.2601 -0.2416
11323WAT      O45997   3.671   0.905   1.549  1.0384 -0.0559  0.1420
11323WAT     H145998   3.688   0.984   1.515  1.6485 -0.6040 -0.8576
11323WAT     H245999   3.627   0.924   1.622 -0.9732  1.1572 -1.2807
11323WAT    EPW46000   3.667   0.920   1.555  0.0061 -1.1989 -0.4089
11324WAT      O46001   1.191   0.373   1.616 -0.1753  0.0005  0.0638
11324WAT     H146002   1.186   0.459   1.630  0.3835 -0.1523  1.3582
11324WAT     H246003   1.125   0.358   1.561 -0.1987  1.2715 -0.2969
11324WAT    EPW46004   1.180   0.384   1.610 -0.4079 -0.6909  0.4642
11325WAT      O46005   2.190   2.000   2.428  0.2589 -0.2002 -0.0176
11325WAT     H146006   2.225   2.049   2.365  2.2416 -0.1095  1.0644
11325WAT     H246007   2.146   2.057   2.477 -1.6298 -0.3270 -1.4452
11325WAT    EPW46008   2.189   2.016   2.426  1.0807  0.3025  0.5037
11326WAT      O46009   1.862   1.110   1.667 -0.1837 -0.0563  0.1533
11326WAT     H146010   1.920   1.059   1.626  0.3569  1.3020 -0.8833
11326WAT     H246011   1.785   1.078   1.641  0.1331 -0.5310 -0.2395
11326WAT    EPW46012   1.859   1.098   1.657 -0.1487 -0.3699 -0.6114
11327WAT      O46013   1.048   1.070   1.409 -0.4602 -0.2370 -0.0358
11327WAT     H146014   1.034   1.104   1.488 -0.5086 -1.1358  0.3533
11327WAT     H246015   0.998   0.999   1.408  0.1745 -0.6897 -0.5535
11327WAT    EPW46016   1.038   1.065   1.420  0.8875  1.0085  0.5466
11328WAT      O46017   0.810   6.870   0.313 -0.9447 -0.4753  0.1379
11328WAT     H146018   0.750   6.835   0.366 -2.9518  0.7561 -1.1913
11328WAT     H246019   0.859   6.917   0.367 -3.3142  1.2710  0.9481
11328WAT    EPW46020   0.808   6.871   0.329  0.3220 -1.4292 -0.0421
11329WAT      O46021   1.220   2.875   2.929 -0.1584  0.2436 -0.3998
11329WAT     H146022   1.164   2.845   2.869 -1.7321  1.8924  0.1166
11329WAT     H246023   1.196   2.833   3.002 -0.0270  0.1651 -0.4033
11329WAT    EPW46024   1.208   2.864   2.931 -0.4004  0.0967 -0.3885
11330WAT      O46025   1.535   2.715   0.895 -0.8249  0.0761 -0.2924
11330WAT     H146026   1.531   2.683   0.814  2.0808 -1.4226 -0.0015
11330WAT     H246027   1.570   2.650   0.941 -0.9296  1.4235  1.8436
11330WAT    EPW46028   1.540   2.701   0.889 -0.3879  0.4168  0.1238
11331WAT      O46029   3.303   4.360   2.727 -0.6214 -0.0875  0.2389
11331WAT     H146030   3.254   4.335   2.795 -0.4416  0.4329  0.5589
11331WAT     H246031   3.378   4.316   2.738 -0.3152  0.5630  0.7870
11331WAT    EPW46032   3.307   4.350   2.738  0.1956 -0.4460  0.3837
11332WAT      O46033   2.872   2.996   1.849 -0.0873 -0.5741  0.0838
11332WAT     H146034   2.910   3.036   1.782  2.6149  0.3561  1.9828
11332WAT     H246035   2.935   2.945   1.881 -1.1265 -0.6799  2.1279
11332WAT    EPW46036   2.887   2.994   1.844  0.6404 -1.0108  0.4417
11333WAT      O46037   1.814   0.890   1.258 -0.5434 -0.2542  0.2915
11333WAT     H146038   1.750   0.949   1.262 -1.3683 -1.0297 -0.7252
11333WAT     H246039   1.784   0.825   1.308  0.0374 -0.0974  0.8431
11333WAT    EPW46040   1.800   0.889   1.266  0.6851 -0.0399 -0.6913
11334WAT      O46041   1.359   0.872   2.026  0.3582 -0.1170 -0.2316
11334WAT     H146042   1.293   0.816   2.031  1.2088 -1.0673  0.7190
11334WAT     H246043   1.406   0.856   2.097  1.2384  1.0308 -0.5187
11334WAT    EPW46044   1.356   0.861   2.037 -0.0745  0.3723 -0.5789
11335WAT      O46045   0.037   2.299   1.483  0.9905 -0.3079  0.1412
11335WAT     H146046  -0.035   2.263   1.451  1.6703 -1.7673  0.1489
11335WAT     H246047   0.014   2.325   1.563 -0.1017  1.2911 -0.6583
11335WAT    EPW46048   0.023   2.297   1.490 -0.7032  0.5200 -0.9173
11336WAT      O46049   2.012   1.568   1.586 -0.2161  0.3153 -0.3042
11336WAT     H146050   2.099   1.563   1.579 -0.1778 -0.6186  0.4869
11336WAT     H246051   1.984   1.497   1.544 -0.5140 -0.0243  0.4478
11336WAT    EPW46052   2.021   1.557   1.579 -0.0154  0.7475  0.3583
11337WAT      O46053   2.548   2.856   2.404 -0.5566  0.7752 -0.3309
11337WAT     H146054   2.525   2.802   2.468  1.3220  0.6318  0.2770
11337WAT     H246055   2.515   2.818   2.333  0.7846 -1.2473  0.0543
11337WAT    EPW46056   2.539   2.843   2.403  0.1638 -0.4158 -0.9592
11338WAT      O46057   1.740   1.085   3.698 -0.6707  0.3710  0.4735
11338WAT     H146058   1.806   1.052   3.746  0.4414 -0.0562 -1.2416
11338WAT     H246059   1.670   1.044   3.729 -0.0154  0.2035  1.8011
11338WAT    EPW46060   1.740   1.074   3.710  0.6696 -0.6955 -0.6155
11339WAT      O46061   3.385   2.813   2.318 -0.3597  0.4086  0.7573
11339WAT     H146062   3.416   2.824   2.399 -0.6430 -0.5812  1.0109
11339WAT     H246063   3.320   2.755   2.328  1.6923 -2.3866 -0.5542
11339WAT    EPW46064   3.380   2.806   2.331  0.2450 -0.9690 -0.0363
11340WAT      O46065   3.211   3.035   2.269 -0.3916 -0.3291 -0.7419
11340WAT     H146066   3.156   2.968   2.279 -1.1761  0.5023  1.1008
11340WAT     H246067   3.288   2.997   2.255 -1.0360 -1.5728 -1.0541
11340WAT    EPW46068   3.214   3.019   2.269 -0.6293  0.1242  0.5469
11341WAT      O46069   1.497   1.005   2.581  0.7205  0.2800  0.2633
11341WAT     H146070   1.437   1.062   2.554 -0.2323 -0.2779  1.1410
11341WAT     H246071   1.454   0.955   2.638  1.1958 -2.0312 -1.2660
11341WAT    EPW46072   1.482   1.006   2.586  0.2795  0.0677 -0.7553
11342WAT      O46073   1.254   1.395   1.578 -0.3629  0.1609 -0.4096
11342WAT     H146074   1.219   1.433   1.507 -0.5028  0.2778 -0.2794
11342WAT     H246075   1.321   1.446   1.598  0.4887 -0.6027 -1.2376
11342WAT    EPW46076   1.258   1.408   1.570  1.2330 -0.1654 -0.8927
11343WAT      O46077   1.849   2.578   2.570 -0.1814  0.3853  0.0111
11343WAT     H146078   1.777   2.575   2.619 -0.0785 -0.4502  0.1174
11343WAT     H246079   1.913   2.593   2.627 -0.2798  1.2448 -0.0974
11343WAT    EPW46080   1.848   2.580   2.585  1.3026  0.2006  0.2989
11344WAT      O46081   2.434   2.387   1.200  0.5371  0.3083  0.4412
11344WAT     H146082   2.392   2.452   1.159 -0.8479  0.1870  1.6142
11344WAT     H246083   2.380   2.365   1.265  0.9085 -2.1128  0.0107
11344WAT    EPW46084   2.420   2.393   1.203 -0.2999  0.1118 -0.1824
11345WAT      O46085   2.064   2.813   1.537  0.1199 -0.2802  0.6185
11345WAT     H146086   2.119   2.880   1.546  0.9415 -1.0167  1.2245
11345WAT     H246087   2.013   2.838   1.471  1.2609  0.3751 -0.0609
11345WAT    EPW46088   2.065   2.826   1.528 -0.4708 -0.2572  0.8734
11346WAT      O46089   3.714   1.669   3.458 -0.2545  0.5169 -0.2091
11346WAT     H146090   3.706   1.587   3.487 -0.0803 -0.3249 -2.3921
11346WAT     H246091   3.649   1.678   3.400  0.9641  1.1825 -1.5443
11346WAT    EPW46092   3.703   1.658   3.454 -0.3442  0.0313 -0.5142
11347WAT      O46093   1.140   0.279   2.825  0.1155 -0.0021 -0.2334
11347WAT     H146094   1.062   0.285   2.785 -0.1862  0.4110  0.4015
11347WAT     H246095   1.124   0.307   2.906  0.0685 -3.4417  1.1080
11347WAT    EPW46096   1.126   0.284   2.831  0.6225 -0.3958 -0.6585
11348WAT      O46097   2.602   3.501   2.441 -0.7588  0.2238  0.3942
11348WAT     H146098   2.570   3.526   2.518 -0.7809  0.6047  0.2654
11348WAT     H246099   2.688   3.512   2.449 -0.7651  0.3115  0.3514
11348WAT    EPW46100   2.610   3.506   2.453 -0.0822  0.5913 -0.6207
11349WAT      O46101   2.250   2.898   0.925  0.0705 -0.2614 -0.3232
11349WAT     H146102   2.331   2.869   0.911 -0.0129 -0.7061  0.0836
11349WAT     H246103   2.213   2.895   0.846  0.5518  0.2711 -0.5728
11349WAT    EPW46104   2.257   2.893   0.911  0.5934  0.3398 -0.8871
11350WAT      O46105   3.037   1.685   1.782 -0.1223 -0.2176 -0.5375
11350WAT     H146106   3.086   1.652   1.718 -0.6973  0.2610 -1.2440
11350WAT     H246107   3.085   1.672   1.853  0.9401  0.0395 -1.1804
11350WAT    EPW46108   3.051   1.678   1.783 -0.4821  0.0075 -0.7592
11351WAT      O46109   1.434   0.202   1.987  0.3870 -0.3322  0.0724
11351WAT     H146110   1.477   0.189   1.912  2.5436 -0.6077  1.2882
11351WAT     H246111   1.368   0.254   1.963  1.3119  0.0406 -1.9251
11351WAT    EPW46112   1.431   0.208   1.972  0.2031 -1.0389  0.4592
11352WAT      O46113   0.590   3.403   1.287 -0.6488 -0.7873 -0.0445
11352WAT     H146114   0.522   3.350   1.302 -0.7865 -0.5276  0.2593
11352WAT     H246115   0.562   3.480   1.316  0.0077 -0.8049  0.6604
11352WAT    EPW46116   0.576   3.406   1.293  0.4968  0.7626 -0.0903
11353WAT      O46117   1.922   1.878   0.287  0.2280  0.7350 -0.4408
11353WAT     H146118   1.859   1.932   0.262 -0.2241  0.9539  1.0813
11353WAT     H246119   1.899   1.855   0.368  1.2819 -0.4199 -0.4319
11353WAT    EPW46120   1.909   1.882   0.295 -0.6673 -0.0474 -0.6287
11354WAT      O46121   3.795   2.870   2.361 -0.1117  0.6525  0.0383
11354WAT     H146122   3.754   2.908   2.428  1.1195  1.7965  0.1924
11354WAT     H246123   3.807   2.788   2.388 -0.3132  0.8887  0.8849
11354WAT    EPW46124   3.790   2.864   2.375 -0.2726  0.8570  0.0201
11355WAT      O46125   1.518   1.133   7.894  0.0870 -0.1882 -0.4087
11355WAT     H146126   1.434   1.134   7.874  0.1433 -0.2118 -0.6434
11355WAT     H246127   1.520   1.165   7.976  0.0607  1.8481 -1.1452
11355WAT    EPW46128   1.506   1.138   7.903 -0.3598  1.1283 -0.0724
11356WAT      O46129   3.133   3.089   2.551  0.0908  0.0606 -0.0523
11356WAT     H146130   3.161   3.083   2.469  2.0614  1.1662  0.4528
11356WAT     H246131   3.116   3.174   2.561  2.4521  0.4741  1.3455
11356WAT    EPW46132   3.135   3.101   2.541 -0.0587  0.2494  0.1223
11357WAT      O46133   0.600   0.334   1.810  0.0858 -0.8847 -0.0411
11357WAT     H146134   0.544   0.272   1.836 -0.9525 -0.3201 -0.8500
11357WAT     H246135   0.563   0.366   1.738 -0.4216  2.0226  1.3718
11357WAT    EPW46136   0.586   0.330   1.803 -0.4196  0.1441 -0.2350
11358WAT      O46137   3.376   2.175   2.469 -0.3249 -0.1395  0.0928
11358WAT     H146138   3.313   2.227   2.500  0.0846 -0.5376  1.6446
11358WAT     H246139   3.384   2.201   2.386 -1.1231  1.2896  0.4271
11358WAT    EPW46140   3.368   2.187   2.461  0.7065  0.0539  0.2428
11359WAT      O46141   1.140   2.935   2.205 -0.2763  0.4155 -0.2652
11359WAT     H146142   1.103   2.921   2.127 -1.3526  1.0101  0.1232
11359WAT     H246143   1.178   2.859   2.223 -1.1583 -0.1635 -0.7713
11359WAT    EPW46144   1.140   2.922   2.196  0.5665  0.1343 -1.2233
11360WAT      O46145   2.564   0.396   2.951  0.2905 -0.3086  0.0557
11360WAT     H146146   2.596   0.325   2.990 -2.4338 -2.5655 -1.4301
11360WAT     H246147   2.569   0.376   2.866  0.1668  1.6574 -0.4615
11360WAT    EPW46148   2.569   0.382   2.944  0.6613 -0.5569 -0.1268
11361WAT      O46149   1.830   1.827   2.965 -0.5154 -0.9603 -0.4462
11361WAT     H146150   1.874   1.808   2.892  0.5674 -0.5129  0.0555
11361WAT     H246151   1.858   1.768   3.022 -0.8958 -0.9354 -0.2304
11361WAT    EPW46152   1.841   1.816   2.962  0.4974  0.3297 -0.2900
11362WAT      O46153   2.182   1.658   2.060 -0.3282  0.0917  0.5247
11362WAT     H146154   2.208   1.600   2.001 -1.4077 -0.3885  0.5085
11362WAT     H246155   2.102   1.632   2.082  0.1381  0.1049  2.4108
11362WAT    EPW46156   2.174   1.646   2.054  0.0900  0.0655 -0.1702
11363WAT      O46157   1.486   2.303   3.252  0.1460  0.2700 -0.0156
11363WAT     H146158   1.562   2.344   3.265 -0.0776  1.1921 -1.4118
11363WAT     H246159   1.504   2.246   3.188 -0.2426  0.1994 -0.0646
11363WAT    EPW46160   1.500   2.301   3.245 -0.5585 -0.3232 -1.0545
11364WAT      O46161   1.717   2.904   0.817 -0.3228 -0.5729  0.2757
11364WAT     H146162   1.799   2.881   0.833 -0.0011  1.6548  2.6446
11364WAT     H246163   1.670   2.839   0.851  0.5122 -0.2475  2.1822
11364WAT    EPW46164   1.722   2.891   0.825 -0.4607 -0.1055 -0.6750
11365WAT      O46165   2.959   2.015   2.416 -0.0170 -0.1643  0.2411
11365WAT     H146166   2.879   1.998   2.388 -0.5972  0.2701  1.5394
11365WAT     H246167   2.975   2.096   2.386  0.7882 -1.0295 -1.7715
11365WAT    EPW46168   2.950   2.025   2.408  0.4476  0.3021 -0.4193
11366WAT      O46169   2.453   3.227   1.883 -0.7840  0.1933 -0.4506
11366WAT     H146170   2.442   3.313   1.895 -1.1101  0.0366  0.5191
11366WAT     H246171   2.538   3.215   1.899 -0.6715  0.3831 -0.9050
11366WAT    EPW46172   2.464   3.238   1.887 -0.2215  0.0541 -0.6023
11367WAT      O46173   3.328   1.146   1.573  0.9640 -0.1334 -0.4039
11367WAT     H146174   3.357   1.084   1.520 -0.1056 -1.2726  0.2740
11367WAT     H246175   3.256   1.111   1.608  2.7477 -0.4135  3.5101
11367WAT    EPW46176   3.321   1.132   1.571  0.3439  1.0757  0.2850
11368WAT      O46177   0.817   0.210   2.238  0.3379  0.2322  0.6133
11368WAT     H146178   0.883   0.221   2.183  1.1456  0.5701  1.6226
11368WAT     H246179   0.820   0.125   2.258 -1.4832 -0.4854 -1.6875
11368WAT    EPW46180   0.827   0.199   2.233  0.5889  0.1126  0.0975
11369WAT      O46181   3.767   2.327   1.028  0.1030 -0.1211  0.3893
11369WAT     H146182   3.834   2.350   1.079 -0.6132  2.8944  0.1287
11369WAT     H246183   3.730   2.403   1.007 -2.2726 -1.5576 -1.0482
11369WAT    EPW46184   3.772   2.341   1.033  0.1433  0.3935  0.7801
11370WAT      O46185   0.900   1.334   2.744  0.1572  0.5953  0.0089
11370WAT     H146186   0.849   1.402   2.763  0.6742  1.0069 -0.0688
11370WAT     H246187   0.848   1.265   2.758 -0.3177  0.9973  0.2482
11370WAT    EPW46188   0.885   1.334   2.749 -0.1936 -0.6372 -0.1051
11371WAT      O46189   0.741   2.247   2.314  0.1090  0.0465 -0.4284
11371WAT     H146190   0.822   2.278   2.309 -0.1779  0.9861  0.3804
11371WAT     H246191   0.699   2.306   2.363 -0.9051 -0.7419 -0.2977
11371WAT    EPW46192   0.747   2.260   2.321 -0.3991 -0.4975  0.5581
11372WAT      O46193   0.346   0.743   2.543  0.0562  0.1747 -0.1635
11372WAT     H146194   0.315   0.805   2.490 -0.4322  0.1704  0.1120
11372WAT     H246195   0.276   0.719   2.590  0.2292 -0.5930 -0.2795
11372WAT    EPW46196   0.331   0.748   2.542 -0.0850 -0.7009  0.3208
11373WAT      O46197   3.315   3.845   2.974 -0.3893 -0.3544  0.2211
11373WAT     H146198   3.348   3.764   2.964 -0.6440 -0.4573  0.2104
11373WAT     H246199   3.354   3.874   3.046  2.0913  0.6898 -1.3723
11373WAT    EPW46200   3.326   3.837   2.983 -0.8182  0.4628 -0.2541
11374WAT      O46201   2.653   2.167   2.103 -0.1045  0.4394  0.1711
11374WAT     H146202   2.610   2.108   2.055  0.2971 -0.0536  0.4190
11374WAT     H246203   2.610   2.241   2.086  0.8234  0.5607 -2.0020
11374WAT    EPW46204   2.640   2.169   2.093  0.7761  1.0206  0.8563
11375WAT      O46205   1.358   2.273   2.477  0.4749  0.0286 -0.2772
11375WAT     H146206   1.368   2.320   2.404 -0.2591 -0.0229 -0.4120
11375WAT     H246207   1.436   2.234   2.486  1.0392  1.1230 -0.2595
11375WAT    EPW46208   1.371   2.274   2.467 -0.2407  0.2534 -0.5788
11376WAT      O46209   2.300   2.295   0.831 -0.1488 -0.0582 -0.3048
11376WAT     H146210   2.322   2.226   0.880 -0.1474 -0.4934 -0.9151
11376WAT     H246211   2.376   2.335   0.817 -0.2115  0.3422  0.4519
11376WAT    EPW46212   2.314   2.291   0.836  0.5840  0.0475  0.0097
11377WAT      O46213   0.686   1.940   1.664  0.2028 -0.3474 -0.1493
11377WAT     H146214   0.715   1.933   1.746 -0.0418 -0.3600 -0.0635
11377WAT     H246215   0.655   2.021   1.659  0.4189 -0.2744 -0.2945
11377WAT    EPW46216   0.686   1.951   1.675 -1.0165  1.0017  0.1112
11378WAT      O46217   2.904   2.013   2.942  0.0736 -0.0244  0.1043
11378WAT     H146218   2.908   2.030   2.857 -1.4053 -0.5077 -0.0991
11378WAT     H246219   2.821   1.989   2.954  0.6372 -1.5396  1.3825
11378WAT    EPW46220   2.892   2.012   2.931  0.5279 -0.0157 -0.7666
11379WAT      O46221   1.569   1.693   2.375  0.4992 -0.4742 -0.0797
11379WAT     H146222   1.540   1.701   2.456  0.1839  0.1013 -0.2455
11379WAT     H246223   1.624   1.760   2.366 -1.9175  1.5271 -1.3687
11379WAT    EPW46224   1.573   1.704   2.385  0.7320 -0.3343  0.3279
11380WAT      O46225   0.614   0.998   1.364 -0.4049  0.1688 -0.2810
11380WAT     H146226   0.604   0.948   1.293  0.8451  1.5832 -1.5363
11380WAT     H246227   0.575   0.953   1.427  0.5469 -2.3252 -1.3437
11380WAT    EPW46228   0.607   0.984   1.363  0.1327 -0.1043  0.1657
11381WAT      O46229   2.111   0.778   1.912 -0.1807  0.2675  0.1004
11381WAT     H146230   2.065   0.841   1.951 -0.5042 -0.7536  1.4191
11381WAT     H246231   2.067   0.765   1.838 -2.6133 -1.2588  1.6892
11381WAT    EPW46232   2.097   0.786   1.907  0.1007 -0.0166  0.2094
11382WAT      O46233   3.120   3.165   1.939 -0.0885 -0.5867 -0.2765
11382WAT     H146234   3.101   3.215   2.008 -0.0639  1.0759 -1.4040
11382WAT     H246235   3.202   3.139   1.955 -0.6195 -1.5757  1.0460
11382WAT    EPW46236   3.129   3.169   1.952 -0.1241 -0.2602  0.7623
11383WAT      O46237   0.938   2.934   1.960  0.3003 -0.0640  0.0825
11383WAT     H146238   0.915   2.982   1.891  0.6240 -0.5016 -0.3352
11383WAT     H246239   0.861   2.907   1.992  0.1279  0.5417  0.1924
11383WAT    EPW46240   0.923   2.937   1.954  0.4039  0.3592 -0.1601
11384WAT      O46241   2.003   3.185   2.027 -0.6328  0.5622  0.0800
11384WAT     H146242   2.085   3.164   2.051 -0.6956  2.2110  1.9553
11384WAT     H246243   1.958   3.177   2.100 -2.4774 -1.3936 -1.1463
11384WAT    EPW46244   2.009   3.181   2.041 -0.3111  0.8632  0.0744
11385WAT      O46245   2.450   3.143   2.567 -0.1919 -0.0787  0.1752
11385WAT     H146246   2.410   3.086   2.620 -2.0817  1.2033  0.2130
11385WAT     H246247   2.452   3.101   2.490 -0.6374 -0.5856  0.4319
11385WAT    EPW46248   2.444   3.128   2.564  0.4375 -0.7872  0.5785
11386WAT      O46249   0.979   1.884   2.098  0.3494  0.2865  0.0083
11386WAT     H146250   1.043   1.943   2.102  0.7195 -0.1978  2.8845
11386WAT     H246251   0.954   1.874   2.181 -1.4487 -1.7448 -0.6706
11386WAT    EPW46252   0.985   1.891   2.111  0.2451 -0.5691 -0.3859
11387WAT      O46253   0.270   1.477   1.878  0.0935 -0.0906  0.1974
11387WAT     H146254   0.309   1.551   1.902  0.8164 -0.7732  1.2095
11387WAT     H246255   0.221   1.455   1.946 -1.4605  0.3122 -0.7425
11387WAT    EPW46256   0.268   1.484   1.891  0.6825 -0.2563  0.6387
11388WAT      O46257   0.529   0.061   2.206  0.6013 -0.3414  0.4910
11388WAT     H146258   0.546   0.145   2.186  1.1012 -0.8179 -1.2456
11388WAT     H246259   0.580   0.016   2.151  0.1252 -1.8022  1.1945
11388WAT    EPW46260   0.539   0.067   2.195 -0.1885 -0.5485 -0.4102
11389WAT      O46261   2.700   3.175   2.724  0.6184 -0.1320  0.5670
11389WAT     H146262   2.629   3.168   2.674  0.2495  1.2184  0.8516
11389WAT     H246263   2.763   3.195   2.667  0.6397 -0.7176  0.3863
11389WAT    EPW46264   2.699   3.177   2.709 -0.4783  0.1077  0.3975
11390WAT      O46265   1.366   3.224   0.609  0.4158  0.0637  0.0551
11390WAT     H146266   1.371   3.164   0.673 -1.9091 -0.8101 -0.4944
11390WAT     H246267   1.434   3.206   0.559  0.8877 -0.8275  0.9748
11390WAT    EPW46268   1.377   3.213   0.611 -0.3669 -1.1761  0.5356
11391WAT      O46269   1.024   8.018   1.537  0.2732 -0.2218  0.0166
11391WAT     H146270   1.025   8.064   1.611 -0.8919 -0.0908 -0.0307
11391WAT     H246271   0.943   7.985   1.535  0.4652 -0.6521 -0.9398
11391WAT    EPW46272   1.012   8.020   1.548 -0.1867  1.0971 -0.1444
11392WAT      O46273   1.577   8.040   1.204 -0.0221  0.3050  0.0672
11392WAT     H146274   1.599   8.046   1.288 -0.4374  0.0938  0.1930
11392WAT     H246275   1.507   8.092   1.197 -3.2233 -3.3632  1.0046
11392WAT    EPW46276   1.570   8.048   1.215  0.3994 -0.3451 -0.6642
11393WAT      O46277   1.993   0.277   1.347 -0.2327  0.0202  0.8039
11393WAT     H146278   1.916   0.302   1.379  0.3106  1.3456  1.1579
11393WAT     H246279   2.044   0.272   1.418 -0.1113 -1.3587  0.6394
11393WAT    EPW46280   1.989   0.280   1.362 -0.0605  0.9256 -0.1905
11394WAT      O46281   7.674   1.627   1.187  0.2029  0.4184 -0.5048
11394WAT     H146282   7.609   1.646   1.132 -0.4254  2.4389  0.8417
11394WAT     H246283   7.745   1.646   1.141 -0.3264  2.8253 -0.4377
11394WAT    EPW46284   7.675   1.632   1.172 -0.3449  0.2948 -0.1498
11395WAT      O46285   3.820   3.430   1.492  0.7068  0.2117  0.3790
11395WAT     H146286   3.871   3.499   1.475  0.4119  0.1899 -0.6361
11395WAT     H246287   3.816   3.388   1.416  0.4633 -0.6594  0.8569
11395WAT    EPW46288   3.827   3.434   1.479  0.4811  0.0736  0.4675
11396WAT      O46289   3.549   3.376   2.619 -0.8971  0.0515 -0.0320
11396WAT     H146290   3.608   3.407   2.563  1.3757 -1.4646  1.3255
11396WAT     H246291   3.528   3.446   2.667 -0.0182  0.5861 -0.4039
11396WAT    EPW46292   3.555   3.391   2.618 -0.2104 -0.1206 -0.1503
11397WAT      O46293   1.580   0.813   1.840  0.3175 -0.2302 -0.0268
11397WAT     H146294   1.581   0.728   1.859 -2.2941 -0.5606 -0.9116
11397WAT     H246295   1.520   0.845   1.895  1.2043  1.0503  0.2319
11397WAT    EPW46296   1.571   0.805   1.851 -0.3439 -0.5792 -0.2571
11398WAT      O46297   2.703   0.358   1.380 -0.0778 -0.0654 -0.2854
11398WAT     H146298   2.666   0.283   1.355  2.0798 -2.0630  2.0637
11398WAT     H246299   2.674   0.369   1.461 -0.5174  1.8268 -0.6527
11398WAT    EPW46300   2.693   0.348   1.388  0.0896 -0.8967 -0.7186
11399WAT      O46301   1.543   3.056   2.959 -0.0181 -0.2352  0.7641
11399WAT     H146302   1.560   3.005   3.027  2.7685 -0.7564 -0.2053
11399WAT     H246303   1.518   3.001   2.897 -0.7317  0.0260  0.8141
11399WAT    EPW46304   1.542   3.041   2.960  0.3425  0.6002  0.1108
11400WAT      O46305   2.020   2.685   3.313 -0.3644  0.0487 -0.6114
11400WAT     H146306   2.083   2.730   3.352 -0.0229 -0.5605 -0.4449
11400WAT     H246307   2.063   2.632   3.258 -0.6389 -1.1315  0.2634
11400WAT    EPW46308   2.036   2.684   3.310  0.2245  0.1930 -0.0167
11401WAT      O46309   2.034   1.265   3.515 -0.3049  0.8356  0.1702
11401WAT     H146310   2.057   1.184   3.491  2.0137  0.8944  1.8240
11401WAT     H246311   2.097   1.315   3.482 -0.7279  1.7450  0.6881
11401WAT    EPW46312   2.047   1.260   3.507  0.2710  0.1468 -0.5462
11402WAT      O46313   2.068   0.443   1.132 -0.1646 -0.4707 -0.3474
11402WAT     H146314   1.991   0.476   1.106  0.0612  0.6561  0.3436
11402WAT     H246315   2.044   0.377   1.183 -0.6622 -0.5508 -0.6684
11402WAT    EPW46316   2.053   0.438   1.136 -0.0641 -1.2736 -0.7212
11403WAT      O46317   0.849   1.346   1.960 -0.4235 -0.2984 -0.0861
11403WAT     H146318   0.872   1.266   1.935 -0.7397 -0.8187  1.2367
11403WAT     H246319   0.888   1.397   1.902  0.3742 -1.3695 -0.5255
11403WAT    EPW46320   0.858   1.342   1.947 -0.1838  0.1319 -0.9452
11404WAT      O46321   1.895   7.890   1.065 -0.0155  0.0973 -0.2252
11404WAT     H146322   1.835   7.827   1.068 -0.8794  0.8481 -1.2060
11404WAT     H246323   1.893   7.916   0.982 -0.0023  1.7346  0.2613
11404WAT    EPW46324   1.886   7.885   1.053 -0.6217  0.8856 -0.5976
11405WAT      O46325   2.435   4.901   4.122 -0.5748 -0.1683 -0.0661
11405WAT     H146326   2.395   4.926   4.196  0.0894  1.2500 -0.1654
11405WAT     H246327   2.488   4.837   4.149 -1.5017 -0.7734  0.3917
11405WAT    EPW46328   2.437   4.895   4.137  0.2289 -0.2151 -0.7301
11406WAT      O46329   1.131   1.233   3.173  0.0619  0.5022 -0.4608
11406WAT     H146330   1.086   1.231   3.098  1.4425  0.1565 -1.3179
11406WAT     H246331   1.207   1.270   3.150 -0.2917  2.4834  1.2462
11406WAT    EPW46332   1.135   1.238   3.158  0.4644 -0.7639 -0.1668
11407WAT      O46333   2.410   4.351   1.290 -0.4229 -0.1790 -0.4911
11407WAT     H146334   2.401   4.434   1.266 -1.2406  0.0862  0.6745
11407WAT     H246335   2.477   4.353   1.346  0.6364 -0.5955 -1.6806
11407WAT    EPW46336   2.419   4.364   1.295  0.0858 -0.2778 -0.6789
11408WAT      O46337   1.198   0.820   0.295 -0.9207  0.3567 -0.2754
11408WAT     H146338   1.193   0.824   0.382 -1.1388  1.7028 -0.3248
11408WAT     H246339   1.284   0.819   0.279 -0.8419 -1.7666 -0.0256
11408WAT    EPW46340   1.210   0.820   0.305 -0.3691  0.1603 -0.5365
11409WAT      O46341   1.846   4.165   1.724 -0.4598  0.2948  0.6917
11409WAT     H146342   1.850   4.078   1.724  0.1277  0.3162  0.8445
11409WAT     H246343   1.890   4.187   1.651  0.9898  0.5147  1.5948
11409WAT    EPW46344   1.853   4.156   1.713  0.0153  0.7588 -0.0756
11410WAT      O46345   2.479   1.831   2.514 -0.2661  0.5002 -0.0762
11410WAT     H146346   2.394   1.836   2.495 -0.9427  0.4118  2.5511
11410WAT     H246347   2.484   1.762   2.567  1.9927 -1.2639 -2.3314
11410WAT    EPW46348   2.467   1.822   2.519 -0.5077  0.3301 -0.7856
11411WAT      O46349   2.184   3.043   2.364 -0.2040 -0.3299 -0.0706
11411WAT     H146350   2.166   3.087   2.437  0.8317 -0.5803  0.3467
11411WAT     H246351   2.258   3.080   2.335 -0.3755 -0.5140 -0.7769
11411WAT    EPW46352   2.192   3.055   2.370  0.3575 -0.4435 -1.7739
11412WAT      O46353   2.123   0.789   2.529  0.4119 -0.0227 -0.1408
11412WAT     H146354   2.168   0.812   2.458  1.4646 -0.7743  0.2601
11412WAT     H246355   2.131   0.857   2.582  0.6402  0.0556 -0.2756
11412WAT    EPW46356   2.131   0.802   2.526  0.5888 -1.3703  0.5456
11413WAT      O46357   0.052   1.635   2.562 -0.1327  0.0126 -0.2190
11413WAT     H146358  -0.025   1.618   2.524 -0.7845 -0.7480  1.3392
11413WAT     H246359   0.109   1.590   2.514 -0.5755  0.8679 -1.6162
11413WAT    EPW46360   0.049   1.626   2.549 -0.1005  0.4387  0.8102
11414WAT      O46361   2.954   3.462   2.889 -0.4257  0.0960 -0.2632
11414WAT     H146362   3.017   3.403   2.894  0.0167  0.6438  1.2742
11414WAT     H246363   2.990   3.533   2.924 -2.1514  0.1432  1.6129
11414WAT    EPW46364   2.968   3.464   2.895  0.0589  0.3264 -0.2046
11415WAT      O46365   0.943   1.429   1.255 -0.2952 -0.3670 -0.2943
11415WAT     H146366   0.883   1.367   1.266  0.1152 -0.4767  1.7035
11415WAT     H246367   0.896   1.502   1.247 -0.7386 -0.4420  1.3301
11415WAT    EPW46368   0.927   1.430   1.256  0.0757 -0.1641  0.5518
11416WAT      O46369   0.396   1.254   2.191 -0.2136  0.0463 -0.5443
11416WAT     H146370   0.328   1.280   2.143 -0.1021 -0.6357 -1.0928
11416WAT     H246371   0.457   1.315   2.176 -0.3175  0.0508 -0.9683
11416WAT    EPW46372   0.395   1.267   2.182 -0.6006 -0.3516 -0.3696
11417WAT      O46373   2.097   3.772   3.026  0.3859  0.0304  0.4543
11417WAT     H146374   2.069   3.754   2.945 -0.0180  2.3269  0.0073
11417WAT     H246375   2.147   3.703   3.046 -0.5400 -1.2170 -1.2178
11417WAT    EPW46376   2.100   3.759   3.017  0.2887 -0.8381  0.5730
11418WAT      O46377   0.740   1.556   0.335 -0.3502  0.0247  0.4262
11418WAT     H146378   0.803   1.616   0.344  0.3238 -0.5493 -0.2882
11418WAT     H246379   0.721   1.560   0.250 -0.2139 -0.8343  0.3440
11418WAT    EPW46380   0.747   1.565   0.323 -0.4856 -0.5424  0.1347
11419WAT      O46381   2.279   2.699   3.118  0.0138 -0.5190  0.4860
11419WAT     H146382   2.298   2.616   3.140  1.4441 -0.2787  0.2876
11419WAT     H246383   2.227   2.691   3.049 -0.3307 -1.2548  0.8222
11419WAT    EPW46384   2.274   2.685   3.111  0.2215 -0.0602 -0.1018
11420WAT      O46385   2.600   4.053   1.426  0.0813 -0.3317 -0.4729
11420WAT     H146386   2.532   4.046   1.480 -0.6294 -0.2558 -1.3336
11420WAT     H246387   2.657   3.995   1.458 -0.0600  0.1505  0.7161
11420WAT    EPW46388   2.599   4.044   1.439 -0.1729 -0.3073  0.3076
11421WAT      O46389   2.332   2.309   1.779  0.4114  0.2049 -0.2263
11421WAT     H146390   2.295   2.321   1.701 -1.0623 -1.7051  0.1071
11421WAT     H246391   2.343   2.390   1.810 -0.0866  0.9509 -1.9026
11421WAT    EPW46392   2.328   2.323   1.772  0.0646  0.6533 -0.1358
11422WAT      O46393   1.691   1.055   2.158  0.2394 -0.2230  0.6443
11422WAT     H146394   1.652   0.977   2.154  1.6266 -0.9120 -2.4605
11422WAT     H246395   1.625   1.110   2.173 -1.0181 -1.8059  1.2655
11422WAT    EPW46396   1.676   1.051   2.160 -0.4438 -1.0571 -0.1250
11423WAT      O46397   3.598   3.493   1.665 -0.0984  0.5833  0.4291
11423WAT     H146398   3.567   3.412   1.674 -0.9792  0.9302  0.5915
11423WAT     H246399   3.663   3.483   1.607 -1.7839  0.1079 -1.5176
11423WAT    EPW46400   3.603   3.480   1.658  0.2271  0.1087 -0.2177
11424WAT      O46401   1.138   0.849   0.584 -0.7915  0.4142 -0.6619
11424WAT     H146402   1.129   0.765   0.605 -1.6429  0.5609 -0.4174
11424WAT     H246403   1.056   0.878   0.574 -0.4778  0.7536 -2.6878
11424WAT    EPW46404   1.125   0.841   0.586 -0.5205  0.0361 -0.1388
11425WAT      O46405   1.821   2.723   2.071  0.2654  0.0111 -0.4675
11425WAT     H146406   1.744   2.744   2.036  1.2553  1.9804 -1.6646
11425WAT     H246407   1.812   2.745   2.155 -0.3570  0.6070 -0.6760
11425WAT    EPW46408   1.808   2.729   2.078  0.0630  0.1524 -0.0223
11426WAT      O46409   1.576   2.280   0.562  0.1748  0.4534 -0.6374
11426WAT     H146410   1.518   2.306   0.622  1.7622  0.6513  0.9092
11426WAT     H246411   1.558   2.329   0.493 -1.1017  0.9194 -0.0033
11426WAT    EPW46412   1.565   2.291   0.561 -0.2879 -0.2709  0.4290
11427WAT      O46413   2.793   2.793   3.232  0.5928  0.1534  0.3600
11427WAT     H146414   2.739   2.848   3.272  1.5094  0.2396  1.5226
11427WAT     H246415   2.788   2.816   3.148 -1.7485 -0.3553  0.3099
11427WAT    EPW46416   2.785   2.805   3.225  0.3023  1.1381  0.9299
11428WAT      O46417   2.031   1.292   1.791 -0.9486  0.4787  0.4689
11428WAT     H146418   2.084   1.240   1.837  1.3164  0.6291 -1.7481
11428WAT     H246419   1.981   1.236   1.746 -0.6358  0.2700  0.3822
11428WAT    EPW46420   2.031   1.276   1.791  0.3314 -0.4699 -0.5108
11429WAT      O46421   3.045   2.360   1.794  0.2058  0.1705  0.0883
11429WAT     H146422   2.992   2.294   1.813 -0.5554  1.1032  1.2826
11429WAT     H246423   3.049   2.406   1.867  1.3657  1.0356 -0.4771
11429WAT    EPW46424   3.038   2.357   1.807  0.2285 -0.2200 -0.1183
11430WAT      O46425   1.715   1.926   2.447 -0.0571 -0.1597 -0.2368
11430WAT     H146426   1.788   1.947   2.406  0.4604 -0.1876  0.6421
11430WAT     H246427   1.743   1.889   2.521 -0.9497  0.8557  0.6346
11430WAT    EPW46428   1.730   1.923   2.452  0.1319  0.0307 -0.8994
11431WAT      O46429   1.627   0.626   0.396  0.5513  0.3114 -0.2259
11431WAT     H146430   1.566   0.601   0.453  0.2735 -0.3035 -0.7754
11431WAT     H246431   1.588   0.687   0.348  0.2655 -0.2662 -0.7465
11431WAT    EPW46432   1.612   0.631   0.397  0.2228  1.0257 -0.4391
11432WAT      O46433   3.096   2.181   1.433  0.4922 -0.1167  0.1667
11432WAT     H146434   3.019   2.151   1.405  1.0104 -0.8474 -0.5017
11432WAT     H246435   3.153   2.121   1.407  1.4844  1.1134 -0.6419
11432WAT    EPW46436   3.093   2.168   1.425  0.6391  0.1371 -0.6580
11433WAT      O46437   3.732   1.974   3.243  0.5099  0.1505 -0.0886
11433WAT     H146438   3.703   1.968   3.325 -0.8730 -0.0947 -0.5844
11433WAT     H246439   3.730   1.892   3.214  1.5688  0.1455 -0.1984
11433WAT    EPW46440   3.728   1.961   3.251 -0.0391 -0.6717  0.2619
11434WAT      O46441   3.305   2.993   2.763 -0.4979 -0.2059 -0.3388
11434WAT     H146442   3.279   3.006   2.846  1.0221 -0.1799  0.1726
11434WAT     H246443   3.254   3.046   2.717 -2.0189 -0.9170  0.4659
11434WAT    EPW46444   3.294   3.003   2.769  0.2045 -0.6564  0.3238
11435WAT      O46445   3.720   2.686   1.732 -0.5884 -0.6510  0.2849
11435WAT     H146446   3.744   2.700   1.815 -0.5859  2.6969 -0.1671
11435WAT     H246447   3.633   2.694   1.735 -0.4493  1.4134 -0.2837
11435WAT    EPW46448   3.711   2.689   1.745 -0.4045 -0.9150 -0.3637
11436WAT      O46449   3.408   1.608   2.817  0.5254  0.1216 -0.6586
11436WAT     H146450   3.490   1.580   2.819  1.7763  2.9647 -2.9992
11436WAT     H246451   3.410   1.681   2.865 -0.3913  0.6053 -1.3128
11436WAT    EPW46452   3.420   1.615   2.824 -0.2264  0.7404 -0.2138
11437WAT      O46453   2.774   2.427   2.799 -0.1980 -0.0770  0.0987
11437WAT     H146454   2.778   2.349   2.760  1.4726 -1.7400  3.2554
11437WAT     H246455   2.704   2.421   2.850  0.0749  0.4382  0.5446
11437WAT    EPW46456   2.764   2.415   2.801  0.3732 -0.0534 -0.1787
11438WAT      O46457   2.460   2.831   2.915  0.7044  0.0665 -0.3902
11438WAT     H146458   2.410   2.803   2.981  0.8751 -0.0738 -0.3194
11438WAT     H246459   2.410   2.889   2.874  0.8307  0.6358  0.2421
11438WAT    EPW46460   2.445   2.836   2.919  0.3305 -0.6458 -0.5235
11439WAT      O46461   2.467   2.792   0.495  0.3849 -0.0842 -0.2570
11439WAT     H146462   2.464   2.706   0.514 -0.2907 -0.1410 -0.5978
11439WAT     H246463   2.392   2.806   0.455  0.8302  0.5190 -0.8922
11439WAT    EPW46464   2.456   2.781   0.492  0.2773 -0.1005 -0.0184
11440WAT      O46465   2.823   3.604   2.089 -0.0857  0.0039  0.0945
11440WAT     H146466   2.872   3.629   2.157 -1.2817  0.1998  0.8978
11440WAT     H246467   2.850   3.657   2.025  2.0706 -1.1284 -0.0346
11440WAT    EPW46468   2.835   3.616   2.089 -1.0257  0.1524 -0.1074
11441WAT      O46469   0.940   2.473   1.990 -0.8915  0.0827 -0.1321
11441WAT     H146470   0.997   2.538   1.974 -0.4717 -0.0256  0.8260
11441WAT     H246471   0.863   2.514   1.992 -0.6501  0.5390  0.2796
11441WAT    EPW46472   0.937   2.489   1.988 -0.1904 -0.3484 -0.0237
11442WAT      O46473   2.084   0.096   2.085  0.1485  0.5844  0.4589
11442WAT     H146474   2.164   0.124   2.109  0.0718 -0.8908  2.6790
11442WAT     H246475   2.030   0.152   2.125 -0.0674  2.6056 -2.3411
11442WAT    EPW46476   2.088   0.108   2.095 -0.3205 -0.4333  0.2624
11443WAT      O46477   1.523   0.409   2.160 -0.6316 -0.3472 -0.5561
11443WAT     H146478   1.520   0.342   2.105  1.4815 -0.2880 -0.8039
11443WAT     H246479   1.567   0.378   2.228 -0.1473  0.6072 -0.4151
11443WAT    EPW46480   1.529   0.394   2.162  0.5467 -1.1970  0.9755
11444WAT      O46481   1.715   1.008   2.790 -0.2079 -0.2065 -0.1956
11444WAT     H146482   1.660   1.018   2.723  0.4015  0.9669 -0.5414
11444WAT     H246483   1.668   1.033   2.859 -0.9898 -1.8475 -0.0732
11444WAT    EPW46484   1.700   1.013   2.790  0.2278 -0.6155 -0.0740
11445WAT      O46485   1.776   2.929   1.653  0.4554  0.1844 -0.6097
11445WAT     H146486   1.774   3.016   1.650 -0.6837  0.2877  1.4245
11445WAT     H246487   1.858   2.911   1.676 -0.1009  1.0175  2.6027
11445WAT    EPW46488   1.788   2.939   1.656  0.0479 -0.1646  0.4116
11446WAT      O46489   2.182   1.916   1.168  0.2723  0.3427  0.7862
11446WAT     H146490   2.174   1.830   1.183  1.4457 -0.0641 -0.6432
11446WAT     H246491   2.244   1.940   1.224 -0.2621  0.3271  1.3929
11446WAT    EPW46492   2.190   1.907   1.178  0.4751 -0.2270  0.4708
11447WAT      O46493   1.443   7.825   1.545  0.1013 -0.4831 -0.0163
11447WAT     H146494   1.376   7.825   1.601  0.8661 -0.8960  0.9302
11447WAT     H246495   1.425   7.892   1.493  0.2768  1.1542  1.8827
11447WAT    EPW46496   1.430   7.835   1.546 -1.3784 -0.5549 -0.0109
11448WAT      O46497   1.766   4.072   1.353  0.4414  0.1273 -0.0908
11448WAT     H146498   1.816   4.002   1.340 -0.0641 -0.2811  0.0985
11448WAT     H246499   1.688   4.047   1.323 -1.0153 -1.1292  4.0091
11448WAT    EPW46500   1.762   4.058   1.347 -0.2631 -0.0229  0.4832
11449WAT      O46501   3.762   1.071   3.927 -0.0202 -0.0681  0.3267
11449WAT     H146502   3.728   0.992   3.937 -0.8327  0.3230  0.7985
11449WAT     H246503   3.694   1.120   3.903  0.5970  0.3651 -0.5898
11449WAT    EPW46504   3.747   1.067   3.925 -0.0605 -0.8608 -0.6505
11450WAT      O46505   2.165   2.319   3.381 -0.0220 -0.3389 -0.1795
11450WAT     H146506   2.103   2.286   3.330 -0.0417 -0.1047 -0.3118
11450WAT     H246507   2.205   2.377   3.329 -0.7821  0.7393  0.4097
11450WAT    EPW46508   2.162   2.323   3.366 -0.4228 -0.3727 -0.5258
11451WAT      O46509   2.250   3.113   1.124 -0.4019  0.2760 -0.0353
11451WAT     H146510   2.294   3.070   1.186 -0.7840  0.8645  0.6537
11451WAT     H246511   2.266   3.066   1.052  1.9463  0.8674  0.0305
11451WAT    EPW46512   2.259   3.100   1.122  0.3012  0.2369  0.2172
11452WAT      O46513   0.285   1.235   0.597 -0.2136 -0.2872  0.2224
11452WAT     H146514   0.364   1.206   0.619 -0.3415  0.3802  1.7285
11452WAT     H246515   0.273   1.303   0.651 -1.1027  0.7168 -1.1735
11452WAT    EPW46516   0.295   1.241   0.609 -0.3982  0.2706  0.1804
11453WAT      O46517   1.258   2.036   2.346  0.0378  0.7742  0.5523
11453WAT     H146518   1.300   2.060   2.419 -1.2121  3.1392  0.6155
11453WAT     H246519   1.254   2.110   2.300  0.6713 -0.6085 -1.9209
11453WAT    EPW46520   1.263   2.051   2.350 -1.3168 -0.1825  0.2985
11454WAT      O46521   3.187   0.614   2.453  0.3704 -0.1653  0.2056
11454WAT     H146522   3.133   0.645   2.513  1.5571  2.8929 -0.0927
11454WAT     H246523   3.144   0.626   2.378  0.0774 -1.1601  0.1991
11454WAT    EPW46524   3.173   0.620   2.450 -0.1473 -0.0197  1.3648
11455WAT      O46525   3.061   1.459   2.360  0.0555 -0.7088 -0.2318
11455WAT     H146526   3.104   1.461   2.436  1.3192 -0.2710 -0.9215
11455WAT     H246527   2.982   1.489   2.380  0.5510 -0.0464  0.7974
11455WAT    EPW46528   3.056   1.464   2.374  0.6682  0.2915  0.1946
11456WAT      O46529   1.372   2.906   1.838  0.4311 -0.5988  0.0433
11456WAT     H146530   1.298   2.867   1.815 -0.1577 -0.2972  1.3463
11456WAT     H246531   1.372   2.980   1.791  0.1339 -0.8002 -0.2782
11456WAT    EPW46532   1.361   2.911   1.828 -1.3278  0.1877 -0.2250
11457WAT      O46533   2.542   3.775   1.702  0.1151 -0.7944 -0.1126
11457WAT     H146534   2.561   3.756   1.619 -1.2157 -0.4929 -0.4949
11457WAT     H246535   2.593   3.720   1.747  2.2941  0.3356 -1.0574
11457WAT    EPW46536   2.553   3.764   1.696  0.0308 -0.4084  0.2220
11458WAT      O46537   0.917   2.293   0.812  0.0874  0.0146  0.0006
11458WAT     H146538   0.959   2.235   0.861  0.2491 -0.3575 -0.5640
11458WAT     H246539   0.835   2.264   0.811  0.0653  0.0721  0.1217
11458WAT    EPW46540   0.911   2.280   0.819  0.1932 -0.2371 -1.0327
11459WAT      O46541   0.976   2.132   1.579  0.6985 -0.0274  0.2518
11459WAT     H146542   0.996   2.167   1.657  2.0250 -0.5591  0.1899
11459WAT     H246543   1.044   2.154   1.529  0.7132 -1.1654 -0.2594
11459WAT    EPW46544   0.989   2.140   1.583 -0.6256 -0.2702  0.2105
11460WAT      O46545   2.796   2.704   2.344 -0.1245  0.3827  0.0867
11460WAT     H146546   2.794   2.787   2.371  0.4722  0.4266  0.0009
11460WAT     H246547   2.744   2.663   2.401  3.1964 -0.0420  3.1718
11460WAT    EPW46548   2.788   2.710   2.356  0.4699 -0.3839 -0.5311
11461WAT      O46549   2.696   1.705   2.811  0.2051 -0.5263  0.0660
11461WAT     H146550   2.667   1.623   2.818 -0.0774 -0.3787  0.7269
11461WAT     H246551   2.750   1.702   2.743 -0.5023 -1.0573 -0.4815
11461WAT    EPW46552   2.700   1.692   2.802 -0.0138 -0.5110 -0.6078
11462WAT      O46553   0.985   1.109   1.866  0.3982  0.3960 -0.2577
11462WAT     H146554   1.001   1.120   1.781 -1.8219  2.2801 -0.5161
11462WAT     H246555   0.925   1.045   1.867  1.2504 -0.4277  0.0279
11462WAT    EPW46556   0.978   1.101   1.853  0.0506  0.4439 -0.9229
11463WAT      O46557   2.345   1.512   2.735 -0.2922 -0.1698 -0.6706
11463WAT     H146558   2.335   1.547   2.814 -0.0749 -0.9872 -0.2615
11463WAT     H246559   2.264   1.500   2.706 -0.4942 -2.2117  0.5309
11463WAT    EPW46560   2.332   1.515   2.742  0.3823 -0.2185 -0.2305
11464WAT      O46561   7.740   0.333   0.423  0.0270  0.2974  0.1493
11464WAT     H146562   7.805   0.282   0.395  0.7558  0.9559  0.5907
11464WAT     H246563   7.776   0.413   0.424 -0.1259  0.3968  2.3753
11464WAT    EPW46564   7.755   0.337   0.419 -0.0107  0.2881  0.3449
11465WAT      O46565   1.528   0.275   1.722 -0.1863  0.1123  0.2786
11465WAT     H146566   1.460   0.325   1.740 -0.5247  1.2447 -3.3625
11465WAT     H246567   1.595   0.331   1.717  0.3078 -0.4482  0.4367
11465WAT    EPW46568   1.528   0.290   1.724 -0.1400  0.3849 -0.1382
11466WAT      O46569   3.077   1.029   1.625 -0.1626  0.2301  0.3563
11466WAT     H146570   3.015   1.083   1.653 -1.6903 -1.8408  1.2458
11466WAT     H246571   3.051   1.007   1.545 -0.1639 -0.0679  0.4382
11466WAT    EPW46572   3.064   1.034   1.618 -0.0997 -0.1234 -1.0768
11467WAT      O46573   1.581   1.728   2.907  0.2742 -0.6947  0.2532
11467WAT     H146574   1.582   1.669   2.972 -0.1278 -1.0161 -0.0224
11467WAT     H246575   1.663   1.756   2.903  0.2568 -0.4969  1.0574
11467WAT    EPW46576   1.593   1.723   2.916 -1.2779 -0.6710  0.2128
11468WAT      O46577   2.822   1.089   3.583  0.4069  0.6154  0.4508
11468WAT     H146578   2.805   1.125   3.660  0.7819  0.7795  0.4548
11468WAT     H246579   2.881   1.027   3.601  2.0134  1.9440  0.0281
11468WAT    EPW46580   2.828   1.085   3.597 -0.4642 -0.1058 -1.1619
11469WAT      O46581   2.866   2.173   3.305 -1.0588  0.7287  0.7746
11469WAT     H146582   2.870   2.176   3.218 -0.3633  0.3512  0.7853
11469WAT     H246583   2.920   2.237   3.330 -0.8030  0.4619  0.9213
11469WAT    EPW46584   2.875   2.183   3.296  0.1463 -0.3958  0.9876
11470WAT      O46585   2.352   4.533   2.306 -0.0966 -0.6499 -0.0210
11470WAT     H146586   2.320   4.464   2.349 -0.3265 -0.5625 -0.0478
11470WAT     H246587   2.282   4.564   2.263 -0.1003 -0.1380  0.3412
11470WAT    EPW46588   2.337   4.527   2.306 -0.5986 -0.3924 -0.9498
11471WAT      O46589   1.757   1.735   2.654  0.7396  0.7303  0.1276
11471WAT     H146590   1.729   1.667   2.701  0.2761  1.2192  0.5709
11471WAT     H246591   1.840   1.745   2.679  1.5657 -1.0636 -1.5812
11471WAT    EPW46592   1.765   1.727   2.665  0.2515  0.1122 -0.3940
11472WAT      O46593   4.125   2.570   1.591  0.4588  0.0185  0.2195
11472WAT     H146594   4.211   2.580   1.601  0.7007 -0.9515 -0.7003
11472WAT     H246595   4.093   2.650   1.605  1.6597  0.7546 -0.9965
11472WAT    EPW46596   4.133   2.583   1.595  1.0513 -0.2167 -1.4292
11473WAT      O46597   2.094   2.736   2.020  0.1047  0.1088  0.7836
11473WAT     H146598   2.120   2.680   2.081 -0.2808 -0.7687  0.1720
11473WAT     H246599   2.009   2.743   2.034  0.0016 -0.1507  0.3276
11473WAT    EPW46600   2.085   2.728   2.031  0.6199 -0.1340  0.4342
11474WAT      O46601   2.548   2.503   3.388  0.3133  0.1229 -0.4163
11474WAT     H146602   2.615   2.491   3.334  0.7896  3.1425 -0.6298
11474WAT     H246603   2.582   2.489   3.467  1.2200  1.5757 -0.5278
11474WAT    EPW46604   2.563   2.499   3.392  0.2246 -0.6893  0.2219
11475WAT      O46605   2.788   0.726   3.677  0.2682 -0.0090  0.6474
11475WAT     H146606   2.856   0.773   3.650 -0.5273  0.2756 -1.0031
11475WAT     H246607   2.818   0.644   3.678  0.7318  0.1541  0.2556
11475WAT    EPW46608   2.802   0.721   3.673 -0.0775 -0.2763 -0.5460
11476WAT      O46609   2.198   2.597   2.235  0.6209 -0.7859 -0.1411
11476WAT     H146610   2.257   2.542   2.269  0.7926  0.8717  2.5890
11476WAT     H246611   2.184   2.653   2.300 -1.7133  0.6844 -1.7848
11476WAT    EPW46612   2.205   2.597   2.250  0.5463 -0.2561  0.1587
11477WAT      O46613   2.648   1.090   2.007 -0.5085 -0.2419  0.6967
11477WAT     H146614   2.580   1.112   1.957  0.9318  0.1677 -1.1603
11477WAT     H246615   2.693   1.165   2.014  1.1288 -1.0687 -0.3755
11477WAT    EPW46616   2.645   1.104   2.001  0.6810  0.2785  0.3144
11478WAT      O46617   1.348   0.899   1.668  0.4252 -0.6886  0.3062
11478WAT     H146618   1.426   0.931   1.691  0.7457  1.3153 -2.9635
11478WAT     H246619   1.293   0.945   1.717  1.1780 -0.0072  0.5474
11478WAT    EPW46620   1.352   0.911   1.679 -0.3696  0.5519  0.1718
11479WAT      O46621   2.811   2.895   1.007  0.1792 -0.1623 -0.3032
11479WAT     H146622   2.858   2.825   1.032  0.1322 -0.9606 -2.2686
11479WAT     H246623   2.857   2.929   0.942 -1.5484 -0.5196 -1.7940
11479WAT    EPW46624   2.825   2.890   1.001  0.5342 -1.0460  0.4198
11480WAT      O46625   2.533   1.564   1.661 -0.5458 -0.1351 -0.4788
11480WAT     H146626   2.576   1.623   1.613 -0.0743 -0.7094 -0.7744
11480WAT     H246627   2.561   1.579   1.742  0.6760 -0.8825 -0.7437
11480WAT    EPW46628   2.544   1.575   1.666  0.8689 -0.8327  0.8599
11481WAT      O46629   1.760   2.091   0.849 -0.2566  0.1747 -0.4243
11481WAT     H146630   1.778   2.160   0.899 -0.2391 -0.5746  0.6296
11481WAT     H246631   1.787   2.116   0.770  3.7590 -0.0932  0.6403
11481WAT    EPW46632   1.767   2.105   0.844 -0.7347 -1.0982 -0.2006
11482WAT      O46633   0.577   0.867   1.124  0.0344  0.5252  0.5009
11482WAT     H146634   0.658   0.850   1.096 -0.9830  0.8430 -3.1651
11482WAT     H246635   0.547   0.925   1.066 -3.8466 -1.9892 -0.3988
11482WAT    EPW46636   0.585   0.873   1.111 -0.3305 -0.0323  0.3963
11483WAT      O46637   2.108   0.703   1.634 -0.5241  0.4847  0.1589
11483WAT     H146638   2.195   0.704   1.635 -0.5276  1.4437  0.5502
11483WAT     H246639   2.088   0.620   1.651  0.3131  0.0784 -0.7506
11483WAT    EPW46640   2.118   0.691   1.636  0.2148  0.5428 -0.1625
11484WAT      O46641   1.080   1.132   2.520 -1.3081 -0.3363  0.2255
11484WAT     H146642   1.028   1.159   2.455 -1.6529  0.9336  0.9993
11484WAT     H246643   1.035   1.068   2.558 -2.1853  0.5233  0.6741
11484WAT    EPW46644   1.066   1.126   2.516  1.2732 -0.6444  0.4554
11485WAT      O46645   1.694   2.643   1.421 -0.1756 -0.0764  0.1771
11485WAT     H146646   1.704   2.617   1.504  2.6510 -3.4196 -0.9858
11485WAT     H246647   1.775   2.665   1.397 -1.0329  1.3108 -1.6250
11485WAT    EPW46648   1.708   2.643   1.430 -0.0521  0.1587 -0.5512
11486WAT      O46649   2.336   0.571   2.927  0.4959  0.6669  0.2586
11486WAT     H146650   2.318   0.571   2.842  0.7995  2.0695  0.1669
11486WAT     H246651   2.396   0.508   2.935 -2.2309 -2.1403  0.1254
11486WAT    EPW46652   2.342   0.562   2.915  0.5708 -0.0605  0.3670
11487WAT      O46653   0.886   2.687   2.196  0.4513  0.0406  0.0225
11487WAT     H146654   0.962   2.706   2.159  0.2357 -2.0975 -1.7820
11487WAT     H246655   0.827   2.725   2.144  0.2070 -1.4892 -0.8862
11487WAT    EPW46656   0.888   2.695   2.183  0.6325  0.1170 -0.6062
11488WAT      O46657   2.260   1.495   1.824  0.0696  0.2887 -0.3131
11488WAT     H146658   2.177   1.478   1.806  0.1126 -0.5851  0.2565
11488WAT     H246659   2.304   1.439   1.773  0.2784  0.1435  0.0233
11488WAT    EPW46660   2.255   1.484   1.814 -0.1068 -0.1386  0.6260
11489WAT      O46661   2.545   1.901   3.216 -0.0157 -0.2662  0.2502
11489WAT     H146662   2.550   1.902   3.129  1.8837  0.7855  0.3241
11489WAT     H246663   2.544   1.985   3.238 -0.6070 -0.5187  1.2634
11489WAT    EPW46664   2.546   1.913   3.207 -0.3790 -0.1394  0.1628
11490WAT      O46665   0.492   1.796   0.640  0.5211 -0.4855  0.2816
11490WAT     H146666   0.478   1.827   0.720  1.9402  1.3244 -0.1181
11490WAT     H246667   0.575   1.819   0.623  0.6039 -1.7705 -1.2968
11490WAT    EPW46668   0.502   1.804   0.649  0.0734 -0.9572 -0.3023
11491WAT      O46669   3.169   3.320   2.223  0.2933  0.5036 -0.0008
11491WAT     H146670   3.239   3.372   2.232  1.0206 -0.6442  1.2869
11491WAT     H246671   3.200   3.241   2.244 -1.3439 -0.0561  0.3961
11491WAT    EPW46672   3.184   3.316   2.227  0.7632 -0.5092 -0.0986
11492WAT      O46673   7.981   1.538   1.471 -0.7011  0.5849 -0.2124
11492WAT     H146674   8.046   1.530   1.529 -2.0074 -1.7039  1.1130
11492WAT     H246675   7.983   1.463   1.427 -2.2191  0.5953 -0.3560
11492WAT    EPW46676   7.991   1.526   1.473 -0.0701 -0.4063 -0.1851
11493WAT      O46677   3.727   1.723   2.871  0.0708 -0.2927 -0.6960
11493WAT     H146678   3.719   1.809   2.881  1.0694 -0.3152  0.4676
11493WAT     H246679   3.813   1.709   2.881 -0.0574 -1.4018 -1.0171
11493WAT    EPW46680   3.738   1.734   2.874  0.4707 -0.4446  0.0429
11494WAT      O46681   1.981   0.963   1.476 -0.8611  0.2212 -0.0711
11494WAT     H146682   1.935   0.956   1.401 -1.7052 -0.5183  0.4981
11494WAT     H246683   2.005   0.881   1.493  0.9022  0.6155 -0.4566
11494WAT    EPW46684   1.977   0.950   1.467 -0.0974 -0.4136 -0.8030
11495WAT      O46685   2.872   3.250   2.528  0.3090  0.3752 -0.1161
11495WAT     H146686   2.815   3.234   2.464 -1.4068 -0.5296  1.5486
11495WAT     H246687   2.880   3.337   2.528  0.2110  0.3995 -1.4301
11495WAT    EPW46688   2.865   3.260   2.519  0.8508  0.1575  0.7733
11496WAT      O46689   2.838   4.014   2.933  0.7272 -0.0078 -0.1140
11496WAT     H146690   2.856   4.036   2.850  0.1088 -0.0105 -0.2563
11496WAT     H246691   2.751   4.006   2.933  0.8832 -2.3352 -0.0516
11496WAT    EPW46692   2.828   4.016   2.921 -0.4408  0.4991 -0.8601
11497WAT      O46693   0.687   2.786   1.772 -0.2139 -0.1239 -0.0867
11497WAT     H146694   0.710   2.869   1.783 -0.1018 -0.4222  2.9110
11497WAT     H246695   0.760   2.748   1.743  0.6874  0.3524  1.4352
11497WAT    EPW46696   0.701   2.792   1.769  0.0396  0.7675 -0.4679
11498WAT      O46697   2.396   0.650   1.135  0.7029  0.6133  0.3826
11498WAT     H146698   2.354   0.616   1.204 -0.4464  0.5518 -0.3151
11498WAT     H246699   2.477   0.621   1.145  0.6457  0.8439  1.8670
11498WAT    EPW46700   2.402   0.641   1.147 -0.5372 -1.0580  0.0873
11499WAT      O46701   2.248   2.822   3.432  0.0568 -0.1260  0.2536
11499WAT     H146702   2.229   2.907   3.433 -1.1949 -0.3614 -0.4829
11499WAT     H246703   2.315   2.816   3.377 -0.5096  0.2803 -0.5011
11499WAT    EPW46704   2.255   2.834   3.424 -0.0273 -0.5877 -0.1121
11500WAT      O46705   1.942   3.759   1.780 -0.5953  0.5087 -0.0348
11500WAT     H146706   1.901   3.789   1.851 -0.8387  2.1190 -0.8149
11500WAT     H246707   1.896   3.792   1.714 -0.1216 -0.6073 -0.9569
11500WAT    EPW46708   1.929   3.768   1.780  0.7324 -0.1679  0.1364
11501WAT      O46709   0.884   7.806   1.037  0.0686 -0.0907 -0.2360
11501WAT     H146710   0.892   7.757   1.109  1.3749 -0.7087 -0.7634
11501WAT     H246711   0.965   7.833   1.022 -0.2372  0.2658 -1.3185
11501WAT    EPW46712   0.897   7.803   1.046  0.1330  0.5031 -0.9299
11502WAT      O46713   1.061   0.786   1.140  0.4424  0.0015  0.1193
11502WAT     H146714   1.051   0.790   1.226 -2.3978  1.2179 -0.1726
11502WAT     H246715   1.078   0.868   1.117 -0.9444  0.1128 -0.6242
11502WAT    EPW46716   1.062   0.799   1.149  0.3539 -0.6575 -1.2845
11503WAT      O46717   1.645   1.475   2.212  0.3110 -0.0375  0.1831
11503WAT     H146718   1.615   1.395   2.229 -0.0764  0.0768  0.0401
11503WAT     H246719   1.604   1.525   2.271 -1.0758  0.3753 -1.0666
11503WAT    EPW46720   1.634   1.471   2.223  0.3764  0.2986 -0.2195
11504WAT      O46721   2.354   2.074   1.938  0.2798  0.1445 -0.1308
11504WAT     H146722   2.281   2.029   1.920 -0.9524  2.3526 -1.0226
11504WAT     H246723   2.353   2.139   1.880  1.9679  1.3160  1.0574
11504WAT    EPW46724   2.343   2.077   1.927  0.2635  0.1927 -0.5027
11505WAT      O46725   2.302   0.597   3.272 -0.2503  0.0192  0.2373
11505WAT     H146726   2.379   0.636   3.263 -0.0604 -0.2631  0.5880
11505WAT     H246727   2.249   0.642   3.220  0.0669  0.4548  0.2889
11505WAT    EPW46728   2.306   0.609   3.263  0.6552 -0.0016 -0.4030
11506WAT      O46729   0.975   2.381   2.280 -0.3565 -0.1531  0.4781
11506WAT     H146730   1.005   2.429   2.347  1.2100  0.0448 -0.3144
11506WAT     H246731   0.951   2.441   2.222 -0.3709 -0.3160  0.3160
11506WAT    EPW46732   0.976   2.397   2.282 -0.1558  0.0381  0.1122
11507WAT      O46733   2.764   3.400   1.780  0.0682 -0.8569  0.3206
11507WAT     H146734   2.846   3.377   1.759  0.9856  1.4108  1.1255
11507WAT     H246735   2.750   3.356   1.854  1.1971 -0.1162  1.0185
11507WAT    EPW46736   2.774   3.390   1.788  0.7983 -0.1756 -0.5224
11508WAT      O46737   1.299   1.706   2.245  0.3273  0.1229 -0.0791
11508WAT     H146738   1.386   1.699   2.255  0.2443  0.0037  0.6031
11508WAT     H246739   1.282   1.786   2.275  0.1889  0.1159 -0.1411
11508WAT    EPW46740   1.310   1.717   2.251  0.3380 -0.1935 -0.5751
11509WAT      O46741   1.553   1.649   2.021 -0.0494 -0.1945 -0.3257
11509WAT     H146742   1.591   1.713   2.067  0.8547 -0.1696 -1.0555
11509WAT     H246743   1.565   1.578   2.070  2.2117 -0.4430 -1.1021
11509WAT    EPW46744   1.561   1.648   2.035  0.7964  0.4778 -0.7312
11510WAT      O46745   3.488   3.653   2.686  0.3498 -0.0183 -0.1276
11510WAT     H146746   3.481   3.714   2.625 -0.4654 -1.6056 -1.6994
11510WAT     H246747   3.550   3.684   2.739  0.5052  1.7800 -1.2939
11510WAT    EPW46748   3.496   3.666   2.685  0.1146  0.4079 -0.2086
11511WAT      O46749   3.385   2.363   3.330  0.1813 -0.1666  0.3110
11511WAT     H146750   3.368   2.360   3.415 -1.1213 -2.0477  0.0399
11511WAT     H246751   3.352   2.439   3.305 -0.5264 -0.1472  1.2751
11511WAT    EPW46752   3.378   2.374   3.339  0.3356  0.3472 -0.1849
11512WAT      O46753   2.317   1.559   2.295  0.2604 -0.3182  0.2734
11512WAT     H146754   2.275   1.491   2.262  0.7040  0.0971 -1.2201
11512WAT     H246755   2.303   1.623   2.237  0.9621  0.4926  0.9559
11512WAT    EPW46756   2.309   1.558   2.282  0.4172 -0.2185 -0.4659
11513WAT      O46757   2.256   1.036   1.381  0.1418 -0.1029  0.0353
11513WAT     H146758   2.234   1.042   1.297  0.2247 -1.1254 -0.0654
11513WAT     H246759   2.179   1.034   1.422  0.0583  2.6226  0.2032
11513WAT    EPW46760   2.241   1.037   1.375  0.3027  0.6114 -0.2826
11514WAT      O46761   2.225   1.313   1.200 -0.0897 -0.3666  0.0571
11514WAT     H146762   2.283   1.347   1.256 -0.2838 -1.2731  0.8511
11514WAT     H246763   2.244   1.228   1.201  0.6990 -0.2705 -2.2379
11514WAT    EPW46764   2.236   1.306   1.209 -0.1814 -0.1909 -0.0828
11515WAT      O46765   1.712   0.402   2.700 -0.1515  0.0924 -0.4098
11515WAT     H146766   1.650   0.461   2.682 -2.8121 -2.2272  0.4948
11515WAT     H246767   1.748   0.431   2.774 -2.4160 -0.0589  0.8321
11515WAT    EPW46768   1.708   0.415   2.708  0.0183 -0.1871 -0.6392
11516WAT      O46769   3.328   1.684   3.596 -0.2685 -0.1245  0.1329
11516WAT     H146770   3.302   1.767   3.602 -1.4056 -0.1374 -2.7990
11516WAT     H246771   3.374   1.682   3.521  0.8569 -1.9129  0.7915
11516WAT    EPW46772   3.331   1.696   3.586 -0.0784  0.1791 -0.0125
11517WAT      O46773   3.069   2.733   2.623  0.1097 -0.5416 -0.1795
11517WAT     H146774   3.108   2.793   2.573  4.5510 -2.0344  1.0321
11517WAT     H246775   3.050   2.669   2.567  0.9851 -0.4292 -0.6276
11517WAT    EPW46776   3.072   2.732   2.608 -0.3752 -0.3648 -1.0153
11518WAT      O46777   2.123   2.812   1.158  0.3171  0.4886 -0.0041
11518WAT     H146778   2.156   2.855   1.090 -2.2609 -0.5850 -2.1317
11518WAT     H246779   2.054   2.860   1.181 -0.7758 -0.8437 -0.3801
11518WAT    EPW46780   2.118   2.825   1.152 -0.8639 -0.5066 -0.7242
11519WAT      O46781   0.922   3.217   1.844  0.0610  0.1384 -0.1462
11519WAT     H146782   0.840   3.190   1.832  0.3332 -1.6606  1.5974
11519WAT     H246783   0.949   3.235   1.763 -1.0325 -2.4351 -1.2158
11519WAT    EPW46784   0.914   3.216   1.830 -0.5647 -0.0686 -0.1888
11520WAT      O46785   1.300   2.286   1.783  0.1898  0.3190 -0.4205
11520WAT     H146786   1.344   2.355   1.752  1.0208 -0.2083 -0.4403
11520WAT     H246787   1.359   2.243   1.830 -0.2285 -0.5515 -0.6718
11520WAT    EPW46788   1.315   2.290   1.785 -0.1588 -0.9529 -0.0110
11521WAT      O46789   0.034   1.677   0.527 -0.1758  0.2710 -0.5514
11521WAT     H146790   0.032   1.671   0.615 -0.7763 -0.6713 -0.6078
11521WAT     H246791   0.110   1.638   0.506 -1.7972 -3.2604 -0.6134
11521WAT    EPW46792   0.045   1.670   0.537  0.5481  0.2339  0.4219
11522WAT      O46793   1.995   2.210   2.226  0.2680  0.5482  0.8381
11522WAT     H146794   2.005   2.246   2.147  0.9847 -1.9371 -0.2939
11522WAT     H246795   1.976   2.279   2.277 -0.5800  2.2224 -1.5186
11522WAT    EPW46796   1.993   2.226   2.222 -0.2377 -0.7601  0.5062
11523WAT      O46797   7.613   1.870   0.505  0.2660 -0.1583 -0.3588
11523WAT     H146798   7.650   1.794   0.525 -1.1631 -0.3471  1.9159
11523WAT     H246799   7.590   1.903   0.582  0.4136  2.3912 -1.3163
11523WAT    EPW46800   7.615   1.864   0.519  0.0294 -0.9882  0.8446
11524WAT      O46801   2.615   1.770   2.290  0.4020 -0.1574  0.1277
11524WAT     H146802   2.665   1.707   2.325  0.5468 -0.1929 -0.1458
11524WAT     H246803   2.564   1.795   2.357  1.6865  0.8079  0.7913
11524WAT    EPW46804   2.615   1.765   2.305 -0.4413  0.6402 -0.0861
11525WAT      O46805   2.094   1.478   0.376 -0.1166 -0.2683  0.1379
11525WAT     H146806   2.164   1.497   0.328 -1.4304  1.3087 -1.2644
11525WAT     H246807   2.115   1.508   0.456  0.0639  2.1242 -0.7343
11525WAT    EPW46808   2.107   1.485   0.381  0.3769 -0.2048  0.3498
11526WAT      O46809   2.158   1.890   1.880  0.2744 -0.2467 -0.5762
11526WAT     H146810   2.163   1.824   1.937 -0.1867  0.4440  0.2889
11526WAT     H246811   2.076   1.918   1.887  0.7457  1.1092 -0.1167
11526WAT    EPW46812   2.147   1.885   1.889 -0.4716 -1.0755 -0.2457
11527WAT      O46813   7.496   0.942   8.056  0.8866  0.1562  0.0437
11527WAT     H146814   7.472   1.021   8.085  1.9770 -0.1141  1.8442
11527WAT     H246815   7.428   0.917   8.007  0.6010  2.2684 -0.7548
11527WAT    EPW46816   7.483   0.950   8.053 -1.0463  0.3151 -0.1888
11528WAT      O46817   1.822   1.401   0.050  0.2590  0.2990 -0.1676
11528WAT     H146818   1.792   1.331   0.093  0.8719  0.0416 -0.1447
11528WAT     H246819   1.753   1.455   0.048 -0.6498 -0.8329 -1.3661
11528WAT    EPW46820   1.807   1.398   0.056 -0.1522 -1.1779 -0.6734
11529WAT      O46821   3.197   1.704   2.608  0.3359 -0.2301  0.1572
11529WAT     H146822   3.208   1.618   2.614  1.7570 -0.0160  1.1858
11529WAT     H246823   3.276   1.733   2.586 -0.1942  0.8049 -0.4668
11529WAT    EPW46824   3.210   1.696   2.605  0.2149 -0.3690  0.6839
11530WAT      O46825   7.633   3.422   0.872 -0.5320  0.0489  0.4074
11530WAT     H146826   7.584   3.494   0.882 -1.2054  0.2664 -3.2418
11530WAT     H246827   7.715   3.454   0.870 -0.6303  0.3745  0.9917
11530WAT    EPW46828   7.638   3.438   0.873 -0.1027  0.2141  0.8800
11531WAT      O46829   0.218   2.127   0.899  0.6095 -0.1828  0.1632
11531WAT     H146830   0.208   2.144   0.814 -0.7900 -0.9812  0.1402
11531WAT     H246831   0.183   2.197   0.937 -1.7548 -1.2142  0.0514
11531WAT    EPW46832   0.211   2.140   0.892 -0.3712 -0.0068  0.0079
11532WAT      O46833   1.940   0.405   2.457  0.2889 -0.0730 -0.2481
11532WAT     H146834   1.905   0.483   2.473  1.2507  0.4365 -0.5582
11532WAT     H246835   1.952   0.372   2.537 -2.3236 -0.9701 -0.1156
11532WAT    EPW46836   1.936   0.411   2.472  1.0933  0.0200  0.0256
11533WAT      O46837   1.594   1.768   0.326  0.1035  0.4338  0.0646
11533WAT     H146838   1.604   1.834   0.383 -1.9512 -0.0163  1.0688
11533WAT     H246839   1.656   1.711   0.350  0.3438  0.9720  0.7851
11533WAT    EPW46840   1.604   1.769   0.338 -0.1875 -0.4362 -0.7749
11534WAT      O46841   3.198   0.879   7.607 -0.3590 -0.1124  0.1094
11534WAT     H146842   3.258   0.903   7.665  0.1424  1.5060 -1.0019
11534WAT     H246843   3.127   0.925   7.629 -1.1728 -1.7922  1.2363
11534WAT    EPW46844   3.196   0.889   7.619 -0.4681 -0.5112 -0.4293
11535WAT      O46845   1.329   1.821   0.018  0.2760 -0.6849  0.2953
11535WAT     H146846   1.335   1.737  -0.006 -0.9310 -0.5575 -0.5208
11535WAT     H246847   1.412   1.846   0.025  0.6698 -2.0312  0.8997
11535WAT    EPW46848   1.342   1.812   0.016  0.0917 -0.3831 -0.8727
11536WAT      O46849   1.860   3.454   1.267  0.6571  0.0935  0.5398
11536WAT     H146850   1.896   3.392   1.317  0.4692  1.6967  2.8258
11536WAT     H246851   1.775   3.444   1.280  0.5960  0.3951  0.3838
11536WAT    EPW46852   1.853   3.444   1.276  0.2856 -0.6651  0.2195
11537WAT      O46853   1.751   1.725   0.764  0.0668 -0.0335 -0.2119
11537WAT     H146854   1.813   1.732   0.825 -0.4993  1.0857  0.2689
11537WAT     H246855   1.780   1.775   0.699  1.3771 -2.3527 -1.5591
11537WAT    EPW46856   1.765   1.733   0.763 -0.8613  0.6334 -0.0276
11538WAT      O46857   2.376   3.852   0.856 -0.1601  0.4850 -0.2412
11538WAT     H146858   2.307   3.895   0.823  0.0973  0.4883 -0.7715
11538WAT     H246859   2.375   3.776   0.814 -0.6633 -0.0798  0.7569
11538WAT    EPW46860   2.366   3.847   0.845 -0.1676  0.7682 -0.8217
11539WAT      O46861   0.055   2.354   0.249 -0.3287 -0.1132  0.4021
11539WAT     H146862   0.116   2.347   0.311 -0.3314 -1.1680  0.3025
11539WAT     H246863   0.097   2.395   0.184  0.2560 -0.7361  0.3706
11539WAT    EPW46864   0.070   2.359   0.249  0.1482  0.3685 -0.3849
11540WAT      O46865   0.798   2.936   0.371 -0.3986  0.1777 -0.0981
11540WAT     H146866   0.817   2.987   0.303 -0.4143  0.3779  0.0456
11540WAT     H246867   0.715   2.912   0.357  0.1126 -1.1535 -1.0155
11540WAT    EPW46868   0.788   2.940   0.359  0.0893  0.6390  0.4495
11541WAT      O46869   1.659   2.291   1.441 -0.1691  0.1846  0.4153
11541WAT     H146870   1.598   2.238   1.474 -1.5103  0.2425 -1.7649
11541WAT     H246871   1.612   2.353   1.402  1.2408 -0.0602 -1.8337
11541WAT    EPW46872   1.643   2.292   1.440 -0.4349 -0.4928 -0.4749
11542WAT      O46873   1.408   2.697   7.172  0.3041  0.3438  0.1063
11542WAT     H146874   1.424   2.642   7.107 -1.8248  2.4509 -2.4046
11542WAT     H246875   1.350   2.653   7.222  1.5507 -1.0772  0.3747
11542WAT    EPW46876   1.401   2.682   7.170 -0.0595 -0.9866 -0.1124
11543WAT      O46877   1.932   2.540   0.300 -0.1378 -0.3315 -0.1325
11543WAT     H146878   1.979   2.514   0.232 -2.3740 -1.8205 -1.2404
11543WAT     H246879   1.933   2.627   0.295  1.2909 -0.3737 -0.9283
11543WAT    EPW46880   1.939   2.549   0.290  0.6856 -0.1409 -0.1172
11544WAT      O46881   0.574   1.631   1.703  0.2823 -0.1058 -0.3063
11544WAT     H146882   0.655   1.657   1.723 -0.5383  1.9711  0.6545
11544WAT     H246883   0.552   1.684   1.637 -0.3750 -0.4504 -0.3704
11544WAT    EPW46884   0.583   1.643   1.696  0.2079 -0.2694 -0.9375
11545WAT      O46885   2.682   3.238   2.322 -0.0118 -0.0015  0.1193
11545WAT     H146886   2.642   3.308   2.356 -0.7801 -0.5088  0.2817
11545WAT     H246887   2.740   3.273   2.267 -0.7651  0.7455 -0.2246
11545WAT    EPW46888   2.684   3.254   2.319  0.1107 -0.1304  0.0909
11546WAT      O46889   0.588   1.264   8.038  0.0847 -0.1603  0.4515
11546WAT     H146890   0.646   1.233   8.095  0.1247 -1.0516 -0.0528
11546WAT     H246891   0.591   1.207   7.972 -0.4400  0.4823 -0.1509
11546WAT    EPW46892   0.597   1.251   8.036 -0.4087 -0.2942  0.0340
11547WAT      O46893   1.537   2.768   2.030 -0.2540 -0.1424  0.0408
11547WAT     H146894   1.510   2.818   1.964  0.0164 -0.8261 -0.5906
11547WAT     H246895   1.480   2.702   2.031 -0.4064 -0.0114  0.6569
11547WAT    EPW46896   1.524   2.766   2.021  0.1496 -0.2348 -0.4814
11548WAT      O46897   1.023   2.554   0.869  0.0820  0.1467  0.2643
11548WAT     H146898   1.072   2.528   0.936  1.6585  0.0076 -0.8798
11548WAT     H246899   0.971   2.486   0.853 -0.3718  0.2214  1.3811
11548WAT    EPW46900   1.023   2.540   0.876  0.4231 -0.1092  0.3142
11549WAT      O46901   3.753   2.159   0.397 -0.9763 -0.3279 -0.2436
11549WAT     H146902   3.709   2.132   0.467 -0.9911  0.4877  0.0751
11549WAT     H246903   3.796   2.230   0.425 -1.9127  0.7270 -1.3527
11549WAT    EPW46904   3.753   2.165   0.411  0.1533 -0.3425 -1.1938
11550WAT      O46905   7.622   1.528   1.445 -0.8904 -0.0814  0.5674
11550WAT     H146906   7.685   1.554   1.499 -0.2395  0.6913 -0.5360
11550WAT     H246907   7.644   1.562   1.368 -2.4848 -0.0494  0.0753
11550WAT    EPW46908   7.634   1.537   1.442 -0.5303  0.4727 -0.5402
11551WAT      O46909   3.069   2.788   2.259 -0.1754 -0.0864  0.7349
11551WAT     H146910   2.984   2.805   2.275 -0.2023 -0.9499  1.5746
11551WAT     H246911   3.081   2.709   2.294  0.2625 -1.3201 -1.9447
11551WAT    EPW46912   3.058   2.779   2.266  0.0849  0.0107  0.4751
11552WAT      O46913   0.885   0.139   0.613 -0.0205 -0.0691  0.5979
11552WAT     H146914   0.934   0.099   0.553 -0.7665  0.2943 -0.2955
11552WAT     H246915   0.927   0.125   0.687  1.8741  0.8994 -0.2162
11552WAT    EPW46916   0.898   0.131   0.615  0.0212 -0.3050 -0.4284
11553WAT      O46917   7.738   0.808   0.085  0.2960  0.3369  0.0059
11553WAT     H146918   7.676   0.854   0.044  1.2312 -0.5460 -2.6084
11553WAT     H246919   7.803   0.866   0.095  0.8998  0.0543 -1.8980
11553WAT    EPW46920   7.738   0.824   0.080  0.6842  0.1374 -0.2527
11554WAT      O46921   1.579   1.023   1.296  0.4059 -0.1392  0.3745
11554WAT     H146922   1.502   1.057   1.318  0.2190 -0.3346  0.0337
11554WAT     H246923   1.562   0.939   1.283  0.6373 -0.1502  0.1167
11554WAT    EPW46924   1.565   1.016   1.297  0.3278 -0.1037 -0.0732
11555WAT      O46925   1.508   1.603   0.894  0.0341  0.6822  0.2153
11555WAT     H146926   1.520   1.534   0.945  0.5110  1.6436  1.4642
11555WAT     H246927   1.586   1.614   0.856 -0.5907 -0.6281 -1.5633
11555WAT    EPW46928   1.521   1.595   0.896  0.4989 -0.2573 -0.2475
11556WAT      O46929   2.816   2.443   1.547 -0.5366 -0.3236  0.5839
11556WAT     H146930   2.841   2.399   1.618  0.1687 -0.3127  0.3533
11556WAT     H246931   2.885   2.492   1.528 -0.8525 -0.0594  0.0973
11556WAT    EPW46932   2.830   2.443   1.555 -0.7235 -0.0874  0.5019
11557WAT      O46933   0.220   1.693   0.205 -0.2326  0.0737  0.0342
11557WAT     H146934   0.291   1.688   0.156 -1.0408  1.9299 -1.4365
11557WAT     H246935   0.231   1.628   0.263  2.2422 -0.1861 -0.6077
11557WAT    EPW46936   0.232   1.682   0.206 -0.4327 -0.4902  0.4951
11558WAT      O46937   3.168   2.846   0.974 -0.1496  0.0724 -0.0487
11558WAT     H146938   3.225   2.801   0.926  1.2142  1.0718  0.5849
11558WAT     H246939   3.108   2.787   0.995 -0.7598 -0.4575 -2.8358
11558WAT    EPW46940   3.167   2.831   0.970 -0.1459 -0.5095 -0.2752
11559WAT      O46941   1.252   2.112   1.134 -0.0198 -0.3798  0.4897
11559WAT     H146942   1.295   2.174   1.090 -0.1386 -1.3680 -1.0804
11559WAT     H246943   1.269   2.131   1.217  1.4710  0.6812 -0.0096
11559WAT    EPW46944   1.261   2.124   1.140  0.4488 -0.1476  0.2110
11560WAT      O46945   1.166   3.094   7.938  0.1716  0.0448 -0.5722
11560WAT     H146946   1.236   3.140   7.962  0.2411 -0.1645 -0.3707
11560WAT     H246947   1.135   3.139   7.870  0.4684  0.1714 -0.6287
11560WAT    EPW46948   1.172   3.107   7.932 -0.3753 -0.5758  0.2426
11561WAT      O46949   2.893   3.205   8.030  0.8999  0.3136 -0.6388
11561WAT     H146950   2.889   3.118   8.025  0.4768  0.3023 -0.1997
11561WAT     H246951   2.963   3.219   8.080  1.7313  0.2717 -1.7556
11561WAT    EPW46952   2.902   3.194   8.037 -0.3804 -0.1368  0.1993
11562WAT      O46953   1.109   2.803   0.845 -0.4299 -0.1665  0.1865
11562WAT     H146954   1.082   2.721   0.853 -0.7466  0.0016  0.9072
11562WAT     H246955   1.139   2.807   0.763  1.2347 -1.4863  0.6777
11562WAT    EPW46956   1.109   2.791   0.834  0.4012 -0.6178  0.0489
11563WAT      O46957   2.719   3.182   1.964  0.4350 -0.8019  0.6868
11563WAT     H146958   2.764   3.207   2.035  0.7281  0.1866  0.1800
11563WAT     H246959   2.766   3.116   1.933  1.3228 -0.0749  0.4172
11563WAT    EPW46960   2.733   3.176   1.970 -0.2103 -0.3286 -0.3476
11564WAT      O46961   1.985   3.118   1.216  0.1980  0.4512 -0.4429
11564WAT     H146962   1.975   3.148   1.297 -0.1521 -0.9764  0.0548
11564WAT     H246963   2.071   3.123   1.203  0.2879  0.4315  0.1169
11564WAT    EPW46964   1.996   3.123   1.226 -0.7384  0.8999  0.5270
11565WAT      O46965   3.427   0.694   8.012 -0.2889  0.4348 -0.4337
11565WAT     H146966   3.482   0.632   7.985  0.8765  1.0676  0.3927
11565WAT     H246967   3.361   0.650   8.048  0.4289 -0.3291 -0.0379
11565WAT    EPW46968   3.425   0.679   8.013 -0.2595  0.0475 -0.3215
11566WAT      O46969   2.480   4.272   7.824  0.1085 -0.0921  0.3567
11566WAT     H146970   2.459   4.352   7.795  0.6054 -0.0966 -0.0230
11566WAT     H246971   2.512   4.287   7.903 -1.0113 -0.0511  0.8190
11566WAT    EPW46972   2.481   4.286   7.831  0.2406  0.3864  0.1679
11567WAT      O46973   1.977   2.392   0.516  0.0963 -1.3440  0.0950
11567WAT     H146974   1.917   2.415   0.574  0.7349 -0.0208  0.2691
11567WAT     H246975   1.942   2.417   0.440  0.2461 -0.9132  0.1612
11567WAT    EPW46976   1.963   2.399   0.513 -0.8503  0.3102 -0.4132
11568WAT      O46977   0.869   1.673   1.698 -0.0703 -0.1539  0.3539
11568WAT     H146978   0.925   1.614   1.730  1.5313  0.5045 -1.0593
11568WAT     H246979   0.921   1.736   1.667 -1.6951  1.5996  1.0025
11568WAT    EPW46980   0.885   1.674   1.698  0.1108 -0.4522 -0.3008
11569WAT      O46981   8.038   2.764   0.353 -0.8488  0.4503  0.3343
11569WAT     H146982   8.062   2.833   0.305 -1.5321  2.2125  2.3807
11569WAT     H246983   8.020   2.703   0.293  3.5429  0.6103 -1.5317
11569WAT    EPW46984   8.039   2.765   0.337  0.0376 -0.2950 -0.1350
11570WAT      O46985   2.734   1.916   1.828 -0.1419 -0.7558 -0.0228
11570WAT     H146986   2.673   1.909   1.890  0.9841  1.8503  1.5602
11570WAT     H246987   2.795   1.859   1.853 -0.0633 -0.3021  0.8526
11570WAT    EPW46988   2.734   1.906   1.841 -0.0825  0.6447  1.1617
11571WAT      O46989   7.559   1.623   0.038 -0.1630  0.3302 -0.1985
11571WAT     H146990   7.506   1.670  -0.012 -0.9464  2.4523  2.3704
11571WAT     H246991   7.621   1.680   0.061  2.5095 -1.6734 -1.8694
11571WAT    EPW46992   7.560   1.638   0.034 -0.5103 -0.1416 -0.3747
11572WAT      O46993   3.398   2.482   0.166 -0.0324  0.3385 -0.6095
11572WAT     H146994   3.336   2.496   0.225  0.4212 -0.7486  0.1509
11572WAT     H246995   3.439   2.411   0.196  0.9513  0.4649 -1.6143
11572WAT    EPW46996   3.395   2.474   0.179  0.5059  0.0825 -0.7067
11573WAT      O46997   2.688   2.314   1.320  0.3300  0.1881  0.0799
11573WAT     H146998   2.739   2.334   1.388  0.0914  0.8365  0.0712
11573WAT     H246999   2.644   2.388   1.305 -0.3313 -0.2441 -0.1566
11573WAT    EPW47000   2.689   2.328   1.328  0.7087 -0.9489 -0.8625
11574WAT      O47001   2.476   3.530   1.923 -0.2944 -0.2609  0.5922
11574WAT     H147002   2.398   3.557   1.897 -0.2149 -1.1552 -0.6573
11574WAT     H247003   2.482   3.559   2.005 -0.4844  2.8813 -0.3652
11574WAT    EPW47004   2.466   3.538   1.931 -0.0509 -0.6756 -0.6756
11575WAT      O47005   2.008   2.911   2.633  0.2172 -0.1596  0.6469
11575WAT     H147006   2.023   2.997   2.640 -1.0894  0.1230  0.2763
11575WAT     H247007   1.921   2.906   2.628  0.3331 -1.3781 -1.0492
11575WAT    EPW47008   1.997   2.923   2.633  0.5038 -0.4805  0.1081
11576WAT      O47009   2.279   1.673   1.555 -0.0254  0.1146  0.3479
11576WAT     H147010   2.323   1.634   1.620  0.3621 -0.3264 -0.1721
11576WAT     H247011   2.280   1.758   1.578  0.4211  0.0102  0.7348
11576WAT    EPW47012   2.286   1.680   1.568  0.2771 -0.1666 -0.0766
11577WAT      O47013   2.647   2.010   1.582  0.4156 -0.0398 -0.6725
11577WAT     H147014   2.668   1.986   1.663  1.3898 -0.8195 -1.1264
11577WAT     H247015   2.723   2.035   1.548  0.2457 -0.8416 -1.7051
11577WAT    EPW47016   2.661   2.010   1.589 -0.0061 -0.1092 -0.7510
11578WAT      O47017   1.776   2.166   1.225 -0.4454 -0.1819 -0.2068
11578WAT     H147018   1.726   2.095   1.218 -0.1172 -0.3907 -0.4479
11578WAT     H247019   1.748   2.203   1.299 -0.8215 -0.4025 -0.2374
11578WAT    EPW47020   1.764   2.161   1.235 -0.0493 -1.2691 -0.1375
11579WAT      O47021   0.738   2.116   1.251 -0.1819 -0.7596 -0.2517
11579WAT     H147022   0.769   2.068   1.317 -0.8844 -0.5800  0.2155
11579WAT     H247023   0.683   2.063   1.210 -1.2603 -0.2531  0.4985
11579WAT    EPW47024   0.734   2.101   1.254 -0.3421 -0.2935 -1.7686
11580WAT      O47025   1.055   2.823   1.347  0.3185 -0.6773  0.2300
11580WAT     H147026   1.035   2.783   1.272  1.0877  0.0219 -0.3759
11580WAT     H247027   1.017   2.774   1.408  0.6890 -1.9604 -0.5265
11580WAT    EPW47028   1.047   2.810   1.345 -0.1966  0.3421  0.3873
11581WAT      O47029   1.102   3.337   2.021  0.3208 -0.2955 -0.9077
11581WAT     H147030   1.166   3.291   2.059 -0.0671  0.1383  0.3106
11581WAT     H247031   1.069   3.282   1.962  1.3427 -0.7754 -1.0547
11581WAT    EPW47032   1.107   3.322   2.018  0.8634 -0.4939 -0.9420
11582WAT      O47033   1.512   3.333   7.854 -0.2962 -0.0668  0.2345
11582WAT     H147034   1.596   3.356   7.843 -0.4432  0.2157 -0.3008
11582WAT     H247035   1.515   3.282   7.924  0.7472 -2.3016 -1.3156
11582WAT    EPW47036   1.525   3.329   7.863  0.7911 -0.7492 -0.7479
11583WAT      O47037   1.370   2.525   1.969  0.1868 -0.0108 -0.0501
11583WAT     H147038   1.423   2.461   1.992  0.6525 -0.1281 -1.3900
11583WAT     H247039   1.383   2.534   1.884  1.2086  2.8186  0.2907
11583WAT    EPW47040   1.380   2.517   1.960  0.4599 -0.4238 -0.5434
11584WAT      O47041   2.476   1.816   1.233 -0.1055  0.0289 -0.2440
11584WAT     H147042   2.404   1.793   1.190 -1.4881  0.5810  1.6307
11584WAT     H247043   2.496   1.894   1.199 -1.7061  0.8820  0.6363
11584WAT    EPW47044   2.468   1.824   1.221  0.2407  0.0410  0.1686
11585WAT      O47045   1.423   1.887   0.642 -0.0318  0.3206  0.5561
11585WAT     H147046   1.466   1.883   0.718 -1.0738 -0.7076  1.1201
11585WAT     H247047   1.348   1.926   0.662 -0.6461 -0.6494  0.2355
11585WAT    EPW47048   1.418   1.892   0.656 -0.2710 -0.1851 -0.1546
11586WAT      O47049   1.878   1.699   1.237  0.2450  0.1141  0.1320
11586WAT     H147050   1.891   1.746   1.309  0.9609 -1.6340  1.2124
11586WAT     H247051   1.811   1.647   1.257  1.2697 -1.2988  0.0728
11586WAT    EPW47052   1.870   1.698   1.250  0.1344  0.9703 -0.4760
11587WAT      O47053   2.080   4.047   2.044 -0.1717  0.0127 -0.4687
11587WAT     H147054   2.003   4.060   2.005 -1.0353  0.0414  1.1313
11587WAT     H247055   2.088   4.117   2.096  0.9554  0.0226 -0.6383
11587WAT    EPW47056   2.069   4.060   2.046 -1.1332 -0.4132 -0.0474
11588WAT      O47057   3.146   1.354   3.083 -0.1726  0.3108  0.0465
11588WAT     H147058   3.176   1.431   3.113  1.2314  0.5766 -1.8838
11588WAT     H247059   3.074   1.376   3.039 -1.9937 -0.0312  2.6000
11588WAT    EPW47060   3.140   1.369   3.081  0.8995  0.0282 -0.5568
11589WAT      O47061   7.458   2.257   0.107  0.5631 -0.3832  0.4341
11589WAT     H147062   7.452   2.208   0.178 -2.5821  0.0091  0.5712
11589WAT     H247063   7.385   2.239   0.063  1.4301  0.9066 -1.7042
11589WAT    EPW47064   7.446   2.247   0.111  0.4354 -0.4520  0.1472
11590WAT      O47065   0.538   2.014   2.620 -0.3547  0.5375 -0.4408
11590WAT     H147066   0.500   2.091   2.604  0.6753  0.9390 -1.0379
11590WAT     H247067   0.618   2.023   2.585  1.0133  0.4326  2.3610
11590WAT    EPW47068   0.545   2.027   2.613  0.1995  0.3297 -0.8151
11591WAT      O47069   0.657   2.449   0.292 -0.4456 -0.0731  0.0396
11591WAT     H147070   0.677   2.369   0.319  0.7498 -0.2753 -1.3463
11591WAT     H247071   0.612   2.436   0.218  1.1664  0.4960 -1.1112
11591WAT    EPW47072   0.653   2.436   0.285 -1.3461  0.1663 -1.0609
11592WAT      O47073   0.145   4.278   1.030  0.1653 -0.5794  0.3698
11592WAT     H147074   0.077   4.260   0.978  0.0684  1.5111 -0.3309
11592WAT     H247075   0.214   4.253   0.984 -0.0338 -1.2433  0.4172
11592WAT    EPW47076   0.145   4.272   1.016  0.7690 -0.5571 -0.6126
11593WAT      O47077   2.513   0.686   0.661 -0.4554 -0.2004 -0.0662
11593WAT     H147078   2.526   0.770   0.642 -1.0126 -0.4887 -1.9308
11593WAT     H247079   2.576   0.668   0.719 -0.8343  1.6807  1.0135
11593WAT    EPW47080   2.525   0.696   0.667  0.1228 -0.0346 -0.1108
11594WAT      O47081   8.010   2.659   0.888  0.2357  0.0586 -0.2899
11594WAT     H147082   7.976   2.723   0.936  0.4565 -0.3752  0.4605
11594WAT     H247083   7.947   2.599   0.886 -0.1743  0.4985 -1.4344
11594WAT    EPW47084   7.996   2.660   0.895  0.5679 -0.1721 -0.0145
11595WAT      O47085   7.563   2.026   0.290  0.1334 -0.5520  0.0003
11595WAT     H147086   7.574   1.971   0.357  0.7147 -2.0967 -1.2786
11595WAT     H247087   7.620   1.997   0.231 -1.8933 -0.6773 -2.0073
11595WAT    EPW47088   7.573   2.014   0.291  1.3007 -0.3604  0.6204
11596WAT      O47089   1.244   2.607   0.310  0.3711  0.0857  0.0734
11596WAT     H147090   1.323   2.575   0.330 -0.2741 -0.9512  1.0226
11596WAT     H247091   1.189   2.556   0.354 -0.9482 -0.2877 -1.9072
11596WAT    EPW47092   1.248   2.595   0.319  0.3943 -0.1944  0.1668
11597WAT      O47093   0.136   3.130   0.626 -0.2610  0.3235 -0.0637
11597WAT     H147094   0.107   3.050   0.642 -1.6870  0.7131 -0.4513
11597WAT     H247095   0.091   3.180   0.682 -2.2397  1.2221 -2.2724
11597WAT    EPW47096   0.125   3.126   0.636 -0.1031 -0.0158 -0.1719
11598WAT      O47097   2.715   1.932   7.490  0.4598  0.1955 -0.6660
11598WAT     H147098   2.699   2.018   7.490 -2.9063 -0.3287 -0.5649
11598WAT     H247099   2.681   1.905   7.414  1.0557 -1.1364 -0.4852
11598WAT    EPW47100   2.708   1.941   7.479  1.1740  0.5597  0.2765
11599WAT      O47101   2.061   2.486   0.826 -0.2105  0.1273 -0.0825
11599WAT     H147102   2.139   2.448   0.835 -0.2088  0.5223  2.3384
11599WAT     H247103   2.014   2.428   0.782  1.1951 -0.4795 -0.8279
11599WAT    EPW47104   2.066   2.472   0.821 -0.0903  0.1083 -0.9428
11600WAT      O47105   8.010   1.751   1.734 -1.0067  0.0540  0.1045
11600WAT     H147106   8.071   1.692   1.715 -1.8525 -0.7053 -0.3621
11600WAT     H247107   8.031   1.820   1.686  2.2357  1.7413  3.4339
11600WAT    EPW47108   8.022   1.752   1.724  0.2266 -0.3753 -0.2798
11601WAT      O47109   1.198   2.545   1.097 -0.4564  0.0779  0.0135
11601WAT     H147110   1.236   2.624   1.089  0.9326 -0.5248  0.4801
11601WAT     H247111   1.256   2.491   1.062 -0.1228 -1.0715  2.1797
11601WAT    EPW47112   1.212   2.549   1.090  0.3052 -0.9454  0.1167
11602WAT      O47113   0.829   2.584   0.640 -0.4314  0.2940 -0.1219
11602WAT     H147114   0.837   2.670   0.631 -1.3887  0.3186 -0.9333
11602WAT     H247115   0.877   2.566   0.711 -1.7010  1.7509  1.1737
11602WAT    EPW47116   0.837   2.594   0.649  0.4692  0.3808  0.4112
11603WAT      O47117   1.935   1.098   7.469 -0.1181 -0.4631 -0.4947
11603WAT     H147118   1.893   1.156   7.419 -2.3519 -1.9159 -0.4408
11603WAT     H247119   1.880   1.031   7.473  1.3733 -1.6759  1.3418
11603WAT    EPW47120   1.921   1.097   7.462  0.2788  0.2020  0.8298
11604WAT      O47121   3.747   3.226   1.246  0.4059  0.1483 -0.2938
11604WAT     H147122   3.665   3.255   1.256  0.2751  0.5470 -2.0260
11604WAT     H247123   3.763   3.181   1.319 -1.3169  0.1473  0.1257
11604WAT    EPW47124   3.737   3.224   1.258 -0.2612 -0.3129  0.0427
11605WAT      O47125   1.043   1.475   1.806  0.5052 -0.1588 -0.1978
11605WAT     H147126   1.084   1.520   1.869  1.4191 -2.0333  0.6067
11605WAT     H247127   1.107   1.449   1.753  0.1799 -1.6631  0.1135
11605WAT    EPW47128   1.058   1.478   1.807 -0.0726  0.3146  0.3686
11606WAT      O47129   0.876   1.074   0.332 -0.3677  0.1813 -0.2476
11606WAT     H147130   0.869   1.015   0.396  2.3184  0.4834  0.4777
11606WAT     H247131   0.857   1.149   0.371  1.3313  0.3738  0.3233
11606WAT    EPW47132   0.872   1.076   0.347  0.2829 -0.5906 -0.0782
11607WAT      O47133   0.445   0.824   1.494 -0.1797  0.0578  0.1781
11607WAT     H147134   0.411   0.754   1.454 -1.0851 -0.5742  1.9367
11607WAT     H247135   0.376   0.861   1.533  0.8335 -0.2250  2.3722
11607WAT    EPW47136   0.430   0.819   1.494  1.1179 -0.6435 -0.1464
11608WAT      O47137   2.140   1.820   0.656  0.2655 -0.1897  0.7101
11608WAT     H147138   2.179   1.843   0.730  1.2939 -1.5943  0.6366
11608WAT     H247139   2.206   1.816   0.599 -0.0162 -2.0958  0.4577
11608WAT    EPW47140   2.156   1.823   0.658  0.8300 -0.1659 -0.1054
11609WAT      O47141   7.052   2.152   2.111  0.1622 -0.0537 -0.2770
11609WAT     H147142   7.101   2.221   2.091  1.1876 -0.1997  1.5955
11609WAT     H247143   6.971   2.179   2.093  0.1608  2.7236  2.8967
11609WAT    EPW47144   7.047   2.166   2.105 -0.3393  0.3583  0.5240
11610WAT      O47145   0.379   0.827   0.465 -0.1048 -0.1587  0.2597
11610WAT     H147146   0.304   0.870   0.477 -0.7863 -1.2220  0.0089
11610WAT     H247147   0.371   0.796   0.383  0.9004  0.2557 -0.0079
11610WAT    EPW47148   0.366   0.829   0.455 -0.3168 -0.1351  0.0477
11611WAT      O47149   2.913   0.631   0.200  0.2170  0.0671 -0.3109
11611WAT     H147150   2.866   0.603   0.267 -0.1540 -1.7003 -1.2411
11611WAT     H247151   2.995   0.614   0.224  0.0550 -1.0186 -0.4673
11611WAT    EPW47152   2.918   0.624   0.213  0.1248 -1.0640 -0.1148
11612WAT      O47153   0.343   2.096   2.089  0.2595 -0.1466  0.1810
11612WAT     H147154   0.430   2.105   2.093  0.0859  1.4492  1.6597
11612WAT     H247155   0.332   2.033   2.030  2.4725 -1.5111  1.0985
11612WAT    EPW47156   0.354   2.088   2.081 -0.0776 -0.2481 -0.6897
11613WAT      O47157   1.630   0.496   1.245  0.3415  0.2391 -0.5080
11613WAT     H147158   1.543   0.495   1.257  0.3323 -0.9904 -0.4675
11613WAT     H247159   1.658   0.555   1.302 -0.4572  0.5020 -0.3653
11613WAT    EPW47160   1.621   0.504   1.255  0.8639  0.4947 -1.0235
11614WAT      O47161   3.046   1.827   1.253 -0.4782  0.3901  0.6434
11614WAT     H147162   3.074   1.759   1.300 -0.1689 -0.1412 -0.3023
11614WAT     H247163   2.980   1.795   1.206 -0.5388  0.8242  0.4211
11614WAT    EPW47164   3.040   1.812   1.253 -0.4664  0.2769 -0.6536
11615WAT      O47165   1.367   3.971   1.002 -0.1963  0.6836 -0.3729
11615WAT     H147166   1.390   3.921   0.934 -0.5533  0.7062 -0.5076
11615WAT     H247167   1.280   3.975   0.997 -0.1627  1.4402 -0.4411
11615WAT    EPW47168   1.358   3.964   0.991 -0.0821  0.4309 -0.0427
11616WAT      O47169   1.228   3.525   1.401 -0.1431 -0.2910 -0.2654
11616WAT     H147170   1.268   3.528   1.479 -0.6551  1.2712 -0.0332
11616WAT     H247171   1.211   3.609   1.383 -0.8521 -0.7023 -1.6411
11616WAT    EPW47172   1.231   3.538   1.410 -0.1719  0.0898 -0.4801
11617WAT      O47173   1.248   2.818   1.550 -0.2825  0.3438 -0.8278
11617WAT     H147174   1.334   2.837   1.549 -0.6492  2.3068  0.2740
11617WAT     H247175   1.217   2.859   1.480 -0.3750 -0.1512 -1.0801
11617WAT    EPW47176   1.256   2.827   1.540 -0.2210  0.4692 -0.0089
11618WAT      O47177   1.157   1.442   7.922 -0.2231  0.0478 -0.0315
11618WAT     H147178   1.102   1.449   7.989 -1.6932  0.3125 -1.2015
11618WAT     H247179   1.142   1.361   7.892 -1.2206  0.6969 -1.3605
11618WAT    EPW47180   1.147   1.431   7.927 -0.8003  0.0057  0.1918
11619WAT      O47181   2.490   2.503   0.536  0.2082  0.2489  0.0029
11619WAT     H147182   2.554   2.499   0.477  0.5397 -1.3277  0.4253
11619WAT     H247183   2.425   2.459   0.498 -0.3042  1.0057 -0.0171
11619WAT    EPW47184   2.490   2.496   0.522 -0.9346  1.1047 -0.1174
11620WAT      O47185   1.072   2.479   1.318  0.2323  0.1926  0.2182
11620WAT     H147186   1.103   2.520   1.247  0.4241 -0.1484  0.1014
11620WAT     H247187   0.986   2.475   1.304  0.1765  0.7870  0.3555
11620WAT    EPW47188   1.064   2.485   1.305 -0.4162  0.2870  1.0571
11621WAT      O47189   2.894   4.286   1.591 -0.3363  0.2242 -0.5212
11621WAT     H147190   2.862   4.309   1.669  0.3011  0.4962 -0.3298
11621WAT     H247191   2.926   4.206   1.604 -0.3859  0.1998 -0.5494
11621WAT    EPW47192   2.894   4.278   1.604  0.1845 -0.1422  0.2397
11622WAT      O47193   0.466   0.347   0.458  0.1907  0.1499  0.0455
11622WAT     H147194   0.526   0.406   0.434  1.6817 -0.3985  2.1126
11622WAT     H247195   0.471   0.347   0.545 -2.0371 -0.7660  0.2415
11622WAT    EPW47196   0.476   0.356   0.467  1.1534 -0.3172  0.4547
11623WAT      O47197   2.781   1.116   1.182 -0.5511 -0.3926  0.9048
11623WAT     H147198   2.826   1.126   1.108 -2.0624 -2.2658 -0.3530
11623WAT     H247199   2.842   1.091   1.240  0.5294  0.3873  0.1502
11623WAT    EPW47200   2.797   1.114   1.180  0.2736 -0.3738 -0.9152
11624WAT      O47201   0.162   1.793   1.218 -0.5034  0.5310  0.0646
11624WAT     H147202   0.079   1.790   1.244 -0.9581 -0.9032 -1.3815
11624WAT     H247203   0.158   1.832   1.140 -0.0959 -1.0555 -0.7977
11624WAT    EPW47204   0.149   1.799   1.210  0.4561  0.5632 -0.0957
11625WAT      O47205   7.944   1.913   8.001  0.3291  0.0772  0.2300
11625WAT     H147206   8.000   1.974   7.974  1.3013 -0.6193  0.6346
11625WAT     H247207   7.899   1.893   7.928 -0.7475  1.9846  0.2970
11625WAT    EPW47208   7.946   1.919   7.986 -1.3427 -0.3291 -0.0325
11626WAT      O47209   1.859   2.897   1.327  0.3927 -0.2235  0.1809
11626WAT     H147210   1.873   2.967   1.277  1.4145 -1.0356 -0.7482
11626WAT     H247211   1.781   2.911   1.362  0.7194  1.5299  0.2958
11626WAT    EPW47212   1.850   2.909   1.325  0.0979 -0.1343  0.3940
11627WAT      O47213   3.452   1.481   2.053  0.7006 -0.1032  0.5569
11627WAT     H147214   3.482   1.503   1.974 -1.0929  1.3550  0.2147
11627WAT     H247215   3.394   1.417   2.036  0.0748  0.4341  0.6321
11627WAT    EPW47216   3.448   1.474   2.039 -0.0263 -0.2600 -0.9318
11628WAT      O47217   3.041   2.479   0.831 -0.2154 -0.5592 -0.2470
11628WAT     H147218   3.047   2.392   0.836  0.1707 -0.4670  1.7750
11628WAT     H247219   3.122   2.504   0.810  0.7324 -0.5732  2.8856
11628WAT    EPW47220   3.054   2.470   0.828 -0.9979 -0.0485 -0.1003
11629WAT      O47221   0.876   0.894   0.587 -0.3810 -0.0874 -0.0614
11629WAT     H147222   0.846   0.814   0.603  2.2621 -1.0320  0.6926
11629WAT     H247223   0.850   0.940   0.656 -1.2987 -0.4684 -0.1458
11629WAT    EPW47224   0.868   0.889   0.600  1.0744 -0.1210 -0.5778
11630WAT      O47225   2.819   3.481   1.354 -0.4534  0.0428  0.3645
11630WAT     H147226   2.787   3.427   1.414 -0.2466 -0.4412  0.0501
11630WAT     H247227   2.815   3.435   1.280  1.0769 -0.1013  0.3306
11630WAT    EPW47228   2.814   3.466   1.352  0.4360 -0.3326 -0.7865
11631WAT      O47229   1.019   2.485   0.445  0.0198 -0.9622 -0.1603
11631WAT     H147230   0.994   2.409   0.408 -2.0310 -0.0830 -0.7305
11631WAT     H247231   0.956   2.501   0.503 -0.1376  0.7705 -0.7488
11631WAT    EPW47232   1.006   2.476   0.448 -0.3652 -0.8532  0.0936
11632WAT      O47233   1.808   1.380   1.932 -0.2903  0.0274 -0.1876
11632WAT     H147234   1.875   1.352   1.885  0.7646  2.3945 -0.2805
11632WAT     H247235   1.831   1.362   2.014 -0.2079 -0.4114 -0.3071
11632WAT    EPW47236   1.821   1.373   1.937  0.1524  0.3081 -1.0592
11633WAT      O47237   2.788   0.951   0.245  0.3337 -0.3304 -0.1575
11633WAT     H147238   2.831   0.887   0.286  1.5990  0.5384 -0.0796
11633WAT     H247239   2.706   0.922   0.242  0.5366 -1.1676  1.4560
11633WAT    EPW47240   2.782   0.937   0.251 -0.1278  0.7107 -0.7965
11634WAT      O47241   4.723   1.253   0.053 -0.4820  0.1685  0.2537
11634WAT     H147242   4.737   1.191  -0.006 -2.0822 -0.0799  0.0881
11634WAT     H247243   4.771   1.227   0.122 -1.2840 -1.4016  0.2740
11634WAT    EPW47244   4.732   1.240   0.055 -1.0270  0.7418 -0.3035
11635WAT      O47245   2.598   0.024   6.380 -0.0889 -0.7107 -0.6283
11635WAT     H147246   2.554   0.097   6.396 -0.8862 -1.4546  0.7284
11635WAT     H247247   2.677   0.052   6.355  1.3235  0.7491  4.3721
11635WAT    EPW47248   2.603   0.039   6.378 -0.1811 -0.8774 -0.2432
11636WAT      O47249   3.830   7.726   7.647 -0.1194 -0.0794  0.2494
11636WAT     H147250   3.838   7.650   7.689 -1.6334 -0.9818 -1.0110
11636WAT     H247251   3.744   7.737   7.641  0.0619  0.8320 -1.1799
11636WAT    EPW47252   3.819   7.717   7.653 -0.8678  0.3608 -0.1664
11637WAT      O47253   2.062   1.205   0.531 -0.7566 -0.0767 -0.0670
11637WAT     H147254   2.097   1.231   0.455  0.0783 -0.5587  0.1395
11637WAT     H247255   1.981   1.238   0.528 -1.1318 -1.0048 -1.6704
11637WAT    EPW47256   2.055   1.214   0.519  0.3064  0.1736  0.1856
11638WAT      O47257   2.646   0.891   5.921  0.0899 -0.1791 -0.3527
11638WAT     H147258   2.685   0.964   5.950 -0.1978 -0.4325  0.7560
11638WAT     H247259   2.600   0.865   5.991 -0.1673 -1.1741 -0.8839
11638WAT    EPW47260   2.645   0.898   5.936  0.3114  0.0213  0.0637
11639WAT      O47261   2.716   7.962   7.154 -0.6750 -0.3109  0.0451
11639WAT     H147262   2.739   8.044   7.138 -1.1660 -0.1174  0.3087
11639WAT     H247263   2.724   7.922   7.077  0.6282 -0.2864  0.1406
11639WAT    EPW47264   2.720   7.968   7.140  0.8927 -0.6243  0.5945
11640WAT      O47265   3.323   8.027   7.987  0.0541 -0.5378 -0.2596
11640WAT     H147266   3.302   8.110   7.973  0.0758 -0.7226 -1.5657
11640WAT     H247267   3.406   8.022   7.959  0.1961 -0.9017  0.2173
11640WAT    EPW47268   3.332   8.038   7.981 -0.4542 -0.2391 -0.3984
11641WAT      O47269   2.192   0.354   0.432 -0.0052  0.0402  0.4258
11641WAT     H147270   2.204   0.276   0.470 -0.2026 -0.6478 -0.8769
11641WAT     H247271   2.116   0.381   0.466 -0.6916 -1.0274 -0.2115
11641WAT    EPW47272   2.183   0.347   0.443  0.5823 -1.6147 -0.3901
11642WAT      O47273   2.452   1.396   7.267 -0.3544  0.1679 -0.2793
11642WAT     H147274   2.480   1.403   7.185 -1.9284 -0.0273 -0.8781
11642WAT     H247275   2.510   1.441   7.313 -0.1849  1.4354 -1.6776
11642WAT    EPW47276   2.465   1.403   7.262  0.0647  0.0559 -0.9640
11643WAT      O47277   3.139   2.183   7.918  0.4572 -0.4972  0.7739
11643WAT     H147278   3.098   2.106   7.919  0.4101 -0.4863  0.0884
11643WAT     H247279   3.221   2.162   7.895  0.1215 -0.2084 -0.7682
11643WAT    EPW47280   3.145   2.169   7.915 -0.3342 -0.1058 -0.0842
11644WAT      O47281   2.772   1.725   1.164 -0.3862  0.3214  0.6878
11644WAT     H147282   2.688   1.744   1.180 -0.8222 -1.0793  0.2226
11644WAT     H247283   2.773   1.638   1.160  1.1261  0.3113  0.8024
11644WAT    EPW47284   2.760   1.715   1.165 -0.6557 -0.1257  0.2631
11645WAT      O47285   1.936   1.174   7.076 -0.6483  0.0842  0.1616
11645WAT     H147286   1.952   1.092   7.102  0.0537  0.2330  0.1960
11645WAT     H247287   1.892   1.208   7.144 -0.0064  0.0602  0.5984
11645WAT    EPW47288   1.932   1.167   7.090 -0.0932  0.3356 -0.0358
11646WAT      O47289   2.923   0.739   6.924  0.0471  0.1096  0.2225
11646WAT     H147290   2.848   0.730   6.881 -0.0098  0.3469  0.2694
11646WAT     H247291   2.898   0.754   7.006  0.1544 -0.2839  0.3289
11646WAT    EPW47292   2.908   0.740   6.930  0.0597 -0.1674 -0.3794
11647WAT      O47293   2.664   1.627   0.423  0.8484 -0.3296 -0.6014
11647WAT     H147294   2.669   1.547   0.387  0.8863 -1.4327  1.6411
11647WAT     H247295   2.605   1.668   0.375  0.5522 -1.8524 -1.6055
11647WAT    EPW47296   2.656   1.621   0.411  0.1793  0.2481 -0.9499
11648WAT      O47297   1.742   7.666   1.133  0.1927  0.1775 -0.7224
11648WAT     H147298   1.732   7.596   1.184 -0.4229  0.4273 -0.4817
11648WAT     H247299   1.731   7.635   1.053 -1.2102  0.1755 -0.5543
11648WAT    EPW47300   1.739   7.651   1.129  0.5577 -0.0636 -0.1459
11649WAT      O47301   3.119   0.780   6.515  0.3728  0.3989 -0.0796
11649WAT     H147302   3.087   0.833   6.577 -0.7170  0.3513 -0.5952
11649WAT     H247303   3.059   0.782   6.452  0.6491 -0.9005 -0.4149
11649WAT    EPW47304   3.105   0.788   6.515 -0.4887  0.2909 -0.7778
11650WAT      O47305   4.027   0.718   7.337  0.0857  0.3057  0.1234
11650WAT     H147306   3.986   0.794   7.351 -2.1579 -0.9443  0.7577
11650WAT     H247307   4.023   0.709   7.250  1.2035  1.3197 -0.0530
11650WAT    EPW47308   4.020   0.728   7.326  0.2463  0.4585  0.3676
11651WAT      O47309   2.281   1.985   6.968  0.4454 -0.1916 -0.1484
11651WAT     H147310   2.255   1.909   7.001 -1.4815 -0.0313 -1.1532
11651WAT     H247311   2.321   1.962   6.893  0.1239 -0.2396 -0.3070
11651WAT    EPW47312   2.283   1.971   6.962  0.9557  0.2387 -0.3842
11652WAT      O47313   3.485   0.069   1.392 -0.3524  0.1609  0.2019
11652WAT     H147314   3.526   0.107   1.459  0.8333  1.5298 -1.2334
11652WAT     H247315   3.444   0.135   1.353  1.4555  0.0148 -2.1535
11652WAT    EPW47316   3.485   0.084   1.397  0.1814 -0.5661  0.0128
11653WAT      O47317   3.573   7.677   7.503  0.0038  0.5466 -0.0339
11653WAT     H147318   3.514   7.661   7.442 -0.4199  0.6261  0.3475
11653WAT     H247319   3.527   7.675   7.577  0.4404  0.8129  0.2494
11653WAT    EPW47320   3.558   7.674   7.505  0.3096 -0.0034 -0.3688
11654WAT      O47321   1.601   7.481   0.132  0.3340 -0.2086  0.5661
11654WAT     H147322   1.554   7.423   0.086  1.0440  1.2719 -2.2792
11654WAT     H247323   1.658   7.431   0.175 -0.7759 -1.7523  0.3428
11654WAT    EPW47324   1.602   7.465   0.131 -1.0278  0.5916 -0.5708
11655WAT      O47325   1.699   0.706   1.446 -0.8016  0.2108  0.2714
11655WAT     H147326   1.724   0.674   1.523 -2.3096 -0.0832  0.6690
11655WAT     H247327   1.624   0.747   1.464 -0.7958  0.7850 -0.9119
11655WAT    EPW47328   1.692   0.708   1.460  0.0626  0.5270  0.0124
11656WAT      O47329   2.617   7.253   6.959  0.3101  0.0528  0.1956
11656WAT     H147330   2.597   7.260   6.875 -0.2637 -0.6772  0.2589
11656WAT     H247331   2.554   7.299   7.000  0.7884  0.7029  0.2142
11656WAT    EPW47332   2.605   7.261   6.953  0.4203  1.0458 -0.0166
11657WAT      O47333   2.371   7.615   6.608 -0.7484 -0.6231 -0.1366
11657WAT     H147334   2.344   7.532   6.603  0.3901 -1.0672  0.6875
11657WAT     H247335   2.334   7.644   6.682  0.4497 -1.0465  0.6670
11657WAT    EPW47336   2.361   7.607   6.618  0.4295 -0.2911 -0.4142
11658WAT      O47337   2.257   1.513   0.174  0.1890 -0.0715  0.3743
11658WAT     H147338   2.332   1.496   0.132  0.7980 -0.9661  1.7525
11658WAT     H247339   2.198   1.466   0.129  1.2131 -2.9991  1.7927
11658WAT    EPW47340   2.259   1.503   0.161  0.1616 -1.2403 -0.3951
11659WAT      O47341   1.842   0.411   6.835 -0.3689 -0.1450 -0.2858
11659WAT     H147342   1.830   0.325   6.839 -1.2675 -0.0603 -0.8089
11659WAT     H247343   1.810   0.432   6.757 -1.4600  0.8523  0.4046
11659WAT    EPW47344   1.836   0.402   6.824  0.3288 -0.5855 -0.7433
11660WAT      O47345   2.595   0.934   0.597  0.3455 -0.6461  0.1398
11660WAT     H147346   2.621   0.991   0.657  0.8748 -0.8650  0.1230
11660WAT     H247347   2.565   0.985   0.532 -0.2197 -0.4114  0.5733
11660WAT    EPW47348   2.594   0.950   0.596  0.6817 -0.6179  0.2346
11661WAT      O47349   2.657   1.153   0.761 -0.0897  1.0223 -0.6706
11661WAT     H147350   2.577   1.150   0.795  0.5610  3.3143  1.3303
11661WAT     H247351   2.652   1.216   0.701  0.0676  0.5780 -1.1721
11661WAT    EPW47352   2.645   1.162   0.757 -0.2400  0.0099 -0.9609
11662WAT      O47353   2.379   0.825   6.266 -0.2171 -0.2299 -0.5914
11662WAT     H147354   2.370   0.772   6.335 -0.3772  1.4040  0.7065
11662WAT     H247355   2.417   0.774   6.206 -0.5314 -1.8512  0.5089
11662WAT    EPW47356   2.383   0.810   6.267  0.2715 -0.5589 -0.7025
11663WAT      O47357   2.545   0.308   0.095 -0.0101  0.3383  0.2048
11663WAT     H147358   2.537   0.268   0.172  0.5188  0.6470  0.4291
11663WAT     H247359   2.549   0.392   0.116  0.7250  0.3871 -0.1060
11663WAT    EPW47360   2.545   0.314   0.109  0.3734 -0.1613 -0.4401
11664WAT      O47361   2.568   1.057   6.690 -0.1985  0.2300  0.1794
11664WAT     H147362   2.541   1.051   6.607 -0.3369 -1.2110  0.3120
11664WAT     H247363   2.498   1.085   6.733 -0.2321  0.6234 -0.1223
11664WAT    EPW47364   2.554   1.060   6.684  0.8345 -0.1137 -0.9344
11665WAT      O47365   1.409   6.465   7.138 -0.3237  0.2422 -0.4038
11665WAT     H147366   1.455   6.482   7.067 -0.7332  1.0410 -0.4907
11665WAT     H247367   1.444   6.518   7.199 -0.5352  0.1987 -0.2410
11665WAT    EPW47368   1.421   6.475   7.137  0.4122 -0.0109  0.7151
11666WAT      O47369   1.943   0.886   7.182  0.2310 -0.6268 -0.2198
11666WAT     H147370   1.918   0.817   7.136  0.6713 -1.6830  1.0641
11666WAT     H247371   1.907   0.873   7.260  0.1013  0.7447 -0.0268
11666WAT    EPW47372   1.934   0.874   7.187 -0.7898  0.2035 -0.0443
11667WAT      O47373   2.541   0.502   7.335 -0.1911  0.5359 -0.5305
11667WAT     H147374   2.595   0.557   7.375  0.5877  1.2535 -2.4648
11667WAT     H247375   2.485   0.553   7.293  0.3724 -0.1061 -2.1375
11667WAT    EPW47376   2.541   0.517   7.335  0.0008 -0.0513 -1.2652
11668WAT      O47377   2.878   0.880   7.602  0.1764 -0.0064  0.0784
11668WAT     H147378   2.825   0.949   7.607  0.3634  0.0810  1.4310
11668WAT     H247379   2.826   0.816   7.574  0.4018  1.0143 -3.0117
11668WAT    EPW47380   2.863   0.880   7.599  0.2331  0.0425 -0.1262
11669WAT      O47381   1.901   1.630   7.639  0.1241 -0.4534 -0.0726
11669WAT     H147382   1.947   1.577   7.587 -0.4758 -1.2850  0.2149
11669WAT     H247383   1.856   1.680   7.584 -1.4056 -2.0928 -0.4343
11669WAT    EPW47384   1.901   1.629   7.623  0.0312 -0.5751 -0.2957
11670WAT      O47385   2.286   1.042   5.625 -0.1025  0.0387 -0.0011
11670WAT     H147386   2.337   1.073   5.688  1.2913 -0.0445 -1.0467
11670WAT     H247387   2.282   1.109   5.568 -0.0693 -0.4140 -0.5436
11670WAT    EPW47388   2.293   1.057   5.626  0.1846  0.4294  0.3166
11671WAT      O47389   2.466   0.560   0.172 -0.0307  0.2546  0.3258
11671WAT     H147390   2.515   0.632   0.173 -0.0686  0.2748  0.6404
11671WAT     H247391   2.448   0.545   0.256 -1.0752  0.5927  0.1874
11671WAT    EPW47392   2.470   0.568   0.185 -0.5371  0.3182  0.6098
11672WAT      O47393   1.847   0.101   7.537  0.3362  0.0971 -0.0806
11672WAT     H147394   1.848   0.030   7.588  0.9056 -1.0035 -1.5427
11672WAT     H247395   1.822   0.164   7.590  0.4999 -1.0759  1.4572
11672WAT    EPW47396   1.844   0.100   7.552 -0.9368 -0.3424 -0.5583
11673WAT      O47397   1.982   0.690   7.638 -0.1022 -0.3797  0.4768
11673WAT     H147398   2.062   0.697   7.671 -0.8169  0.7189  2.0933
11673WAT     H247399   1.938   0.647   7.700 -1.0714  0.1983  0.2139
11673WAT    EPW47400   1.987   0.684   7.652  0.0491 -0.1397  0.2675
11674WAT      O47401   3.613   0.523   7.917  0.2874  0.2605 -0.4032
11674WAT     H147402   3.627   0.450   7.871 -0.5076 -1.1924  1.5197
11674WAT     H247403   3.672   0.518   7.981 -0.4477  0.7741  0.3265
11674WAT    EPW47404   3.624   0.512   7.920  0.6042 -0.6101 -0.1879
11675WAT      O47405   3.790   7.687   7.119  0.4407  0.3610 -0.5362
11675WAT     H147406   3.807   7.772   7.118  1.0165  0.2569 -0.2512
11675WAT     H247407   3.705   7.682   7.101  0.0492  1.0880  0.9464
11675WAT    EPW47408   3.780   7.699   7.116 -0.5175 -0.1817 -0.4233
11676WAT      O47409   2.136   0.031   5.577 -0.5104  0.2794 -0.7423
11676WAT     H147410   2.176  -0.017   5.516 -0.3018 -1.7066  0.8871
11676WAT     H247411   2.052   0.011   5.568 -0.6494  0.9746 -1.1569
11676WAT    EPW47412   2.129   0.021   5.566 -0.0532  0.0224 -0.4538
11677WAT      O47413   2.066   0.506   0.698 -0.4489 -0.5821 -0.6390
11677WAT     H147414   1.999   0.548   0.735  0.1467 -1.2486  1.3293
11677WAT     H247415   2.135   0.532   0.744 -0.0220 -3.4090  0.5373
11677WAT    EPW47416   2.066   0.516   0.710 -0.2739 -0.3896  0.5873
11678WAT      O47417   2.166   1.725   6.963  0.5413  0.4272  0.1795
11678WAT     H147418   2.091   1.686   6.939 -0.1686  1.6578  0.3151
11678WAT     H247419   2.227   1.667   6.942 -0.3450 -0.0224 -1.2848
11678WAT    EPW47420   2.164   1.711   6.956 -0.1121  0.0660  0.8308
11679WAT      O47421   2.947   0.992   1.380 -0.0065  0.5120 -0.3285
11679WAT     H147422   2.888   0.938   1.414  1.4200  0.2494  1.8538
11679WAT     H247423   3.012   0.940   1.356  1.1322  1.1290  1.2469
11679WAT    EPW47424   2.948   0.977   1.381  0.5478 -0.5018 -0.4966
11680WAT      O47425   2.689   6.798   7.485 -0.5269  0.4570  0.1931
11680WAT     H147426   2.638   6.741   7.444 -2.1217  1.4605  0.7202
11680WAT     H247427   2.761   6.800   7.435 -1.5940  0.1512 -1.4526
11680WAT    EPW47428   2.692   6.790   7.471 -0.3939  0.4706  0.5576
11681WAT      O47429   2.430   0.535   0.448  0.0641 -0.7458 -0.6784
11681WAT     H147430   2.368   0.474   0.440  0.0577 -0.7148 -0.8700
11681WAT     H247431   2.433   0.550   0.534  0.4760 -1.4438 -0.5603
11681WAT    EPW47432   2.421   0.528   0.459  0.5864  0.8207  0.6172
11682WAT      O47433   2.070   0.036   6.453 -0.2289  0.3775  0.0445
11682WAT     H147434   2.121   0.058   6.520  2.0103 -0.2196 -1.3495
11682WAT     H247435   2.045   0.113   6.419 -0.9178  0.6737  1.1822
11682WAT    EPW47436   2.073   0.051   6.458 -0.6395  0.7219 -0.9096
11683WAT      O47437   3.409   0.888   7.807 -0.0839 -0.0057  0.1438
11683WAT     H147438   3.429   0.847   7.881 -1.0619  0.4837  0.6958
11683WAT     H247439   3.476   0.944   7.797 -0.4093  0.5976  1.1798
11683WAT    EPW47440   3.422   0.890   7.817 -0.5870 -0.4553 -0.5098
11684WAT      O47441   3.334   7.452   0.489  0.0168  0.7303  0.0935
11684WAT     H147442   3.330   7.385   0.545 -1.9970  1.1505  0.5459
11684WAT     H247443   3.398   7.502   0.520  0.3277 -0.0886  0.8070
11684WAT    EPW47444   3.343   7.449   0.501  0.5450 -0.0282 -0.1488
11685WAT      O47445   2.445   7.813   7.983  0.0084 -0.0110 -0.3624
11685WAT     H147446   2.514   7.761   7.970 -0.0800  0.3547 -2.7780
11685WAT     H247447   2.455   7.841   8.065  2.7965  0.1032 -0.6498
11685WAT    EPW47448   2.457   7.810   7.993  0.4616 -0.2050  0.4932
11686WAT      O47449   1.705   1.265   1.451  0.3731 -0.1254  0.3852
11686WAT     H147450   1.626   1.235   1.472  0.9109 -0.9681  1.2613
11686WAT     H247451   1.752   1.254   1.524  1.0378  1.3244  0.2102
11686WAT    EPW47452   1.701   1.259   1.465 -0.0367  0.1811  0.4771
11687WAT      O47453   2.948   1.593   7.586  0.0901 -0.0559 -0.2710
11687WAT     H147454   2.975   1.675   7.580 -0.5691  0.1582 -0.4342
11687WAT     H247455   2.976   1.567   7.665  1.7098 -0.2181 -0.8711
11687WAT    EPW47456   2.956   1.601   7.597  0.3280  0.3729 -0.4504
11688WAT      O47457   3.950   0.895   8.042  0.5327  0.2992 -0.2625
11688WAT     H147458   3.998   0.945   8.095 -0.2177 -1.0550  1.8318
11688WAT     H247459   3.868   0.914   8.065  0.1792 -0.2942 -0.9766
11688WAT    EPW47460   3.945   0.905   8.053  0.6120  0.4444 -0.2662
11689WAT      O47461   2.358   7.248   7.414  0.1482  0.2328 -0.0893
11689WAT     H147462   2.387   7.230   7.334  0.3546  0.3605 -0.0430
11689WAT     H247463   2.302   7.313   7.402  0.2687  0.3317 -0.1156
11689WAT    EPW47464   2.354   7.255   7.400  0.6044 -0.8796 -0.7289
11690WAT      O47465   3.487   0.634   0.479  0.1104  0.0683 -0.4948
11690WAT     H147466   3.410   0.596   0.466 -0.0989  0.3036  0.0750
11690WAT     H247467   3.528   0.623   0.402 -0.1422 -0.8422 -0.5070
11690WAT    EPW47468   3.482   0.627   0.465  0.3179  0.4656 -0.2949
11691WAT      O47469   4.898   7.993   6.097 -0.0242 -0.0837 -0.1100
11691WAT     H147470   4.937   8.065   6.128  0.1211 -1.0740  2.2576
11691WAT     H247471   4.815   8.018   6.084 -0.5855  0.0745  2.9483
11691WAT    EPW47472   4.891   8.007   6.100 -0.7053  0.0151 -0.1515
11692WAT      O47473   2.029   7.824   7.296 -0.1981 -0.2493 -0.0978
11692WAT     H147474   1.958   7.871   7.279  0.1905  0.1728 -0.5727
11692WAT     H247475   2.007   7.744   7.270 -1.4168 -0.7053  2.1247
11692WAT    EPW47476   2.016   7.819   7.289 -0.4384 -0.3895 -0.7714
11693WAT      O47477   1.856   7.931   7.706  0.7407  0.1361  0.2227
11693WAT     H147478   1.802   7.916   7.772  0.2524 -0.2774 -0.2565
11693WAT     H247479   1.886   7.852   7.685  0.4758  0.1917 -0.3892
11693WAT    EPW47480   1.852   7.917   7.712  0.2577 -0.1062 -1.3260
11694WAT      O47481   2.722   0.836   2.097  0.7556  0.0972  0.3289
11694WAT     H147482   2.699   0.920   2.101 -0.4564 -0.2130  0.3489
11694WAT     H247483   2.806   0.837   2.121  0.9114  1.3519 -0.1644
11694WAT    EPW47484   2.731   0.849   2.101  0.1347  0.4490 -0.3829
11695WAT      O47485   4.147   0.065   7.136 -0.2680  0.4141 -0.0828
11695WAT     H147486   4.214   0.010   7.148  0.3110  1.1963  0.3528
11695WAT     H247487   4.181   0.127   7.084 -0.6889  0.7534  0.0409
11695WAT    EPW47488   4.162   0.066   7.130  0.3821  0.0771 -0.0143
11696WAT      O47489   3.830   0.189   7.172 -0.0615  0.3881  0.2778
11696WAT     H147490   3.765   0.239   7.143  0.3971 -0.7849 -3.2801
11696WAT     H247491   3.902   0.232   7.148  0.3899 -0.5281 -0.0503
11696WAT    EPW47492   3.831   0.202   7.164 -0.7201 -1.3647 -0.4416
11697WAT      O47493   2.652   0.528   1.160 -0.1213 -0.2278  0.6007
11697WAT     H147494   2.717   0.585   1.173 -0.9572  0.9450 -0.2346
11697WAT     H247495   2.658   0.474   1.228  1.0356  0.5203  1.1125
11697WAT    EPW47496   2.663   0.528   1.172 -0.4747 -0.6617  0.6829
11698WAT      O47497   2.278   7.565   0.795  0.8515 -0.6372  0.5235
11698WAT     H147498   2.364   7.553   0.792  0.9035 -0.3703  0.8462
11698WAT     H247499   2.259   7.550   0.879  0.8090  0.8043  0.7831
11698WAT    EPW47500   2.288   7.561   0.807 -0.5237 -0.3679  0.0073
11699WAT      O47501   2.836   7.747   7.616 -0.0271  0.6447 -0.0576
11699WAT     H147502   2.753   7.766   7.594 -0.2382  0.2420  0.3765
11699WAT     H247503   2.875   7.825   7.614 -0.3245  0.7879 -0.6366
11699WAT    EPW47504   2.830   7.761   7.613  0.4721 -0.3015  0.0330
11700WAT      O47505   2.341   0.487   5.395  0.0394 -0.2591  0.1996
11700WAT     H147506   2.366   0.417   5.441 -1.6749 -0.5787  0.7214
11700WAT     H247507   2.258   0.497   5.418  0.1912  1.8572 -0.0153
11700WAT    EPW47508   2.333   0.478   5.405  0.6269 -1.1689 -0.0767
11701WAT      O47509   3.721   0.927   4.276  0.1113 -0.3760  0.1182
11701WAT     H147510   3.745   0.844   4.277 -0.8735 -0.6618  0.7168
11701WAT     H247511   3.797   0.970   4.276  0.6226 -1.2598  0.2920
11701WAT    EPW47512   3.736   0.921   4.276 -0.3247  0.1860 -0.1539
11702WAT      O47513   2.927   7.515   5.122  0.1927 -0.1359 -0.3445
11702WAT     H147514   2.967   7.588   5.098  0.4855 -0.0735  0.3108
11702WAT     H247515   2.850   7.543   5.153  1.2318  0.2027  2.2160
11702WAT    EPW47516   2.921   7.530   5.123 -0.2374 -0.5518  0.1162
11703WAT      O47517   3.205   7.151   5.193 -0.2073  0.3343  0.4150
11703WAT     H147518   3.130   7.130   5.232 -0.0396  1.4484  1.4224
11703WAT     H247519   3.234   7.218   5.241  0.6376  0.9650 -0.9342
11703WAT    EPW47520   3.198   7.158   5.206 -0.4086  0.1234  0.0967
11704WAT      O47521   1.772   7.521   5.204 -0.5396  0.1454 -0.4758
11704WAT     H147522   1.756   7.606   5.217 -0.5329  0.4040 -1.9258
11704WAT     H247523   1.856   7.513   5.228 -0.5336  0.5606 -0.3407
11704WAT    EPW47524   1.782   7.533   5.209  0.7617  0.2410  0.5292
11705WAT      O47525   3.253   7.677   3.516 -0.5588 -0.1122 -0.0955
11705WAT     H147526   3.201   7.642   3.456 -0.8399 -0.6699  0.4614
11705WAT     H247527   3.219   7.756   3.530 -1.1676 -0.4087  0.1425
11705WAT    EPW47528   3.240   7.683   3.509  0.0982 -0.1577 -0.0682
11706WAT      O47529   2.167   6.472   4.846 -0.1458 -0.8060  0.0498
11706WAT     H147530   2.224   6.464   4.781 -0.1489  0.2310 -0.0841
11706WAT     H247531   2.090   6.475   4.805 -0.0972  0.7126  0.0138
11706WAT    EPW47532   2.164   6.471   4.831  0.5681 -0.0976 -1.2767
11707WAT      O47533   3.365   0.651   5.118 -0.0378  0.8333  0.1065
11707WAT     H147534   3.340   0.620   5.195 -1.3588  2.2147  0.3048
11707WAT     H247535   3.401   0.583   5.078  0.7125  0.1068  1.9461
11707WAT    EPW47536   3.366   0.636   5.123  0.8380  0.8101 -0.9940
11708WAT      O47537   1.918   0.469   4.852 -0.5917  0.1396 -0.0184
11708WAT     H147538   1.931   0.523   4.920 -0.5921 -0.0130  0.1033
11708WAT     H247539   1.986   0.485   4.801 -0.0621 -0.4530  0.4849
11708WAT    EPW47540   1.930   0.479   4.855 -0.4943 -0.1649  0.3076
11709WAT      O47541   3.288   7.753   5.946  0.4214 -0.0529 -0.1171
11709WAT     H147542   3.236   7.774   6.013  1.0195  0.1609  0.2860
11709WAT     H247543   3.232   7.726   5.885 -0.1530  0.0046  0.3711
11709WAT    EPW47544   3.272   7.752   5.947  0.6422 -0.3326  0.0564
11710WAT      O47545   4.265   7.638   6.710 -0.1781 -0.1067  0.2930
11710WAT     H147546   4.343   7.650   6.672 -0.3723 -0.9611 -0.4026
11710WAT     H247547   4.239   7.719   6.730  0.8099  0.2011  0.3793
11710WAT    EPW47548   4.273   7.652   6.708 -0.8444 -0.0740  0.0441
11711WAT      O47549   3.543   0.635   4.579  0.0446 -0.5408  0.1415
11711WAT     H147550   3.473   0.601   4.540  0.5412  0.8965 -2.2136
11711WAT     H247551   3.606   0.578   4.560 -0.0474 -0.7099  0.3386
11711WAT    EPW47552   3.542   0.621   4.570 -0.3564  0.4164  0.2365
11712WAT      O47553   2.710   1.831   4.416 -0.2730 -0.0794 -0.4583
11712WAT     H147554   2.700   1.841   4.502  0.2983 -0.5096 -0.3352
11712WAT     H247555   2.769   1.768   4.409 -0.5816 -0.3019 -1.1761
11712WAT    EPW47556   2.717   1.823   4.427 -0.2643 -0.4254  0.0377
11713WAT      O47557   2.432   0.598   5.778  0.1814  0.3401  0.4706
11713WAT     H147558   2.508   0.560   5.757 -0.2668 -0.0366 -0.5069
11713WAT     H247559   2.421   0.657   5.715 -1.0688 -0.6396 -0.2810
11713WAT    EPW47560   2.442   0.601   5.766  0.0642 -0.0106 -0.3862
11714WAT      O47561   3.302   0.380   3.621  0.0600 -0.1546 -0.5638
11714WAT     H147562   3.377   0.359   3.660  0.2505 -1.7082 -1.6870
11714WAT     H247563   3.306   0.337   3.545 -2.0276 -0.3662 -0.5935
11714WAT    EPW47564   3.314   0.371   3.615  0.6337  0.8563 -0.0746
11715WAT      O47565   3.319   1.729   6.697 -0.1944  0.1436 -0.2563
11715WAT     H147566   3.362   1.671   6.648  0.1335 -1.2106  1.4975
11715WAT     H247567   3.244   1.689   6.715 -0.0287  0.2913  0.8677
11715WAT    EPW47568   3.314   1.714   6.693  0.5009 -0.9092 -1.5051
11716WAT      O47569   3.929   0.265   4.643 -0.3654  0.2640  0.1455
11716WAT     H147570   3.879   0.269   4.714 -0.0981  0.2391  0.3357
11716WAT     H247571   3.993   0.211   4.666  0.0325  0.7006  0.0828
11716WAT    EPW47572   3.931   0.258   4.657  0.6648 -0.2880  0.1498
11717WAT      O47573   3.985   1.105   6.947  0.3493  0.2255 -0.0231
11717WAT     H147574   4.000   1.191   6.955  1.6637 -0.1213  2.2180
11717WAT     H247575   4.062   1.069   6.964 -0.0623 -1.4178 -1.4055
11717WAT    EPW47576   3.998   1.112   6.951 -1.4699 -0.1531  0.1171
11718WAT      O47577   3.026   1.045   6.081  0.1171 -0.2744  0.2507
11718WAT     H147578   3.018   0.966   6.044  1.2405  0.1361 -0.9481
11718WAT     H247579   3.043   1.027   6.164 -0.7113 -1.2726  0.2299
11718WAT    EPW47580   3.027   1.030   6.088 -0.1789 -0.4040  0.3332
11719WAT      O47581   4.055   0.954   5.195 -0.5979 -0.3851 -0.5198
11719WAT     H147582   3.993   0.954   5.133 -0.3361  1.1051 -0.8238
11719WAT     H247583   4.127   0.976   5.152 -0.6728  2.1837  0.4680
11719WAT    EPW47584   4.056   0.957   5.180 -0.7629 -0.5686  0.1959
11720WAT      O47585   3.354   0.274   4.766  0.3004  0.3013 -0.4448
11720WAT     H147586   3.335   0.196   4.799 -0.5952  0.6303 -0.1387
11720WAT     H247587   3.403   0.257   4.696  0.9122 -0.4829  0.1651
11720WAT    EPW47588   3.358   0.260   4.761 -0.2559 -0.9835 -0.7113
11721WAT      O47589   3.884   1.163   5.732  0.4921  0.3077 -0.1329
11721WAT     H147590   3.937   1.175   5.664 -0.5205  0.2109 -0.9502
11721WAT     H247591   3.938   1.135   5.795  1.6720  1.7429 -0.4509
11721WAT    EPW47592   3.900   1.161   5.731 -1.3373 -0.0700  0.2858
11722WAT      O47593   2.844   0.188   7.161 -0.4058 -0.0963 -0.2775
11722WAT     H147594   2.846   0.217   7.243 -0.7080  1.4843 -0.7757
11722WAT     H247595   2.925   0.162   7.146 -0.3749 -0.4978  0.5518
11722WAT    EPW47596   2.856   0.189   7.171  0.3438 -0.3461  0.2041
11723WAT      O47597   3.045   1.755   4.384  0.2628  0.2718  0.0054
11723WAT     H147598   3.021   1.700   4.447 -0.8935  1.5491  0.7142
11723WAT     H247599   3.052   1.703   4.314 -1.0913 -0.7421  0.5710
11723WAT    EPW47600   3.043   1.739   4.383 -0.5039 -0.0976 -0.1209
11724WAT      O47601   2.253   0.781   4.405  0.2630 -0.1271 -0.1369
11724WAT     H147602   2.277   0.816   4.329 -0.5431  2.3114  0.6312
11724WAT     H247603   2.179   0.739   4.385  0.4207 -0.0801 -0.8446
11724WAT    EPW47604   2.246   0.780   4.391 -0.3678  0.5834  0.3212
11725WAT      O47605   2.128   2.320   7.590 -0.0369  0.2190 -0.2869
11725WAT     H147606   2.127   2.334   7.504 -2.3183 -0.1187 -0.3818
11725WAT     H247607   2.135   2.400   7.624 -1.5861  0.6112 -0.8213
11725WAT    EPW47608   2.129   2.334   7.582 -0.0160  0.2508 -0.0404
11726WAT      O47609   3.723   7.929   5.747  0.2142  0.1992  1.0445
11726WAT     H147610   3.687   8.008   5.758  0.5688  0.5074  0.0970
11726WAT     H247611   3.804   7.939   5.777  1.3345  1.1723 -1.9155
11726WAT    EPW47612   3.730   7.942   5.753  0.0693  0.6629 -0.2708
11727WAT      O47613   3.728   0.048   4.590 -0.4359 -0.1023  0.0518
11727WAT     H147614   3.690  -0.026   4.616 -0.3929  0.1528  0.8997
11727WAT     H247615   3.747   0.034   4.506 -1.3100 -0.6825 -0.0609
11727WAT    EPW47616   3.725   0.035   4.582  0.9386  0.3364 -0.2906
11728WAT      O47617   3.889   0.772   6.718 -0.5748  0.4350 -0.5770
11728WAT     H147618   3.815   0.765   6.673 -1.5506  0.6886  0.9119
11728WAT     H247619   3.931   0.697   6.700 -1.8264 -0.3503 -0.3695
11728WAT    EPW47620   3.884   0.760   6.709 -0.3327  0.0273  0.3529
11729WAT      O47621   2.070   0.467   5.437 -0.4246  0.0155 -0.3621
11729WAT     H147622   2.020   0.420   5.383  0.9542  0.3623 -2.0363
11729WAT     H247623   2.035   0.453   5.515 -2.6835 -0.3290 -1.3586
11729WAT    EPW47624   2.057   0.458   5.441  0.1143 -1.0322 -0.6570
11730WAT      O47625   1.888   0.159   4.847 -0.3040  0.4161  0.0881
11730WAT     H147626   1.899   0.242   4.873  0.8216  0.0279  0.9531
11730WAT     H247627   1.969   0.132   4.830 -0.7502 -0.2294 -1.1426
11730WAT    EPW47628   1.902   0.167   4.848  0.5355 -1.1266 -0.1620
11731WAT      O47629   4.567   7.698   5.904 -0.2642 -0.7307  0.1188
11731WAT     H147630   4.648   7.718   5.878 -0.0994 -1.4124  0.0853
11731WAT     H247631   4.577   7.619   5.941 -0.7317 -0.3516  1.0598
11731WAT    EPW47632   4.581   7.689   5.906  0.3939 -0.3277 -0.8285
11732WAT      O47633   2.412   0.973   7.448 -0.2207  0.4903  0.1977
11732WAT     H147634   2.456   1.018   7.508  0.7633  0.0004 -0.1366
11732WAT     H247635   2.336   1.016   7.442 -0.7885 -0.0629  2.5283
11732WAT    EPW47636   2.407   0.986   7.456 -0.5091  0.1476  0.8103
11733WAT      O47637   4.006   7.354   5.243  0.2744  0.1509  0.1102
11733WAT     H147638   3.966   7.309   5.180 -1.2614 -0.4993  1.4785
11733WAT     H247639   4.091   7.347   5.222 -0.0536 -1.5981 -0.8812
11733WAT    EPW47640   4.013   7.346   5.230 -0.9041 -0.4637  0.4885
11734WAT      O47641   1.676   7.324   4.506  0.0352  0.3907  0.4877
11734WAT     H147642   1.759   7.320   4.533  0.0857 -1.4869  0.2019
11734WAT     H247643   1.678   7.381   4.441  1.0672  0.4859  0.5938
11734WAT    EPW47644   1.688   7.332   4.501  0.3263  0.9844  0.6034
11735WAT      O47645   3.794   0.443   4.089  0.4220 -0.2509  0.1375
11735WAT     H147646   3.847   0.466   4.155  0.0239 -2.1168  1.2106
11735WAT     H247647   3.828   0.367   4.061 -0.9984 -0.9243  0.1065
11735WAT    EPW47648   3.807   0.435   4.095  0.3562  0.5276 -0.9057
11736WAT      O47649   1.762   1.521   6.547 -0.0269  0.6338 -0.3742
11736WAT     H147650   1.721   1.477   6.484  1.2430  0.3055 -0.9974
11736WAT     H247651   1.790   1.593   6.508 -0.7644  1.2889  0.2701
11736WAT    EPW47652   1.760   1.525   6.532  0.0459 -0.0714  0.2658
11737WAT      O47653   4.455   7.867   5.451 -0.0534  0.0989 -0.1802
11737WAT     H147654   4.527   7.828   5.481 -0.0615  0.4644  0.3327
11737WAT     H247655   4.391   7.827   5.494 -0.1431 -0.1322 -0.5350
11737WAT    EPW47656   4.456   7.855   5.462 -0.0290  0.5922 -0.5535
11738WAT      O47657   3.569   7.739   4.415 -0.1449  0.6442  0.6451
11738WAT     H147658   3.582   7.764   4.497 -1.4699  1.5614  0.6150
11738WAT     H247659   3.521   7.803   4.381 -0.2198 -0.0505 -0.6440
11738WAT    EPW47660   3.563   7.752   4.422 -0.2852  0.4873  1.0454
11739WAT      O47661   2.431   1.212   4.482 -0.2303  0.5881  0.0867
11739WAT     H147662   2.507   1.176   4.504 -0.5065  0.1717  0.3690
11739WAT     H247663   2.423   1.193   4.397  1.0354  2.5614 -0.5461
11739WAT    EPW47664   2.441   1.204   4.472  0.0596  0.7711 -0.1274
11740WAT      O47665   1.529   0.078   3.508  0.2072  0.3138  1.2126
11740WAT     H147666   1.561   0.021   3.566 -0.0867 -0.6059  0.4957
11740WAT     H247667   1.524   0.032   3.434 -1.0082  0.9639  0.8560
11740WAT    EPW47668   1.533   0.063   3.506 -0.5722  1.6376  0.7588
11741WAT      O47669   2.074   0.886   5.706  0.1186  0.3441  0.4218
11741WAT     H147670   2.074   0.806   5.739 -3.8173 -0.2941 -0.6549
11741WAT     H247671   2.156   0.896   5.677  0.8075 -3.1967  0.6982
11741WAT    EPW47672   2.086   0.876   5.707 -0.2851 -0.7416  0.1435
11742WAT      O47673   2.288   0.717   3.813  0.2472  0.0693  0.3178
11742WAT     H147674   2.362   0.747   3.847 -0.6372  2.4836  0.2669
11742WAT     H247675   2.313   0.679   3.739  1.3032  2.4013 -0.6131
11742WAT    EPW47676   2.303   0.716   3.807 -0.2325 -0.5413 -0.4250
11743WAT      O47677   1.621   7.981   4.424 -0.2181 -0.0132  0.1800
11743WAT     H147678   1.657   8.048   4.381  0.2982  1.2763  2.4530
11743WAT     H247679   1.652   7.990   4.505  0.2295 -3.3157  0.5041
11743WAT    EPW47680   1.631   7.992   4.429  0.2047  0.0444 -0.2985
11744WAT      O47681   2.619   2.557   4.454 -0.2280  0.2986  0.3858
11744WAT     H147682   2.644   2.639   4.464  0.3771  0.0337  1.1158
11744WAT     H247683   2.641   2.539   4.371  2.3816 -0.0195  1.0548
11744WAT    EPW47684   2.626   2.566   4.443  0.3093  0.3777  0.3584
11745WAT      O47685   1.840   0.784   5.188  0.6159  0.5579 -0.3505
11745WAT     H147686   1.882   0.813   5.259  0.1534 -1.0819  0.6582
11745WAT     H247687   1.859   0.843   5.127  3.0126  0.7532  0.4896
11745WAT    EPW47688   1.849   0.797   5.190  0.4574  0.1134  0.3386
11746WAT      O47689   4.280   7.936   0.801  0.4563 -0.1232  0.1319
11746WAT     H147690   4.297   7.950   0.717  1.7496 -1.5393  0.1142
11746WAT     H247691   4.347   7.887   0.828 -0.3432 -0.3900  1.7864
11746WAT    EPW47692   4.293   7.931   0.793  0.8808 -0.3708  0.2763
11747WAT      O47693   3.474   1.056   4.431  0.0707 -0.1384 -0.5214
11747WAT     H147694   3.544   1.012   4.403  0.6501 -0.3950  1.1942
11747WAT     H247695   3.507   1.134   4.452 -0.5593  0.4269 -1.5394
11747WAT    EPW47696   3.489   1.061   4.430  1.0045  0.4154 -0.8111
11748WAT      O47697   3.194   1.445   5.490 -0.2688 -0.3113  1.1879
11748WAT     H147698   3.138   1.388   5.454 -1.2088  0.3571  1.5495
11748WAT     H247699   3.165   1.523   5.463  0.5908  0.0386  1.2518
11748WAT    EPW47700   3.182   1.448   5.481  0.4750 -0.1562 -0.4409
11749WAT      O47701   3.079   7.860   6.101 -0.2570 -0.3334  0.0683
11749WAT     H147702   2.992   7.849   6.097 -0.3481  0.7065 -1.6634
11749WAT     H247703   3.093   7.935   6.058  1.3942  0.2384  1.4892
11749WAT    EPW47704   3.068   7.869   6.094 -0.4862 -0.8111 -0.9497
11750WAT      O47705   2.573   7.715   6.251 -0.1674  0.0411  0.2063
11750WAT     H147706   2.545   7.759   6.322 -0.0475  0.1589  0.1816
11750WAT     H247707   2.596   7.637   6.283 -0.5439 -0.0658  0.2240
11750WAT    EPW47708   2.572   7.710   6.266  0.7360 -0.6574 -0.2851
11751WAT      O47709   3.824   7.500   7.821  0.1290  0.4468  0.4060
11751WAT     H147710   3.888   7.459   7.779 -1.0208  0.4922 -1.5170
11751WAT     H247711   3.864   7.538   7.889  2.2826  1.1141 -1.1463
11751WAT    EPW47712   3.839   7.500   7.825 -0.1961 -0.9355 -0.1498
11752WAT      O47713   3.700   0.441   6.714 -0.4851  0.1868  0.1697
11752WAT     H147714   3.629   0.412   6.756 -0.9759  0.3413 -0.5331
11752WAT     H247715   3.685   0.527   6.705  0.2640  0.4014  0.9101
11752WAT    EPW47716   3.687   0.450   6.719  0.6484 -0.2647  0.2766
11753WAT      O47717   3.321   0.523   4.442 -0.3877 -0.8187  0.3532
11753WAT     H147718   3.269   0.515   4.512 -1.2138  0.0083 -0.1394
11753WAT     H247719   3.283   0.587   4.396  1.3419  0.1636  0.2105
11753WAT    EPW47720   3.308   0.531   4.445  1.0901  0.1601  0.2949
11754WAT      O47721   5.632   1.995   5.523 -0.2592  0.1642 -0.0962
11754WAT     H147722   5.645   2.016   5.607  1.3525 -0.8188 -0.0646
11754WAT     H247723   5.700   1.945   5.504 -1.7936 -1.5532 -1.3424
11754WAT    EPW47724   5.644   1.991   5.533  0.9013  0.3106  0.3367
11755WAT      O47725   2.675   1.469   6.057 -0.5787 -0.2173 -0.3604
11755WAT     H147726   2.611   1.419   6.024  0.6973 -2.9248  0.9618
11755WAT     H247727   2.745   1.447   6.008  0.1344 -0.1436  0.6036
11755WAT    EPW47728   2.676   1.458   6.045 -0.8569 -0.0177 -0.1927
11756WAT      O47729   4.021   7.761   5.049 -0.1647  0.0223 -0.1229
11756WAT     H147730   3.973   7.747   5.121 -2.1314 -1.4004 -1.6199
11756WAT     H247731   3.998   7.697   4.995  2.3395  0.1724 -1.5492
11756WAT    EPW47732   4.011   7.750   5.052  0.3385  0.7135  0.3199
11757WAT      O47733   2.369   2.379   5.963  0.5486  0.6842  0.0109
11757WAT     H147734   2.382   2.294   5.949  1.5688  0.7241  0.5630
11757WAT     H247735   2.313   2.380   6.030  0.0945  0.4604 -0.3579
11757WAT    EPW47736   2.363   2.366   5.971  0.6861  0.6475  0.0396
11758WAT      O47737   2.506   8.019   5.055 -0.0638  0.3645  0.0565
11758WAT     H147738   2.479   8.101   5.043  1.4085  0.5850 -2.5736
11758WAT     H247739   2.478   7.978   4.983  2.5303 -0.4428 -0.5847
11758WAT    EPW47740   2.498   8.025   5.043  0.1540 -0.3723  0.3255
11759WAT      O47741   2.386   0.764   5.572 -0.6828 -0.2015  0.5072
11759WAT     H147742   2.371   0.726   5.495 -0.5049 -0.7484  0.7396
11759WAT     H247743   2.424   0.839   5.550  0.9049 -1.0801  0.1127
11759WAT    EPW47744   2.389   0.769   5.557  0.2101  0.2998 -0.4951
11760WAT      O47745   3.786   3.089   6.906 -0.1427 -0.0810  0.3353
11760WAT     H147746   3.793   3.024   6.963  0.8890 -1.9011 -1.7184
11760WAT     H247747   3.869   3.106   6.884 -0.5065  0.6796 -0.5078
11760WAT    EPW47748   3.799   3.082   6.911  0.3716 -0.0209 -1.0623
11761WAT      O47749   1.576   7.812   4.857 -0.1031  0.1287 -0.2470
11761WAT     H147750   1.552   7.874   4.914  0.1421 -0.1414  0.1602
11761WAT     H247751   1.629   7.855   4.802 -1.5632  0.7535 -1.2300
11761WAT    EPW47752   1.580   7.828   4.858  0.7678  0.0006  0.0511
11762WAT      O47753   3.524   7.694   7.064  0.1261  0.9647 -0.3261
11762WAT     H147754   3.520   7.774   7.099 -1.2268  1.3512 -1.2827
11762WAT     H247755   3.500   7.642   7.129 -1.6344  1.5995 -0.4227
11762WAT    EPW47756   3.520   7.698   7.079 -0.1582 -0.0866 -0.3026
11763WAT      O47757   2.854   0.222   5.165 -0.0752  0.1583  0.1052
11763WAT     H147758   2.831   0.171   5.097 -0.9616  0.3605  0.2455
11763WAT     H247759   2.941   0.228   5.156 -0.1620  0.1313 -0.9819
11763WAT    EPW47760   2.863   0.215   5.153  0.0252  0.6494 -0.6345
11764WAT      O47761   3.070   1.343   6.216 -0.1039 -0.2707  0.4780
11764WAT     H147762   3.063   1.265   6.253 -0.5402 -0.7044 -0.4951
11764WAT     H247763   3.156   1.356   6.212 -0.0452 -0.0663  1.9042
11764WAT    EPW47764   3.082   1.334   6.221 -0.1037  0.1356 -0.1807
11765WAT      O47765   2.500   7.608   5.453 -0.1409 -0.5525 -0.1438
11765WAT     H147766   2.488   7.620   5.368  2.8253  0.8296 -0.4920
11765WAT     H247767   2.514   7.522   5.460  3.3992 -0.3012 -1.8182
11765WAT    EPW47768   2.500   7.597   5.442  1.2020 -0.4147 -0.4338
11766WAT      O47769   2.912   1.094   2.943 -0.3717 -0.5368 -0.4172
11766WAT     H147770   2.938   1.135   3.015  3.9782 -1.0759 -1.4131
11766WAT     H247771   2.871   1.156   2.897 -2.0467  0.1375  1.8363
11766WAT    EPW47772   2.910   1.109   2.947  0.5752 -0.0137 -0.1744
11767WAT      O47773   2.643   7.112   5.272 -0.0603 -0.2175 -0.3749
11767WAT     H147774   2.628   7.074   5.196 -0.9403  0.2110 -0.4352
11767WAT     H247775   2.730   7.111   5.280 -0.0195 -1.2461 -0.8618
11767WAT    EPW47776   2.653   7.106   5.262  0.4245  0.8942 -0.5115
11768WAT      O47777   3.625   0.331   3.762  0.2314  0.3645 -0.4796
11768WAT     H147778   3.629   0.410   3.800 -1.3854  1.5488 -2.5556
11768WAT     H247779   3.695   0.330   3.709  1.6964 -0.7219  1.3501
11768WAT    EPW47780   3.636   0.343   3.760  0.0873  0.2709 -0.5343
11769WAT      O47781   3.627   7.718   5.928  0.3161  0.7088  0.0588
11769WAT     H147782   3.662   7.795   5.908  0.9906  0.8190  1.5615
11769WAT     H247783   3.574   7.735   5.995 -0.6528  0.0997 -0.5229
11769WAT    EPW47784   3.624   7.732   5.935  0.3426  0.2102  0.2479
11770WAT      O47785   1.606   7.028   4.157 -0.6826  0.1978  0.1217
11770WAT     H147786   1.559   7.078   4.211 -2.0522 -3.1654  2.4019
11770WAT     H247787   1.547   6.993   4.104 -0.1070 -0.7584  0.0962
11770WAT    EPW47788   1.590   7.030   4.157  0.2091 -0.8472 -0.5978
11771WAT      O47789   3.647   0.434   6.109 -0.9207  0.2101  0.5287
11771WAT     H147790   3.714   0.484   6.082  1.4193 -2.5506  0.7645
11771WAT     H247791   3.638   0.455   6.193  0.1096  0.1738  0.6604
11771WAT    EPW47792   3.655   0.445   6.117 -0.1282 -0.5518 -0.0937
11772WAT      O47793   3.148   7.331   6.306 -0.5472 -0.7458 -0.7437
11772WAT     H147794   3.118   7.263   6.260 -1.5301  0.2288 -1.6058
11772WAT     H247795   3.081   7.386   6.307 -1.1362 -1.2111  3.0569
11772WAT    EPW47796   3.134   7.329   6.299 -0.4012 -0.4625 -0.5106
11773WAT      O47797   2.796   0.395   6.055  0.5827  0.2552 -0.3606
11773WAT     H147798   2.814   0.313   6.033  1.8893  0.3838  0.1105
11773WAT     H247799   2.791   0.436   5.978 -0.8311 -0.3905 -0.6262
11773WAT    EPW47800   2.798   0.389   6.040  0.1743 -0.0634 -0.4296
11774WAT      O47801   3.426   0.880   4.661 -0.3910 -0.2435  0.1784
11774WAT     H147802   3.469   0.806   4.645 -2.6810 -1.5413 -0.3198
11774WAT     H247803   3.451   0.933   4.596  0.8035 -0.7538  0.1932
11774WAT    EPW47804   3.436   0.877   4.649  0.1255 -1.0870  0.4849
11775WAT      O47805   4.124   1.056   0.116 -0.4620 -0.4929 -0.2539
11775WAT     H147806   4.126   1.071   0.202  0.2068  1.5338 -0.5565
11775WAT     H247807   4.194   1.007   0.102 -0.4711 -0.6821  0.3389
11775WAT    EPW47808   4.134   1.051   0.126  0.1446  0.7292  0.4683
11776WAT      O47809   3.530   0.061   6.932 -0.0024 -0.2430 -0.3710
11776WAT     H147810   3.459   0.033   6.891 -0.9463  1.0732  0.2830
11776WAT     H247811   3.525   0.024   7.011  0.2413 -0.4445 -0.4487
11776WAT    EPW47812   3.519   0.052   6.938 -0.3677 -0.5591  0.0481
11777WAT      O47813   3.184   7.582   2.673  0.5840  0.1497  0.2044
11777WAT     H147814   3.266   7.583   2.703 -0.4136  0.0831  3.1979
11777WAT     H247815   3.180   7.506   2.630  1.2931 -1.4088  2.6838
11777WAT    EPW47816   3.196   7.571   2.671 -0.3374  0.0344 -0.0608
11778WAT      O47817   4.321   0.261   6.991  0.4819  0.1407  0.1994
11778WAT     H147818   4.397   0.228   6.965  0.3540 -0.0267  0.0412
11778WAT     H247819   4.312   0.334   6.943  0.7053  0.3433  0.4638
11778WAT    EPW47820   4.331   0.267   6.980 -0.2462  0.2254  0.2291
11779WAT      O47821   3.631   1.225   6.329  0.2044 -0.3952  0.0746
11779WAT     H147822   3.587   1.176   6.272  1.5176 -1.2604 -0.2604
11779WAT     H247823   3.710   1.187   6.331  0.1898 -0.4677  2.5523
11779WAT    EPW47824   3.636   1.212   6.321 -0.5265 -0.3750 -0.7171
11780WAT      O47825   3.241   0.565   6.659 -0.2706 -0.4560  0.0518
11780WAT     H147826   3.213   0.636   6.617 -1.3597 -0.5503  0.5767
11780WAT     H247827   3.288   0.597   6.724 -1.0619 -0.1869  0.5049
11780WAT    EPW47828   3.244   0.580   6.662 -0.6369 -0.6665 -0.7207
11781WAT      O47829   3.394   0.022   5.210  0.4705  0.3384  0.6161
11781WAT     H147830   3.419   0.073   5.144  0.7180  0.5440  0.8690
11781WAT     H247831   3.335   0.071   5.252 -0.5092 -0.2073 -0.0789
11781WAT    EPW47832   3.389   0.037   5.206  0.4282 -0.7079 -0.8873
11782WAT      O47833   2.745   7.595   5.721 -0.2790  0.2050 -0.1270
11782WAT     H147834   2.693   7.664   5.705 -1.1051 -0.3161  0.2132
11782WAT     H247835   2.796   7.590   5.651  0.2064  1.5243  0.1037
11782WAT    EPW47836   2.745   7.604   5.708  0.1722  0.5540 -0.3240
11783WAT      O47837   3.171   0.293   7.944  0.6257  0.6964  0.1663
11783WAT     H147838   3.203   0.339   7.878  1.2276 -1.5218 -1.1695
11783WAT     H247839   3.087   0.317   7.947  0.5118  0.6272 -1.6224
11783WAT    EPW47840   3.163   0.304   7.935 -0.5459  1.0909 -0.0626
11784WAT      O47841   3.587   6.373   7.155 -0.4624 -0.0426  0.3186
11784WAT     H147842   3.552   6.412   7.085 -0.6640  0.0305  0.4591
11784WAT     H247843   3.528   6.312   7.175 -0.3761 -0.1014  0.3911
11784WAT    EPW47844   3.573   6.370   7.147 -0.1970  1.1845 -0.2424
11785WAT      O47845   2.427   7.308   5.212 -0.5236 -0.2809 -0.0180
11785WAT     H147846   2.507   7.295   5.181 -0.0776 -0.3881  1.1529
11785WAT     H247847   2.408   7.233   5.254 -1.1144 -0.1431 -0.0224
11785WAT    EPW47848   2.436   7.295   5.213  0.6588  1.7128 -1.0099
11786WAT      O47849   3.153   7.932   5.474 -0.1641 -0.8268  0.7198
11786WAT     H147850   3.220   7.912   5.527  0.0178 -2.8483 -0.1635
11786WAT     H247851   3.083   7.915   5.522 -0.1601  1.9068  1.8753
11786WAT    EPW47852   3.153   7.926   5.489  0.7380 -1.2857  0.2395
11787WAT      O47853   3.956   0.520   6.398 -0.0114  0.1623 -0.4957
11787WAT     H147854   3.988   0.505   6.478 -0.3947 -1.1772 -0.5688
11787WAT     H247855   4.028   0.527   6.349  0.2337  1.2150 -0.0180
11787WAT    EPW47856   3.971   0.519   6.403 -0.0906 -0.7931  0.1007
11788WAT      O47857   1.931   7.868   6.554 -1.1712 -0.0641 -0.3052
11788WAT     H147858   1.958   7.933   6.502 -1.0430 -0.7980 -1.1684
11788WAT     H247859   1.918   7.802   6.499 -1.0580 -0.8534  0.6043
11788WAT    EPW47860   1.933   7.868   6.538  0.4611  1.0129 -0.7513
11789WAT      O47861   2.075   0.038   5.227  0.5943 -0.2344 -0.5666
11789WAT     H147862   2.047  -0.042   5.209 -1.5044  0.1283  0.7762
11789WAT     H247863   2.110   0.065   5.151 -0.8008 -1.5459 -1.7303
11789WAT    EPW47864   2.076   0.030   5.213 -0.0721 -0.4747 -0.9672
11790WAT      O47865   1.892   6.876   5.989  0.0706  0.0978 -0.0061
11790WAT     H147866   1.829   6.876   6.050  0.4014  0.0458  0.3421
11790WAT     H247867   1.855   6.837   5.921 -0.4441  0.5336  0.0161
11790WAT    EPW47868   1.877   6.870   5.988 -0.1814 -0.0375  0.0416
11791WAT      O47869   3.513   7.846   4.936 -0.2563  0.1761 -0.2635
11791WAT     H147870   3.502   7.837   5.022 -1.1624  0.4959 -0.3318
11791WAT     H247871   3.462   7.785   4.902 -0.6887  0.7078 -0.5869
11791WAT    EPW47872   3.504   7.836   4.944  0.2552 -0.1251 -0.1886
11792WAT      O47873   2.684   0.755   6.753  0.2179  0.3123  0.6576
11792WAT     H147874   2.644   0.831   6.766 -0.4115 -0.1187  1.2753
11792WAT     H247875   2.636   0.698   6.797 -0.3508 -0.7507 -1.2061
11792WAT    EPW47876   2.671   0.758   6.761  0.5321  0.4565 -0.4417
11793WAT      O47877   2.458   1.382   5.577  0.2001 -0.1233  0.3342
11793WAT     H147878   2.396   1.338   5.533  0.3403  0.6703 -0.7011
11793WAT     H247879   2.444   1.465   5.554  2.4927 -0.0372 -1.1004
11793WAT    EPW47880   2.447   1.387   5.567  0.0489 -0.4641  0.1093
11794WAT      O47881   3.325   7.987   6.760  0.5969 -0.0782  0.5731
11794WAT     H147882   3.328   7.910   6.720 -0.8739 -0.4174  1.0772
11794WAT     H247883   3.334   8.044   6.694 -0.3880 -0.6507 -0.0744
11794WAT    EPW47884   3.327   7.984   6.744  0.2028  0.5483 -0.0231
11795WAT      O47885   2.937   0.484   6.251  0.7391  0.8902 -0.2301
11795WAT     H147886   2.895   0.455   6.180  1.0607 -1.9130  0.6139
11795WAT     H247887   3.021   0.471   6.232  0.8591  0.6963  0.4149
11795WAT    EPW47888   2.943   0.478   6.238 -0.3178  0.2487 -0.6822
11796WAT      O47889   4.159   6.004   6.781  0.5033  0.3814  0.1590
11796WAT     H147890   4.186   6.009   6.699 -0.8668 -0.1712 -0.3567
11796WAT     H247891   4.101   6.069   6.787 -0.8680 -0.7809  0.0662
11796WAT    EPW47892   4.154   6.014   6.770  0.5359  0.5465 -0.3156
11797WAT      O47893   1.850   1.311   7.313  0.2189 -0.4260  0.1401
11797WAT     H147894   1.777   1.324   7.359 -1.1708  0.4996 -2.1584
11797WAT     H247895   1.891   1.387   7.316  0.1573 -0.3827 -0.0817
11797WAT    EPW47896   1.846   1.324   7.320 -0.3183  0.4485  0.4468
11798WAT      O47897   3.512   0.355   6.873  0.2838  0.4118 -0.0919
11798WAT     H147898   3.569   0.371   6.937  1.0585  1.8095 -1.0713
11798WAT     H247899   3.508   0.268   6.869  3.1891  0.2281 -0.6733
11798WAT    EPW47900   3.519   0.344   6.882  0.1928 -0.7866  0.4930
11799WAT      O47901   2.498   0.718   4.518 -0.3124  0.3177  0.6120
11799WAT     H147902   2.417   0.726   4.487  0.0645 -0.6286 -0.7021
11799WAT     H247903   2.486   0.714   4.605 -1.5698  1.0965  0.5098
11799WAT    EPW47904   2.484   0.719   4.526 -0.3152 -0.5022  0.0651
11800WAT      O47905   2.797   0.442   5.772 -0.4940 -0.2779  0.6672
11800WAT     H147906   2.802   0.529   5.776 -1.7558 -0.1340 -0.1962
11800WAT     H247907   2.879   0.417   5.756  0.0859  0.6498  2.0367
11800WAT    EPW47908   2.810   0.451   5.770  0.5543 -0.0271 -0.3215
11801WAT      O47909   2.216   7.607   5.550  0.3881  0.8491  0.0650
11801WAT     H147910   2.212   7.524   5.526 -0.2807  1.5482 -2.5942
11801WAT     H247911   2.302   7.624   5.552  0.5218  0.1551  0.4687
11801WAT    EPW47912   2.228   7.598   5.546  1.0262  1.0441  0.1765
11802WAT      O47913   2.870   7.993   5.628  0.3250  0.1862  0.3404
11802WAT     H147914   2.908   8.030   5.697  2.0501 -0.5213 -0.1808
11802WAT     H247915   2.845   8.060   5.579 -1.2911  0.7167  1.7734
11802WAT    EPW47916   2.872   8.008   5.631  0.6813 -0.7672  0.2906
11803WAT      O47917   3.338   0.076   4.457 -0.4537 -0.0173  0.2030
11803WAT     H147918   3.369   0.157   4.465 -2.5719  0.8870 -0.2633
11803WAT     H247919   3.377   0.046   4.385  0.7186  0.3567  0.6439
11803WAT    EPW47920   3.349   0.083   4.448 -0.8712 -0.1502  0.4024
11804WAT      O47921   2.390   7.378   2.980 -0.3352  0.1290  0.4673
11804WAT     H147922   2.355   7.298   2.980  0.1954 -0.1087  0.1510
11804WAT     H247923   2.326   7.428   3.011 -0.4587 -0.5152  1.2926
11804WAT    EPW47924   2.375   7.374   2.985 -0.2203  0.1892 -0.2362
11805WAT      O47925   3.966   0.883   3.402 -0.1425 -0.7480 -0.7265
11805WAT     H147926   4.036   0.905   3.449  0.2663 -1.4654 -0.9863
11805WAT     H247927   3.997   0.827   3.343 -0.7043 -0.1046 -1.6636
11805WAT    EPW47928   3.981   0.878   3.401 -0.1722 -0.3871 -0.0810
11806WAT      O47929   1.992   7.541   6.689 -0.1763  0.1885 -0.4411
11806WAT     H147930   1.983   7.628   6.688  1.9798  0.5405  1.5304
11806WAT     H247931   1.998   7.520   6.605 -1.3796  1.8263 -0.9973
11806WAT    EPW47932   1.991   7.551   6.676 -0.6016  0.7836 -0.3221
11807WAT      O47933   2.977   1.456   6.671 -0.2875 -0.5438 -0.1946
11807WAT     H147934   2.971   1.522   6.729  0.9338  0.3885 -1.0636
11807WAT     H247935   3.059   1.429   6.680 -0.1734 -0.5817 -1.2805
11807WAT    EPW47936   2.988   1.462   6.681  0.0661 -0.4296 -0.1272
11808WAT      O47937   3.308   1.562   4.694  0.2304 -0.0459  0.0941
11808WAT     H147938   3.314   1.608   4.619 -1.5108  0.0374 -0.0289
11808WAT     H247939   3.332   1.619   4.755  0.4726  0.2697 -0.2937
11808WAT    EPW47940   3.312   1.577   4.692 -0.1945 -1.3070  1.0234
11809WAT      O47941   2.890   7.946   7.364  0.0992 -0.6696 -0.5360
11809WAT     H147942   2.833   7.942   7.298 -0.1487 -0.7880 -0.3169
11809WAT     H247943   2.839   7.950   7.434  0.3594 -0.0979 -0.3757
11809WAT    EPW47944   2.874   7.946   7.364 -0.2261  0.6232 -0.2915
11810WAT      O47945   3.293   0.950   4.234  0.0128  0.4276 -0.0098
11810WAT     H147946   3.262   0.872   4.258 -0.1634  0.3513 -0.4759
11810WAT     H247947   3.361   0.963   4.287  2.1939 -1.5728 -2.1242
11810WAT    EPW47948   3.299   0.941   4.245 -0.9573  0.1638 -0.4107
11811WAT      O47949   2.588   1.073   7.054  0.1578  0.0208 -0.3108
11811WAT     H147950   2.605   1.159   7.057  0.2023  0.0606 -1.4531
11811WAT     H247951   2.511   1.068   7.014 -0.0365 -0.4617  0.1063
11811WAT    EPW47952   2.579   1.085   7.049 -0.4605 -0.1617 -1.1538
11812WAT      O47953   3.356   0.361   7.290  0.5618  0.1261  0.2258
11812WAT     H147954   3.319   0.350   7.211 -2.3449 -1.1046  1.6016
11812WAT     H247955   3.320   0.435   7.319 -0.7694 -0.9242  1.4618
11812WAT    EPW47956   3.345   0.370   7.282  0.2857  0.6974 -0.3980
11813WAT      O47957   3.812   0.510   4.604 -0.0241 -0.0274 -0.1391
11813WAT     H147958   3.846   0.430   4.612  1.9197  0.6998 -0.5880
11813WAT     H247959   3.788   0.531   4.685 -0.1811 -0.9076  0.0459
11813WAT    EPW47960   3.813   0.502   4.617  0.2675 -0.5220 -0.8562
11814WAT      O47961   2.575   0.790   4.092 -0.1453  0.1495 -0.1745
11814WAT     H147962   2.628   0.833   4.038 -0.9538  1.3054 -0.0790
11814WAT     H247963   2.607   0.806   4.171 -0.5261  0.7239 -0.1281
11814WAT    EPW47964   2.588   0.798   4.096  0.2234  0.4702  0.0052
11815WAT      O47965   4.766   0.499   4.308  0.5787  0.0400 -0.6259
11815WAT     H147966   4.733   0.452   4.243  2.5123  0.4167 -1.9684
11815WAT     H247967   4.756   0.582   4.281  2.4159  0.1711 -1.0715
11815WAT    EPW47968   4.760   0.505   4.294  0.3304  0.1965 -0.2216
11816WAT      O47969   4.005   1.683   4.478 -0.0392 -0.2342 -0.1363
11816WAT     H147970   3.957   1.686   4.551 -0.6264  0.0717 -0.5376
11816WAT     H247971   4.012   1.598   4.462 -0.7054 -0.2692 -0.2504
11816WAT    EPW47972   3.999   1.671   4.487  0.1718 -0.0278  0.3503
11817WAT      O47973   2.330   0.625   7.202 -1.0969  0.0489 -0.3750
11817WAT     H147974   2.270   0.598   7.259 -0.9749  0.0996 -0.2212
11817WAT     H247975   2.326   0.712   7.207 -1.9478  0.0774 -1.3516
11817WAT    EPW47976   2.320   0.634   7.211  0.5060 -0.2891 -0.0875
11818WAT      O47977   3.908   0.270   4.361  0.2046  0.4781  0.1279
11818WAT     H147978   3.907   0.242   4.444 -0.2627  2.0187  0.6835
11818WAT     H247979   3.951   0.347   4.367  3.1801 -0.8664 -1.6090
11818WAT    EPW47980   3.914   0.278   4.374  0.2928  0.3242 -0.6581
11819WAT      O47981   3.494   7.295   6.324 -0.4120  0.2777 -0.3122
11819WAT     H147982   3.558   7.324   6.376 -2.2717 -0.9439  2.9607
11819WAT     H247983   3.451   7.368   6.301 -0.0985  0.7891  0.7060
11819WAT    EPW47984   3.497   7.310   6.328  0.1545 -0.3200  0.6589
11820WAT      O47985   3.573   7.077   5.212 -0.6709  0.0304  0.9017
11820WAT     H147986   3.542   7.129   5.149  0.7169  0.3238  0.4179
11820WAT     H247987   3.583   7.131   5.280  1.6431  0.6942  0.1275
11820WAT    EPW47988   3.570   7.093   5.213  0.3902 -0.3849 -0.6647
11821WAT      O47989   3.707   7.712   4.018 -0.3239 -0.0535 -0.5008
11821WAT     H147990   3.621   7.718   4.026 -0.3053  2.2582 -1.2566
11821WAT     H247991   3.722   7.730   3.934  0.8516 -1.8174 -0.7304
11821WAT    EPW47992   3.697   7.716   4.007 -0.1002 -0.1855 -0.5180
11822WAT      O47993   2.809   0.837   5.583  0.0302 -0.8101  0.1483
11822WAT     H147994   2.812   0.808   5.665  0.8504 -2.6276 -0.4547
11822WAT     H247995   2.840   0.769   5.537  1.5347  0.8814 -1.4796
11822WAT    EPW47996   2.814   0.822   5.588  0.4501  0.3048 -0.5472
11823WAT      O47997   2.661   7.617   4.076 -0.3726 -0.1475  0.1793
11823WAT     H147998   2.702   7.541   4.090 -0.4353  0.0620  1.6311
11823WAT     H247999   2.661   7.655   4.154 -1.4867  0.7863 -0.2501
11823WAT    EPW48000   2.667   7.611   4.089  0.2625 -0.2717 -1.0110
11824WAT      O48001   2.760   0.693   2.693 -0.1740 -0.4176 -0.6298
11824WAT     H148002   2.754   0.614   2.657 -3.0404 -0.4956 -0.2291
11824WAT     H248003   2.726   0.746   2.633  0.9102  0.4164 -0.5375
11824WAT    EPW48004   2.754   0.689   2.679  0.3287  0.0455  0.2935
11825WAT      O48005   1.705   0.746   2.781 -0.4144  0.4939 -0.4498
11825WAT     H148006   1.708   0.832   2.765 -0.3110  0.9371  1.6525
11825WAT     H248007   1.662   0.741   2.857 -2.1303 -1.4952 -1.4547
11825WAT    EPW48008   1.699   0.758   2.790 -0.1399  0.1330  0.1093
11826WAT      O48009   2.723   7.911   3.133  0.2579 -0.5283 -0.3429
11826WAT     H148010   2.663   7.963   3.169 -0.1832 -2.9614  2.8702
11826WAT     H248011   2.796   7.960   3.136 -0.5980  0.7566  0.3047
11826WAT    EPW48012   2.725   7.926   3.139 -0.0014  1.0798  0.2704
11827WAT      O48013   1.924   1.362   2.426  0.3029 -0.2696 -0.1528
11827WAT     H148014   1.933   1.447   2.441 -0.4249 -0.2707  0.3223
11827WAT     H248015   1.952   1.324   2.500  3.2881 -0.6047 -1.3215
11827WAT    EPW48016   1.929   1.369   2.439 -0.2812  0.2487  0.2564
11828WAT      O48017   1.806   1.218   3.337  0.0832 -0.2022  0.2942
11828WAT     H148018   1.866   1.240   3.397  0.4759  0.3304 -0.2752
11828WAT     H248019   1.828   1.137   3.314  0.1329 -0.2845  0.6319
11828WAT    EPW48020   1.818   1.209   3.343 -0.3287 -0.0915 -0.2160
11829WAT      O48021   1.855   7.908   3.820 -0.0058 -0.0270  0.6779
11829WAT     H148022   1.900   7.923   3.893  0.3008  0.5475  0.3882
11829WAT     H248023   1.915   7.922   3.757 -0.0402 -1.3333  0.3408
11829WAT    EPW48024   1.871   7.913   3.821 -0.4984 -0.7709  0.1511
11830WAT      O48025   2.314   0.175   2.689 -0.8351  0.2311  0.0629
11830WAT     H148026   2.331   0.105   2.641 -0.5891  0.7601 -0.6462
11830WAT     H248027   2.393   0.210   2.702 -0.8267 -0.1948  1.3358
11830WAT    EPW48028   2.328   0.170   2.684  0.5031 -0.3583  0.1019
11831WAT      O48029   2.386   7.830   4.011 -0.4187  0.4055 -0.1739
11831WAT     H148030   2.412   7.750   4.033 -0.6904 -0.1348 -1.6643
11831WAT     H248031   2.445   7.883   4.047 -0.6392 -0.4050  1.4262
11831WAT    EPW48032   2.398   7.826   4.019  0.1910  0.0526  0.3657
11832WAT      O48033   1.568   0.282   4.223  0.7542 -0.4956 -0.1963
11832WAT     H148034   1.555   0.257   4.141 -0.8588  1.9364 -0.7689
11832WAT     H248035   1.587   0.367   4.216  0.2667 -0.1561  1.9708
11832WAT    EPW48036   1.569   0.291   4.210  0.3936 -0.6649 -0.0202
11833WAT      O48037   3.015   0.881   3.643 -0.7465 -0.1772  0.1023
11833WAT     H148038   3.060   0.903   3.571 -0.6523 -0.7355 -0.0228
11833WAT     H248039   3.077   0.863   3.701 -0.7992 -0.6192  0.0326
11833WAT    EPW48040   3.031   0.881   3.641 -0.0214 -0.5918 -0.8374
11834WAT      O48041   3.808   1.032   3.197 -0.4719  0.4302 -0.3651
11834WAT     H148042   3.844   0.974   3.252  1.3419  0.9659 -0.9292
11834WAT     H248043   3.792   0.986   3.125  0.9360  0.5571 -0.7999
11834WAT    EPW48044   3.811   1.017   3.195  1.0293  0.3464 -0.0291
11835WAT      O48045   1.390   0.912   3.661 -0.1398  0.2358  0.1485
11835WAT     H148046   1.364   0.835   3.692 -0.1588  0.8351  1.7141
11835WAT     H248047   1.317   0.960   3.663  0.1070  0.6096  0.2326
11835WAT    EPW48048   1.375   0.908   3.666 -0.7490  0.4364 -0.5952
11836WAT      O48049   3.380   0.011   3.688 -0.0750  0.1884 -0.1319
11836WAT     H148050   3.463  -0.015   3.680  0.0575  0.7006 -0.5212
11836WAT     H248051   3.347  -0.043   3.747  1.3342  1.7733  2.3215
11836WAT    EPW48052   3.387  -0.001   3.696 -0.5794 -0.3600 -0.4200
11837WAT      O48053   3.138   1.018   3.412 -0.0106 -0.1032  0.1493
11837WAT     H148054   3.080   1.040   3.351  0.6030  0.4112 -0.2589
11837WAT     H248055   3.196   0.969   3.369  0.2130 -0.0684  0.4065
11837WAT    EPW48056   3.138   1.014   3.397 -0.1883  0.6057 -0.5055
11838WAT      O48057   4.098   0.071   4.178  0.6817 -0.5439  0.2273
11838WAT     H148058   4.181   0.052   4.158  1.4563  1.9541  0.6992
11838WAT     H248059   4.105   0.141   4.230 -1.7434 -0.1434  0.1422
11838WAT    EPW48060   4.111   0.079   4.183  0.0887 -0.5837 -0.1734
11839WAT      O48061   1.352   1.421   3.147  0.0331 -0.8730 -0.0865
11839WAT     H148062   1.405   1.467   3.198 -2.0727 -0.7726  2.1772
11839WAT     H248063   1.331   1.477   3.083 -0.5239  0.4866  1.2432
11839WAT    EPW48064   1.357   1.436   3.145 -0.2998  0.1398  0.5340
11840WAT      O48065   2.908   2.526   5.016 -0.6508 -0.2355  0.5139
11840WAT     H148066   2.838   2.478   5.035 -2.4330  1.2929 -1.6897
11840WAT     H248067   2.897   2.598   5.064  0.5319 -0.7467  1.6432
11840WAT    EPW48068   2.896   2.529   5.026 -0.4786 -0.1054  0.0071
11841WAT      O48069   2.104   7.791   4.330  0.2275 -0.1714  0.5997
11841WAT     H148070   2.102   7.706   4.348 -0.5391 -0.0105  1.3487
11841WAT     H248071   2.121   7.828   4.407 -0.1343  0.3866  0.4209
11841WAT    EPW48072   2.106   7.784   4.344 -0.4468 -0.3001  0.5047
11842WAT      O48073   2.729   0.920   3.045  0.2496  0.2958 -0.2183
11842WAT     H148074   2.779   0.970   2.995  0.6723  0.7349  0.6124
11842WAT     H248075   2.677   0.878   2.989  0.9030  0.5560 -1.0218
11842WAT    EPW48076   2.729   0.921   3.030 -0.5044 -1.1534 -1.1503
11843WAT      O48077   2.514   1.092   2.275  0.4287  0.0734  0.2690
11843WAT     H148078   2.584   1.114   2.322  0.8134 -1.5575  0.5197
11843WAT     H248079   2.543   1.096   2.193  0.1545  1.5780  0.2308
11843WAT    EPW48080   2.529   1.096   2.270 -0.2425 -0.2082  0.2771
11844WAT      O48081   1.954   1.634   3.160 -0.0610  0.0629  0.8370
11844WAT     H148082   1.933   1.618   3.243 -1.9182 -0.1092  0.3793
11844WAT     H248083   1.991   1.559   3.133 -0.4564 -0.2737  1.2169
11844WAT    EPW48084   1.957   1.621   3.168  0.1262  0.5995 -0.5201
11845WAT      O48085   5.194   0.656   3.712  0.1658  0.0107 -0.0496
11845WAT     H148086   5.166   0.612   3.782 -1.7175 -1.3449 -1.5676
11845WAT     H248087   5.281   0.660   3.723  0.1025 -1.7774  1.4275
11845WAT    EPW48088   5.203   0.650   3.724 -0.6299 -0.2657 -0.0088
11846WAT      O48089   2.377   0.629   1.561  0.1474  0.4252  0.1908
11846WAT     H148090   2.396   0.577   1.628  0.0474  0.2421  0.0784
11846WAT     H248091   2.329   0.578   1.509 -0.1783  0.7086  0.2091
11846WAT    EPW48092   2.373   0.614   1.563 -0.7155  0.1616 -0.2224
11847WAT      O48093   2.123   0.209   4.100  0.1759 -0.6306  0.2118
11847WAT     H148094   2.137   0.286   4.140 -1.4927 -0.9976  1.6302
11847WAT     H248095   2.180   0.156   4.140  1.7249 -0.0724 -1.1548
11847WAT    EPW48096   2.133   0.213   4.112  0.2891  0.0254 -1.1170
11848WAT      O48097   3.487   0.504   3.216  0.3159 -0.2065  0.1571
11848WAT     H148098   3.400   0.506   3.226 -0.0457 -1.2032 -2.1354
11848WAT     H248099   3.509   0.425   3.245  0.2939 -0.3335 -0.1635
11848WAT    EPW48100   3.477   0.493   3.222  0.6562 -0.0671 -0.7632
11849WAT      O48101   3.134   0.893   2.116 -0.4770  0.3846  0.1253
11849WAT     H148102   3.208   0.912   2.159  0.5637 -0.5096 -1.1908
11849WAT     H248103   3.121   0.809   2.137 -2.1917  1.0025  1.8155
11849WAT    EPW48104   3.143   0.883   2.126 -0.0558 -0.1018  0.3836
11850WAT      O48105   3.625   1.782   3.739 -0.0482 -0.1811 -0.2712
11850WAT     H148106   3.625   1.738   3.663 -0.9015  0.2144 -0.5159
11850WAT     H248107   3.570   1.736   3.789 -1.2021  0.7593 -0.6370
11850WAT    EPW48108   3.617   1.769   3.735  0.7637 -0.0746  0.1217
11851WAT      O48109   2.457   6.836   3.569  0.4888  0.0509  0.3512
11851WAT     H148110   2.407   6.905   3.550 -0.4838 -1.1383 -1.7584
11851WAT     H248111   2.494   6.858   3.644 -3.4630  0.9212  2.3306
11851WAT    EPW48112   2.455   6.849   3.577 -0.6336 -0.2832 -0.0382
11852WAT      O48113   2.071   7.917   2.791 -0.7227  0.3838  0.5116
11852WAT     H148114   2.145   7.953   2.821 -1.0279  0.1151  1.6158
11852WAT     H248115   2.079   7.924   2.704  1.2380 -0.8839  0.5215
11852WAT    EPW48116   2.083   7.923   2.782  0.2420 -0.3796 -0.2944
11853WAT      O48117   2.743   7.997   3.590  0.2130 -0.4283 -0.7568
11853WAT     H148118   2.810   7.942   3.577  1.0651 -0.1210  1.7569
11853WAT     H248119   2.732   7.995   3.676 -0.7602  2.1855 -0.7438
11853WAT    EPW48120   2.751   7.989   3.601  0.3549  0.1918 -0.3715
11854WAT      O48121   3.055   7.533   5.363 -0.5240 -0.2225  0.4397
11854WAT     H148122   3.023   7.610   5.390  0.7371  0.8794 -0.9626
11854WAT     H248123   3.013   7.519   5.288  0.9842  0.4193 -0.5828
11854WAT    EPW48124   3.044   7.543   5.356 -0.2128  0.2535  0.0998
11855WAT      O48125   3.651   2.228   4.001 -0.0714  0.5475  0.0377
11855WAT     H148126   3.710   2.287   4.027 -1.3142  1.9503 -0.1631
11855WAT     H248127   3.600   2.273   3.946  0.3136 -1.3578 -2.0217
11855WAT    EPW48128   3.652   2.243   3.996 -0.5453  0.2775 -0.4384
11856WAT      O48129   1.927   5.926   3.311 -0.3700  0.4885  0.4555
11856WAT     H148130   1.858   5.874   3.303  0.0270 -0.0569  0.5526
11856WAT     H248131   1.947   5.946   3.229 -0.6871  0.7078  0.4302
11856WAT    EPW48132   1.920   5.921   3.298 -0.3290 -0.6593 -0.1743
11857WAT      O48133   2.855   1.557   4.122  0.0855 -0.6685 -0.3894
11857WAT     H148134   2.800   1.506   4.166 -0.9963  1.2889  0.6738
11857WAT     H248135   2.934   1.530   4.147 -0.4678 -1.3279  0.6884
11857WAT    EPW48136   2.858   1.546   4.132 -0.2343  0.0868 -0.1199
11858WAT      O48137   3.591   0.216   3.367 -0.3624  0.4099  0.0589
11858WAT     H148138   3.570   0.179   3.290  1.7182 -0.0704 -0.3586
11858WAT     H248139   3.607   0.147   3.418 -0.2494  0.7201  0.4424
11858WAT    EPW48140   3.590   0.200   3.363 -0.3705 -0.0635 -0.5979
11859WAT      O48141   2.677   7.565   2.544 -0.6867 -0.0745 -0.6083
11859WAT     H148142   2.719   7.541   2.617 -0.8567  2.1999  0.3080
11859WAT     H248143   2.665   7.489   2.502 -1.1240 -1.5624  1.9772
11859WAT    EPW48144   2.681   7.550   2.548 -0.5103  0.2891  0.1581
11860WAT      O48145   2.924   0.605   3.403  0.1274 -0.4146 -0.1989
11860WAT     H148146   3.005   0.620   3.433 -0.0623 -1.5277  0.9732
11860WAT     H248147   2.924   0.644   3.325  0.9553  1.8259  0.8218
11860WAT    EPW48148   2.936   0.613   3.396  0.8193 -0.8385 -0.1337
11861WAT      O48149   1.303   1.962   4.304 -0.3883  0.1456  0.6140
11861WAT     H148150   1.332   1.939   4.226 -1.4595 -0.2158  0.3037
11861WAT     H248151   1.228   1.919   4.312  0.2267 -0.7178  2.3108
11861WAT    EPW48152   1.296   1.952   4.294 -0.1106  0.5376  0.1884
11862WAT      O48153   2.774   7.885   2.507  0.2449  0.2584  0.7775
11862WAT     H148154   2.782   7.876   2.594 -0.8255 -0.2267  0.8426
11862WAT     H248155   2.809   7.812   2.476 -0.6427 -0.2261  0.8839
11862WAT    EPW48156   2.780   7.873   2.515 -0.4856 -1.3792 -0.3103
11863WAT      O48157   3.905   1.155   3.659  0.0084 -0.5212 -0.0912
11863WAT     H148158   3.835   1.205   3.644  0.1913 -0.8320 -2.2584
11863WAT     H248159   3.874   1.074   3.650  0.3375 -0.7244  0.5170
11863WAT    EPW48160   3.890   1.150   3.655 -0.0218  0.1562 -0.6515
11864WAT      O48161   2.180   0.355   3.330  0.0133 -0.0444  0.2899
11864WAT     H148162   2.224   0.289   3.294 -0.0498 -0.2005  0.4971
11864WAT     H248163   2.230   0.424   3.312 -1.4079  0.3436 -2.6141
11864WAT    EPW48164   2.194   0.355   3.322  0.1672 -0.5046 -0.0760
11865WAT      O48165   3.970   0.870   4.029  0.2455 -0.0085  0.5297
11865WAT     H148166   3.962   0.932   4.091  2.6633  0.4350  0.5097
11865WAT     H248167   4.053   0.880   4.002 -0.2114 -1.3646 -1.5461
11865WAT    EPW48168   3.981   0.881   4.034 -0.4575 -0.9398  0.8869
11866WAT      O48169   2.139   1.015   3.456  0.1111 -0.3117  0.2341
11866WAT     H148170   2.198   1.009   3.393  0.2527  1.2193  0.1902
11866WAT     H248171   2.066   0.983   3.419  0.7109 -1.5392  0.0636
11866WAT    EPW48172   2.137   1.009   3.441  0.2204  0.1406 -0.2269
11867WAT      O48173   2.218   7.814   4.629  0.3202 -0.3783  0.3398
11867WAT     H148174   2.261   7.739   4.637  2.5812  0.7073 -0.7445
11867WAT     H248175   2.259   7.868   4.685  0.5733  0.7505 -0.8715
11867WAT    EPW48176   2.231   7.811   4.639 -0.2943 -0.0459  0.4424
11868WAT      O48177   3.286   0.011   4.853 -0.2074  0.7003  0.9472
11868WAT     H148178   3.288  -0.033   4.778  2.4088  2.1178  0.0418
11868WAT     H248179   3.338  -0.036   4.905  0.6237  1.3758  0.7588
11868WAT    EPW48180   3.294  -0.003   4.850  0.9539 -0.6999 -0.1469
11869WAT      O48181   1.732   0.277   3.566  0.2797 -0.1316  0.0044
11869WAT     H148182   1.702   0.199   3.541  0.6724 -0.8848  1.7348
11869WAT     H248183   1.797   0.293   3.510 -0.0226 -0.8758 -0.5795
11869WAT    EPW48184   1.737   0.268   3.554 -0.4451  0.1440 -0.1437
11870WAT      O48185   1.351   7.301   3.635 -0.1647  0.0829 -0.2497
11870WAT     H148186   1.349   7.234   3.691  0.3259 -0.3774 -0.7842
11870WAT     H248187   1.290   7.281   3.577 -1.9499  1.4053  1.0431
11870WAT    EPW48188   1.342   7.288   3.635 -0.1756  0.5041 -0.1258
11871WAT      O48189   2.303   1.537   3.828  0.2207  0.1422 -0.3541
11871WAT     H148190   2.317   1.576   3.751  1.3966 -1.3488 -0.9672
11871WAT     H248191   2.264   1.598   3.876 -1.4676  0.8070 -2.4433
11871WAT    EPW48192   2.299   1.552   3.823  0.5154 -0.1283 -0.8738
11872WAT      O48193   0.849   7.251   4.084  0.5778 -0.2001 -0.6812
11872WAT     H148194   0.823   7.174   4.052  0.3469 -0.1318 -0.6588
11872WAT     H248195   0.887   7.291   4.016 -0.5166  0.2280 -1.0538
11872WAT    EPW48196   0.851   7.246   4.069  0.2700 -0.0128  0.7197
11873WAT      O48197   3.621   7.934   3.629  0.0866  0.0080  0.5628
11873WAT     H148198   3.596   7.893   3.557  0.1639  0.4816  0.2571
11873WAT     H248199   3.645   7.870   3.683 -2.0628 -0.5074  1.0028
11873WAT    EPW48200   3.621   7.919   3.626  0.9912 -0.0430 -0.6324
11874WAT      O48201   3.808   0.767   5.381 -0.1600  0.5167  0.2319
11874WAT     H148202   3.802   0.841   5.427  1.5485  1.5033 -0.9809
11874WAT     H248203   3.759   0.783   5.311  0.0457  0.4150  0.0649
11874WAT    EPW48204   3.800   0.780   5.377  0.3670 -0.5022 -0.1710
11875WAT      O48205   2.664   1.172   2.508 -0.4128  0.5079 -0.3269
11875WAT     H148206   2.744   1.197   2.484  0.5206 -1.7720  0.1666
11875WAT     H248207   2.671   1.159   2.594 -0.6218 -1.8403 -0.6050
11875WAT    EPW48208   2.677   1.174   2.517 -0.1881  0.1251  1.0108
11876WAT      O48209   2.349   7.693   3.098  0.2699 -0.4634 -0.4545
11876WAT     H148210   2.412   7.722   3.046  2.4960 -1.0766  1.7350
11876WAT     H248211   2.295   7.651   3.043  1.2697  0.7895 -2.5093
11876WAT    EPW48212   2.350   7.691   3.083 -0.1142 -1.3092 -0.7886
11877WAT      O48213   4.326   2.091   3.543  0.3632 -0.3168 -0.7816
11877WAT     H148214   4.330   2.076   3.629  1.0826 -0.3463 -0.8131
11877WAT     H248215   4.241   2.098   3.528  0.1009 -2.0653 -0.3651
11877WAT    EPW48216   4.314   2.090   3.554  0.8620 -0.0713  0.7844
11878WAT      O48217   1.887   0.320   3.348 -0.1185 -0.1257 -0.4039
11878WAT     H148218   1.971   0.345   3.353 -0.2961  1.2250 -2.7890
11878WAT     H248219   1.889   0.260   3.285 -0.8742 -0.5867  0.0039
11878WAT    EPW48220   1.900   0.314   3.340  0.1865 -0.0865 -0.5795
11879WAT      O48221   3.442   0.693   2.491 -0.0019  0.1970 -0.2488
11879WAT     H148222   3.360   0.671   2.472 -0.1549  0.2367  0.3581
11879WAT     H248223   3.488   0.664   2.422 -0.5359  0.2653 -0.6334
11879WAT    EPW48224   3.437   0.685   2.478 -0.1049 -0.3358 -0.7211
11880WAT      O48225   1.497   1.235   2.217  0.1607  0.0944 -0.0534
11880WAT     H148226   1.436   1.274   2.169  1.8538  2.4820 -0.4470
11880WAT     H248227   1.463   1.236   2.298 -0.9919 -0.1788 -0.5188
11880WAT    EPW48228   1.483   1.241   2.222  0.1211 -0.0177 -0.9392
11881WAT      O48229   3.474   7.957   4.261  0.2124  0.2080 -0.4762
11881WAT     H148230   3.546   7.993   4.228  0.4667 -1.3736 -1.7557
11881WAT     H248231   3.441   7.912   4.194 -2.3654  1.4069 -0.1502
11881WAT    EPW48232   3.480   7.956   4.246  0.7184 -0.2780  0.3647
11882WAT      O48233   3.422   7.528   4.527  0.2270  0.2716  0.0312
11882WAT     H148234   3.455   7.581   4.466 -0.2511  0.4897 -0.0385
11882WAT     H248235   3.342   7.511   4.499 -0.1472  0.7067  0.7959
11882WAT    EPW48236   3.415   7.534   4.514 -0.5882  0.5479 -0.4828
11883WAT      O48237   1.141   7.835   4.584 -0.3469 -0.3327 -0.0742
11883WAT     H148238   1.199   7.893   4.615 -1.8620  1.0967  0.1990
11883WAT     H248239   1.081   7.829   4.647 -1.9377  0.3605 -1.4492
11883WAT    EPW48240   1.141   7.842   4.597 -0.1876 -1.2296 -0.8848
11884WAT      O48241   2.888   7.592   3.646 -0.2951 -0.4018 -0.0338
11884WAT     H148242   2.929   7.516   3.656 -0.1159 -0.2853  0.1342
11884WAT     H248243   2.835   7.596   3.715  1.1737  0.5479  1.1208
11884WAT    EPW48244   2.886   7.581   3.658  0.1655  0.4496 -0.1527
11885WAT      O48245   2.057   0.620   3.954  0.0672 -0.2005  0.4712
11885WAT     H148246   2.130   0.646   3.915 -0.8214 -1.4869 -2.2978
11885WAT     H248247   1.996   0.675   3.924 -0.1946  0.9363  2.8304
11885WAT    EPW48248   2.059   0.632   3.944  0.5395 -0.1738  0.2370
11886WAT      O48249   3.119   0.988   2.777 -0.1737 -0.2260  0.0069
11886WAT     H148250   3.162   1.056   2.742 -0.3780  0.6595  1.4148
11886WAT     H248251   3.057   1.025   2.825 -0.1178 -1.3969  1.0297
11886WAT    EPW48252   3.116   1.004   2.779 -0.0993 -0.4770  0.5097
11887WAT      O48253   2.650   7.492   3.809  0.0898  0.1128 -0.3788
11887WAT     H148254   2.583   7.508   3.755  0.4522  0.5318 -0.7129
11887WAT     H248255   2.638   7.549   3.874  0.0219  0.0598 -0.3442
11887WAT    EPW48256   2.638   7.503   3.811  0.6661  0.8917 -0.0278
11888WAT      O48257   0.515   0.620   0.983  0.0970 -0.1539 -0.8305
11888WAT     H148258   0.533   0.695   1.024 -3.4416  0.1249  0.5417
11888WAT     H248259   0.507   0.644   0.900  0.8376  0.5965 -0.7014
11888WAT    EPW48260   0.517   0.635   0.977 -0.0954  0.2826 -0.1629
11889WAT      O48261   3.007   0.272   2.722  0.3823 -0.1651  0.1513
11889WAT     H148262   3.023   0.311   2.799 -1.7381  1.4754 -0.1457
11889WAT     H248263   3.026   0.188   2.738  0.1349  0.1333  2.4230
11889WAT    EPW48264   3.012   0.265   2.736 -0.1983 -1.3697  0.5145
11890WAT      O48265   3.410   0.278   1.759 -0.1355  0.6517  0.1930
11890WAT     H148266   3.491   0.269   1.729  0.0603 -0.5683  1.0141
11890WAT     H248267   3.413   0.241   1.838 -1.3110  1.2603  0.5498
11890WAT    EPW48268   3.422   0.271   1.766  0.2748  0.1743 -0.0283
11891WAT      O48269   3.094   7.839   2.675 -0.2851  0.6302 -0.0758
11891WAT     H148270   3.008   7.829   2.689 -0.1681 -2.8904 -0.8148
11891WAT     H248271   3.124   7.757   2.681  3.3516  1.9052  1.8615
11891WAT    EPW48272   3.086   7.825   2.678  0.6087  0.0228 -0.0609
11892WAT      O48273   2.390   7.295   2.465  0.3302 -0.2995  0.1792
11892WAT     H148274   2.383   7.319   2.381 -0.3634 -1.1487 -0.0231
11892WAT     H248275   2.476   7.299   2.480  0.4799 -0.2860 -0.6246
11892WAT    EPW48276   2.402   7.299   2.455  0.2391  0.1496  0.4604
11893WAT      O48277   3.380   1.718   4.913 -0.0918  0.2632  0.2282
11893WAT     H148278   3.420   1.649   4.949  1.1519  0.5332 -0.5840
11893WAT     H248279   3.402   1.784   4.966 -1.1647  0.1005  0.9229
11893WAT    EPW48280   3.389   1.717   4.926 -0.7687 -0.2708 -0.4841
11894WAT      O48281   1.828   0.135   2.694  0.4391  0.1203  0.2007
11894WAT     H148282   1.914   0.128   2.687  0.4661 -1.3927  1.4821
11894WAT     H248283   1.814   0.221   2.691  1.9511  0.3669 -0.3388
11894WAT    EPW48284   1.839   0.147   2.693  0.3850  0.2208  0.0544
11895WAT      O48285   3.863   1.449   2.928 -0.2277  0.5296 -1.3579
11895WAT     H148286   3.779   1.455   2.904 -1.2941  0.0645  1.7744
11895WAT     H248287   3.892   1.381   2.881 -2.1231 -0.4179 -1.2800
11895WAT    EPW48288   3.855   1.440   2.917 -0.9623  0.5397 -0.9877
11896WAT      O48289   1.774   0.542   3.216  0.1249 -0.1825  0.5050
11896WAT     H148290   1.780   0.515   3.133  0.0609 -1.9177  1.0071
11896WAT     H248291   1.808   0.475   3.261 -1.5752 -0.1057  1.9921
11896WAT    EPW48292   1.780   0.528   3.211 -0.1579  0.1161 -0.4567
11897WAT      O48293   4.588   7.833   4.413  0.1175 -0.3741  0.1474
11897WAT     H148294   4.581   7.907   4.459 -2.0778 -0.5663  0.2387
11897WAT     H248295   4.569   7.771   4.472 -0.1067 -0.8415 -0.4148
11897WAT    EPW48296   4.584   7.835   4.429 -0.0340  0.2244 -0.7801
11898WAT      O48297   3.204   7.855   5.171  0.6993  0.0685 -0.5606
11898WAT     H148298   3.253   7.927   5.174  0.2433  0.3692 -0.0869
11898WAT     H248299   3.168   7.852   5.250  0.5652 -0.5799 -0.6419
11898WAT    EPW48300   3.206   7.865   5.183  0.7774 -0.1947  0.9054
11899WAT      O48301   3.605   0.202   2.131  0.7712 -0.1121 -0.5006
11899WAT     H148302   3.573   0.274   2.093 -2.1018 -0.9906 -0.0013
11899WAT     H248303   3.630   0.231   2.210 -0.4163  0.3770 -0.2737
11899WAT    EPW48304   3.604   0.217   2.137  0.7305 -0.0849 -0.8023
11900WAT      O48305   3.574   7.301   4.525  0.1526  0.1227 -0.1413
11900WAT     H148306   3.530   7.376   4.530  0.5800  0.2872  1.8609
11900WAT     H248307   3.515   7.245   4.494 -1.0104  0.6804  0.9900
11900WAT    EPW48308   3.559   7.304   4.521 -0.5379 -0.1402 -0.1417
11901WAT      O48309   4.032   7.826   3.623 -0.7931 -0.4174  0.4402
11901WAT     H148310   4.001   7.747   3.646  0.8752 -0.3758  3.3334
11901WAT     H248311   4.086   7.847   3.689  1.5421  1.6220 -1.8741
11901WAT    EPW48312   4.036   7.817   3.636  0.4182 -0.3122 -0.9947
11902WAT      O48313   3.148   7.923   3.243 -0.7632  0.0393  0.6984
11902WAT     H148314   3.209   7.861   3.235 -0.8226  0.0808 -0.0719
11902WAT     H248315   3.158   7.951   3.325  0.0674 -0.1494  0.6627
11902WAT    EPW48316   3.158   7.918   3.254  0.8735  0.3387  0.0652
11903WAT      O48317   2.274   1.648   3.004  0.7066  0.0381  0.1449
11903WAT     H148318   2.233   1.724   2.994  0.8520 -0.1454 -3.3868
11903WAT     H248319   2.352   1.670   3.034  0.2985  1.1331  0.4493
11903WAT    EPW48320   2.279   1.662   3.007 -0.0181  0.3056  0.5376
11904WAT      O48321   4.058   0.792   4.409  0.0689  0.3760  0.2528
11904WAT     H148322   3.989   0.765   4.362 -0.5099  0.2576  1.1493
11904WAT     H248323   4.066   0.876   4.386 -0.4195  0.4123  0.1959
11904WAT    EPW48324   4.049   0.801   4.399  0.1682 -0.2788  0.6717
11905WAT      O48325   4.282   0.111   3.769 -0.2086 -0.3242  0.4362
11905WAT     H148326   4.225   0.174   3.789 -0.0588 -0.1688  0.3712
11905WAT     H248327   4.290   0.118   3.682  0.2373 -0.0668  0.4944
11905WAT    EPW48328   4.275   0.121   3.759  0.2024 -0.2580  0.2013
11906WAT      O48329   2.391   0.250   3.993 -0.3492  0.2086  0.0993
11906WAT     H148330   2.310   0.234   4.019 -0.6179 -0.3246 -1.0210
11906WAT     H248331   2.399   0.336   4.004 -0.9244  0.2080  0.5797
11906WAT    EPW48332   2.380   0.261   3.999  0.2796 -0.3648 -0.4843
11907WAT      O48333   2.393   1.192   1.873 -0.8166 -0.6222  0.6241
11907WAT     H148334   2.367   1.210   1.792 -1.2108 -0.0469  0.8736
11907WAT     H248335   2.321   1.162   1.912 -0.3165 -2.2479  0.3886
11907WAT    EPW48336   2.379   1.190   1.867  0.2687 -0.0812 -1.0087
11908WAT      O48337   2.919   0.320   3.402  0.1077 -0.6643 -0.4752
11908WAT     H148338   2.914   0.407   3.400 -0.0435 -0.6877 -1.0608
11908WAT     H248339   2.962   0.304   3.476  0.5539 -0.0740 -0.6043
11908WAT    EPW48340   2.925   0.330   3.413 -0.9168  1.5315  0.0803
11909WAT      O48341   2.894   7.296   3.338 -0.2534 -0.4353 -0.0432
11909WAT     H148342   2.838   7.277   3.403 -0.3858  2.6950  0.9105
11909WAT     H248343   2.956   7.235   3.347 -1.2104 -1.2271  1.8509
11909WAT    EPW48344   2.895   7.284   3.349  0.1761  0.1024  0.1906
11910WAT      O48345   3.923   7.360   3.041 -0.8194 -0.8168  0.7291
11910WAT     H148346   3.884   7.365   2.963  2.4790 -0.0437 -1.0590
11910WAT     H248347   3.950   7.442   3.056  0.4743 -1.3550  1.5642
11910WAT    EPW48348   3.921   7.373   3.031 -0.7227  0.4289  0.0671
11911WAT      O48349   2.915   1.640   4.595 -0.4105 -0.9127  0.3567
11911WAT     H148350   2.834   1.616   4.619 -0.5080 -0.4509  0.4876
11911WAT     H248351   2.966   1.581   4.635 -0.6446 -0.8373  0.7763
11911WAT    EPW48352   2.910   1.627   4.604 -0.2445  0.2140  1.1369
11912WAT      O48353   2.929   0.464   3.985  0.1771 -0.2488  0.2737
11912WAT     H148354   2.975   0.390   3.992 -0.3749 -0.5382  1.0466
11912WAT     H248355   2.869   0.445   3.925  1.6801  0.4863 -1.5565
11912WAT    EPW48356   2.927   0.450   3.977  0.0522  0.4715 -0.2956
11913WAT      O48357   3.221   1.602   3.142  0.6612  0.6727  0.1997
11913WAT     H148358   3.262   1.646   3.079  0.0532  0.8513 -0.0838
11913WAT     H248359   3.155   1.656   3.164  0.0690  0.0181  0.0428
11913WAT    EPW48360   3.217   1.617   3.136  0.3625  0.0828 -0.8154
11914WAT      O48361   4.076   0.476   4.337  0.8610  0.5771 -0.3582
11914WAT     H148362   4.123   0.403   4.328  0.8364  0.7963 -4.0170
11914WAT     H248363   4.135   0.539   4.340  0.8622  0.5279  2.1094
11914WAT    EPW48364   4.091   0.474   4.336 -0.4196 -0.4100 -0.5730
11915WAT      O48365   3.258   1.395   4.000 -0.3092 -0.8434 -0.5236
11915WAT     H148366   3.235   1.324   3.954 -0.9202  0.4673 -2.3670
11915WAT     H248367   3.342   1.406   3.979 -0.5587 -0.3082 -1.2815
11915WAT    EPW48368   3.267   1.386   3.990  0.0786  0.2652 -0.6397
11916WAT      O48369   2.393   7.550   4.125 -0.3662 -0.1251  0.2301
11916WAT     H148370   2.479   7.559   4.116 -0.5856  0.7052 -1.5352
11916WAT     H248371   2.385   7.478   4.174  1.3209  0.0128  0.7727
11916WAT    EPW48372   2.404   7.540   4.131  0.8491  0.7393  0.6554
11917WAT      O48373   4.046   1.468   3.362  0.7335  0.0698 -0.4020
11917WAT     H148374   3.976   1.513   3.337  0.8547  0.6549  0.2826
11917WAT     H248375   4.035   1.390   3.324 -1.0231 -0.3601  0.8502
11917WAT    EPW48376   4.034   1.463   3.353 -0.1507  0.6208 -0.4007
11918WAT      O48377   3.176   0.352   4.293 -0.0456  0.0192 -0.3866
11918WAT     H148378   3.229   0.323   4.230  0.0664  0.0881 -0.3243
11918WAT     H248379   3.231   0.384   4.353 -0.0788 -1.1597  0.3060
11918WAT    EPW48380   3.192   0.352   4.293 -0.1431 -0.2209  0.5061
11919WAT      O48381   2.996   0.879   4.083  0.5404  0.1441 -0.0743
11919WAT     H148382   2.914   0.886   4.054  0.8606 -1.2762 -1.4957
11919WAT     H248383   3.004   0.945   4.139 -1.1819  1.0738 -0.8468
11919WAT    EPW48384   2.985   0.890   4.087  0.3275 -0.4586 -0.4822
11920WAT      O48385   3.498   0.815   3.089 -0.2165  0.0108 -0.6397
11920WAT     H148386   3.422   0.825   3.047 -1.2971  0.3848  1.3031
11920WAT     H248387   3.515   0.730   3.080 -0.7780 -0.0523 -1.2113
11920WAT    EPW48388   3.489   0.804   3.081 -0.0071 -0.5185 -0.5035
11921WAT      O48389   3.492   7.376   4.794 -0.0200  0.5006  0.4072
11921WAT     H148390   3.515   7.339   4.719 -1.5421  1.7574 -0.7394
11921WAT     H248391   3.487   7.308   4.849  4.8257 -0.0841  0.5249
11921WAT    EPW48392   3.495   7.360   4.791 -0.1370  0.6621 -0.3113
11922WAT      O48393   1.573   0.907   3.408  0.4067 -0.0815  0.4482
11922WAT     H148394   1.528   0.972   3.371  0.3678 -0.6796 -0.5864
11922WAT     H248395   1.526   0.889   3.480 -0.2113  0.2577  0.1398
11922WAT    EPW48396   1.559   0.914   3.413 -0.0539  0.5376 -0.2909
11923WAT      O48397   0.974   6.771   4.074 -0.5310  0.5820  0.5757
11923WAT     H148398   1.059   6.754   4.062 -0.7054  0.0250  0.0816
11923WAT     H248399   0.939   6.693   4.088 -0.6820  0.9752  2.8136
11923WAT    EPW48400   0.981   6.757   4.074 -0.2653  0.3189 -0.8283
11924WAT      O48401   3.022   7.516   3.023 -0.3976 -0.2522 -0.7850
11924WAT     H148402   3.063   7.443   3.047  1.2518  0.9239  0.1229
11924WAT     H248403   2.952   7.519   3.076 -0.2554 -0.9551 -0.5568
11924WAT    EPW48404   3.018   7.506   3.034  0.1180 -0.0125  0.3803
11925WAT      O48405   2.685   0.190   3.402  0.0591  0.1259  0.2255
11925WAT     H148406   2.698   0.117   3.449 -0.1301 -0.5310 -0.7132
11925WAT     H248407   2.761   0.232   3.407  1.0307 -1.3414 -1.2381
11925WAT    EPW48408   2.698   0.185   3.410 -0.4871 -0.7365 -0.3779
11926WAT      O48409   2.258   0.546   2.651  0.1772 -0.6428  0.7300
11926WAT     H148410   2.274   0.466   2.620 -2.9360 -1.8438  1.8529
11926WAT     H248411   2.242   0.593   2.579 -0.1387 -1.5881  0.1710
11926WAT    EPW48412   2.258   0.541   2.635 -0.1066 -0.0042 -0.3619
11927WAT      O48413   2.613   1.953   2.931  0.0018  0.2374 -0.4598
11927WAT     H148414   2.572   2.000   2.869 -0.2148  0.3371 -0.2422
11927WAT     H248415   2.627   1.876   2.891 -2.9620 -0.8448  0.3050
11927WAT    EPW48416   2.609   1.948   2.916 -0.7166  0.8438 -1.1205
11928WAT      O48417   3.876   1.161   4.492  0.0346  0.3707  0.5139
11928WAT     H148418   3.953   1.131   4.464 -0.6889 -0.9519 -0.1774
11928WAT     H248419   3.865   1.122   4.569 -0.6565 -0.7465 -0.1306
11928WAT    EPW48420   3.886   1.151   4.499  0.3350  0.3998  1.2941
11929WAT      O48421   3.710   1.782   5.388 -0.0340  0.4929 -0.5403
11929WAT     H148422   3.696   1.699   5.366  1.3417  0.0604  0.1110
11929WAT     H248423   3.765   1.810   5.327  0.0411  0.7197 -0.3708
11929WAT    EPW48424   3.716   1.774   5.376  0.0918 -0.7815 -0.1814
11930WAT      O48425   3.634   0.583   3.903 -0.4687 -0.1737 -0.5048
11930WAT     H148426   3.691   0.636   3.863  0.4385 -1.0889 -0.4651
11930WAT     H248427   3.683   0.541   3.962 -1.4164 -0.1888  0.2821
11930WAT    EPW48428   3.650   0.584   3.906 -0.3327  0.7317 -0.3091
11931WAT      O48429   2.544   1.102   3.869  0.5293 -0.5489  0.6606
11931WAT     H148430   2.475   1.149   3.842  0.9055  0.4891  1.4480
11931WAT     H248431   2.535   1.027   3.827 -0.3576  0.0583 -0.2795
11931WAT    EPW48432   2.532   1.098   3.859 -0.2228 -0.1429 -0.1010
11932WAT      O48433   4.578   1.472   3.923 -0.1463 -0.2016  0.3896
11932WAT     H148434   4.573   1.557   3.905 -0.6402 -0.2984  0.0467
11932WAT     H248435   4.594   1.436   3.846  1.2228 -0.3309  0.7117
11932WAT    EPW48436   4.580   1.479   3.909 -0.2329 -0.9128 -0.8279
11933WAT      O48437   3.026   0.255   3.635 -0.9944 -0.6354 -1.3161
11933WAT     H148438   3.096   0.299   3.662  0.3401 -2.1337 -2.1743
11933WAT     H248439   3.026   0.183   3.684 -2.1454 -0.5207 -1.1063
11933WAT    EPW48440   3.036   0.251   3.646 -0.2672 -0.1706  0.8268
11934WAT      O48441   2.765   7.824   5.013  0.0450 -0.3854  0.1692
11934WAT     H148442   2.690   7.782   4.999 -0.2597 -0.0374  0.7409
11934WAT     H248443   2.787   7.853   4.933 -0.5766 -0.2379  0.0461
11934WAT    EPW48444   2.757   7.822   4.999 -0.1783 -0.4075  0.3175
11935WAT      O48445   2.880   1.201   0.914 -0.3050  0.2122  0.0807
11935WAT     H148446   2.928   1.264   0.878  0.7734 -0.4767  0.2916
11935WAT     H248447   2.816   1.188   0.855 -0.7611  1.7341  0.2034
11935WAT    EPW48448   2.877   1.208   0.900  0.4096  0.5018 -0.3014
11936WAT      O48449   0.016   1.501   2.809  0.6638  0.0488  0.5597
11936WAT     H148450   0.067   1.543   2.753  0.9364 -0.2560  0.5760
11936WAT     H248451   0.030   1.417   2.791 -1.0293 -0.0517 -0.5241
11936WAT    EPW48452   0.026   1.495   2.798  0.4425  0.6223 -0.0462
11937WAT      O48453   2.327   7.139   1.579  0.0488  0.3198  0.2952
11937WAT     H148454   2.373   7.072   1.611 -0.1460 -0.1576 -0.4125
11937WAT     H248455   2.348   7.205   1.633  1.9352  0.2421 -0.2539
11937WAT    EPW48456   2.337   7.139   1.592  0.0922  0.0400 -0.5524
11938WAT      O48457   4.090   1.183   1.799  0.1216  0.2492 -0.2186
11938WAT     H148458   4.098   1.096   1.797  1.3927  0.3290 -2.5197
11938WAT     H248459   4.038   1.198   1.867 -2.6107 -2.4928 -1.4943
11938WAT    EPW48460   4.084   1.172   1.808  1.2507 -0.7178 -0.0125
11939WAT      O48461   3.096   1.166   4.858 -0.2294 -0.2511  0.3129
11939WAT     H148462   3.058   1.096   4.824 -2.2391  0.9042  0.0247
11939WAT     H248463   3.061   1.172   4.938  1.1747 -0.4664  0.9937
11939WAT    EPW48464   3.085   1.157   4.865  0.3192 -0.5649  0.2275
11940WAT      O48465   1.664   7.959   2.858 -0.1623 -0.2557 -0.2636
11940WAT     H148466   1.732   7.928   2.902 -0.2997  1.1728  1.0256
11940WAT     H248467   1.692   8.035   2.825 -1.0069  0.1725 -0.0260
11940WAT    EPW48468   1.678   7.966   2.860  0.0523  0.4692 -0.3511
11941WAT      O48469   4.454   0.217   4.665 -0.6216 -0.1505 -0.4839
11941WAT     H148470   4.432   0.249   4.743  0.7658  0.1679 -0.1918
11941WAT     H248471   4.512   0.274   4.635  1.6152 -2.0691 -0.1416
11941WAT    EPW48472   4.459   0.230   4.672  0.0704 -0.3335  0.8481
11942WAT      O48473   2.906   1.388   2.952  0.0847 -0.2862 -0.1841
11942WAT     H148474   2.835   1.347   2.983  1.2856 -1.7745  0.7677
11942WAT     H248475   2.884   1.472   2.955 -0.0146 -0.1742  4.8330
11942WAT    EPW48476   2.892   1.394   2.957 -0.4647  0.0112 -0.5527
11943WAT      O48477   1.736   0.065   2.277 -0.4250  0.1817  0.3070
11943WAT     H148478   1.668   0.043   2.228 -0.3220  0.5419 -0.0061
11943WAT     H248479   1.779  -0.010   2.289 -0.7553 -0.0050  0.3187
11943WAT    EPW48480   1.732   0.051   2.271  0.5797 -0.3879  0.5152
11944WAT      O48481   1.152   0.778   4.234 -0.5755 -0.1726  0.2462
11944WAT     H148482   1.209   0.736   4.182  0.5659 -1.5969  2.4765
11944WAT     H248483   1.096   0.815   4.178  1.4814 -0.2279 -2.0225
11944WAT    EPW48484   1.152   0.778   4.218 -0.4753 -0.2235 -0.0218
11945WAT      O48485   7.850   0.564   1.472 -0.0898  0.3638 -0.1051
11945WAT     H148486   7.912   0.566   1.411 -0.0731 -0.0688 -0.1050
11945WAT     H248487   7.892   0.587   1.545  0.6579 -2.1571  0.3850
11945WAT    EPW48488   7.866   0.567   1.474  0.7655 -0.8329 -0.4314
11946WAT      O48489   2.421   0.346   0.906 -0.1600 -0.7802 -0.2401
11946WAT     H148490   2.391   0.407   0.851  0.4031  1.2141  1.5516
11946WAT     H248491   2.507   0.346   0.892  0.0199 -0.0505  0.8101
11946WAT    EPW48492   2.429   0.355   0.896  0.6035  0.0501  0.8822
11947WAT      O48493   1.800   1.219   1.182  0.7801 -0.0303 -0.3582
11947WAT     H148494   1.755   1.190   1.251  1.5431  0.4100  0.3542
11947WAT     H248495   1.747   1.278   1.146 -0.0139 -0.9547 -0.7203
11947WAT    EPW48496   1.786   1.223   1.187  0.2822 -0.1153 -0.1223
11948WAT      O48497   1.492   0.511   0.623  0.3519 -0.1120 -0.0247
11948WAT     H148498   1.547   0.476   0.681  0.7518 -3.0472 -1.9208
11948WAT     H248499   1.414   0.506   0.662  0.6697 -1.5667  0.4809
11948WAT    EPW48500   1.489   0.505   0.637  0.3339  0.3189  0.5522
11949WAT      O48501   1.040   7.146   1.507 -0.0929  0.3363  0.4495
11949WAT     H148502   0.984   7.084   1.531  1.4446 -1.0844  0.5306
11949WAT     H248503   1.118   7.112   1.527  0.8627  1.8254 -0.5584
11949WAT    EPW48504   1.043   7.132   1.513  0.0846  0.2191  0.1552
11950WAT      O48505   2.028   7.261   0.335 -0.1167 -0.0354 -0.2603
11950WAT     H148506   2.069   7.303   0.399  1.5482  0.6000 -1.6758
11950WAT     H248507   2.044   7.177   0.352  2.3608  0.2087 -1.0886
11950WAT    EPW48508   2.036   7.254   0.347  0.5534 -0.0256 -0.3226
11951WAT      O48509   1.175   7.155   1.859 -0.7446 -0.2520 -0.0991
11951WAT     H148510   1.192   7.219   1.802 -1.0321  0.3797  0.5098
11951WAT     H248511   1.089   7.145   1.854 -0.6638 -0.8082 -0.4142
11951WAT    EPW48512   1.165   7.163   1.850 -0.5737  0.9023 -0.4053
11952WAT      O48513   3.892   8.012   1.398  0.5948 -0.2450  0.1576
11952WAT     H148514   3.965   8.059   1.398  0.3598  0.1269 -0.3223
11952WAT     H248515   3.837   8.060   1.350  1.0154 -2.0206 -2.2849
11952WAT    EPW48516   3.895   8.026   1.391  0.0352 -0.4372 -0.3590
11953WAT      O48517   0.617   7.873   1.061 -0.0030 -0.3191 -0.1456
11953WAT     H148518   0.702   7.853   1.059  0.4951  1.6638 -0.5800
11953WAT     H248519   0.596   7.881   0.977 -0.4823 -0.1997 -0.0168
11953WAT    EPW48520   0.627   7.871   1.049  0.1625  0.1552 -0.0148
11954WAT      O48521   1.356   0.465   1.210  0.3207  0.1581 -0.0052
11954WAT     H148522   1.277   0.471   1.246  0.0034 -1.1040 -0.4496
11954WAT     H248523   1.350   0.514   1.138 -0.0309  0.1324  0.0057
11954WAT    EPW48524   1.344   0.473   1.205  0.2138 -0.4367 -0.4502
11955WAT      O48525   1.579   1.414   1.107  0.3103  0.3023  0.1800
11955WAT     H148526   1.567   1.462   1.179 -0.3635 -0.1788  0.3946
11955WAT     H248527   1.510   1.360   1.105  0.7872 -0.3218 -0.3227
11955WAT    EPW48528   1.567   1.413   1.117  0.6016  0.5304 -1.1242
11956WAT      O48529   0.709   0.194   1.466 -0.4360 -0.1889 -0.2259
11956WAT     H148530   0.686   0.278   1.460 -1.4937 -0.4882 -0.5609
11956WAT     H248531   0.673   0.158   1.395 -0.4887 -1.0370  0.2219
11956WAT    EPW48532   0.700   0.201   1.454  0.6863 -0.0244 -0.2926
11957WAT      O48533   0.249   7.751   0.568 -0.1913 -0.4668  0.0532
11957WAT     H148534   0.321   7.715   0.602  0.4365  0.6619 -0.0304
11957WAT     H248535   0.263   7.747   0.482 -0.3871 -0.5588  0.0257
11957WAT    EPW48536   0.261   7.745   0.560 -0.1324 -0.3318 -0.5652
11958WAT      O48537   2.964   2.085   1.817  0.0295  0.7586  0.2788
11958WAT     H148538   2.901   2.037   1.782 -0.3151  1.4570 -0.0822
11958WAT     H248539   2.940   2.092   1.901 -0.4119  1.0650  0.1324
11958WAT    EPW48540   2.951   2.079   1.825  0.5598 -0.0199 -0.5350
11959WAT      O48541   1.944   1.081   0.985  0.1852 -0.1249 -0.0444
11959WAT     H148542   1.978   1.133   0.923 -0.8920 -0.1672 -0.7025
11959WAT     H248543   1.908   1.137   1.041 -0.1494 -0.1248 -0.2559
11959WAT    EPW48544   1.944   1.097   0.984  0.3024 -0.3459 -1.3330
11960WAT      O48545   1.307   2.563   1.471  0.5270 -0.4398 -0.1740
11960WAT     H148546   1.241   2.518   1.435 -1.7987 -0.3762  3.5049
11960WAT     H248547   1.274   2.644   1.477  2.1636  0.3224 -0.8486
11960WAT    EPW48548   1.292   2.569   1.466  0.2240 -0.5319 -0.1276
11961WAT      O48549   0.982   0.789   1.407  0.2907 -0.1807 -0.1757
11961WAT     H148550   0.977   0.782   1.494  0.6161 -2.3599 -0.2800
11961WAT     H248551   0.921   0.733   1.379  1.0925 -0.5003 -1.3432
11961WAT    EPW48552   0.972   0.779   1.415  0.6438  0.5269 -0.6166
11962WAT      O48553   1.735   1.177   0.688 -0.1211 -0.3575  0.4468
11962WAT     H148554   1.691   1.146   0.758 -1.5015 -1.0625 -0.6784
11962WAT     H248555   1.790   1.234   0.723 -0.7836 -0.6695  2.1281
11962WAT    EPW48556   1.736   1.181   0.704 -0.4393  0.1855 -0.7737
11963WAT      O48557   0.106   0.075   2.287  0.4702 -0.6860 -0.2623
11963WAT     H148558   0.032   0.083   2.334  0.1675  0.5992 -0.9404
11963WAT     H248559   0.123  -0.011   2.293 -0.9897 -0.9962  0.0464
11963WAT    EPW48560   0.097   0.063   2.295  0.2290  0.1430 -0.1788
11964WAT      O48561   0.640   2.132   0.790 -0.4951 -0.0937  0.4000
11964WAT     H148562   0.578   2.070   0.789 -0.2277 -0.3812  1.0035
11964WAT     H248563   0.602   2.199   0.829 -1.8255  1.2883 -2.9140
11964WAT    EPW48564   0.625   2.133   0.795  0.2325  0.1609 -0.8691
11965WAT      O48565   1.850   0.655   0.753 -0.3919 -0.0653  0.0347
11965WAT     H148566   1.866   0.674   0.837  2.4384 -3.7907  0.6413
11965WAT     H248567   1.785   0.597   0.757  0.3906 -0.9835 -0.1803
11965WAT    EPW48568   1.843   0.649   0.766  0.5431 -1.3178 -0.5421
11966WAT      O48569   1.426   0.773   1.391 -0.1605  0.0574 -0.0081
11966WAT     H148570   1.409   0.689   1.404  2.7881 -0.3955  1.9697
11966WAT     H248571   1.386   0.813   1.457  0.2487 -0.0932  0.3373
11966WAT    EPW48572   1.418   0.767   1.402  0.8895 -0.3954  0.6357
11967WAT      O48573   1.576   7.567   3.064  0.0267  0.6121  0.0133
11967WAT     H148574   1.490   7.582   3.052 -0.3779 -1.7722 -0.6902
11967WAT     H248575   1.606   7.559   2.983  0.4758 -0.6034  0.2863
11967WAT    EPW48576   1.567   7.568   3.050 -0.1501 -0.4397  0.0861
11968WAT      O48577   1.628   0.889   7.900 -0.0712 -0.5432  0.3809
11968WAT     H148578   1.714   0.902   7.911 -0.1808 -0.6943  1.5531
11968WAT     H248579   1.596   0.970   7.892  0.1551 -0.4776  0.1142
11968WAT    EPW48580   1.636   0.903   7.901 -0.0819  0.1952 -1.1388
11969WAT      O48581   0.099   7.348   2.420  0.4435  0.9512  0.2473
11969WAT     H148582   0.055   7.403   2.369  1.0569  1.8860  0.7001
11969WAT     H248583   0.182   7.368   2.406  0.7675 -0.7533 -0.5549
11969WAT    EPW48584   0.105   7.359   2.411  0.8612 -0.0783 -0.5693
11970WAT      O48585   1.914   1.641   2.428  0.0801  0.5694  0.9235
11970WAT     H148586   1.858   1.647   2.495  0.4756 -0.7426  1.4123
11970WAT     H248587   1.989   1.671   2.462  0.3217 -0.2528  1.1504
11970WAT    EPW48588   1.917   1.646   2.443  0.8055  0.1473  0.1992
11971WAT      O48589   3.380   1.313   0.669 -0.1925  0.1237 -0.0531
11971WAT     H148590   3.423   1.238   0.652  1.4180  1.2887 -1.4610
11971WAT     H248591   3.353   1.302   0.752 -1.0221 -2.4464 -0.5573
11971WAT    EPW48592   3.383   1.300   0.679 -0.5712  0.3504  0.3086
11972WAT      O48593   2.774   0.531   1.615  0.6666 -0.0268  0.2309
11972WAT     H148594   2.779   0.601   1.563  0.4092 -0.2984 -0.1678
11972WAT     H248595   2.754   0.565   1.693 -1.5540  0.2208 -0.3636
11972WAT    EPW48596   2.772   0.546   1.619 -0.1234  0.2647 -0.4693
11973WAT      O48597   0.676   0.199   2.503 -0.3348  0.1421 -0.0730
11973WAT     H148598   0.600   0.158   2.513 -1.5496  2.1608 -0.3905
11973WAT     H248599   0.688   0.200   2.417 -1.1393  1.7144 -0.2136
11973WAT    EPW48600   0.666   0.193   2.492 -0.6706 -0.0987 -0.0363
11974WAT      O48601   0.453   7.563   1.305  0.0553  0.8099  0.0085
11974WAT     H148602   0.408   7.621   1.258 -0.5889  0.6798  0.4445
11974WAT     H248603   0.458   7.600   1.383  2.3981  1.6892 -0.4827
11974WAT    EPW48604   0.447   7.577   1.309  0.0379 -0.5989  0.3009
11975WAT      O48605   2.231   7.501   1.082 -0.8100  0.3332  0.4527
11975WAT     H148606   2.219   7.423   1.044 -0.4840  1.0700 -1.2847
11975WAT     H248607   2.306   7.492   1.125 -1.6627 -0.8235  1.7456
11975WAT    EPW48608   2.241   7.488   1.083  0.0353 -0.8746  0.1971
11976WAT      O48609   3.082   0.563   1.781  0.9358 -0.4130  0.2700
11976WAT     H148610   3.081   0.648   1.799  0.7268 -0.1361 -0.9099
11976WAT     H248611   2.997   0.541   1.783  0.8462 -0.2485 -0.7840
11976WAT    EPW48612   3.069   0.572   1.784  0.7722  0.4935  0.0604
11977WAT      O48613   2.535   0.828   3.233  0.1948 -0.5052  0.2292
11977WAT     H148614   2.592   0.763   3.245  0.7475 -0.6536 -2.3989
11977WAT     H248615   2.574   0.877   3.172 -1.0472  1.2432  0.7812
11977WAT    EPW48616   2.549   0.826   3.226 -0.0894 -0.3461 -0.1558
11978WAT      O48617   2.482   0.862   1.448  0.1034  0.2443 -0.0019
11978WAT     H148618   2.414   0.910   1.421 -0.1066 -0.4034 -0.6775
11978WAT     H248619   2.445   0.785   1.470  0.6685 -0.3131 -0.9295
11978WAT    EPW48620   2.466   0.857   1.447 -0.8052 -0.8259 -0.3803
11979WAT      O48621   1.235   0.638   1.688 -0.0249 -0.0599  0.2847
11979WAT     H148622   1.160   0.680   1.701  0.9720  1.9455  0.0518
11979WAT     H248623   1.294   0.703   1.685  1.6994 -1.5430  0.3573
11979WAT    EPW48624   1.233   0.654   1.690  0.0585 -0.3825  0.3704
11980WAT      O48625   0.293   6.872   1.703  0.0571  0.0811 -0.7142
11980WAT     H148626   0.256   6.821   1.643  0.3739 -0.1479 -0.7209
11980WAT     H248627   0.266   6.838   1.778 -0.3963  0.4107 -0.7279
11980WAT    EPW48628   0.284   6.859   1.705 -0.2566  0.5674  0.2201
11981WAT      O48629   3.252   0.702   2.946  0.4584 -0.3516  0.3791
11981WAT     H148630   3.308   0.639   2.921  1.1229  0.5037 -0.3651
11981WAT     H248631   3.203   0.716   2.875 -1.0951 -1.4411  1.1757
11981WAT    EPW48632   3.253   0.694   2.932 -0.6078  0.6003  0.2063
11982WAT      O48633   1.504   0.461   7.747  0.5345  0.1087 -0.0247
11982WAT     H148634   1.434   0.423   7.712  0.4465  0.4576 -0.2398
11982WAT     H248635   1.509   0.537   7.704  0.4487  0.5302  0.6923
11982WAT    EPW48636   1.495   0.467   7.735  0.2834 -0.2366 -0.3750
11983WAT      O48637   1.004   0.143   2.039 -0.3440  0.0752 -0.0298
11983WAT     H148638   1.063   0.198   2.005 -0.7717 -0.2946 -1.3959
11983WAT     H248639   1.054   0.079   2.072  0.0667  0.3855 -0.0332
11983WAT    EPW48640   1.020   0.142   2.039  0.1028  0.1396 -0.5402
11984WAT      O48641   1.617   1.466   2.721  0.0436  0.3718 -0.8975
11984WAT     H148642   1.617   1.414   2.652 -0.5889 -0.5738 -0.2093
11984WAT     H248643   1.585   1.416   2.785 -1.1597  1.7782 -0.3313
11984WAT    EPW48644   1.613   1.451   2.720 -0.0637 -0.2362  0.5658
11985WAT      O48645   0.141   8.012   0.660  0.6398 -0.1617  0.2771
11985WAT     H148646   0.118   8.059   0.591  1.3916  0.3151  0.3402
11985WAT     H248647   0.162   7.934   0.625 -0.0244 -0.2695  0.1047
11985WAT    EPW48648   0.141   8.007   0.645  1.1009  1.2448 -0.4581
11986WAT      O48649   1.168   0.317   1.894  0.6458 -0.0989 -0.2318
11986WAT     H148650   1.114   0.381   1.920  1.0946 -0.5722  2.0749
11986WAT     H248651   1.159   0.317   1.807 -0.9719  1.6635 -0.1347
11986WAT    EPW48652   1.159   0.326   1.885 -0.1978 -0.6613 -0.0182
11987WAT      O48653   0.361   0.114   1.400  0.8054  0.7974 -0.0901
11987WAT     H148654   0.281   0.126   1.367 -0.6065 -1.4105  2.1513
11987WAT     H248655   0.369   0.177   1.459 -0.3997 -0.3670  1.3947
11987WAT    EPW48656   0.351   0.125   1.404 -0.0086 -0.0144 -0.3678
11988WAT      O48657   3.304   0.684   1.110  0.2430 -0.8462 -0.4498
11988WAT     H148658   3.246   0.728   1.158  0.1288 -0.0554 -1.2777
11988WAT     H248659   3.371   0.673   1.164  0.1093  0.0084 -0.0938
11988WAT    EPW48660   3.305   0.689   1.125  0.4273 -0.7269 -0.3909
11989WAT      O48661   1.119   7.411   1.762 -0.2964 -0.1086  0.2074
11989WAT     H148662   1.128   7.447   1.841  0.9504 -1.4312  0.7196
11989WAT     H248663   1.073   7.470   1.717  1.9813  2.3410  0.8541
11989WAT    EPW48664   1.114   7.425   1.767 -0.6532 -0.5166  0.2845
11990WAT      O48665   2.571   0.238   2.684  0.0475  0.2378 -0.4113
11990WAT     H148666   2.627   0.177   2.711 -0.5167  0.0785  0.4305
11990WAT     H248667   2.607   0.267   2.609  1.7758  0.8299  0.5859
11990WAT    EPW48668   2.585   0.233   2.677  0.0747  0.1484  0.0323
11991WAT      O48669   2.166   0.859   0.888 -0.1909 -0.2218 -0.0770
11991WAT     H148670   2.082   0.837   0.894 -0.2662  0.2307  0.5044
11991WAT     H248671   2.171   0.901   0.811 -0.9316  1.6571  0.8514
11991WAT    EPW48672   2.155   0.862   0.877 -0.0850  0.2481  0.5715
11992WAT      O48673   1.375   0.183   1.163 -0.3642 -0.5108 -0.0776
11992WAT     H148674   1.380   0.180   1.076 -0.9745  0.7502 -0.1780
11992WAT     H248675   1.365   0.268   1.180 -0.5659 -0.7741  1.2062
11992WAT    EPW48676   1.374   0.195   1.152 -0.2440 -1.0064 -0.1813
11993WAT      O48677   1.970   6.913   1.872 -0.3737 -0.2076 -0.1863
11993WAT     H148678   1.946   6.840   1.830  1.2493 -0.3295 -0.9817
11993WAT     H248679   2.056   6.905   1.879 -0.3974  0.6716  1.6261
11993WAT    EPW48680   1.979   6.901   1.867 -0.9762  0.1145  0.0637
11994WAT      O48681   1.932   1.958   2.289  0.3228 -0.1656 -0.0865
11994WAT     H148682   1.944   2.038   2.256 -1.2832  0.6522  1.1779
11994WAT     H248683   2.009   1.940   2.326  0.4084  1.2582  0.5054
11994WAT    EPW48684   1.945   1.967   2.290  0.5292 -0.8720 -0.5871
11995WAT      O48685   0.500   0.639   2.867  0.0175  0.5099 -0.1076
11995WAT     H148686   0.538   0.577   2.818 -0.1849  0.7515 -0.5788
11995WAT     H248687   0.464   0.692   2.808 -0.1905  0.8343  0.3074
11995WAT    EPW48688   0.500   0.638   2.851 -0.1293 -0.6032  0.8440
11996WAT      O48689   3.308   1.141   2.598  0.1887 -0.0868 -0.2045
11996WAT     H148690   3.360   1.100   2.542  0.0139  0.4542 -0.7697
11996WAT     H248691   3.363   1.179   2.654  0.3641 -0.4931 -0.0958
11996WAT    EPW48692   3.324   1.141   2.598 -0.7380 -0.3910  0.0854
11997WAT      O48693   2.390   0.300   1.174  0.5216  0.1357  0.0734
11997WAT     H148694   2.394   0.321   1.090  2.0861  1.7189  0.4568
11997WAT     H248695   2.451   0.238   1.182  1.0967  0.6963  0.1765
11997WAT    EPW48696   2.400   0.294   1.163  0.0025  0.3619 -0.0658
11998WAT      O48697   1.984   0.073   0.250 -0.1966 -0.0043  1.1401
11998WAT     H148698   1.949   0.034   0.180  2.3078 -1.7209  0.7029
11998WAT     H248699   2.026   0.142   0.216 -0.5644  0.2827  1.2542
11998WAT    EPW48700   1.985   0.077   0.235 -0.1360 -0.0550 -0.5111
11999WAT      O48701   3.481   0.012   1.069 -0.3417 -0.0206 -0.2312
11999WAT     H148702   3.480  -0.075   1.057  1.3458 -0.2476  0.9473
11999WAT     H248703   3.397   0.030   1.085 -0.4707 -1.7970  1.5953
11999WAT    EPW48704   3.468   0.002   1.070  0.9139 -0.1523 -0.1693
12000WAT      O48705   2.178   7.788   1.063  0.0034  0.1861  0.2768
12000WAT     H148706   2.182   7.701   1.058  2.3835  0.2871 -1.8264
12000WAT     H248707   2.092   7.805   1.057 -0.3907 -1.9928 -2.3071
12000WAT    EPW48708   2.166   7.778   1.061  0.9894 -0.7472 -0.5995
12001WAT      O48709   2.361   7.101   0.427 -0.3564  0.0641  0.3691
12001WAT     H148710   2.297   7.051   0.394 -0.1435 -0.0082  0.0634
12001WAT     H248711   2.433   7.053   0.416 -0.2758  0.0590  0.9061
12001WAT    EPW48712   2.362   7.087   0.420 -0.4971 -0.1881  0.3029
12002WAT      O48713   0.552   0.013   1.658  0.1913 -0.0511  0.1011
12002WAT     H148714   0.576   0.058   1.587 -1.2970 -0.6603 -0.8428
12002WAT     H248715   0.501   0.069   1.702  0.4461  0.0463  0.2768
12002WAT    EPW48716   0.548   0.028   1.654 -0.2789  0.2209  0.5773
12003WAT      O48717   1.899   0.887   7.922 -0.1782 -0.1073 -0.4268
12003WAT     H148718   1.936   0.811   7.898 -0.2614 -0.3319  0.1581
12003WAT     H248719   1.922   0.941   7.857  1.2525 -0.2241 -0.0470
12003WAT    EPW48720   1.908   0.883   7.909  0.2466 -0.4421  0.2083
12004WAT      O48721   3.043   7.567   0.505 -0.8631 -0.4991  0.3359
12004WAT     H148722   3.125   7.539   0.491 -0.6866 -0.5553  1.4346
12004WAT     H248723   2.994   7.497   0.484 -0.7351 -0.0850 -1.5000
12004WAT    EPW48724   3.048   7.552   0.499  0.1684  0.1793 -0.3651
12005WAT      O48725   1.576   0.738   3.045  0.4194 -0.4064 -0.4525
12005WAT     H148726   1.571   0.703   3.124  1.8980 -1.4049 -0.7567
12005WAT     H248727   1.512   0.797   3.044  0.1802 -0.5889  1.3647
12005WAT    EPW48728   1.566   0.742   3.056  0.6773  0.2894  0.0739
12006WAT      O48729   7.632   6.595   1.131 -0.4432  0.7612 -0.2125
12006WAT     H148730   7.673   6.619   1.204 -1.7947  2.7699 -0.0252
12006WAT     H248731   7.584   6.525   1.156  1.1554 -0.2790  0.0752
12006WAT    EPW48732   7.631   6.588   1.146 -0.3585 -1.1595 -0.4484
12007WAT      O48733   3.771   0.494   2.520  0.1331 -0.2336 -0.2252
12007WAT     H148734   3.848   0.472   2.555  0.0112  0.9123  0.8706
12007WAT     H248735   3.728   0.530   2.587 -0.5496  1.0796 -1.3181
12007WAT    EPW48736   3.776   0.496   2.535  1.0914 -1.1170 -0.2497
12008WAT      O48737   0.629   0.072   0.548  0.1751  0.3983  0.0015
12008WAT     H148738   0.714   0.093   0.547 -0.0240  1.7258  2.5308
12008WAT     H248739   0.589   0.148   0.535 -0.5551  0.6216  2.8176
12008WAT    EPW48740   0.635   0.086   0.546 -0.9037 -0.0037  0.8773
12009WAT      O48741   0.915   7.689   1.266  0.1139  0.1059  0.2383
12009WAT     H148742   0.996   7.722   1.275 -0.7749  2.5589 -0.0467
12009WAT     H248743   0.872   7.722   1.334 -0.4392 -2.1051  1.0429
12009WAT    EPW48744   0.921   7.699   1.278  0.9310 -0.5261  0.2722
12010WAT      O48745   2.777   6.264   0.361  0.4180  0.3828 -0.2837
12010WAT     H148746   2.697   6.284   0.335  0.1721 -1.5815 -1.2399
12010WAT     H248747   2.806   6.210   0.299  2.0319  0.0990  0.6496
12010WAT    EPW48748   2.770   6.259   0.348 -0.2217 -0.0935 -0.6029
12011WAT      O48749   1.151   2.094   1.991 -0.3793 -0.2366  0.5071
12011WAT     H148750   1.181   2.035   1.934 -1.0631 -0.9936  0.9165
12011WAT     H248751   1.112   2.154   1.940  1.5505  0.6443 -0.0145
12011WAT    EPW48752   1.150   2.094   1.975 -0.0692 -0.3608 -0.4500
12012WAT      O48753   0.840   6.594   1.720 -0.0554 -0.2496 -0.4274
12012WAT     H148754   0.782   6.623   1.778  0.1546  1.7157 -1.1264
12012WAT     H248755   0.913   6.635   1.742 -0.1184  1.0874 -2.4384
12012WAT    EPW48756   0.842   6.604   1.732  0.1121 -0.3796 -0.1212
12013WAT      O48757   4.138   2.700   0.533  0.2980 -0.6456  0.5756
12013WAT     H148758   4.109   2.655   0.463  1.7007 -1.5189  0.5244
12013WAT     H248759   4.144   2.639   0.595  0.3209 -0.1276  1.0836
12013WAT    EPW48760   4.135   2.684   0.532 -0.4614 -0.1051 -0.1664
12014WAT      O48761   1.872   7.230   1.147  0.2837 -0.3834  0.4382
12014WAT     H148762   1.937   7.259   1.096 -0.6928  0.2232 -0.5360
12014WAT     H248763   1.887   7.145   1.155  1.3525 -0.1935  0.4804
12014WAT    EPW48764   1.884   7.222   1.140 -0.2671  0.6496  0.9843
12015WAT      O48765   1.628   7.148   0.683  0.4378 -0.2264  0.2128
12015WAT     H148766   1.625   7.235   0.690 -0.8298 -0.3320  1.8351
12015WAT     H248767   1.700   7.133   0.638  1.1162  1.6509  0.5812
12015WAT    EPW48768   1.638   7.159   0.677  0.0308 -0.2998 -0.5661
12016WAT      O48769   1.546   0.248   2.858  0.1315  0.1008  0.1179
12016WAT     H148770   1.594   0.307   2.815  0.3789 -0.3374 -0.2232
12016WAT     H248771   1.508   0.202   2.794  0.2389 -0.3474  0.3728
12016WAT    EPW48772   1.548   0.250   2.842 -0.0150  0.4499  0.1665
12017WAT      O48773   2.349   0.185   2.129 -0.7293  0.0256 -0.2254
12017WAT     H148774   2.362   0.259   2.084 -2.1743  0.2768 -0.2599
12017WAT     H248775   2.408   0.130   2.094  0.4142  1.1557 -0.1462
12017WAT    EPW48776   2.360   0.188   2.117  0.4461 -0.5053  0.3074
12018WAT      O48777   3.118   0.553   0.975  0.0246 -0.3533 -0.8818
12018WAT     H148778   3.189   0.593   1.006  0.4420 -1.3366 -0.5119
12018WAT     H248779   3.089   0.507   1.044 -0.7152 -0.3046 -1.1506
12018WAT    EPW48780   3.124   0.552   0.990  0.4005 -0.5129  0.4260
12019WAT      O48781   2.168   0.080   1.146 -0.1462  0.0619 -0.3346
12019WAT     H148782   2.129   0.115   1.076 -0.4509 -1.1024 -0.7900
12019WAT     H248783   2.249   0.111   1.143 -0.8816  2.1867  0.3672
12019WAT    EPW48784   2.174   0.089   1.135 -0.5512 -0.3826 -0.9883
12020WAT      O48785   2.460   6.556   1.002 -0.3140 -0.5696  0.2083
12020WAT     H148786   2.491   6.630   1.036 -0.4019 -0.8282  0.8904
12020WAT     H248787   2.377   6.574   0.985 -0.3199 -0.4882  0.3188
12020WAT    EPW48788   2.453   6.569   1.005 -0.0046 -0.0188  0.7736
12021WAT      O48789   2.658   0.177   1.799 -0.5282  0.1650  0.3616
12021WAT     H148790   2.710   0.139   1.740  0.6313  0.6056  1.0760
12021WAT     H248791   2.636   0.111   1.852 -1.5972 -0.2396 -0.5398
12021WAT    EPW48792   2.662   0.162   1.798 -0.6359  0.2520  0.5525
12022WAT      O48793   1.838   0.767   0.492  0.1162  0.5579  0.3027
12022WAT     H148794   1.838   0.744   0.576  0.2831 -0.4710  0.0296
12022WAT     H248795   1.775   0.719   0.457  0.8751  0.0472 -0.4047
12022WAT    EPW48796   1.829   0.757   0.499  0.1193 -0.1560  0.2499
12023WAT      O48797   1.472   7.794   1.122 -0.0482  0.1210  0.2059
12023WAT     H148798   1.544   7.746   1.114  0.2950  0.8560 -1.6876
12023WAT     H248799   1.501   7.870   1.155  0.2974  0.8790 -1.7563
12023WAT    EPW48800   1.487   7.798   1.126  0.0688 -0.0406 -0.1924
12024WAT      O48801   2.658   1.338   3.079  0.1350  0.1003  0.4991
12024WAT     H148802   2.599   1.274   3.083  0.7954 -0.4847  1.3089
12024WAT     H248803   2.695   1.336   3.158  0.0975  1.5610  0.5721
12024WAT    EPW48804   2.655   1.328   3.092 -0.5256 -0.8226 -0.5219
12025WAT      O48805   1.193   6.880   2.330 -0.3428  0.2533  0.0085
12025WAT     H148806   1.211   6.937   2.267  1.3059 -0.7781 -0.5375
12025WAT     H248807   1.219   6.804   2.296  2.6183 -0.0975  2.6113
12025WAT    EPW48808   1.200   6.877   2.315 -0.4083 -0.1901  0.7346
12026WAT      O48809   1.420   1.207   1.488 -0.0386  0.1293 -0.4487
12026WAT     H148810   1.440   1.168   1.563 -1.3645 -0.6267 -0.4639
12026WAT     H248811   1.371   1.275   1.512 -0.3898 -0.0619 -0.6026
12026WAT    EPW48812   1.416   1.211   1.503  0.6642 -0.0583 -0.4539
12027WAT      O48813   2.351   1.285   2.437 -0.6250  0.6809  0.3555
12027WAT     H148814   2.369   1.339   2.503  1.5207 -0.0714  0.4625
12027WAT     H248815   2.427   1.244   2.422 -1.3968 -0.1717 -1.6731
12027WAT    EPW48816   2.365   1.287   2.444 -0.2236 -1.3731 -0.7523
12028WAT      O48817   2.551   0.038   1.998 -0.2600  0.4474 -0.5950
12028WAT     H148818   2.597   0.030   2.072 -2.1092  2.2559  0.8825
12028WAT     H248819   2.510  -0.039   1.991  0.2530  0.1049  0.0521
12028WAT    EPW48820   2.552   0.026   2.008 -0.4087  1.0075 -0.4765
12029WAT      O48821   3.275   1.059   1.063 -0.2133 -0.2068  0.5446
12029WAT     H148822   3.229   1.098   1.126 -0.1696 -0.3992  0.6971
12029WAT     H248823   3.213   1.030   1.008 -0.2625 -0.2452  0.6205
12029WAT    EPW48824   3.259   1.060   1.064 -0.2711 -0.5343  0.0026
12030WAT      O48825   0.770   1.185   1.043 -0.2506 -0.1067 -0.0360
12030WAT     H148826   0.791   1.143   0.970 -3.3729 -5.1721  1.4830
12030WAT     H248827   0.837   1.168   1.096  0.4557  0.6856 -0.6338
12030WAT    EPW48828   0.783   1.176   1.040  0.2915 -0.0315 -1.5103
12031WAT      O48829   1.720   0.496   1.668 -0.3454 -0.4156  0.0467
12031WAT     H148830   1.800   0.472   1.694 -0.3956 -0.1269  0.4709
12031WAT     H248831   1.682   0.523   1.741 -0.7092 -0.2050 -0.2171
12031WAT    EPW48832   1.727   0.497   1.682  0.2319  0.1814  0.1092
12032WAT      O48833   3.294   7.697   0.070 -0.0623 -0.1428 -0.0528
12032WAT     H148834   3.376   7.702   0.040 -0.5709 -0.7557 -1.6160
12032WAT     H248835   3.291   7.758   0.132  2.1811 -1.4764  1.5433
12032WAT    EPW48836   3.306   7.707   0.075 -0.5444 -0.6604  0.3301
12033WAT      O48837   2.299   0.965   3.220 -0.1013  0.0689 -0.2874
12033WAT     H148838   2.254   0.910   3.170  0.2393  0.6969 -1.3295
12033WAT     H248839   2.375   0.925   3.233  0.1152  0.2443 -0.9757
12033WAT    EPW48840   2.304   0.951   3.215 -0.2917 -0.5534  0.0726
12034WAT      O48841   0.978   0.753   1.673  0.0268 -0.2066  0.3968
12034WAT     H148842   0.934   0.680   1.694 -1.1466  0.0522 -0.9672
12034WAT     H248843   0.936   0.815   1.718 -1.0684  0.0337 -0.8698
12034WAT    EPW48844   0.965   0.751   1.683  1.5443  0.6371  0.3503
12035WAT      O48845   1.327   1.305   1.139 -0.5622  0.1773  0.1332
12035WAT     H148846   1.303   1.343   1.064  1.4010 -0.1620 -0.7353
12035WAT     H248847   1.295   1.358   1.201  0.3010  2.1189 -1.0031
12035WAT    EPW48848   1.319   1.319   1.137 -0.1691 -0.8123  0.0878
12036WAT      O48849   2.423   0.177   1.611  0.3175 -0.3444 -0.1382
12036WAT     H148850   2.469   0.152   1.681 -2.8979 -2.3651  1.5195
12036WAT     H248851   2.410   0.103   1.568 -3.0775 -0.3864  0.7041
12036WAT    EPW48852   2.428   0.163   1.615  0.0194  0.0591 -1.0458
12037WAT      O48853   1.421   7.599   1.390  0.0736  0.4415 -0.7821
12037WAT     H148854   1.447   7.675   1.425 -0.0345  0.7416 -1.3328
12037WAT     H248855   1.398   7.551   1.459 -1.1178  1.3811 -0.4838
12037WAT    EPW48856   1.421   7.603   1.405  0.2519 -0.0634  1.0837
12038WAT      O48857   1.133   0.402   2.249  0.0701  0.0874  0.7412
12038WAT     H148858   1.083   0.434   2.313 -0.1554  2.0287 -0.3119
12038WAT     H248859   1.085   0.416   2.178  0.6230 -1.3549  0.0658
12038WAT    EPW48860   1.119   0.409   2.248 -0.1609  0.1843 -0.0294
12039WAT      O48861   1.586   0.702   3.747  0.2918  0.2582  0.0087
12039WAT     H148862   1.663   0.724   3.713  1.5662 -0.7285  2.0462
12039WAT     H248863   1.557   0.640   3.693  1.7882 -0.6030  0.1221
12039WAT    EPW48864   1.593   0.696   3.734  0.0292 -0.0476 -1.2507
12040WAT      O48865   0.171   1.949   0.302  0.6195  0.9642  0.2689
12040WAT     H148866   0.251   1.967   0.331  2.0070 -1.5292 -1.6081
12040WAT     H248867   0.176   1.865   0.278 -2.0375  1.2187 -1.6193
12040WAT    EPW48868   0.183   1.939   0.303 -0.3561  0.7378 -0.3775
12041WAT      O48869   1.962   1.578   2.176 -0.3828 -0.2148  0.7138
12041WAT     H148870   1.956   1.599   2.260 -0.1608  0.1238  0.6455
12041WAT     H248871   1.879   1.578   2.149 -0.3392  1.6580  0.4592
12041WAT    EPW48872   1.949   1.581   2.185  0.5229  0.0676  0.0686
12042WAT      O48873   2.994   1.134   2.489 -0.3719 -0.8001  0.2686
12042WAT     H148874   3.057   1.074   2.492  2.6572  2.1191  0.9771
12042WAT     H248875   3.006   1.173   2.412 -0.2753  0.7908  1.0551
12042WAT    EPW48876   3.005   1.131   2.478  0.8873 -0.4745 -0.7741
12043WAT      O48877   1.346   7.751   0.653 -0.3541  0.0526  0.0072
12043WAT     H148878   1.340   7.816   0.711 -1.2262  0.0488 -0.0606
12043WAT     H248879   1.301   7.686   0.691 -0.1856 -0.2342 -0.2837
12043WAT    EPW48880   1.338   7.751   0.668  0.1842 -0.7336 -0.4128
12044WAT      O48881   0.299   0.084   1.796  0.4506 -0.0913 -0.2261
12044WAT     H148882   0.284  -0.001   1.789 -0.9433  0.0280  0.9210
12044WAT     H248883   0.299   0.098   1.882  0.4704  1.0984 -0.4008
12044WAT    EPW48884   0.297   0.074   1.807 -0.0114  0.2887  0.1025
12045WAT      O48885   0.543   6.920   1.559 -0.4257 -0.0162 -0.2951
12045WAT     H148886   0.487   6.921   1.626  0.4182 -0.4262  0.4470
12045WAT     H248887   0.527   6.844   1.520 -1.1376  0.3640 -0.7664
12045WAT    EPW48888   0.532   6.909   1.563 -0.0334  0.3272  0.2006
12046WAT      O48889   0.875   0.505   1.744  0.1424  0.3284  0.7917
12046WAT     H148890   0.802   0.458   1.739  1.4781 -2.0945  2.3369
12046WAT     H248891   0.895   0.503   1.829  2.5006  0.0429  0.3065
12046WAT    EPW48892   0.867   0.498   1.755 -0.1430  0.0335  0.0794
12047WAT      O48893   2.042   7.320   0.680  0.1462 -0.0958  0.1106
12047WAT     H148894   2.108   7.334   0.624 -0.5143 -0.1787 -0.7210
12047WAT     H248895   1.999   7.396   0.680  0.8944  0.3530  1.5751
12047WAT    EPW48896   2.046   7.333   0.671 -0.6102  0.2851  0.0103
12048WAT      O48897   3.199   0.057   1.108 -0.3064  0.0965 -0.1691
12048WAT     H148898   3.210   0.116   1.172  1.1144 -1.1609  0.8225
12048WAT     H248899   3.153  -0.007   1.146 -0.1717 -0.2967 -0.6560
12048WAT    EPW48900   3.194   0.056   1.123 -0.1848  0.4727 -0.3936
12049WAT      O48901   1.854   0.673   2.535  0.5877  0.3164 -0.3778
12049WAT     H148902   1.933   0.708   2.550  0.4392  1.0955 -1.3350
12049WAT     H248903   1.805   0.707   2.599  1.3476 -1.4699  1.2508
12049WAT    EPW48904   1.858   0.683   2.547 -0.0179 -0.8437 -0.2136
12050WAT      O48905   0.736   0.277   0.182 -0.2680 -0.0318  0.3713
12050WAT     H148906   0.694   0.346   0.148 -0.9782  0.1296  1.4990
12050WAT     H248907   0.796   0.313   0.233 -0.2538 -0.2470  0.5073
12050WAT    EPW48908   0.738   0.292   0.185 -0.5814 -0.3901  0.0058
12051WAT      O48909   2.652   7.274   0.049  0.8362  0.0246  0.0973
12051WAT     H148910   2.591   7.315   0.002 -0.1487 -0.2157  1.1181
12051WAT     H248911   2.727   7.300   0.013  0.1246 -0.2511 -1.6675
12051WAT    EPW48912   2.654   7.284   0.037  0.2173 -0.8390 -0.2983
12052WAT      O48913   1.025   1.746   2.574  0.6127 -0.5246  0.2889
12052WAT     H148914   1.033   1.660   2.558  1.1615 -0.5741  0.7641
12052WAT     H248915   1.061   1.754   2.654  1.2788  0.2696 -0.0779
12052WAT    EPW48916   1.032   1.734   2.584 -0.3344  0.4246  0.0929
12053WAT      O48917   3.173   0.135   1.575 -0.1586 -0.2471 -0.3716
12053WAT     H148918   3.115   0.193   1.546  0.6578  0.5467 -0.4614
12053WAT     H248919   3.247   0.159   1.535  1.0447  0.9053  2.2866
12053WAT    EPW48920   3.176   0.147   1.565 -0.4089  0.9820 -0.6774
12054WAT      O48921   3.219   7.709   1.173  0.3716  0.5367 -0.8219
12054WAT     H148922   3.164   7.771   1.146 -0.2331 -0.2923 -1.5428
12054WAT     H248923   3.297   7.740   1.152  0.2386  1.8554  0.4552
12054WAT    EPW48924   3.222   7.723   1.166  0.2831 -0.1274  0.1322
12055WAT      O48925   1.740   7.302   1.928 -0.4654  0.1661 -0.2231
12055WAT     H148926   1.762   7.302   2.013  0.4134  0.9676 -0.4366
12055WAT     H248927   1.815   7.320   1.888 -0.5474 -1.6148 -1.2803
12055WAT    EPW48928   1.754   7.305   1.935  0.3590 -0.3549 -0.0085
12056WAT      O48929   1.472   7.569   2.297 -0.7786 -0.2250  0.4123
12056WAT     H148930   1.488   7.564   2.211  0.5100 -2.1696  0.7063
12056WAT     H248931   1.542   7.609   2.329 -1.7866  1.5693  0.4676
12056WAT    EPW48932   1.485   7.574   2.289 -0.7233 -0.2281  0.0594
12057WAT      O48933   1.539   0.648   3.304 -0.2319  0.6029 -0.4749
12057WAT     H148934   1.623   0.626   3.302 -0.4775 -0.3157 -0.7609
12057WAT     H248935   1.539   0.725   3.347  0.6233  0.0560  0.5536
12057WAT    EPW48936   1.551   0.656   3.310  0.4483  0.3481 -0.5692
12058WAT      O48937   2.990   6.824   1.060 -0.2839 -0.6999 -0.3260
12058WAT     H148938   3.041   6.871   1.007  0.6189 -0.7575  0.4729
12058WAT     H248939   3.022   6.743   1.054  0.8861 -0.4386  1.4871
12058WAT    EPW48940   3.002   6.819   1.051 -0.4645 -0.5771  0.0511
12059WAT      O48941   0.741   7.728   2.132 -0.4103  0.0218  0.4285
12059WAT     H148942   0.818   7.720   2.171 -0.4772 -1.6436  0.2892
12059WAT     H248943   0.761   7.730   2.047 -0.5345 -1.2920  0.3440
12059WAT    EPW48944   0.755   7.727   2.125  0.1004  0.0701 -0.7783
12060WAT      O48945   1.129   1.108   1.139 -0.2649 -0.1612  0.1308
12060WAT     H148946   1.109   1.099   1.223  1.6285 -1.3014  0.5166
12060WAT     H248947   1.207   1.147   1.140  0.6407 -1.8246 -0.9882
12060WAT    EPW48948   1.137   1.113   1.151 -0.6308 -0.7133 -1.0412
12061WAT      O48949   1.953   2.743   0.875 -0.0796 -0.0295  0.1648
12061WAT     H148950   2.005   2.745   0.945 -0.6353 -1.3184  0.6287
12061WAT     H248951   1.957   2.660   0.849 -1.0159  0.1135 -0.4729
12061WAT    EPW48952   1.961   2.731   0.881 -1.1350  0.5610  0.7070
12062WAT      O48953   2.450   0.751   2.158  0.0949  0.3430 -0.0274
12062WAT     H148954   2.460   0.671   2.124 -0.8030 -0.5295  1.6460
12062WAT     H248955   2.531   0.784   2.156  0.3043 -0.1807 -1.6794
12062WAT    EPW48956   2.463   0.744   2.153  0.0191 -0.5813  0.2038
12063WAT      O48957   1.697   0.434   0.792  1.0553 -0.3764 -0.1110
12063WAT     H148958   1.718   0.436   0.877  2.1614 -1.0495 -0.3587
12063WAT     H248959   1.684   0.349   0.776 -1.5954 -0.0868 -0.0731
12063WAT    EPW48960   1.698   0.422   0.803 -0.5120 -0.4507 -0.7653
12064WAT      O48961   2.467   7.828   2.022  0.0121  0.2109  0.0827
12064WAT     H148962   2.546   7.795   2.006 -0.1869  0.1430 -0.7925
12064WAT     H248963   2.438   7.779   2.089  0.6381  0.1276  0.2980
12064WAT    EPW48964   2.474   7.816   2.029  0.0599 -0.1884 -0.7132
12065WAT      O48965   1.658   7.711   1.640 -0.4783  0.7647 -0.1683
12065WAT     H148966   1.592   7.757   1.607 -1.2892  0.5870  1.1269
12065WAT     H248967   1.618   7.645   1.681  0.5231  0.4916  0.3947
12065WAT    EPW48968   1.642   7.708   1.641 -1.2199 -0.8690 -0.1773
12066WAT      O48969   0.979   0.253   0.948  0.3763 -0.3969 -0.3332
12066WAT     H148970   0.892   0.254   0.952  0.4201  0.8235  1.1367
12066WAT     H248971   1.001   0.183   0.995  0.2082 -1.1720 -1.3601
12066WAT    EPW48972   0.970   0.242   0.955 -0.4133  0.8528 -0.4805
12067WAT      O48973   0.419   0.545   2.360 -0.6019 -0.4281  0.6472
12067WAT     H148974   0.347   0.495   2.364 -0.7298 -0.2353  0.7965
12067WAT     H248975   0.408   0.602   2.426 -0.8730  0.3546 -0.0504
12067WAT    EPW48976   0.407   0.546   2.371  0.2477 -0.6456  0.8009
12068WAT      O48977   2.272   1.872   7.927  0.3684 -0.2206 -0.5419
12068WAT     H148978   2.328   1.936   7.908  0.5700  0.0307  0.8299
12068WAT     H248979   2.283   1.859   8.012 -0.7314 -1.0757 -0.5032
12068WAT    EPW48980   2.282   1.879   7.937 -0.2820  0.5278 -0.6781
12069WAT      O48981   1.721   7.883   0.477 -0.1259 -0.3138  0.6970
12069WAT     H148982   1.671   7.897   0.407 -0.0022  1.8111  0.9815
12069WAT     H248983   1.790   7.935   0.464  1.0793 -1.6650  1.2896
12069WAT    EPW48984   1.724   7.893   0.465  0.3976 -0.0560  0.2822
12070WAT      O48985   0.658   0.536   0.383 -0.3601 -0.7963 -0.1077
12070WAT     H148986   0.633   0.593   0.322  0.0097 -0.7185 -0.1856
12070WAT     H248987   0.727   0.496   0.348  1.0847  0.5992  1.0085
12070WAT    EPW48988   0.664   0.538   0.369 -0.5042 -0.3603 -1.2417
12071WAT      O48989   1.825   2.159   0.590  0.3379  0.7826 -0.2798
12071WAT     H148990   1.885   2.213   0.557 -0.2753  1.2221 -0.6850
12071WAT     H248991   1.750   2.198   0.570 -0.0675  0.7149  1.0336
12071WAT    EPW48992   1.823   2.173   0.582 -1.0026  0.2943 -0.6121
12072WAT      O48993   2.685   0.354   0.851  0.0117 -0.3573  0.5499
12072WAT     H148994   2.722   0.340   0.773 -0.6885 -2.0155  0.4640
12072WAT     H248995   2.698   0.439   0.865  1.5610 -0.3500 -0.6323
12072WAT    EPW48996   2.692   0.364   0.842 -0.3286 -0.2350  0.8629
12073WAT      O48997   1.183   1.142   1.663  0.4479 -0.2276 -0.1691
12073WAT     H148998   1.226   1.097   1.601 -1.0460  0.2248 -1.6043
12073WAT     H248999   1.197   1.225   1.641  0.5281 -0.0463  0.5634
12073WAT    EPW49000   1.192   1.147   1.650 -0.3826  0.1626 -0.1616
12074WAT      O49001   0.432   1.686   8.054  0.2187 -0.1580 -0.0808
12074WAT     H149002   0.407   1.602   8.051  2.9189 -1.0845  0.2232
12074WAT     H249003   0.363   1.729   8.023 -1.6844 -2.3687  0.7754
12074WAT    EPW49004   0.418   1.680   8.049  0.1102 -0.4151 -0.5588
12075WAT      O49005   3.185   1.551   1.583  0.3945 -0.5449 -0.1208
12075WAT     H149006   3.260   1.520   1.549 -0.2899 -1.2613 -1.0405
12075WAT     H249007   3.127   1.536   1.520 -0.5724 -0.1858  0.6633
12075WAT    EPW49008   3.188   1.544   1.569 -0.2725  0.1877 -0.2668
12076WAT      O49009   0.298   0.738   0.221 -0.0200  0.3039 -0.0395
12076WAT     H149010   0.222   0.780   0.215  0.2915  0.8584 -0.2247
12076WAT     H249011   0.280   0.657   0.194 -0.8447  0.0421  1.2345
12076WAT    EPW49012   0.284   0.733   0.216 -0.2035 -0.8537 -0.6078
12077WAT      O49013   2.251   7.593   7.723 -0.5371  0.0826 -0.2224
12077WAT     H149014   2.242   7.648   7.657  0.7607  0.1319 -0.3842
12077WAT     H249015   2.218   7.637   7.791 -0.8755  0.4611 -0.6235
12077WAT    EPW49016   2.244   7.607   7.724  0.4189  0.0064 -0.0663
12078WAT      O49017   0.640   1.662   1.044 -0.3070 -0.6293  0.5748
12078WAT     H149018   0.567   1.619   1.021 -0.3384 -1.3109  1.8678
12078WAT     H249019   0.704   1.608   1.018 -0.1609  0.4231 -1.5006
12078WAT    EPW49020   0.639   1.648   1.037 -0.2314 -0.4801  0.2617
12079WAT      O49021   2.198   0.956   0.617 -0.2027  0.3048  0.3496
12079WAT     H149022   2.142   1.012   0.580 -0.0938  0.9761  1.1505
12079WAT     H249023   2.169   0.878   0.592 -2.1619  0.5605  1.5629
12079WAT    EPW49024   2.185   0.953   0.608 -0.4314 -0.2304 -0.0577
12080WAT      O49025   1.908   0.801   0.991  0.6116  0.3820 -0.1163
12080WAT     H149026   1.889   0.802   1.077  0.4057 -0.8167 -0.1312
12080WAT     H249027   1.897   0.884   0.967 -1.9901  0.2930  0.4465
12080WAT    EPW49028   1.903   0.814   1.000 -0.6004  0.2207  0.3606
12081WAT      O49029   3.635   1.549   0.390  0.2263  0.0760 -0.1818
12081WAT     H149030   3.607   1.569   0.470 -1.9320 -0.6802 -0.6789
12081WAT     H249031   3.634   1.462   0.389  1.3674  0.0504 -0.6906
12081WAT    EPW49032   3.631   1.539   0.402  0.5675  0.8517 -0.1808
12082WAT      O49033   2.218   0.300   6.924  0.6081  0.1538 -0.2779
12082WAT     H149034   2.235   0.386   6.925  1.1535  0.0583  0.8365
12082WAT     H249035   2.290   0.265   6.958  2.0050 -1.1093 -4.0672
12082WAT    EPW49036   2.231   0.308   6.929 -0.4323  0.1847 -1.4744
12083WAT      O49037   1.501   2.040   2.235 -0.2022  0.2218 -0.0129
12083WAT     H149038   1.428   2.014   2.275 -1.1452 -0.6398 -2.1599
12083WAT     H249039   1.546   2.080   2.299 -1.6804 -0.8689  1.8237
12083WAT    EPW49040   1.497   2.042   2.251  0.3477  0.0971  0.0449
12084WAT      O49041   2.132   0.417   7.903 -0.2033 -0.5789  0.1705
12084WAT     H149042   2.203   0.459   7.931  0.1970 -1.1725  0.0713
12084WAT     H249043   2.148   0.403   7.819 -0.8801  0.1482 -0.0883
12084WAT    EPW49044   2.145   0.421   7.895  0.2028  0.7530  0.3215
12085WAT      O49045   1.917   6.991   7.972  0.3760 -0.3551 -0.2019
12085WAT     H149046   1.837   7.025   7.963  0.6500  0.3609 -0.0080
12085WAT     H249047   1.961   7.054   8.013  1.3533 -0.2641 -1.3584
12085WAT    EPW49048   1.911   7.005   7.977  0.3502  0.2489 -0.1308
12086WAT      O49049   1.612   7.645   0.615  0.0488 -0.0340  0.2246
12086WAT     H149050   1.661   7.704   0.574 -0.2501 -1.0834 -1.7535
12086WAT     H249051   1.533   7.682   0.618  0.5620  1.0661  2.1607
12086WAT    EPW49052   1.608   7.659   0.610 -0.5886  0.3476 -0.5896
12087WAT      O49053   0.510   1.298   1.903  0.3053 -0.3357 -0.3970
12087WAT     H149054   0.535   1.342   1.974 -2.7504 -1.9308  1.9566
12087WAT     H249055   0.435   1.338   1.880  0.3735 -0.9045 -1.6664
12087WAT    EPW49056   0.502   1.310   1.910 -0.9035 -0.3312 -0.5230
12088WAT      O49057   3.035   0.837   7.354 -0.6676 -0.4072  0.4114
12088WAT     H149058   3.042   0.834   7.441  0.8092  0.6091  0.3761
12088WAT     H249059   3.068   0.916   7.334 -1.4771 -0.4115 -1.0291
12088WAT    EPW49060   3.041   0.848   7.364 -0.1360  0.2670  0.2748
12089WAT      O49061   1.656   0.989   0.479 -0.7156 -0.3223  0.1982
12089WAT     H149062   1.719   0.930   0.473 -1.5542 -1.2180 -0.1793
12089WAT     H249063   1.676   1.034   0.551 -0.3360 -1.4061  0.7876
12089WAT    EPW49064   1.668   0.987   0.489  0.3388  0.0871  0.2638
12090WAT      O49065   1.759   7.614   0.844 -0.3567  0.1428 -0.0661
12090WAT     H149066   1.838   7.614   0.808 -0.3503 -1.6590 -0.1388
12090WAT     H249067   1.708   7.648   0.781  0.5140  2.7782  0.5351
12090WAT    EPW49068   1.763   7.619   0.829 -0.0645 -0.6144 -0.2384
12091WAT      O49069   8.037   1.658   0.055  0.7271 -0.3595 -0.2805
12091WAT     H149070   8.031   1.736   0.017  1.3152 -0.4513 -0.5670
12091WAT     H249071   8.117   1.659   0.090  1.1426 -1.2394 -1.1851
12091WAT    EPW49072   8.048   1.670   0.055 -0.2378 -0.0530 -0.7988
12092WAT      O49073   1.573   1.902   0.878  0.1915 -0.4644 -0.1346
12092WAT     H149074   1.628   1.969   0.877 -0.3390 -0.0194 -0.7875
12092WAT     H249075   1.621   1.836   0.846  0.6634 -0.3612  0.3490
12092WAT    EPW49076   1.588   1.902   0.873 -0.3883 -0.3775 -0.6796
12093WAT      O49077   2.431   2.163   1.036 -0.3978 -0.8262 -0.6991
12093WAT     H149078   2.429   2.230   1.091 -1.3566 -0.7145 -0.8452
12093WAT     H249079   2.515   2.156   1.013 -0.3626  0.6385 -1.0754
12093WAT    EPW49080   2.443   2.172   1.041  0.3895 -0.0462 -0.1713
12094WAT      O49081   3.667   6.755   7.736 -0.1460  0.5392  0.3487
12094WAT     H149082   3.688   6.700   7.672  4.1043  0.1323  1.7526
12094WAT     H249083   3.661   6.832   7.696  3.2398  0.4494 -0.6468
12094WAT    EPW49084   3.670   6.758   7.721 -0.3907  0.2838 -0.1900
12095WAT      O49085   2.028   1.504   7.397 -0.0020 -0.5238  0.4509
12095WAT     H149086   2.057   1.577   7.360 -0.8587 -0.2838  0.2291
12095WAT     H249087   2.100   1.464   7.424  0.5715 -0.2528 -0.6446
12095WAT    EPW49088   2.043   1.508   7.396  0.0158 -0.5323 -0.0447
12096WAT      O49089   2.124   7.853   0.658 -1.1415  0.1864 -0.1566
12096WAT     H149090   2.173   7.896   0.717  0.4137 -0.9669 -0.5347
12096WAT     H249091   2.065   7.913   0.633 -0.0702  1.5819  0.4901
12096WAT    EPW49092   2.123   7.868   0.663 -0.3636 -0.3632 -0.3092
12097WAT      O49093   1.097   7.673   0.055  0.4466  0.1280  0.1590
12097WAT     H149094   1.101   7.727  -0.014  0.9568  1.4750  1.1974
12097WAT     H249095   1.181   7.655   0.071  0.2671 -1.2832 -0.3780
12097WAT    EPW49096   1.110   7.678   0.047 -0.6922  0.2599 -0.0772
12098WAT      O49097   1.284   8.015   1.394 -0.0295 -0.3305 -0.0795
12098WAT     H149098   1.206   8.021   1.434  1.0451  0.7342  2.0244
12098WAT     H249099   1.320   8.094   1.408  1.3820 -0.7378 -1.1686
12098WAT    EPW49100   1.277   8.028   1.402  0.0140  0.1677 -0.4211
12099WAT      O49101   2.148   1.222   0.829  0.3523  0.6134 -0.2392
12099WAT     H149102   2.142   1.222   0.741 -0.8482 -0.8075 -0.1907
12099WAT     H249103   2.223   1.180   0.844  0.5410  0.8194 -0.5912
12099WAT    EPW49104   2.158   1.216   0.818 -0.4588  0.2162  0.6223
12100WAT      O49105   2.196   7.757   7.527 -0.7462  0.1838  0.5571
12100WAT     H149106   2.137   7.781   7.467 -1.5854  0.2541  1.3753
12100WAT     H249107   2.228   7.833   7.557  1.1228  0.1320 -1.1362
12100WAT    EPW49108   2.192   7.772   7.523 -0.4476 -0.5076 -0.3947
12101WAT      O49109   3.202   1.362   8.041 -0.3694  0.4113  0.0939
12101WAT     H149110   3.264   1.397   8.090 -1.1521  1.7835  0.1493
12101WAT     H249111   3.243   1.298   7.998  0.7376  0.3735  1.1644
12101WAT    EPW49112   3.217   1.358   8.041 -0.1966 -0.0102 -0.1848
12102WAT      O49113   1.197   0.618   8.018  0.3420 -0.3051 -0.0817
12102WAT     H149114   1.196   0.550   7.964  1.0403  0.3252 -0.9216
12102WAT     H249115   1.280   0.622   8.045 -0.0179 -0.6813  1.1565
12102WAT    EPW49116   1.209   0.609   8.014 -0.7335  0.0859  0.1481
12103WAT      O49117   1.599   7.178   1.280 -0.0767  0.4707  0.3198
12103WAT     H149118   1.646   7.248   1.261 -1.3854  1.0820 -0.8496
12103WAT     H249119   1.621   7.120   1.219  0.9146 -0.1350  1.2124
12103WAT    EPW49120   1.609   7.180   1.268 -0.1733 -0.3853  0.5615
12104WAT      O49121   1.250   1.110   7.786 -0.5523  0.3127 -0.7408
12104WAT     H149122   1.175   1.150   7.764 -0.8768 -0.0920 -0.4019
12104WAT     H249123   1.231   1.025   7.776 -0.5446  0.1450  0.5501
12104WAT    EPW49124   1.236   1.103   7.781  0.6941  0.4177 -0.5328
12105WAT      O49125   2.812   1.205   7.376 -0.2947  0.2249 -0.0926
12105WAT     H149126   2.793   1.178   7.457 -3.4050 -0.0506 -0.7679
12105WAT     H249127   2.755   1.161   7.326  0.3493  1.6550 -2.2391
12105WAT    EPW49128   2.801   1.195   7.380  0.2525  0.1290 -0.5976
12106WAT      O49129   2.292   0.603   0.848  0.2499  0.2306  0.4550
12106WAT     H149130   2.315   0.599   0.932  0.8273  0.4129  0.3112
12106WAT     H249131   2.332   0.675   0.819 -1.7098  1.4250  0.5433
12106WAT    EPW49132   2.301   0.613   0.856  0.7853  0.0531 -0.1888
12107WAT      O49133   2.466   6.791   0.721 -0.5602 -0.7516 -0.0677
12107WAT     H149134   2.385   6.816   0.698  0.1353 -0.0098 -1.8818
12107WAT     H249135   2.490   6.849   0.780 -0.3011  0.8410 -1.6621
12107WAT    EPW49136   2.457   6.803   0.726 -0.2537  0.2922  0.7869
12108WAT      O49137   2.019   1.346   1.400  0.2134 -0.0583  1.0137
12108WAT     H149138   1.939   1.324   1.373 -0.2465  0.7080  1.7025
12108WAT     H249139   2.071   1.313   1.338 -0.6874  0.1624  0.1135
12108WAT    EPW49140   2.015   1.338   1.386 -0.0573 -0.3691  0.7451
12109WAT      O49141   1.194   0.337   0.411  0.2087 -0.0075 -0.0473
12109WAT     H149142   1.225   0.334   0.329 -0.5076  0.7503 -0.3558
12109WAT     H249143   1.157   0.258   0.421  1.4930 -0.6246  0.0493
12109WAT    EPW49144   1.193   0.325   0.400 -0.2837 -0.7316  1.1273
12110WAT      O49145   2.415   1.461   0.714 -0.4892 -0.2048 -0.5092
12110WAT     H149146   2.469   1.529   0.703 -0.7888  0.4172  1.4554
12110WAT     H249147   2.434   1.409   0.647  2.2721  0.1748 -0.1462
12110WAT    EPW49148   2.425   1.463   0.703 -0.1357  0.1831  0.2551
12111WAT      O49149   2.806   0.213   0.620 -0.0539  0.3224 -0.2736
12111WAT     H149150   2.723   0.193   0.602  0.1246 -0.3840 -0.3410
12111WAT     H249151   2.844   0.136   0.630  0.2102  0.6370  1.6220
12111WAT    EPW49152   2.800   0.199   0.619  0.2192 -0.7613  0.2589
12112WAT      O49153   0.148   0.456   0.096  0.8784  0.0811  0.0089
12112WAT     H149154   0.080   0.508   0.080  1.2231  1.0245  1.3685
12112WAT     H249155   0.114   0.376   0.095 -0.4988  0.5911  1.6239
12112WAT    EPW49156   0.133   0.452   0.094 -0.5910 -0.4820 -0.4281
12113WAT      O49157   1.110   8.024   0.742  0.2836  0.2141 -0.1811
12113WAT     H149158   1.161   8.065   0.684 -0.2211  2.5182  0.8689
12113WAT     H249159   1.158   8.024   0.815 -0.8962  1.8536  0.6564
12113WAT    EPW49160   1.125   8.030   0.744  0.0042  0.4287 -0.2008
12114WAT      O49161   3.073   1.374   0.826 -0.3770 -0.3442 -0.3285
12114WAT     H149162   3.069   1.333   0.749  0.4365  0.0116 -0.5698
12114WAT     H249163   3.075   1.459   0.804  2.3745 -0.2680 -0.0814
12114WAT    EPW49164   3.073   1.381   0.811 -0.3621 -0.5377 -0.3908
12115WAT      O49165   1.645   1.512   1.359  0.0696 -0.2256  0.3139
12115WAT     H149166   1.594   1.532   1.427 -1.5560  0.7794 -1.1255
12115WAT     H249167   1.679   1.434   1.381 -2.6125 -1.2873  1.0809
12115WAT    EPW49168   1.643   1.503   1.372 -0.4301  0.2641 -0.5328
12116WAT      O49169   0.742   7.473   1.625  0.1558  0.0556 -0.0413
12116WAT     H149170   0.659   7.454   1.606  0.2899 -1.1478  0.4615
12116WAT     H249171   0.787   7.411   1.584  0.8556  1.0122 -0.7509
12116WAT    EPW49172   0.736   7.461   1.617 -0.0625 -0.2631  0.6091
12117WAT      O49173   0.792   0.291   3.075 -0.0212 -0.3838 -0.1659
12117WAT     H149174   0.777   0.286   2.989 -0.4350 -1.7395 -0.0389
12117WAT     H249175   0.803   0.376   3.089 -0.2331 -0.1112 -1.5138
12117WAT    EPW49176   0.792   0.303   3.064 -0.2439 -0.6077 -0.4080
12118WAT      O49177   2.212   0.688   0.260 -0.0511  0.7272 -0.1431
12118WAT     H149178   2.187   0.687   0.343  0.2521 -0.8256 -0.0332
12118WAT     H249179   2.284   0.737   0.261  1.3043 -1.1371  1.0001
12118WAT    EPW49180   2.219   0.695   0.272  0.2686  0.6287 -0.3350
12119WAT      O49181   1.888   1.896   1.903 -0.3556  0.4498 -0.1081
12119WAT     H149182   1.890   1.814   1.875 -0.6210  0.6196 -0.6243
12119WAT     H249183   1.834   1.893   1.972  1.2047 -0.1831  1.1215
12119WAT    EPW49184   1.880   1.884   1.909 -0.3379 -1.0838 -0.3524
12120WAT      O49185   3.068   1.531   1.313 -0.1854 -0.2893 -1.2174
12120WAT     H149186   3.003   1.486   1.276 -0.0618  0.0449 -1.8578
12120WAT     H249187   3.132   1.526   1.253  0.0276  0.2411 -1.0327
12120WAT    EPW49188   3.068   1.523   1.298 -0.0065 -0.2782 -0.2124
12121WAT      O49189   0.367   7.769   1.123  0.7155 -0.0334  0.4599
12121WAT     H149190   0.447   7.805   1.129  0.4293  0.4830  1.3920
12121WAT     H249191   0.317   7.822   1.171  0.1256 -1.2474  1.2296
12121WAT    EPW49192   0.372   7.782   1.131  0.8248  0.3519  0.1513
12122WAT      O49193   1.629   1.075   0.220  0.0416  0.2692 -0.1481
12122WAT     H149194   1.643   1.081   0.306  0.3116 -0.1076 -0.1646
12122WAT     H249195   1.583   1.147   0.202 -0.1016  0.3012  0.3280
12122WAT    EPW49196   1.625   1.086   0.230  0.5746 -1.2395  0.6048
12123WAT      O49197   0.612   7.888   0.732 -0.0672 -0.0027 -0.0275
12123WAT     H149198   0.594   7.931   0.658  0.0555 -0.3013 -0.2327
12123WAT     H249199   0.698   7.877   0.729 -0.2488 -1.3741 -0.5965
12123WAT    EPW49200   0.622   7.893   0.721 -0.8950 -0.5323  0.2031
12124WAT      O49201   1.548   1.349   0.518  1.3291 -0.1061  0.3668
12124WAT     H149202   1.560   1.435   0.531 -0.0882 -0.0559  1.7248
12124WAT     H249203   1.608   1.312   0.568  1.3442  0.0965  0.5018
12124WAT    EPW49204   1.558   1.356   0.527  0.7709 -0.9038  0.8985
12125WAT      O49205   0.160   0.983   0.651 -0.3099  0.5773 -0.4429
12125WAT     H149206   0.192   1.063   0.645 -1.6183  1.1334 -0.3897
12125WAT     H249207   0.189   0.955   0.729  2.1410  0.0337 -1.4720
12125WAT    EPW49208   0.169   0.991   0.662 -0.3154  0.0714 -0.4010
12126WAT      O49209   2.735   0.659   7.473  0.4273  0.2977 -0.2915
12126WAT     H149210   2.777   0.587   7.500 -1.2145 -0.0633  1.4900
12126WAT     H249211   2.781   0.684   7.403  1.7828 -1.7705 -0.2295
12126WAT    EPW49212   2.748   0.652   7.466 -0.6704 -0.1972 -0.1324
12127WAT      O49213   2.891   0.346   0.378  0.3250  0.5522  0.7369
12127WAT     H149214   2.892   0.293   0.309  0.4878  1.9661 -0.3847
12127WAT     H249215   2.864   0.294   0.443 -2.4082 -0.2283 -0.8591
12127WAT    EPW49216   2.887   0.330   0.377 -0.6067 -0.0623  0.3600
12128WAT      O49217   0.188   2.440   0.762 -0.0199 -0.0418 -0.5932
12128WAT     H149218   0.103   2.424   0.765  0.2827 -1.7174  0.8082
12128WAT     H249219   0.193   2.525   0.743 -2.0383  0.4433  0.7731
12128WAT    EPW49220   0.176   2.450   0.759 -0.3915 -0.2287  0.8116
12129WAT      O49221   1.916   1.638   0.953  0.2049 -0.1210 -0.4420
12129WAT     H149222   1.920   1.669   1.034 -0.1632  1.3750 -0.9681
12129WAT     H249223   1.980   1.579   0.951  0.3338 -0.0662  0.8740
12129WAT    EPW49224   1.926   1.634   0.965  0.4561 -0.2260 -0.5212
12130WAT      O49225   2.265   5.729   6.936  0.2392 -0.2110 -0.0707
12130WAT     H149226   2.214   5.740   7.006 -0.4826  1.7828 -0.8279
12130WAT     H249227   2.334   5.686   6.967 -0.4554 -0.1652  1.6663
12130WAT    EPW49228   2.267   5.725   6.951  0.4573 -0.4081 -0.5383
12131WAT      O49229   1.765   6.919   0.431 -0.1975 -0.7707  0.8257
12131WAT     H149230   1.825   6.961   0.478  0.5072  0.7670 -1.2956
12131WAT     H249231   1.806   6.847   0.404  0.7193  0.2471 -0.5700
12131WAT    EPW49232   1.780   6.915   0.434 -0.7402 -0.1414 -0.1982
12132WAT      O49233   2.850   6.725   6.823  0.3631 -0.1906  0.2827
12132WAT     H149234   2.905   6.657   6.816  2.1286  1.3015 -1.6643
12132WAT     H249235   2.811   6.726   6.745  0.6505  1.2158  0.1439
12132WAT    EPW49236   2.852   6.715   6.811  0.3550 -0.9131 -0.8672
12133WAT      O49237   2.690   0.430   7.088 -0.5365  0.3806  0.0354
12133WAT     H149238   2.704   0.346   7.103 -1.2664  0.2185 -0.1611
12133WAT     H249239   2.627   0.451   7.146  0.1879  0.9862  0.6347
12133WAT    EPW49240   2.683   0.421   7.099  0.0173  0.3342 -0.4962
12134WAT      O49241   2.689   7.474   6.363 -0.0122  0.0685 -0.4336
12134WAT     H149242   2.705   7.516   6.438  0.1330  0.9433 -0.9407
12134WAT     H249243   2.762   7.484   6.318 -0.1582 -0.3148 -0.7531
12134WAT    EPW49244   2.702   7.482   6.368 -0.1432  0.6748  0.2937
12135WAT      O49245   2.283   6.728   4.908 -0.7752  0.2629 -0.2656
12135WAT     H149246   2.269   6.648   4.877  0.4115  0.5339 -1.6035
12135WAT     H249247   2.261   6.780   4.842 -1.8086  1.0831  0.6872
12135WAT    EPW49248   2.278   6.724   4.894 -0.2191 -0.0057 -0.1724
12136WAT      O49249   1.876   6.740   5.041 -0.1743 -0.3898 -0.2733
12136WAT     H149250   1.871   6.654   5.051 -1.4170 -0.4983 -1.5312
12136WAT     H249251   1.896   6.750   4.956  1.7783  0.5502  0.2510
12136WAT    EPW49252   1.878   6.729   5.030 -0.6806 -0.2020  0.0033
12137WAT      O49253   1.652   6.905   7.162  0.6299 -0.3351  0.4743
12137WAT     H149254   1.662   6.901   7.075 -0.9354 -2.1567  0.3309
12137WAT     H249255   1.725   6.946   7.188  0.0343  2.6679 -1.8640
12137WAT    EPW49256   1.664   6.911   7.153 -0.7068 -0.3707  0.9784
12138WAT      O49257   2.621   5.814   7.138 -0.1874 -0.2362  0.0175
12138WAT     H149258   2.617   5.865   7.067  2.5786  0.2762  0.0904
12138WAT     H249259   2.576   5.743   7.115 -1.3801  0.8942 -1.3202
12138WAT    EPW49260   2.614   5.811   7.124  0.6127  0.8958 -0.3816
12139WAT      O49261   1.821   0.292   7.760 -0.0786 -0.5624  0.4584
12139WAT     H149262   1.806   0.373   7.788  0.7569 -0.5641  0.9439
12139WAT     H249263   1.874   0.259   7.820  0.5323 -1.0827 -0.3489
12139WAT    EPW49264   1.826   0.299   7.773  0.6387  0.5168 -0.2250
12140WAT      O49265   2.376   7.106   7.139  0.0378 -0.8167 -0.1652
12140WAT     H149266   2.427   7.065   7.197 -0.3777 -1.1840 -0.0645
12140WAT     H249267   2.423   7.103   7.066  0.0816 -1.3274 -0.1207
12140WAT    EPW49268   2.391   7.100   7.137 -0.0516  0.0698 -0.7167
12141WAT      O49269   2.331   6.846   0.066  0.4733  0.1034 -0.6592
12141WAT     H149270   2.255   6.887   0.079  1.3593  2.8154 -2.9366
12141WAT     H249271   2.390   6.905   0.091  1.9473 -2.0067  1.2479
12141WAT    EPW49272   2.328   6.861   0.072  0.4312  0.3015  0.2167
12142WAT      O49273   3.172   7.414   7.399  0.0896  0.1872 -0.5640
12142WAT     H149274   3.128   7.420   7.324  0.8840  0.6091 -1.0142
12142WAT     H249275   3.153   7.334   7.428 -3.7726  1.4776  1.0754
12142WAT    EPW49276   3.163   7.403   7.392  0.3699 -0.6733  0.1153
12143WAT      O49277   1.907   5.940   7.651 -0.0859 -0.0870  0.1715
12143WAT     H149278   1.876   5.919   7.573  2.0923  1.0180 -1.0746
12143WAT     H249279   1.984   5.977   7.634  0.7874 -0.4100  2.8892
12143WAT    EPW49280   1.913   5.942   7.637 -0.1635  0.5852 -0.4120
12144WAT      O49281   1.945   7.598   7.167 -0.0181 -0.5202 -0.0454
12144WAT     H149282   2.007   7.564   7.115  1.1367 -1.6068  1.9191
12144WAT     H249283   1.886   7.629   7.111  2.4608  0.9680 -2.0440
12144WAT    EPW49284   1.946   7.597   7.151 -0.8510  0.3622  0.1744
12145WAT      O49285   4.320   7.204   5.364 -0.5792  0.3217  0.2742
12145WAT     H149286   4.305   7.223   5.281 -2.6652  1.6452  0.8918
12145WAT     H249287   4.291   7.274   5.407  1.0303 -0.0491  2.1063
12145WAT    EPW49288   4.314   7.217   5.358  0.2790 -0.3476 -0.6665
12146WAT      O49289   2.370   7.577   5.194 -0.3937 -0.3589 -0.1040
12146WAT     H149290   2.287   7.578   5.166  0.2717 -0.6380 -2.3302
12146WAT     H249291   2.388   7.493   5.204 -0.2687 -0.3167  0.0333
12146WAT    EPW49292   2.360   7.565   5.191  0.5697 -0.6745  0.2598
12147WAT      O49293   2.054   7.095   5.976 -0.5020  0.0781 -0.8816
12147WAT     H149294   2.014   7.167   5.950 -0.7032 -0.4722 -2.1711
12147WAT     H249295   1.990   7.035   5.977 -0.4165 -0.0286  0.5235
12147WAT    EPW49296   2.039   7.096   5.972 -0.7827 -0.0807 -0.3817
12148WAT      O49297   2.247   0.727   7.758  0.2974 -0.5719 -0.6841
12148WAT     H149298   2.326   0.701   7.733  0.0389 -0.7663 -1.3297
12148WAT     H249299   2.248   0.717   7.845  1.3697  0.5458 -0.5498
12148WAT    EPW49300   2.259   0.722   7.767 -0.5707 -0.5136  0.0182
12149WAT      O49301   1.238   7.346   7.733  0.2821  0.6523 -0.2492
12149WAT     H149302   1.294   7.283   7.755  0.1934  0.2271 -1.2146
12149WAT     H249303   1.283   7.396   7.678  0.0364  0.8908 -0.2375
12149WAT    EPW49304   1.253   7.345   7.728 -0.5998  1.2149  0.0072
12150WAT      O49305   2.309   7.367   6.550  0.4115 -0.2088 -0.2609
12150WAT     H149306   2.302   7.374   6.463 -1.6501 -1.2629 -0.2467
12150WAT     H249307   2.233   7.332   6.574  0.9651 -0.0344  1.9827
12150WAT    EPW49308   2.297   7.363   6.541  0.1870  0.5253 -0.5098
12151WAT      O49309   1.923   7.155   7.505 -0.0330 -0.8561 -0.0376
12151WAT     H149310   1.857   7.183   7.555 -0.1050 -0.3600 -0.3974
12151WAT     H249311   1.993   7.172   7.554 -0.1892 -1.8331  0.5506
12151WAT    EPW49312   1.923   7.162   7.520  0.4187 -0.9676  0.6533
12152WAT      O49313   2.692   6.018   5.949  0.5622  0.0645  0.4574
12152WAT     H149314   2.740   6.007   5.877 -0.0715  1.1825 -0.1567
12152WAT     H249315   2.735   6.081   5.993 -0.9781  2.0261 -0.7233
12152WAT    EPW49316   2.706   6.026   5.945 -1.2065 -0.5780 -0.7908
12153WAT      O49317   2.198   7.922   6.898 -0.0502 -0.1488  0.0535
12153WAT     H149318   2.225   7.923   6.981  0.2028 -0.2387 -0.0266
12153WAT     H249319   2.205   7.838   6.875  0.1413 -0.0822 -0.1409
12153WAT    EPW49320   2.203   7.910   6.907 -0.9077  0.3449 -0.0535
12154WAT      O49321   2.550   0.009   5.463 -0.1290 -0.4096  0.4180
12154WAT     H149322   2.536  -0.057   5.407  1.8129 -0.7438  0.2529
12154WAT     H249323   2.547  -0.030   5.541  1.0590 -0.7563  0.3188
12154WAT    EPW49324   2.547  -0.006   5.466 -0.5524 -0.2849  1.2668
12155WAT      O49325   3.602   0.321   7.725 -0.2241 -0.7097  0.4957
12155WAT     H149326   3.603   0.256   7.784  1.9073 -0.6777  0.5621
12155WAT     H249327   3.582   0.280   7.651  0.4772 -1.3657  0.6476
12155WAT    EPW49328   3.599   0.305   7.723  0.8060 -0.6811 -0.0397
12156WAT      O49329   1.724   5.470   7.010 -0.0219 -0.4641  0.1849
12156WAT     H149330   1.779   5.412   6.975 -1.8937 -2.1199 -0.2464
12156WAT     H249331   1.663   5.480   6.948 -1.0863 -0.0434  1.2603
12156WAT    EPW49332   1.723   5.463   6.996  0.2496  0.5455 -0.5912
12157WAT      O49333   2.833   6.498   7.079 -0.2575  0.2674  0.2024
12157WAT     H149334   2.844   6.456   7.154  1.4276 -1.3619 -0.8570
12157WAT     H249335   2.785   6.443   7.031 -1.1725  1.2057  0.0112
12157WAT    EPW49336   2.828   6.484   7.083  0.0752  0.5853 -0.6520
12158WAT      O49337   2.868   5.649   7.685  0.0159  1.3383  0.3158
12158WAT     H149338   2.887   5.640   7.601 -0.1166  0.7060  0.3484
12158WAT     H249339   2.864   5.735   7.696  1.8434  1.4882  0.0959
12158WAT    EPW49340   2.870   5.660   7.674  0.3499  0.0220 -0.1128
12159WAT      O49341   1.807   0.072   6.995  0.4779 -0.3333 -0.3302
12159WAT     H149342   1.831  -0.004   6.960  0.3832 -1.3546  1.6385
12159WAT     H249343   1.756   0.048   7.062 -0.8274  1.5461 -0.5899
12159WAT    EPW49344   1.803   0.057   7.000 -0.4410  0.4798 -0.7014
12160WAT      O49345   1.074   5.774   4.975  0.0559  0.3390  0.2309
12160WAT     H149346   1.050   5.850   5.010  2.3009  1.1531  0.1777
12160WAT     H249347   1.152   5.759   5.010 -0.0277 -1.5997 -0.3054
12160WAT    EPW49348   1.082   5.783   4.985  0.2695  0.3711  0.9481
12161WAT      O49349   3.814   7.919   5.474  0.3057  0.0453  0.2804
12161WAT     H149350   3.735   7.942   5.445 -0.3182 -1.0987  0.9854
12161WAT     H249351   3.801   7.903   5.559  1.0577 -1.1389  0.1985
12161WAT    EPW49352   3.800   7.920   5.483  0.1580 -0.6832 -0.0815
12162WAT      O49353   2.581   0.188   4.731  0.0382 -0.1029  0.1610
12162WAT     H149354   2.632   0.251   4.702  0.1244 -0.6553 -0.9383
12162WAT     H249355   2.588   0.125   4.670  0.8078 -1.6218  1.7177
12162WAT    EPW49356   2.590   0.188   4.718 -0.2771 -0.7764 -0.5096
12163WAT      O49357   1.904   0.431   7.246 -0.0541 -0.0210  0.0357
12163WAT     H149358   1.928   0.357   7.205 -0.7624 -0.3994  0.2822
12163WAT     H249359   1.828   0.450   7.210 -0.3599  0.0226  0.6934
12163WAT    EPW49360   1.897   0.423   7.235  0.1256 -0.4223  0.0943
12164WAT      O49361   3.143   7.142   6.593  0.1834 -0.2029  0.4434
12164WAT     H149362   3.085   7.187   6.546  0.3773 -0.6931 -0.2907
12164WAT     H249363   3.220   7.175   6.568  0.4809 -2.0541 -1.4768
12164WAT    EPW49364   3.146   7.153   6.582 -0.4664 -0.6884 -0.7800
12165WAT      O49365   1.809   7.415   3.697  0.0140 -0.1106 -0.1359
12165WAT     H149366   1.812   7.441   3.614 -2.0152 -0.2356 -0.2871
12165WAT     H249367   1.725   7.395   3.710  0.2351  0.0657  1.9956
12165WAT    EPW49368   1.797   7.416   3.687 -0.3465  1.1282 -0.7970
12166WAT      O49369   1.386   6.213   5.323  0.1936  0.2470 -0.1037
12166WAT     H149370   1.450   6.241   5.375  0.7280  0.0926 -0.6624
12166WAT     H249371   1.425   6.155   5.271 -0.5555 -0.3852  0.0083
12166WAT    EPW49372   1.401   6.208   5.323  0.8114  1.0162 -1.4250
12167WAT      O49373   1.631   6.805   5.146  0.0236  0.3720 -0.2642
12167WAT     H149374   1.637   6.878   5.194  1.1073  0.2618 -0.2103
12167WAT     H249375   1.714   6.783   5.132 -0.2914 -0.5844 -0.7002
12167WAT    EPW49376   1.644   6.813   5.151  0.0314  1.2452  0.6243
12168WAT      O49377   2.022   0.581   5.137 -0.1980  0.6255  0.0750
12168WAT     H149378   2.007   0.519   5.196 -0.3005  0.5229 -0.0604
12168WAT     H249379   1.967   0.645   5.159  0.2445  0.8665  0.5089
12168WAT    EPW49380   2.012   0.581   5.149 -0.5979  0.7503 -0.5019
12169WAT      O49381   2.079   7.089   4.898 -0.1945  0.4023  0.2087
12169WAT     H149382   2.036   7.050   4.963 -0.7576  1.0644  0.2459
12169WAT     H249383   2.026   7.154   4.874 -0.3514 -0.2967 -1.4349
12169WAT    EPW49384   2.065   7.093   4.904  0.3776 -0.2415 -1.8378
12170WAT      O49385   1.974   6.994   6.751  0.3346 -0.1944  0.1484
12170WAT     H149386   1.992   7.021   6.832  0.2230  2.6531 -0.6841
12170WAT     H249387   1.899   7.033   6.732  0.6518 -0.3341 -1.5263
12170WAT    EPW49388   1.966   7.003   6.760  0.2914  0.5387  0.5728
12171WAT      O49389   1.311   7.092   4.562 -0.5866 -0.1863  0.0249
12171WAT     H149390   1.353   7.159   4.599  1.3305 -1.2839 -0.0757
12171WAT     H249391   1.256   7.131   4.507 -1.2907  1.3630  1.7171
12171WAT    EPW49392   1.309   7.108   4.559 -0.3494  0.1605  0.0766
12172WAT      O49393   1.940   7.851   5.346  0.7098  0.4961 -0.6398
12172WAT     H149394   1.885   7.918   5.355  0.6405  0.2310  1.6975
12172WAT     H249395   1.929   7.806   5.420  1.9026 -1.2359 -1.4431
12172WAT    EPW49396   1.930   7.854   5.358  0.1868  1.1108 -0.3390
12173WAT      O49397   1.048   6.462   4.667  0.1100 -0.2553  0.4325
12173WAT     H149398   1.111   6.507   4.708  0.0288 -0.3097  0.6227
12173WAT     H249399   1.006   6.522   4.621  0.5019 -0.2712  0.0466
12173WAT    EPW49400   1.051   6.477   4.667 -0.0848 -0.0756 -0.6045
12174WAT      O49401   2.110   7.119   6.363 -0.4443  0.1982 -0.1625
12174WAT     H149402   2.114   7.188   6.311 -0.1870 -0.2538 -0.7496
12174WAT     H249403   2.163   7.061   6.326 -1.8685 -0.9082 -0.5835
12174WAT    EPW49404   2.118   7.121   6.350 -0.3181  0.4452 -0.2978
12175WAT      O49405   1.788   6.022   6.511 -0.1418 -1.0937 -0.2373
12175WAT     H149406   1.799   6.031   6.425 -0.4731 -0.6089 -0.2326
12175WAT     H249407   1.867   6.041   6.544 -0.5138  0.7667 -0.3064
12175WAT    EPW49408   1.801   6.026   6.503  0.1803 -0.5147 -1.4939
12176WAT      O49409   2.546   7.255   6.705  0.0817 -0.8771 -0.1134
12176WAT     H149410   2.471   7.272   6.665  0.5975 -1.5167 -1.3959
12176WAT     H249411   2.594   7.215   6.644  2.7638  2.3970 -0.4920
12176WAT    EPW49412   2.542   7.252   6.690 -0.8715  1.0168 -0.3035
12177WAT      O49413   1.759   6.919   6.264 -0.4202 -0.9717 -0.2837
12177WAT     H149414   1.733   6.900   6.345 -1.0792  0.5459 -0.1033
12177WAT     H249415   1.781   7.004   6.269  1.7746 -1.4070 -1.1547
12177WAT    EPW49416   1.759   6.929   6.277 -0.1754 -0.1855  0.2067
12178WAT      O49417   1.533   6.982   4.929 -0.2863  0.2505 -0.2212
12178WAT     H149418   1.447   6.973   4.943 -0.2388 -1.3463 -0.7326
12178WAT     H249419   1.568   6.923   4.983  0.2910 -1.2283 -2.1301
12178WAT    EPW49420   1.526   6.972   4.939 -0.9215  0.1460 -0.3390
12179WAT      O49421   2.309   6.697   4.546  0.0488 -0.0114 -0.2781
12179WAT     H149422   2.354   6.635   4.588 -1.8557 -0.6437  0.9485
12179WAT     H249423   2.334   6.771   4.584  0.7515 -0.2440 -0.2807
12179WAT    EPW49424   2.319   6.699   4.557 -0.0204  0.2905 -0.5550
12180WAT      O49425   2.795   7.061   6.405 -0.0883  0.0619 -0.0222
12180WAT     H149426   2.837   7.091   6.476 -1.4932  0.8069  0.5317
12180WAT     H249427   2.728   7.116   6.396 -0.4359 -0.5540 -1.4141
12180WAT    EPW49428   2.791   7.074   6.414  0.0166 -0.0549 -0.2147
12181WAT      O49429   1.219   5.256   5.327  0.2031  0.0076 -0.1676
12181WAT     H149430   1.194   5.198   5.387 -0.7901 -1.2687 -1.7012
12181WAT     H249431   1.244   5.325   5.374  0.8867 -1.4409  1.7221
12181WAT    EPW49432   1.219   5.258   5.343  0.2113 -0.4163 -0.7701
12182WAT      O49433   1.835   7.160   6.374 -0.2412  1.0174  0.3556
12182WAT     H149434   1.842   7.237   6.334 -0.4437  0.5134 -0.6800
12182WAT     H249435   1.916   7.129   6.374 -0.3372  0.7550 -0.2185
12182WAT    EPW49436   1.848   7.167   6.368 -0.3109  0.7105 -0.8623
12183WAT      O49437   1.902   6.758   4.738  0.1487  0.3953  0.3679
12183WAT     H149438   1.850   6.816   4.698 -0.4713  0.2488  0.9316
12183WAT     H249439   1.981   6.793   4.732  0.0017  0.6183 -0.5345
12183WAT    EPW49440   1.906   6.771   4.731 -0.3148  0.3217 -0.1704
12184WAT      O49441   0.808   6.245   4.299  0.4085  0.1317  0.6052
12184WAT     H149442   0.786   6.314   4.251 -0.6946 -0.6643 -0.0729
12184WAT     H249443   0.734   6.199   4.305  0.8098 -0.3680  2.1077
12184WAT    EPW49444   0.794   6.248   4.293 -0.9019  0.3112 -1.0189
12185WAT      O49445   2.198   7.595   3.914 -0.1760  0.1165 -0.0087
12185WAT     H149446   2.149   7.664   3.936 -2.5004 -1.5744  0.4647
12185WAT     H249447   2.239   7.575   3.989  0.6493  1.0463 -0.1940
12185WAT    EPW49448   2.197   7.602   3.928  0.2632  0.5130 -0.0449
12186WAT      O49449   1.876   7.912   6.822 -0.4406 -0.2578  0.3661
12186WAT     H149450   1.961   7.909   6.839 -0.2614 -2.1202 -0.6056
12186WAT     H249451   1.872   7.909   6.735 -1.4929  1.3079  0.3209
12186WAT    EPW49452   1.888   7.911   6.811 -0.3823 -0.1780  0.7877
12187WAT      O49453   2.010   6.346   5.301 -0.0543 -0.4578  0.7818
12187WAT     H149454   1.978   6.426   5.315  2.3099  1.6457 -3.5107
12187WAT     H249455   2.073   6.338   5.361  1.1006  2.0225  0.0549
12187WAT    EPW49456   2.015   6.357   5.312  0.3083 -0.2352 -0.0567
12188WAT      O49457   2.112   0.574   4.676  0.2260 -0.2217  0.0598
12188WAT     H149458   2.101   0.526   4.605 -2.1207 -1.1587  0.9499
12188WAT     H249459   2.197   0.568   4.693  0.3797 -2.1577 -1.1766
12188WAT    EPW49460   2.123   0.566   4.668 -0.0315  0.0791 -0.2579
12189WAT      O49461   2.219   6.460   7.334  0.2602  0.4621 -0.2523
12189WAT     H149462   2.183   6.437   7.411  0.4696  2.6875  0.6021
12189WAT     H249463   2.162   6.519   7.303  0.1582 -0.4482 -1.8659
12189WAT    EPW49464   2.205   6.465   7.341  0.5305 -0.2507 -0.1576
12190WAT      O49465   2.008   7.320   4.786 -1.1443  0.1925 -0.4679
12190WAT     H149466   1.935   7.358   4.816 -2.2224 -2.2379  0.2248
12190WAT     H249467   1.991   7.309   4.701 -0.8685  1.1037 -0.6519
12190WAT    EPW49468   1.994   7.324   4.778  0.0239 -0.0292  0.0040
12191WAT      O49469   1.797   6.108   4.754  0.5939 -0.2942 -0.2788
12191WAT     H149470   1.749   6.036   4.745  1.0895 -0.4324 -2.3313
12191WAT     H249471   1.863   6.096   4.698  0.3045  2.0311 -1.2452
12191WAT    EPW49472   1.800   6.095   4.744 -0.6414  0.0084 -0.3041
12192WAT      O49473   3.062   0.370   5.473  0.2549  0.0143  0.2488
12192WAT     H149474   2.984   0.409   5.474 -0.4864 -1.4101 -0.4342
12192WAT     H249475   3.109   0.420   5.419 -0.8904 -0.3665 -1.1657
12192WAT    EPW49476   3.058   0.383   5.466  0.4494  0.4581 -0.0645
12193WAT      O49477   1.950   7.321   5.836 -0.5880  0.1199 -0.1694
12193WAT     H149478   1.899   7.392   5.832  0.1898  0.7962  1.2371
12193WAT     H249479   2.030   7.353   5.844  0.0715 -0.9398 -1.8870
12193WAT    EPW49480   1.954   7.336   5.837 -0.8066  0.3851 -0.1248
12194WAT      O49481   2.426   0.237   5.082 -0.5879  0.0779 -0.3933
12194WAT     H149482   2.353   0.223   5.036 -1.6379 -0.1286  1.2375
12194WAT     H249483   2.403   0.216   5.164  1.4619 -0.4660  0.1001
12194WAT    EPW49484   2.412   0.232   5.087 -0.3103  1.3436 -0.1297
12195WAT      O49485   1.407   7.763   7.589 -0.2213 -0.1293  0.3695
12195WAT     H149486   1.479   7.794   7.551  0.2684 -0.6201  0.9001
12195WAT     H249487   1.409   7.678   7.571 -1.5498  0.0962 -1.0534
12195WAT    EPW49488   1.418   7.755   7.581 -0.0420 -1.0872  0.1284
12196WAT      O49489   1.651   0.430   4.762 -0.3864  0.7592 -0.4254
12196WAT     H149490   1.731   0.431   4.796  0.0473 -2.5503 -1.0740
12196WAT     H249491   1.651   0.499   4.708  1.2584  2.0072  1.0632
12196WAT    EPW49492   1.663   0.440   4.759 -0.6381 -0.3321  0.2465
12197WAT      O49493   1.734   0.574   6.234  0.1911 -0.0770  0.1732
12197WAT     H149494   1.734   0.531   6.311  1.3028 -0.5700 -0.0802
12197WAT     H249495   1.770   0.517   6.179  2.8761  1.5721  0.0749
12197WAT    EPW49496   1.739   0.559   6.237 -0.2914 -0.3615 -0.5239
12198WAT      O49497   2.632   7.494   4.777  0.1681 -1.1154 -0.1755
12198WAT     H149498   2.705   7.542   4.773 -0.6470  0.1567 -0.3601
12198WAT     H249499   2.645   7.443   4.846  0.3963  0.5678  1.1009
12198WAT    EPW49500   2.645   7.494   4.787 -0.0504 -0.4810  1.1637
12199WAT      O49501   2.714   0.411   4.625 -0.2049 -0.3245 -0.3218
12199WAT     H149502   2.789   0.372   4.602 -1.0323 -0.6044 -2.9725
12199WAT     H249503   2.695   0.459   4.555 -1.9680  0.5959  0.7368
12199WAT    EPW49504   2.722   0.412   4.611  0.1398 -0.3434 -0.1609
12200WAT      O49505   2.948   6.800   5.105 -0.4195  0.2144  0.2800
12200WAT     H149506   3.022   6.808   5.059 -1.3204  0.1898 -1.2610
12200WAT     H249507   2.975   6.793   5.187  1.2822  0.3178 -0.2355
12200WAT    EPW49508   2.963   6.800   5.110  0.6698  0.1402 -0.8613
12201WAT      O49509   1.975   7.235   4.498 -0.0756  0.3887 -0.1278
12201WAT     H149510   2.032   7.225   4.432 -2.3713  1.9061 -2.5520
12201WAT     H249511   1.948   7.154   4.514 -0.8490  0.0934 -2.5124
12201WAT    EPW49512   1.979   7.222   4.491  0.0236 -0.2164  0.2431
12202WAT      O49513   2.486   5.862   7.418  0.1054 -0.0603  0.1710
12202WAT     H149514   2.530   5.796   7.455 -1.2137 -1.1511 -0.0996
12202WAT     H249515   2.496   5.848   7.333 -0.4798 -0.1537  0.1082
12202WAT    EPW49516   2.494   5.850   7.411  0.1506 -0.7274  0.1666
12203WAT      O49517   1.098   3.024   4.945  0.1987 -0.1621 -0.4629
12203WAT     H149518   1.074   3.076   5.011  2.0860  0.7393 -0.3976
12203WAT     H249519   1.031   3.029   4.889 -0.3527  1.0986  0.2625
12203WAT    EPW49520   1.085   3.033   4.946 -0.9536 -0.1056  0.2126
12204WAT      O49521   1.899   0.994   6.717  0.2464  0.6846  0.5085
12204WAT     H149522   1.984   0.995   6.737  0.3378 -1.1534  0.4574
12204WAT     H249523   1.864   1.051   6.773  1.2445 -0.1885  2.1195
12204WAT    EPW49524   1.906   1.002   6.728  0.0796  0.6878 -0.0931
12205WAT      O49525   1.758   7.713   6.987 -0.2665 -0.0793 -0.3650
12205WAT     H149526   1.672   7.722   6.983 -0.5625 -2.1565 -0.1584
12205WAT     H249527   1.787   7.754   6.916 -1.3109  1.4183  0.0314
12205WAT    EPW49528   1.750   7.720   6.976  0.9484 -0.2335  0.6192
12206WAT      O49529   2.194   6.682   5.378 -0.1895  0.5034 -0.1057
12206WAT     H149530   2.185   6.744   5.439 -1.4239 -1.3092  1.6563
12206WAT     H249531   2.193   6.728   5.303  1.6985  2.8326  1.1537
12206WAT    EPW49532   2.192   6.698   5.376 -0.5390 -0.2598 -0.9837
12207WAT      O49533   1.905   6.446   5.644  0.0582 -0.3229 -0.0370
12207WAT     H149534   1.966   6.451   5.707  1.1533  1.0745 -1.1345
12207WAT     H249535   1.860   6.374   5.664  0.3713  0.0589  2.3343
12207WAT    EPW49536   1.908   6.436   5.657 -0.1523 -0.0906 -0.0137
12208WAT      O49537   2.122   7.530   5.056 -0.5288  0.2019 -0.1852
12208WAT     H149538   2.163   7.494   4.988  1.1806  0.7309  0.5187
12208WAT     H249539   2.092   7.460   5.100  0.9211 -0.3157  0.0515
12208WAT    EPW49540   2.124   7.514   5.052 -0.5963 -0.4833 -0.5401
12209WAT      O49541   2.273   0.574   6.933  0.0660 -0.0960  0.3602
12209WAT     H149542   2.291   0.589   7.017 -0.4471  3.1277  0.0128
12209WAT     H249543   2.186   0.574   6.931 -0.0268 -2.8734  0.1247
12209WAT    EPW49544   2.263   0.576   6.945  0.1815 -0.3026  0.0975
12210WAT      O49545   1.803   6.336   4.428  0.6161  0.9265  0.6998
12210WAT     H149546   1.733   6.319   4.476  0.8934 -0.8148  0.5504
12210WAT     H249547   1.771   6.358   4.350  0.2170 -0.4394  0.4580
12210WAT    EPW49548   1.788   6.337   4.423  0.1623  0.5128 -0.1341
12211WAT      O49549   1.392   7.468   7.511 -0.2249 -0.0539  0.0224
12211WAT     H149550   1.472   7.488   7.539 -1.2419  1.9067  1.8214
12211WAT     H249551   1.407   7.431   7.433  2.3862  0.6375  0.0859
12211WAT    EPW49552   1.406   7.466   7.503  0.1085 -0.8495  0.5127
12212WAT      O49553   2.420   7.889   4.817  0.0412 -0.3452 -0.2303
12212WAT     H149554   2.443   7.817   4.861  0.0373 -0.7648 -0.8973
12212WAT     H249555   2.492   7.909   4.773  0.0576  0.0962 -0.0071
12212WAT    EPW49556   2.434   7.881   4.817  0.0821 -0.5862  0.7520
12213WAT      O49557   2.083   7.709   5.918 -0.4391 -0.2403 -0.4656
12213WAT     H149558   2.062   7.793   5.908 -0.6573 -0.1964  0.2964
12213WAT     H249559   2.070   7.694   6.003  0.8466 -0.7080 -0.3266
12213WAT    EPW49560   2.078   7.719   5.929  0.2306  0.7710 -0.2400
12214WAT      O49561   2.253   6.457   6.279 -0.1328  0.0177  0.2627
12214WAT     H149562   2.219   6.407   6.342 -0.5588 -2.1298 -1.5156
12214WAT     H249563   2.189   6.462   6.220  0.4446  1.4329 -0.2822
12214WAT    EPW49564   2.239   6.450   6.279 -0.7165  0.9600 -0.2082
12215WAT      O49565   1.900   6.736   7.532 -0.4095 -0.7827 -0.1330
12215WAT     H149566   1.930   6.665   7.573  1.9344 -0.2780 -0.7883
12215WAT     H249567   1.879   6.790   7.597 -1.2224 -1.6643  0.3670
12215WAT    EPW49568   1.901   6.733   7.548  0.0623  0.9272 -0.2023
12216WAT      O49569   2.986   6.807   6.150  0.0674 -0.2713 -0.4368
12216WAT     H149570   2.928   6.823   6.087  1.2396 -0.3231 -1.5798
12216WAT     H249571   3.000   6.721   6.144  1.3756 -0.0297 -1.2215
12216WAT    EPW49572   2.979   6.796   6.140  0.1265  0.3791 -0.2601
12217WAT      O49573   1.556   6.987   4.652  0.2080  0.6136  0.0158
12217WAT     H149574   1.560   6.983   4.739  3.4376 -0.6410 -0.0617
12217WAT     H249575   1.473   7.010   4.636 -1.0149 -0.9277  3.3237
12217WAT    EPW49576   1.544   6.990   4.662  0.0226  0.8545  0.1335
12218WAT      O49577   1.801   6.715   5.767  0.1791 -0.3647  0.0935
12218WAT     H149578   1.852   6.649   5.741 -0.2296 -0.7032  0.1500
12218WAT     H249579   1.751   6.732   5.698 -0.2233 -0.6062  0.3234
12218WAT    EPW49580   1.801   6.707   5.753 -0.7321 -0.0739 -0.0925
12219WAT      O49581   1.663   7.075   5.240 -0.7679 -0.2942 -0.5109
12219WAT     H149582   1.750   7.079   5.228 -0.8749  0.0159 -1.2411
12219WAT     H249583   1.632   7.135   5.185 -1.4697 -0.6453 -0.5078
12219WAT    EPW49584   1.671   7.084   5.230  0.6165 -0.4694 -0.3261
12220WAT      O49585   1.643   6.749   4.549  0.5927  0.3887 -0.0802
12220WAT     H149586   1.588   6.808   4.583 -2.8008 -2.4978  0.1281
12220WAT     H249587   1.640   6.684   4.608  3.4302 -0.4020 -0.6952
12220WAT    EPW49588   1.634   6.748   4.563  0.4398  0.1167 -0.0554
12221WAT      O49589   2.375   7.640   5.849 -0.2616 -0.2596  0.0065
12221WAT     H149590   2.383   7.644   5.936 -2.3105 -1.7353  0.3314
12221WAT     H249591   2.293   7.667   5.835  0.7244  2.0906 -1.7270
12221WAT    EPW49592   2.364   7.645   5.860 -0.4490  0.4732  0.0692
12222WAT      O49593   1.613   7.345   7.045 -0.5766 -0.8060 -0.2204
12222WAT     H149594   1.658   7.301   7.106 -0.2519 -0.1452  0.0257
12222WAT     H249595   1.558   7.394   7.091 -1.5482 -1.5744 -0.5182
12222WAT    EPW49596   1.611   7.346   7.061 -0.1616 -0.2378 -0.4705
12223WAT      O49597   1.429   7.510   7.916 -0.3939 -0.1298  0.2023
12223WAT     H149598   1.351   7.478   7.895 -0.0423 -2.1999  1.7419
12223WAT     H249599   1.417   7.597   7.916 -1.9111 -0.2526 -2.3268
12223WAT    EPW49600   1.416   7.518   7.913  0.5121 -0.2061 -0.8758
12224WAT      O49601   1.673   7.824   7.478  0.3060 -0.1237  0.4875
12224WAT     H149602   1.681   7.737   7.480  0.5805 -0.1271 -0.3694
12224WAT     H249603   1.721   7.850   7.547  1.4775 -0.5744 -0.1325
12224WAT    EPW49604   1.682   7.815   7.489 -0.9072  0.3675 -0.0075
12225WAT      O49605   2.137   6.882   4.740 -0.1816  0.2092 -0.1173
12225WAT     H149606   2.112   6.958   4.773 -2.8739 -0.7532  0.3004
12225WAT     H249607   2.152   6.900   4.656 -1.1011  1.1406 -0.0987
12225WAT    EPW49608   2.135   6.896   4.732  0.8152 -0.4249  0.1218
12226WAT      O49609   2.920   0.807   6.316 -0.2930  0.5742 -0.3475
12226WAT     H149610   2.921   0.747   6.253 -0.1908  0.5218 -0.2965
12226WAT     H249611   2.843   0.794   6.355 -0.1827  0.3388 -0.2062
12226WAT    EPW49612   2.909   0.796   6.313  0.2553  0.0035 -0.6438
12227WAT      O49613   0.637   7.169   3.744  0.1262 -0.3889  0.5450
12227WAT     H149614   0.699   7.150   3.801  0.7177  0.9427  0.3717
12227WAT     H249615   0.670   7.142   3.668  0.5297  0.3652  0.4452
12227WAT    EPW49616   0.651   7.162   3.741  0.5522  0.6601  0.1823
12228WAT      O49617   2.555   7.823   3.509  0.2029  0.3081 -0.3481
12228WAT     H149618   2.605   7.893   3.518  1.6969 -0.7680  0.0833
12228WAT     H249619   2.517   7.815   3.588 -1.0655  1.3914 -0.8180
12228WAT    EPW49620   2.556   7.832   3.522 -0.2006  0.0968  0.0755
12229WAT      O49621   0.985   0.544   4.185 -0.1288 -0.1533 -0.2104
12229WAT     H149622   1.018   0.599   4.244  1.6425 -1.3693  0.0092
12229WAT     H249623   0.939   0.595   4.132 -0.2922  1.2241  1.1975
12229WAT    EPW49624   0.983   0.560   4.186 -0.2052  0.4657  0.8960
12230WAT      O49625   1.370   1.647   3.392  0.2951  0.1902 -0.0230
12230WAT     H149626   1.357   1.563   3.410  2.1413  0.1929  1.6703
12230WAT     H249627   1.457   1.654   3.391  0.1758  2.1445  0.2513
12230WAT    EPW49628   1.381   1.636   3.395  0.3643  0.1987  0.3468
12231WAT      O49629   1.486   6.667   3.816 -0.4769 -0.0776  0.7156
12231WAT     H149630   1.482   6.746   3.854  0.3913  0.2024  0.2441
12231WAT     H249631   1.462   6.683   3.733 -0.5877 -0.3654  0.6919
12231WAT    EPW49632   1.482   6.681   3.809  0.2018  0.1030 -0.6217
12232WAT      O49633   0.925   7.219   2.807  0.5237 -0.5957  0.3044
12232WAT     H149634   0.980   7.182   2.865  0.7315 -0.1102  0.4256
12232WAT     H249635   0.847   7.208   2.844  0.7538  0.6331  1.2007
12232WAT    EPW49636   0.922   7.212   2.821  0.4229 -0.7053  0.5140
12233WAT      O49637   0.636   7.597   3.020 -0.4995  0.4907 -0.0737
12233WAT     H149638   0.720   7.616   3.005 -0.1307  0.5105  1.7675
12233WAT     H249639   0.617   7.642   3.092 -1.3278 -1.4159  0.9954
12233WAT    EPW49640   0.646   7.606   3.028 -0.6873 -0.3903 -0.7821
12234WAT      O49641   2.484   6.624   4.236  0.2826  0.4443 -0.3071
12234WAT     H149642   2.405   6.661   4.229 -0.7541 -1.8264 -2.0388
12234WAT     H249643   2.480   6.582   4.312 -0.6043 -0.4334 -0.8088
12234WAT    EPW49644   2.472   6.623   4.246 -0.2665 -0.0465 -0.0447
12235WAT      O49645   1.862   6.631   2.987 -0.2973  0.0469  0.1019
12235WAT     H149646   1.874   6.642   3.073 -0.6813 -0.2416  0.1937
12235WAT     H249647   1.928   6.676   2.952 -0.7686  1.1025  0.5127
12235WAT    EPW49648   1.874   6.640   2.994 -0.4018 -0.2917  0.2159
12236WAT      O49649   0.947   7.608   3.205  0.2435 -0.4128  0.3750
12236WAT     H149650   0.927   7.647   3.130 -0.6969  0.6944  1.1536
12236WAT     H249651   1.012   7.657   3.237 -2.9717  2.7486  2.8593
12236WAT    EPW49652   0.954   7.621   3.199  0.5296  0.2232  0.0323
12237WAT      O49653   2.279   6.726   2.254 -0.0893  0.3473  0.3103
12237WAT     H149654   2.244   6.805   2.245 -1.0540  0.0771  1.4384
12237WAT     H249655   2.224   6.685   2.308  1.5052 -0.4202  1.4281
12237WAT    EPW49656   2.265   6.731   2.261 -0.3451 -0.3771  0.2327
12238WAT      O49657   0.408   7.192   4.076  0.1707  0.6900  0.3215
12238WAT     H149658   0.452   7.263   4.051 -0.6174  0.5985 -1.4245
12238WAT     H249659   0.358   7.172   4.008  0.2912 -1.5139  0.7774
12238WAT    EPW49660   0.407   7.199   4.062 -0.4184 -0.8312 -0.6554
12239WAT      O49661   1.589   7.206   2.929  0.1788  0.4780 -0.4742
12239WAT     H149662   1.588   7.189   3.015  0.9375 -0.3961 -0.6207
12239WAT     H249663   1.506   7.227   2.911 -0.4200 -1.1527  0.1318
12239WAT    EPW49664   1.577   7.206   2.939 -0.0047 -0.7251  0.2839
12240WAT      O49665   0.699   0.731   3.489  0.5111 -0.3195 -0.7146
12240WAT     H149666   0.718   0.755   3.570  3.0554 -1.7191 -0.8180
12240WAT     H249667   0.736   0.792   3.439  0.3994 -0.3744 -0.8703
12240WAT    EPW49668   0.707   0.744   3.493 -0.9706  0.7811  0.3374
12241WAT      O49669   1.126   7.194   3.494 -0.0070 -0.5422  0.4102
12241WAT     H149670   1.114   7.130   3.553  2.1608 -1.5238 -0.1058
12241WAT     H249671   1.167   7.154   3.428 -1.5143  0.7266 -1.4148
12241WAT    EPW49672   1.130   7.179   3.493 -0.6021 -0.8535 -0.2081
12242WAT      O49673   0.582   6.955   4.271  0.9233 -0.3769 -0.1548
12242WAT     H149674   0.499   6.972   4.290  1.3310  1.3883  0.1618
12242WAT     H249675   0.591   6.983   4.189  1.4795  0.4892  0.1911
12242WAT    EPW49676   0.571   6.961   4.262  1.2426  0.2178  0.4976
12243WAT      O49677   0.690   5.524   3.194 -0.3407  0.1634 -0.1555
12243WAT     H149678   0.767   5.497   3.225  0.6593  3.9166  1.2289
12243WAT     H249679   0.635   5.510   3.261  0.2468  1.6930  0.6972
12243WAT    EPW49680   0.693   5.518   3.208  0.0335 -0.1949 -0.1502
12244WAT      O49681   1.401   6.284   2.833  0.2504  0.2886 -0.7924
12244WAT     H149682   1.474   6.246   2.864  0.3812  1.1294 -0.0126
12244WAT     H249683   1.430   6.333   2.767  0.1928 -0.3483 -1.3023
12244WAT    EPW49684   1.416   6.286   2.828  0.8443 -0.5384 -0.0478
12245WAT      O49685   1.819   7.077   2.835  0.3300 -0.0317 -0.3258
12245WAT     H149686   1.734   7.096   2.843 -0.1103 -2.2383  0.9503
12245WAT     H249687   1.844   7.059   2.917  2.0149  0.4211 -0.6997
12245WAT    EPW49688   1.810   7.077   2.848 -0.2394  0.0304 -0.1123
12246WAT      O49689   0.718   6.028   2.080  0.4360 -0.4253  0.5156
12246WAT     H149690   0.633   6.023   2.098  0.3001 -2.2439 -0.4652
12246WAT     H249691   0.721   6.023   1.993  1.5534 -0.1064  0.5199
12246WAT    EPW49692   0.706   6.027   2.070  0.1706 -0.0854  0.3040
12247WAT      O49693   2.101   7.080   4.217 -0.2634  0.1197 -0.4969
12247WAT     H149694   2.071   7.024   4.276 -0.0458  0.4232 -0.0973
12247WAT     H249695   2.033   7.091   4.163 -0.3227 -0.4902 -0.5573
12247WAT    EPW49696   2.086   7.073   4.218 -0.3672  0.4625 -0.4004
12248WAT      O49697   0.618   7.478   2.135 -0.4508 -0.8359 -0.2743
12248WAT     H149698   0.654   7.554   2.112  0.9346 -1.8044 -1.5063
12248WAT     H249699   0.602   7.438   2.059  0.8800 -2.6429  0.3081
12248WAT    EPW49700   0.621   7.483   2.121  0.0881 -0.7592 -0.8100
12249WAT      O49701   1.527   6.923   3.904 -0.5716 -0.1080 -0.5430
12249WAT     H149702   1.458   6.962   3.868 -1.4101 -2.0896 -1.2602
12249WAT     H249703   1.595   6.968   3.873 -1.4261  0.0784 -2.2683
12249WAT    EPW49704   1.527   6.935   3.894  0.3060  0.2312  0.8393
12250WAT      O49705   2.563   0.044   4.062 -0.0351 -0.2037 -0.3532
12250WAT     H149706   2.499   0.102   4.052 -0.9840 -0.9066  1.2174
12250WAT     H249707   2.608   0.075   4.130 -0.5857 -1.2915  0.5366
12250WAT    EPW49708   2.560   0.057   4.071  0.3578  0.3503 -0.4060
12251WAT      O49709   1.906   5.524   5.128  0.3920  0.1295  0.0759
12251WAT     H149710   1.991   5.515   5.110 -0.0901 -0.4675 -2.2794
12251WAT     H249711   1.883   5.597   5.086 -0.1478  0.7040  1.3066
12251WAT    EPW49712   1.915   5.534   5.119 -0.9041 -0.3131  0.1842
12252WAT      O49713   1.024   7.692   2.193 -0.3045  0.4884  0.1778
12252WAT     H149714   1.051   7.773   2.173  2.4956 -0.8692 -2.2414
12252WAT     H249715   1.061   7.677   2.271 -0.4417  1.3573  0.4199
12252WAT    EPW49716   1.034   7.702   2.201  0.6088 -0.7785  0.3987
12253WAT      O49717   0.917   7.808   3.771  0.0254 -0.4401  0.0904
12253WAT     H149718   0.962   7.870   3.730 -1.2356  0.0123 -0.6633
12253WAT     H249719   0.850   7.852   3.806 -1.5099 -1.4868 -1.3979
12253WAT    EPW49720   0.913   7.824   3.770 -0.4118 -0.5161 -0.2720
12254WAT      O49721   7.943   6.629   2.429 -0.0767  0.1120 -0.0486
12254WAT     H149722   7.893   6.557   2.439 -0.3947  0.3922  0.4052
12254WAT     H249723   8.000   6.605   2.367  1.2042 -1.2727  1.5841
12254WAT    EPW49724   7.944   6.615   2.421 -0.5798 -0.1457 -0.2769
12255WAT      O49725   1.007   7.084   3.732 -0.6300  0.5375  0.1049
12255WAT     H149726   0.991   7.010   3.775  0.5175  1.0869  1.5472
12255WAT     H249727   0.945   7.138   3.761 -0.4655  0.6280  0.2798
12255WAT    EPW49728   0.995   7.081   3.742  0.1473  0.2085 -0.5623
12256WAT      O49729   1.986   7.356   5.240 -0.4734 -0.3330 -0.0895
12256WAT     H149730   2.001   7.277   5.207  0.9678 -0.2743  0.3813
12256WAT     H249731   2.047   7.366   5.301 -1.3537  0.6922  0.6779
12256WAT    EPW49732   1.997   7.346   5.244 -0.2559 -0.0223  0.6581
12257WAT      O49733   2.111   7.187   6.630  0.0665  0.0226  0.1717
12257WAT     H149734   2.100   7.159   6.548  0.4797  0.8280 -0.1707
12257WAT     H249735   2.077   7.123   6.678  0.1863 -0.6534 -0.6149
12257WAT    EPW49736   2.104   7.173   6.625  0.1934  1.2821 -0.3623
12258WAT      O49737   1.304   0.688   4.019 -0.1276 -0.0155 -1.2299
12258WAT     H149738   1.250   0.623   3.998 -0.3792 -0.4313  0.4850
12258WAT     H249739   1.383   0.653   4.011 -0.2560 -0.5006 -0.5049
12258WAT    EPW49740   1.308   0.673   4.015 -1.3012 -0.1014 -0.0259
12259WAT      O49741   1.476   0.056   4.899 -0.3045 -0.1869 -0.4153
12259WAT     H149742   1.490  -0.006   4.839 -0.3805 -1.3357  0.7014
12259WAT     H249743   1.415   0.107   4.862 -1.5956 -1.8313 -0.6510
12259WAT    EPW49744   1.469   0.054   4.884  0.3836 -0.3676 -1.1035
12260WAT      O49745   1.888   7.835   2.948 -0.0086  0.5516 -0.4727
12260WAT     H149746   1.923   7.771   2.996  1.0093  0.4196 -1.3650
12260WAT     H249747   1.956   7.869   2.906 -0.8859  0.5910 -1.9277
12260WAT    EPW49748   1.903   7.830   2.949 -0.5754 -1.1977 -0.9435
12261WAT      O49749   2.476   7.433   4.459  0.1681  0.0886 -0.0715
12261WAT     H149750   2.412   7.394   4.414  1.6992 -0.7054 -1.7075
12261WAT     H249751   2.528   7.367   4.482  1.4528  0.8849 -0.5794
12261WAT    EPW49752   2.474   7.418   4.456  0.5609  0.3171  0.1833
12262WAT      O49753   2.783   7.122   4.687  0.4036  0.2208 -0.0248
12262WAT     H149754   2.815   7.073   4.752 -1.3267 -0.4148  0.4073
12262WAT     H249755   2.844   7.182   4.674  2.2913 -1.6027 -0.0616
12262WAT    EPW49756   2.797   7.124   4.695  0.1150 -0.2219 -0.2845
12263WAT      O49757   1.791   0.135   4.330 -0.5698  0.1503 -0.3630
12263WAT     H149758   1.724   0.187   4.310  0.5793  2.3187  1.0708
12263WAT     H249759   1.817   0.105   4.252 -3.0869 -0.7326 -0.9715
12263WAT    EPW49760   1.785   0.138   4.316  0.7060 -0.2479 -0.0094
12264WAT      O49761   1.364   7.998   4.643  0.0634  0.4222  0.1242
12264WAT     H149762   1.360   8.081   4.618  2.4442  1.0307  1.4782
12264WAT     H249763   1.416   7.961   4.584 -0.4771  0.0395 -0.1176
12264WAT    EPW49764   1.371   8.004   4.631 -0.0982 -0.2462  0.9135
12265WAT      O49765   2.025   6.554   2.697  0.0935 -0.3306 -0.4295
12265WAT     H149766   1.944   6.521   2.700  0.7993 -2.1360  1.3310
12265WAT     H249767   2.023   6.618   2.757 -0.0953 -0.1782 -0.5964
12265WAT    EPW49768   2.013   6.559   2.707 -0.0420 -0.0211 -0.0914
12266WAT      O49769   2.139   7.750   3.292 -0.3176 -0.5129  0.3029
12266WAT     H149770   2.197   7.785   3.237  0.1764 -2.1870 -0.3048
12266WAT     H249771   2.083   7.816   3.306  0.1843  0.3251 -1.2864
12266WAT    EPW49772   2.139   7.765   3.286  0.2970 -0.7871 -0.3387
12267WAT      O49773   0.755   7.418   3.301 -0.2654  0.2197  0.2656
12267WAT     H149774   0.677   7.429   3.263 -1.7427  2.2057  3.4766
12267WAT     H249775   0.804   7.481   3.267 -0.7246  0.3376 -0.1932
12267WAT    EPW49776   0.750   7.429   3.291 -0.0902  0.3255  0.2578
12268WAT      O49777   1.851   0.821   3.923  0.0530 -0.3106  0.0503
12268WAT     H149778   1.908   0.866   3.972  3.1892 -3.2918 -0.4109
12268WAT     H249779   1.783   0.809   3.976 -0.1694  3.1693  0.7753
12268WAT    EPW49780   1.849   0.826   3.938 -0.0641  0.3738 -0.0129
12269WAT      O49781   1.014   5.476   4.654  0.3884  0.3512  0.1318
12269WAT     H149782   1.091   5.482   4.694  0.4052  2.7967 -0.1136
12269WAT     H249783   0.977   5.406   4.691  2.1274 -0.0373  1.2676
12269WAT    EPW49784   1.020   5.467   4.665 -0.9499  0.4897  0.2055
12270WAT      O49785   0.743   7.706   3.588 -0.2873 -0.2225  0.2542
12270WAT     H149786   0.782   7.747   3.655 -0.4665 -0.4238  0.4848
12270WAT     H249787   0.660   7.700   3.613 -0.3019 -0.5508  0.1413
12270WAT    EPW49788   0.737   7.711   3.602  0.2854 -0.6225  0.2527
12271WAT      O49789   1.308   0.651   4.410 -0.5360 -0.2350 -0.3553
12271WAT     H149790   1.294   0.565   4.399 -2.3516 -0.2524  1.6206
12271WAT     H249791   1.249   0.688   4.357 -0.6976 -0.2153 -0.1610
12271WAT    EPW49792   1.297   0.643   4.400  0.1973 -0.3820 -0.1870
12272WAT      O49793   0.997   6.096   4.126 -0.2741 -0.3498 -0.4458
12272WAT     H149794   1.073   6.135   4.140 -0.7369  1.1474 -1.8000
12272WAT     H249795   0.940   6.148   4.166 -0.5786 -1.7116  0.9652
12272WAT    EPW49796   1.000   6.109   4.134  1.3056  0.2348  0.1869
12273WAT      O49797   0.487   7.677   3.704 -0.1804 -0.4342 -0.1057
12273WAT     H149798   0.401   7.669   3.697 -0.0684 -1.5173 -0.4677
12273WAT     H249799   0.501   7.675   3.790 -0.3900 -2.0854 -0.0791
12273WAT    EPW49800   0.477   7.675   3.715  0.2155 -0.4810 -0.3220
12274WAT      O49801   0.317   6.036   4.225 -0.2270 -0.2163  0.2133
12274WAT     H149802   0.237   6.061   4.202 -0.0108 -0.7177 -1.1830
12274WAT     H249803   0.318   5.950   4.208  0.7468 -0.1268 -0.2790
12274WAT    EPW49804   0.305   6.027   4.219 -0.2842 -0.7417 -0.6472
12275WAT      O49805   3.267   7.499   2.237  0.2501  0.0527 -0.3667
12275WAT     H149806   3.316   7.567   2.261  0.3336  0.0167 -0.4360
12275WAT     H249807   3.325   7.441   2.208  0.2370 -0.2867  0.2609
12275WAT    EPW49808   3.283   7.500   2.236 -0.0495 -0.0940 -0.1241
12276WAT      O49809   2.646   6.484   4.048 -0.2030  0.1044 -0.2705
12276WAT     H149810   2.580   6.532   4.080 -1.3663 -1.5409 -0.0315
12276WAT     H249811   2.686   6.538   3.993  1.0415  2.6462  2.8145
12276WAT    EPW49812   2.642   6.499   4.044 -0.2403 -0.4633 -0.4785
12277WAT      O49813   2.410   1.134   4.194  0.3578  0.1094  0.4407
12277WAT     H149814   2.343   1.180   4.160  0.2990 -0.6397 -0.4973
12277WAT     H249815   2.477   1.155   4.143  0.7825  0.5908  1.1701
12277WAT    EPW49816   2.410   1.144   4.182  0.2403 -0.2321 -1.2590
12278WAT      O49817   1.582   7.300   3.904 -0.5691  0.0080  0.3715
12278WAT     H149818   1.638   7.239   3.878 -0.9561 -0.6234  0.9764
12278WAT     H249819   1.518   7.254   3.943 -0.5891  0.8321  1.3474
12278WAT    EPW49820   1.581   7.284   3.906 -0.0447  0.2030 -0.0350
12279WAT      O49821   1.586   7.577   3.908  0.1609 -0.2152  0.3200
12279WAT     H149822   1.672   7.592   3.900  0.2778 -1.0677 -0.1961
12279WAT     H249823   1.582   7.491   3.922 -0.6544 -0.3077 -0.4105
12279WAT    EPW49824   1.598   7.567   3.909  0.8969  0.2892 -0.0099
12280WAT      O49825   0.880   6.905   3.520 -0.1729 -0.4680  0.2435
12280WAT     H149826   0.838   6.836   3.552  0.5463 -2.0133 -1.9001
12280WAT     H249827   0.956   6.905   3.563 -0.3970 -0.6933  0.6425
12280WAT    EPW49828   0.885   6.895   3.531 -0.8509 -0.6546  0.2265
12281WAT      O49829   1.459   7.334   4.674 -0.2425  0.3069  0.1924
12281WAT     H149830   1.542   7.318   4.653 -0.4642 -2.8030  1.1718
12281WAT     H249831   1.438   7.403   4.625  2.2771 -0.1306 -1.7092
12281WAT    EPW49832   1.468   7.342   4.664 -0.2767 -0.0628  0.2623
12282WAT      O49833   2.202   7.330   3.385 -0.2888  0.4335 -0.7338
12282WAT     H149834   2.281   7.366   3.381 -0.4499  0.8121 -0.5106
12282WAT     H249835   2.190   7.315   3.470 -0.0157 -0.6200 -0.8603
12282WAT    EPW49836   2.212   7.333   3.397  0.4525 -0.7950 -0.3197
12283WAT      O49837   1.933   5.923   4.232 -0.3640 -0.1760 -0.1326
12283WAT     H149838   1.947   5.974   4.301  2.4726  1.6865 -1.8688
12283WAT     H249839   1.917   5.979   4.168  0.9135 -1.5237 -1.7302
12283WAT    EPW49840   1.933   5.939   4.233 -0.2799 -0.3954  0.1699
12284WAT      O49841   1.492   6.547   3.305  0.0426  0.0084 -0.4879
12284WAT     H149842   1.438   6.479   3.296  0.0199  0.0156 -0.4067
12284WAT     H249843   1.566   6.519   3.268  0.0948 -0.1326 -0.2800
12284WAT    EPW49844   1.495   6.533   3.298  0.3282  0.4248  0.9622
12285WAT      O49845   0.445   4.865   4.154 -0.3358 -0.0645 -0.4371
12285WAT     H149846   0.526   4.834   4.161  0.1496  1.0909 -0.6463
12285WAT     H249847   0.395   4.802   4.188  0.7212 -0.4677  0.4110
12285WAT    EPW49848   0.450   4.851   4.160  0.1132  0.1735 -0.0658
12286WAT      O49849   1.318   7.751   3.737 -0.2089  0.0295 -0.5857
12286WAT     H149850   1.376   7.693   3.706 -0.5946 -1.0746  0.6206
12286WAT     H249851   1.353   7.775   3.814 -1.0931 -0.2792 -0.0745
12286WAT    EPW49852   1.332   7.746   3.744 -0.6046 -0.7388  0.0407
12287WAT      O49853   0.426   5.881   3.326 -0.1193 -0.7221  0.0152
12287WAT     H149854   0.342   5.860   3.333 -0.4808 -0.9726 -3.3609
12287WAT     H249855   0.425   5.969   3.322 -0.2796 -0.7476 -0.5166
12287WAT    EPW49856   0.413   5.891   3.327  0.5790 -0.5225  0.3349
12288WAT      O49857   2.578   7.102   3.252 -0.3282  0.1132 -0.5179
12288WAT     H149858   2.591   7.173   3.302 -2.0731 -0.6319  1.1354
12288WAT     H249859   2.632   7.043   3.287  0.4242  0.3202 -1.2888
12288WAT    EPW49860   2.588   7.104   3.265 -0.4578  0.9298 -0.9873
12289WAT      O49861   0.956   0.069   3.768 -0.2621 -0.0929  0.0607
12289WAT     H149862   0.897   0.048   3.828 -1.3932  2.9874  0.1596
12289WAT     H249863   0.911   0.070   3.694 -0.3366  1.8778  0.0785
12289WAT    EPW49864   0.941   0.066   3.766  0.3196  0.4400 -0.1542
12290WAT      O49865   1.401   7.050   7.284  0.2119  0.1490  0.7706
12290WAT     H149866   1.357   6.981   7.314 -1.0654  0.4529 -0.2841
12290WAT     H249867   1.469   7.015   7.243  0.2078 -0.4151  1.2389
12290WAT    EPW49868   1.405   7.035   7.282 -0.8468 -0.1655  0.1930
12291WAT      O49869   1.446   6.612   4.997  0.4313 -0.7156 -0.1071
12291WAT     H149870   1.415   6.553   5.054 -0.5439  0.6328  0.8126
12291WAT     H249871   1.496   6.663   5.046  0.9361 -0.5327 -0.8078
12291WAT    EPW49872   1.448   6.611   5.013 -0.1466  0.5004 -0.4539
12292WAT      O49873   1.793   6.438   2.813  0.1390  0.3158 -0.0465
12292WAT     H149874   1.829   6.373   2.859  2.0722  0.5500 -1.1592
12292WAT     H249875   1.811   6.509   2.861 -0.2941  0.2775  0.1889
12292WAT    EPW49876   1.801   6.439   2.827 -0.6104 -0.8215  0.4692
12293WAT      O49877   3.169   0.885   3.132 -0.0046  0.0975 -0.4423
12293WAT     H149878   3.168   0.958   3.084  1.4739  0.5823  0.1926
12293WAT     H249879   3.194   0.824   3.075 -1.0823  0.1137 -0.9412
12293WAT    EPW49880   3.173   0.887   3.117 -0.7434  0.7846  0.0862
12294WAT      O49881   0.729   5.709   1.059  0.4242 -0.0696  0.2795
12294WAT     H149882   0.706   5.791   1.040 -0.3264 -0.5241 -0.8835
12294WAT     H249883   0.677   5.660   1.009  3.0450 -1.2034 -1.5901
12294WAT    EPW49884   0.718   5.714   1.049 -0.5018  0.6519 -0.8282
12295WAT      O49885   0.718   7.999   3.860  0.0223  0.4424  0.2981
12295WAT     H149886   0.706   8.059   3.922 -0.7671  0.3570  0.2364
12295WAT     H249887   0.668   8.027   3.794  1.6494  1.1132 -0.7342
12295WAT    EPW49888   0.709   8.012   3.859  0.4166 -1.7046 -0.2401
12296WAT      O49889   7.558   7.518   1.731  0.1823  0.0276 -0.2203
12296WAT     H149890   7.479   7.545   1.756 -0.1036 -0.5630 -0.4494
12296WAT     H249891   7.574   7.563   1.658 -0.7211 -1.1033 -1.1576
12296WAT    EPW49892   7.549   7.528   1.724 -0.3941  0.2042 -0.5353
12297WAT      O49893   1.202   7.569   3.516 -0.4018 -0.6892  0.6548
12297WAT     H149894   1.264   7.521   3.555 -0.5247 -2.5490 -1.2495
12297WAT     H249895   1.140   7.576   3.577  0.7030 -0.7435  1.8307
12297WAT    EPW49896   1.202   7.563   3.530  0.3505  0.1890 -0.4540
12298WAT      O49897   2.002   7.093   3.366 -0.5854  0.2796 -0.7493
12298WAT     H149898   2.030   7.170   3.395 -1.3393  0.0455  0.6763
12298WAT     H249899   2.040   7.035   3.419 -2.6897 -0.1054  0.4925
12298WAT    EPW49900   2.012   7.096   3.378  0.5286  0.2665  0.2907
12299WAT      O49901   7.391   6.873   1.689 -0.3156  0.1648  0.2898
12299WAT     H149902   7.331   6.921   1.648  0.8263  0.9869 -0.4551
12299WAT     H249903   7.445   6.931   1.724  1.1383 -0.5203 -0.6914
12299WAT    EPW49904   7.390   6.889   1.688  0.4373  0.2588  0.6875
12300WAT      O49905   0.522   7.690   3.246 -0.3530  0.3481  0.2272
12300WAT     H149906   0.539   7.627   3.303 -0.4742 -1.8933 -2.0519
12300WAT     H249907   0.436   7.700   3.251 -0.3639  0.1626  0.4064
12300WAT    EPW49908   0.512   7.682   3.255  0.3596 -0.1957 -0.0140
12301WAT      O49909   1.304   7.625   4.482  0.0315 -0.1388  0.3464
12301WAT     H149910   1.271   7.598   4.406  1.0143  0.8404 -0.4721
12301WAT     H249911   1.251   7.691   4.505 -0.3847 -0.5662  0.6150
12301WAT    EPW49912   1.292   7.631   4.474  0.1715  0.2271 -0.4853
12302WAT      O49913   0.010   7.252   1.696 -0.0457  0.4181  0.3817
12302WAT     H149914  -0.042   7.293   1.640 -0.0132  2.8632  1.9862
12302WAT     H249915   0.043   7.186   1.649 -0.5856  1.8550 -2.2132
12302WAT    EPW49916   0.007   7.248   1.681 -0.1528  0.2309  0.3157
12303WAT      O49917   1.585   7.745   3.483  0.4526 -0.4374  0.1075
12303WAT     H149918   1.555   7.667   3.510  1.1026 -0.2274  1.5199
12303WAT     H249919   1.605   7.786   3.558  0.8805  0.7834 -0.6516
12303WAT    EPW49920   1.583   7.740   3.498  0.3959 -0.0141 -0.3922
12304WAT      O49921   0.460   7.384   1.882  0.1789  0.2054  0.3314
12304WAT     H149922   0.398   7.371   1.942  0.9660  0.5521  1.2596
12304WAT     H249923   0.498   7.306   1.874 -0.2256  0.0507 -0.0567
12304WAT    EPW49924   0.457   7.371   1.890  0.4163 -0.5574 -0.0898
12305WAT      O49925   8.093   5.914   1.810 -0.2212  0.0685  0.2301
12305WAT     H149926   8.128   5.892   1.733  1.1031  1.3231  0.4202
12305WAT     H249927   8.018   5.954   1.787  1.0790  2.2254 -0.6309
12305WAT    EPW49928   8.087   5.917   1.795  0.0133 -0.4032 -0.1264
12306WAT      O49929   1.021   6.754   1.325 -0.2711 -0.2997  0.1232
12306WAT     H149930   1.061   6.820   1.283 -1.4231 -0.2651 -0.9672
12306WAT     H249931   1.030   6.687   1.270 -0.7424 -0.5766  0.3778
12306WAT    EPW49932   1.029   6.754   1.310  0.0303 -0.0510  0.7572
12307WAT      O49933   1.079   6.140   7.649 -0.2003 -0.1750 -0.0441
12307WAT     H149934   1.117   6.211   7.615 -0.4385 -0.4037 -0.8150
12307WAT     H249935   1.132   6.075   7.625 -0.3055 -0.3261  0.1304
12307WAT    EPW49936   1.092   6.141   7.640 -0.8319  0.4708 -0.5375
12308WAT      O49937   0.486   6.807   2.198  0.0800 -0.4670  0.6233
12308WAT     H149938   0.529   6.850   2.260  0.4729 -0.1261  0.1208
12308WAT     H249939   0.404   6.804   2.228  0.0484  0.6028  0.6898
12308WAT    EPW49940   0.480   6.813   2.211 -0.2130 -0.7904 -0.1878
12309WAT      O49941   0.213   7.518   3.212  0.4752 -0.4521  0.2430
12309WAT     H149942   0.199   7.449   3.264 -2.3917 -0.6702 -0.6380
12309WAT     H249943   0.219   7.584   3.268 -1.8209 -0.7777  0.9729
12309WAT    EPW49944   0.212   7.517   3.228  0.0969 -0.0263  0.1143
12310WAT      O49945   0.096   6.533   0.719 -0.0726 -0.2818 -0.3341
12310WAT     H149946   0.146   6.502   0.654 -0.8503 -0.7051 -0.7422
12310WAT     H249947   0.017   6.502   0.701 -0.0663 -1.5693  1.5667
12310WAT    EPW49948   0.092   6.524   0.707 -0.1162 -0.0180 -0.3221
12311WAT      O49949   0.979   7.484   2.770 -0.3786 -0.4687  0.1642
12311WAT     H149950   0.954   7.400   2.777  1.4887 -1.0831  0.1792
12311WAT     H249951   1.062   7.482   2.798 -0.4519  1.4911  0.5981
12311WAT    EPW49952   0.987   7.471   2.775  0.1417 -0.8428  0.4763
12312WAT      O49953   1.238   7.562   2.812  0.3720 -0.1548 -0.3006
12312WAT     H149954   1.253   7.612   2.882  1.3438  0.3426 -0.8460
12312WAT     H249955   1.255   7.615   2.744 -2.1682 -0.0929 -0.9930
12312WAT    EPW49956   1.242   7.577   2.812  0.2237 -0.2278  0.1246
12313WAT      O49957   1.441   7.141   7.541 -0.0217  0.3837 -0.5225
12313WAT     H149958   1.424   7.121   7.458 -2.2319 -2.4135  0.4643
12313WAT     H249959   1.369   7.118   7.583  1.3528  0.8876  2.3329
12313WAT    EPW49960   1.428   7.135   7.535 -0.3520  0.4812 -0.5145
12314WAT      O49961   0.912   6.932   4.305 -0.6252  0.5904  0.4474
12314WAT     H149962   0.828   6.958   4.308 -0.3550  1.6140 -0.4860
12314WAT     H249963   0.912   6.872   4.242 -0.8947 -0.4200  1.3731
12314WAT    EPW49964   0.899   6.927   4.296  0.4390  0.7076 -0.3297
12315WAT      O49965   1.106   7.304   2.222  0.5921 -0.5968 -0.0224
12315WAT     H149966   1.028   7.286   2.186  0.3330  1.1781 -0.4779
12315WAT     H249967   1.156   7.237   2.198 -0.0353 -0.3648 -2.2275
12315WAT    EPW49968   1.102   7.292   2.213 -0.2981 -0.2990 -0.4134
12316WAT      O49969   0.571   7.187   2.223 -0.2453  0.3174  0.3690
12316WAT     H149970   0.494   7.147   2.230 -0.5992  0.6810 -1.1205
12316WAT     H249971   0.554   7.270   2.245 -0.2123  0.3398  0.3118
12316WAT    EPW49972   0.557   7.194   2.227 -0.3547 -0.3106 -0.1249
12317WAT      O49973   0.641   7.209   2.823  0.1319 -0.3011  0.3287
12317WAT     H149974   0.609   7.260   2.760  0.3736 -1.2840 -0.6230
12317WAT     H249975   0.571   7.188   2.870 -0.2139 -0.3321 -0.1915
12317WAT    EPW49976   0.626   7.213   2.820 -0.6026  0.1858 -0.1788
12318WAT      O49977   0.888   7.352   4.349  0.1340  0.2810  0.1932
12318WAT     H149978   0.875   7.437   4.333  3.2256  0.3515 -3.3653
12318WAT     H249979   0.853   7.313   4.279 -0.2234 -1.3629  1.2232
12318WAT    EPW49980   0.881   7.359   4.336  0.6285  0.4645  0.1798
12319WAT      O49981   7.748   6.472   1.999 -0.0966 -0.6781  0.1039
12319WAT     H149982   7.689   6.513   2.047  1.1599  0.5649  0.6481
12319WAT     H249983   7.708   6.459   1.922 -0.5361  1.6436 -0.1204
12319WAT    EPW49984   7.733   6.476   1.994  0.7958 -0.5156  0.2101
12320WAT      O49985   0.454   5.997   2.140  0.3180 -0.3092  0.2052
12320WAT     H149986   0.379   5.973   2.103 -0.3505 -1.1191  1.9991
12320WAT     H249987   0.476   5.929   2.189  2.1715 -0.0309 -0.1290
12320WAT    EPW49988   0.446   5.984   2.142 -0.6052 -0.0685 -0.4636
12321WAT      O49989   0.927   0.269   4.186  0.0383 -0.1422 -0.4655
12321WAT     H149990   1.005   0.232   4.197 -0.2508 -0.7402 -0.3922
12321WAT     H249991   0.943   0.354   4.199  0.1903 -0.4908  2.2184
12321WAT    EPW49992   0.941   0.276   4.189 -0.8384  0.5260 -0.4082
12322WAT      O49993   2.330   7.475   2.679 -0.1248 -0.0917 -0.3006
12322WAT     H149994   2.332   7.420   2.612  1.2904  0.5894 -0.8608
12322WAT     H249995   2.380   7.436   2.739  0.5740  0.3722 -0.5608
12322WAT    EPW49996   2.338   7.461   2.678 -0.3465 -0.2749  0.4403
12323WAT      O49997   0.734   6.920   2.806 -0.3067  0.4307  0.1646
12323WAT     H149998   0.767   6.906   2.886 -0.2366 -1.1839 -0.1089
12323WAT     H249999   0.753   7.004   2.790  2.1455  0.0589  0.7226
12323WAT    EPW50000   0.742   6.930   2.816  0.6463  0.5999 -0.1054
12324WAT      O50001   2.687   0.467   2.125  0.1346  0.3793 -0.6297
12324WAT     H150002   2.603   0.465   2.102  0.5869 -0.9928 -2.4152
12324WAT     H250003   2.710   0.382   2.126  1.0081  0.5681  1.9285
12324WAT    EPW50004   2.678   0.454   2.122 -0.3044 -0.4965  0.4506
12325WAT      O50005   1.423   7.941   2.992 -0.4171 -0.7141  0.3921
12325WAT     H150006   1.365   7.983   2.942 -1.2168  0.0601  1.8906
12325WAT     H250007   1.500   7.959   2.955 -0.9096  0.4891 -0.0791
12325WAT    EPW50008   1.426   7.950   2.979  0.1696  0.6600  1.5041
12326WAT      O50009   1.151   7.943   4.304  0.1356  0.8568  0.5227
12326WAT     H150010   1.150   7.907   4.383 -1.1924  2.2700  1.2065
12326WAT     H250011   1.233   7.933   4.277  0.4080 -0.3711  1.7227
12326WAT    EPW50012   1.163   7.936   4.312  0.1273  0.9508  0.3113
12327WAT      O50013   0.194   1.172   3.108 -0.2804 -0.5317  0.0894
12327WAT     H150014   0.107   1.173   3.102 -0.2433  0.0379 -0.6044
12327WAT     H250015   0.214   1.088   3.112 -0.8312 -0.6983 -0.4646
12327WAT    EPW50016   0.184   1.160   3.108 -0.3495  0.0426 -0.4774
12328WAT      O50017   0.879   1.001   4.028 -0.0032  0.7635 -0.0512
12328WAT     H150018   0.896   1.036   4.106 -1.3404  1.7523 -0.1729
12328WAT     H250019   0.859   1.070   3.978  0.2564  0.0956 -1.1264
12328WAT    EPW50020   0.879   1.017   4.032  0.0181 -0.5263 -0.4624
12329WAT      O50021   1.175   5.674   3.136  0.3393  0.0983 -0.0177
12329WAT     H150022   1.228   5.739   3.159  2.5568 -2.0151  1.4043
12329WAT     H250023   1.192   5.661   3.052  0.8483  0.5053  0.0210
12329WAT    EPW50024   1.185   5.682   3.127 -0.0939  0.4562  0.5279
12330WAT      O50025   1.120   7.599   3.794 -0.2783 -0.1723  0.2781
12330WAT     H150026   1.193   7.644   3.780 -0.7183  0.3160 -0.5092
12330WAT     H250027   1.057   7.659   3.787 -0.9487 -1.0200 -1.7445
12330WAT    EPW50028   1.122   7.614   3.791  1.1153  0.3150 -0.1336
12331WAT      O50029   1.926   0.497   2.048 -0.0809 -0.2209 -0.0810
12331WAT     H150030   1.910   0.421   2.088 -1.0506 -0.5234 -1.0034
12331WAT     H250031   1.942   0.552   2.114 -1.1400 -0.8243  0.7011
12331WAT    EPW50032   1.926   0.494   2.064 -0.1554  0.2470 -0.2109
12332WAT      O50033   8.058   7.781   0.990 -0.0077 -0.2964  0.2873
12332WAT     H150034   8.085   7.850   0.944  1.7501 -1.1966 -0.1171
12332WAT     H250035   8.085   7.713   0.942 -0.8743 -1.2650  1.1306
12332WAT    EPW50036   8.066   7.781   0.976 -0.2872 -0.2551 -0.4163
12333WAT      O50037   1.541   7.249   2.308 -0.5958 -0.8109 -0.0565
12333WAT     H150038   1.616   7.261   2.349  0.5283  0.4354 -2.2818
12333WAT     H250039   1.501   7.326   2.313 -1.5360 -1.3211  0.6869
12333WAT    EPW50040   1.546   7.262   2.315  0.1851  1.0706 -0.0185
12334WAT      O50041   8.079   6.820   3.079 -0.8259 -0.2345  0.0490
12334WAT     H150042   8.158   6.789   3.099 -0.1744  1.2549 -0.0788
12334WAT     H250043   8.088   6.850   2.997 -1.7013 -0.6045 -0.1955
12334WAT    EPW50044   8.092   6.820   3.070 -0.0237  0.2372 -1.0457
12335WAT      O50045   1.098   0.729   2.140  0.3598  0.6639  0.2286
12335WAT     H150046   1.041   0.793   2.131  2.2166  2.3115 -0.5401
12335WAT     H250047   1.145   0.752   2.210  1.2607  0.3569 -0.2462
12335WAT    EPW50048   1.097   0.742   2.149 -0.5164  0.7316 -0.5632
12336WAT      O50049   0.724   5.403   1.562 -0.8516 -0.6080  0.4925
12336WAT     H150050   0.727   5.344   1.498  1.1207 -1.5592  1.3687
12336WAT     H250051   0.638   5.412   1.578 -1.2456 -3.1536  0.2283
12336WAT    EPW50052   0.711   5.396   1.555  0.0730 -0.0074  0.0991
12337WAT      O50053   0.803   7.321   1.894  0.1693  0.4605 -0.4197
12337WAT     H150054   0.815   7.377   1.828  4.1657 -1.4061 -1.6499
12337WAT     H250055   0.805   7.243   1.854  0.0271 -0.6675  1.6564
12337WAT    EPW50056   0.805   7.318   1.878 -0.4024 -0.5799  0.5934
12338WAT      O50057   0.937   0.317   3.875 -0.2905 -0.0796 -0.0647
12338WAT     H150058   0.925   0.238   3.840 -0.0150 -0.4209  0.5986
12338WAT     H250059   0.930   0.303   3.961  1.2012  0.3446  0.1546
12338WAT    EPW50060   0.934   0.303   3.883 -0.9021 -0.2627  0.8406
12339WAT      O50061   1.315   6.645   2.189  0.0049 -0.0796 -0.7299
12339WAT     H150062   1.243   6.619   2.148 -0.6984  0.8862 -0.1491
12339WAT     H250063   1.334   6.579   2.243 -1.3150  0.2676  0.1966
12339WAT    EPW50064   1.307   6.631   2.191  0.1821 -0.1593 -0.0129
12340WAT      O50065   7.938   7.368   1.507 -0.2623 -0.1904 -0.0555
12340WAT     H150066   7.917   7.365   1.422  2.3012 -0.0782 -0.7858
12340WAT     H250067   7.950   7.454   1.521 -1.3590 -0.1380  0.6418
12340WAT    EPW50068   7.937   7.381   1.496 -0.0419  0.0339  0.1227
12341WAT      O50069   1.127   7.151   0.306 -0.2299 -0.0321 -0.3107
12341WAT     H150070   1.093   7.152   0.226 -1.6598  0.8420  0.2735
12341WAT     H250071   1.068   7.108   0.353  0.3236 -0.0477  0.3860
12341WAT    EPW50072   1.113   7.145   0.301 -0.9806  0.2898 -0.5945
12342WAT      O50073   0.101   7.637   1.298 -0.4618  0.4414 -0.1526
12342WAT     H150074   0.090   7.642   1.212 -0.9791 -0.5122 -0.1580
12342WAT     H250075   0.132   7.716   1.320  1.5136  0.1010 -1.4572
12342WAT    EPW50076   0.104   7.650   1.288  0.8073 -0.0173 -0.2863
12343WAT      O50077   2.172   7.565   2.887  0.1697  0.3455  0.1366
12343WAT     H150078   2.092   7.553   2.855 -0.3010  1.1311  0.9613
12343WAT     H250079   2.224   7.563   2.817 -0.3348 -1.9368 -0.2491
12343WAT    EPW50080   2.168   7.563   2.872 -0.2634 -0.0042 -0.2341
12344WAT      O50081   1.271   7.027   3.302  0.1122 -0.4223  0.2191
12344WAT     H150082   1.345   7.070   3.287 -0.3757  0.6274  0.6863
12344WAT     H250083   1.266   6.971   3.236 -0.2968  1.7025 -1.6942
12344WAT    EPW50084   1.281   7.025   3.290  0.7210  0.7469  0.5567
12345WAT      O50085   0.649   6.068   4.015 -0.2044 -0.0855 -0.4264
12345WAT     H150086   0.707   6.004   4.006  1.5787  0.9282  2.3694
12345WAT     H250087   0.621   6.059   4.098 -1.7167  1.3352 -0.7180
12345WAT    EPW50088   0.653   6.058   4.026  0.3392  0.2700  0.2197
12346WAT      O50089   7.990   6.403   0.594  0.6816  0.2797 -0.2271
12346WAT     H150090   8.021   6.339   0.544  0.1741  1.0266 -1.5507
12346WAT     H250091   7.934   6.444   0.542  1.2778  2.0456  0.4436
12346WAT    EPW50092   7.986   6.399   0.579  0.4474 -0.4140  0.2601
12347WAT      O50093   1.057   7.370   3.085  0.4700 -0.4310 -0.2112
12347WAT     H150094   1.028   7.447   3.114  2.9553  0.2432  0.7143
12347WAT     H250095   1.003   7.313   3.124 -0.9043  0.7595 -0.2721
12347WAT    EPW50096   1.044   7.373   3.095 -0.0194 -0.7806 -0.6925
12348WAT      O50097   1.489   7.788   2.688 -0.0820  0.1333 -0.6558
12348WAT     H150098   1.513   7.860   2.730 -0.4152 -0.4255  0.5399
12348WAT     H250099   1.406   7.804   2.666  0.2714  0.6627 -1.6603
12348WAT    EPW50100   1.480   7.801   2.691  1.1646 -0.0321 -0.0909
12349WAT      O50101   0.531   7.078   3.189  0.0015  0.0200  0.4208
12349WAT     H150102   0.566   7.082   3.269  0.2395 -0.3125  0.3359
12349WAT     H250103   0.498   7.158   3.177 -0.7379 -0.1619  1.1626
12349WAT    EPW50104   0.531   7.091   3.199 -0.0741 -0.1365 -0.0624
12350WAT      O50105   0.840   7.837   3.356 -0.0309  0.0197 -0.1966
12350WAT     H150106   0.859   7.775   3.296  0.5275 -0.0465  0.0419
12350WAT     H250107   0.787   7.796   3.411 -0.5777  0.0891 -0.6628
12350WAT    EPW50108   0.835   7.822   3.355  0.0111  0.1109  0.1270
12351WAT      O50109   1.356   0.927   3.069  0.1220 -0.2047 -0.4778
12351WAT     H150110   1.398   1.003   3.080 -0.6492  0.2577 -0.6572
12351WAT     H250111   1.282   0.938   3.113  0.0620 -0.9069 -0.3986
12351WAT    EPW50112   1.351   0.940   3.077 -0.1312  0.0316 -0.6428
12352WAT      O50113   0.489   5.943   2.661 -0.5740 -0.2298 -0.3310
12352WAT     H150114   0.404   5.959   2.674 -0.4247  1.9916 -1.6148
12352WAT     H250115   0.518   5.921   2.740 -2.2787 -0.7313  0.1947
12352WAT    EPW50116   0.481   5.942   2.674  0.9552  0.5503 -0.6606
12353WAT      O50117   1.782   7.957   1.694  0.4948 -0.6710 -0.1797
12353WAT     H150118   1.749   7.877   1.689  0.1909 -0.5112 -0.8742
12353WAT     H250119   1.776   7.987   1.612 -0.1765  0.3701  0.2307
12353WAT    EPW50120   1.776   7.949   1.681 -0.3161  0.0367 -0.1837
12354WAT      O50121   0.581   0.223   3.220  0.2633 -0.4733  0.2576
12354WAT     H150122   0.603   0.139   3.220  1.8904 -0.0851  0.3524
12354WAT     H250123   0.645   0.261   3.174 -1.9319  0.3886 -2.3728
12354WAT    EPW50124   0.594   0.216   3.213 -0.0457  0.1044 -0.0634
12355WAT      O50125   8.009   7.869   3.249 -0.3228 -0.1431 -0.9601
12355WAT     H150126   7.954   7.929   3.217 -1.4791  0.2711  1.5229
12355WAT     H250127   8.078   7.916   3.273 -0.1390 -0.2038 -1.3698
12355WAT    EPW50128   8.011   7.885   3.248 -0.1944  0.9363 -0.3798
12356WAT      O50129   7.849   0.211   1.166 -0.2777 -0.0458  0.1955
12356WAT     H150130   7.777   0.260   1.167 -0.1109  0.2026  0.8801
12356WAT     H250131   7.912   0.268   1.144 -0.0855  0.0542  0.9730
12356WAT    EPW50132   7.848   0.227   1.163 -0.4408  0.0938  0.1582
12357WAT      O50133   1.671   7.927   4.089 -0.3815  0.2938  0.3363
12357WAT     H150134   1.712   7.869   4.140 -0.9113 -0.5018 -0.1146
12357WAT     H250135   1.727   7.994   4.084  1.6182 -1.3684 -1.5231
12357WAT    EPW50136   1.685   7.928   4.096  0.1655  0.3912  0.5056
12358WAT      O50137   1.798   7.781   4.292  0.0917  0.3410  0.6168
12358WAT     H150138   1.762   7.845   4.340  0.5115  1.3816 -0.3802
12358WAT     H250139   1.884   7.796   4.299  0.2531 -0.8824  1.3591
12358WAT    EPW50140   1.805   7.793   4.300  0.6523 -0.3016  0.3054
12359WAT      O50141   0.767   7.791   1.516  0.3307  0.1400 -1.0888
12359WAT     H150142   0.693   7.752   1.493 -0.0540  0.9663 -1.3038
12359WAT     H250143   0.756   7.809   1.601  0.4241 -0.0320 -1.0395
12359WAT    EPW50144   0.755   7.788   1.526  0.7474  0.1134 -0.3785
12360WAT      O50145   1.239   7.802   2.558 -0.4473  0.0546 -0.2148
12360WAT     H150146   1.284   7.853   2.504  0.6041  0.4116  0.9374
12360WAT     H250147   1.252   7.722   2.526  1.5615  0.0718  0.3777
12360WAT    EPW50148   1.248   7.798   2.546  0.0528 -0.4811 -0.1370
12361WAT      O50149   1.202   0.991   0.911 -0.3539  0.0127 -0.3146
12361WAT     H150150   1.231   1.054   0.859  0.4176  0.9015  1.1245
12361WAT     H250151   1.173   1.034   0.981 -1.5049 -1.1282 -0.0508
12361WAT    EPW50152   1.202   1.007   0.914 -0.2170 -0.4209 -0.3921
12362WAT      O50153   1.280   7.775   1.950  0.0926 -0.6108 -0.1801
12362WAT     H150154   1.229   7.705   1.961  1.6524 -1.8698 -0.4878
12362WAT     H250155   1.258   7.804   1.871  0.8776 -2.0901 -0.9856
12362WAT    EPW50156   1.269   7.769   1.940  0.2034  0.4750  0.9914
12363WAT      O50157   1.088   5.971   7.385  0.1919 -0.0724  0.2999
12363WAT     H150158   1.087   6.039   7.331 -0.5011 -1.6113 -1.7379
12363WAT     H250159   1.004   5.956   7.401  0.1289 -2.0149 -1.4578
12363WAT    EPW50160   1.076   5.979   7.380 -0.1428 -0.5332  0.3165
12364WAT      O50161   7.820   7.597   0.798  0.2583  0.4559 -0.7059
12364WAT     H150162   7.884   7.614   0.742  0.6005  1.1008 -0.1343
12364WAT     H250163   7.854   7.619   0.875 -0.2774 -0.2238 -0.2719
12364WAT    EPW50164   7.834   7.603   0.801 -0.3457 -0.4826  1.0090
12365WAT      O50165   1.345   7.189   0.593  0.0099  0.2520 -0.2130
12365WAT     H150166   1.356   7.122   0.538 -1.2936 -1.5852  1.5959
12365WAT     H250167   1.419   7.190   0.638  0.2852  0.4502 -0.6632
12365WAT    EPW50168   1.358   7.179   0.591 -0.2031 -0.8472 -0.2414
12366WAT      O50169   0.358   7.224   1.472  0.4089  0.1012 -0.0582
12366WAT     H150170   0.397   7.218   1.394 -0.1144 -0.7994 -0.2653
12366WAT     H250171   0.288   7.272   1.456 -0.0962 -0.6985 -0.3218
12366WAT    EPW50172   0.354   7.230   1.458  0.4048 -0.6717 -0.7866
12367WAT      O50173   2.005   7.623   0.717 -0.5467 -0.1196 -0.5452
12367WAT     H150174   2.025   7.707   0.703 -1.1876 -0.1619 -1.8556
12367WAT     H250175   2.078   7.591   0.754 -0.0069  0.8288 -0.7347
12367WAT    EPW50176   2.019   7.631   0.721 -0.1103 -0.0210 -0.1163
12368WAT      O50177   2.284   7.354   0.525  0.2924  0.5647  0.1413
12368WAT     H150178   2.320   7.286   0.485  1.0792  2.0433 -1.8189
12368WAT     H250179   2.330   7.360   0.599  0.5341 -0.7073  0.1191
12368WAT    EPW50180   2.296   7.345   0.530  0.3719  0.6221 -0.0163
12369WAT      O50181   7.491   8.009   0.913  0.0094  0.2436 -1.0700
12369WAT     H150182   7.487   8.046   0.991  0.2393 -1.5523 -0.1402
12369WAT     H250183   7.572   7.976   0.910 -0.7139 -1.7148 -1.0225
12369WAT    EPW50184   7.503   8.009   0.924  1.2465  0.2065 -0.0784
12370WAT      O50185   0.391   6.472   1.534 -0.7144  0.0160 -0.1272
12370WAT     H150186   0.306   6.468   1.512 -0.3283 -0.8708 -1.6216
12370WAT     H250187   0.410   6.557   1.526 -1.1079  0.0100 -1.2791
12370WAT    EPW50188   0.381   6.484   1.529 -1.1279 -0.3658 -0.4518
12371WAT      O50189   1.719   0.563   0.058 -0.5948  0.1832 -0.0974
12371WAT     H150190   1.686   0.505   0.114 -0.3711 -0.2010 -0.3629
12371WAT     H250191   1.785   0.599   0.102 -1.4740  1.1166  0.5231
12371WAT    EPW50192   1.724   0.560   0.073 -0.4944 -0.2200 -0.2007
12372WAT      O50193   1.349   7.946   2.350 -0.5057  0.6269  0.3679
12372WAT     H150194   1.348   8.033   2.362 -0.1973  0.7844 -0.5969
12372WAT     H250195   1.403   7.936   2.282 -0.4305 -0.3395  0.5531
12372WAT    EPW50196   1.357   7.958   2.342  1.1559  0.0563  0.1487
12373WAT      O50197   1.189   6.974   8.004  0.0549  0.2003 -0.4741
12373WAT     H150198   1.140   7.037   8.040  1.9443  2.4834 -1.6631
12373WAT     H250199   1.136   6.938   7.944 -1.2294  0.2348  0.5875
12373WAT    EPW50200   1.174   6.978   8.001  0.4900  0.3181 -0.7752
12374WAT      O50201   7.120   7.577   1.931 -0.1716  0.0822  0.1562
12374WAT     H150202   7.063   7.639   1.908  0.8431  0.2474 -2.2825
12374WAT     H250203   7.089   7.506   1.891  1.4413  0.2688 -1.5800
12374WAT    EPW50204   7.107   7.576   1.922  0.2314  0.2902  0.0496
12375WAT      O50205   2.117   0.312   0.146 -0.1151 -0.2126 -0.0418
12375WAT     H150206   2.168   0.371   0.106 -0.3263 -0.5972 -0.9171
12375WAT     H250207   2.125   0.331   0.230  1.9198 -0.5913 -0.0936
12375WAT    EPW50208   2.126   0.323   0.152 -0.7381 -0.8421 -0.1347
12376WAT      O50209   2.264   8.005   0.874 -0.4306  0.5464 -0.9720
12376WAT     H150210   2.236   8.088   0.875 -1.1777  0.3010 -0.0765
12376WAT     H250211   2.226   7.970   0.944  2.8337  0.3937  0.9332
12376WAT    EPW50212   2.254   8.012   0.884 -0.0834 -0.6448  0.1941
12377WAT      O50213   2.948   0.556   7.994 -0.0254  0.1826  0.7718
12377WAT     H150214   2.906   0.487   7.960 -1.9648  0.9491  1.5152
12377WAT     H250215   2.905   0.573   8.067  1.0896  1.5589  1.1560
12377WAT    EPW50216   2.936   0.548   8.000 -0.7992  0.0593  0.6117
12378WAT      O50217   0.906   6.519   1.461 -0.0372  0.3338  0.3422
12378WAT     H150218   0.846   6.532   1.523  0.0093  0.4764  0.3583
12378WAT     H250219   0.909   6.596   1.419  0.1594  0.3415  0.3659
12378WAT    EPW50220   0.898   6.533   1.464 -0.8655 -0.0644 -0.6946
12379WAT      O50221   7.586   7.338   0.241 -0.5895 -0.1618 -0.2255
12379WAT     H150222   7.608   7.376   0.317  1.9770  1.2305 -1.5076
12379WAT     H250223   7.595   7.253   0.257 -2.2911 -0.0746  1.5693
12379WAT    EPW50224   7.591   7.331   0.255 -0.2681 -0.5268 -0.4333
12380WAT      O50225   7.887   7.237   0.565  0.1514  0.5566 -0.0663
12380WAT     H150226   7.841   7.311   0.564 -0.7531  0.0352  0.8668
12380WAT     H250227   7.968   7.263   0.584 -0.2194  1.2684  0.5994
12380WAT    EPW50228   7.892   7.252   0.567 -0.2200  1.5776 -0.3145
12381WAT      O50229   7.455   7.500   1.360  0.0468  0.2250 -0.1820
12381WAT     H150230   7.454   7.533   1.279 -0.3467  2.2113  0.5890
12381WAT     H250231   7.530   7.529   1.393 -0.1075 -0.0135  0.3922
12381WAT    EPW50232   7.466   7.509   1.353  0.0814  0.4778 -0.5115
12382WAT      O50233   0.425   6.801   7.887 -0.2868  0.2435  0.0122
12382WAT     H150234   0.494   6.854   7.894 -1.2707  1.4530  1.0984
12382WAT     H250235   0.360   6.846   7.926 -1.6172 -0.9743 -0.6906
12382WAT    EPW50236   0.425   6.816   7.894  0.6183  0.1430 -0.1052
12383WAT      O50237   7.308   7.327   0.978 -0.0619 -0.2157 -0.0566
12383WAT     H150238   7.384   7.297   0.946  0.6585  0.0772  1.3064
12383WAT     H250239   7.252   7.263   0.960 -0.1125  0.5706 -3.3081
12383WAT    EPW50240   7.311   7.313   0.971  0.3085 -0.4880  0.2392
12384WAT      O50241   8.008   6.777   1.172  0.0907  0.3170 -0.1509
12384WAT     H150242   8.031   6.854   1.205 -0.7439 -0.0826  1.4519
12384WAT     H250243   7.953   6.744   1.231  1.2907 -2.0272 -0.2036
12384WAT    EPW50244   8.003   6.783   1.185 -0.3790 -0.9142 -0.4239
12385WAT      O50245   0.368   0.594   1.829  0.2921  0.3598 -0.1932
12385WAT     H150246   0.311   0.562   1.771 -2.4124  2.7907  0.8625
12385WAT     H250247   0.431   0.628   1.779 -0.2406 -0.5392 -1.5304
12385WAT    EPW50248   0.368   0.594   1.813 -0.0076  0.1542  0.1680
12386WAT      O50249   6.432   7.091   2.949  0.4549 -0.9407 -0.3562
12386WAT     H150250   6.410   7.012   2.980  1.1441 -0.8759  0.3384
12386WAT     H250251   6.479   7.125   3.014  1.3134 -0.5005 -1.1911
12386WAT    EPW50252   6.436   7.084   2.963 -0.1461 -0.1388  0.3831
12387WAT      O50253   0.853   6.873   2.043  0.0260  0.1896 -0.2735
12387WAT     H150254   0.781   6.840   2.007  0.7617 -0.2378 -1.3872
12387WAT     H250255   0.917   6.821   2.014  1.2641  2.5544 -2.1911
12387WAT    EPW50256   0.852   6.860   2.034 -0.1934  0.5066  0.0683
12388WAT      O50257   0.769   7.107   0.143  0.0767 -0.0843  0.3551
12388WAT     H150258   0.710   7.152   0.190 -0.9022 -0.6867 -0.2660
12388WAT     H250259   0.781   7.034   0.191  0.3950  0.0779  0.5258
12388WAT    EPW50260   0.762   7.103   0.157 -0.8255  0.1135 -0.6140
12389WAT      O50261   1.082   7.279   2.476 -0.8001 -0.0757  0.3164
12389WAT     H150262   1.008   7.234   2.492 -2.1742  1.7304 -0.6097
12389WAT     H250263   1.089   7.276   2.389  1.1306 -1.4900  0.4562
12389WAT    EPW50264   1.072   7.272   2.466  0.0451  0.2446 -0.4333
12390WAT      O50265   0.006   7.592   0.267  0.9066  0.7792 -0.5629
12390WAT     H150266  -0.034   7.647   0.212  1.1797  0.8059 -0.7383
12390WAT     H250267   0.081   7.632   0.286  0.4014  1.2094  0.5931
12390WAT    EPW50268   0.011   7.606   0.261 -0.4783  0.5303 -0.0947
12391WAT      O50269   7.444   0.046   1.176 -0.3186 -0.6283 -0.3315
12391WAT     H150270   7.427   0.128   1.151 -0.4721 -0.6962 -0.4475
12391WAT     H250271   7.476   0.056   1.257  0.9635 -0.3505 -0.8628
12391WAT    EPW50272   7.446   0.059   1.184  0.4902 -0.1193 -0.0793
12392WAT      O50273   2.215   5.732   2.040 -0.0657  0.0540 -0.4078
12392WAT     H150274   2.254   5.690   2.105  0.1506 -0.1814 -0.6858
12392WAT     H250275   2.181   5.668   1.992  0.0292  0.2112 -0.6867
12392WAT    EPW50276   2.215   5.716   2.042  0.3424  0.2292  0.2750
12393WAT      O50277   0.813   6.839   7.863  0.1410  0.1702  0.1932
12393WAT     H150278   0.840   6.779   7.920 -0.7493 -0.7928 -0.3485
12393WAT     H250279   0.887   6.877   7.837  0.7036 -0.4777  0.7921
12393WAT    EPW50280   0.828   6.836   7.867 -0.4641 -0.0897  0.1612
12394WAT      O50281   0.609   7.249   0.350 -0.6513 -0.6062  0.0677
12394WAT     H150282   0.626   7.220   0.430  0.2518 -1.4642 -0.4165
12394WAT     H250283   0.628   7.334   0.355 -1.6501 -0.4209  1.0382
12394WAT    EPW50284   0.614   7.257   0.362 -1.3062 -0.2982 -0.3957
12395WAT      O50285   0.843   6.705   0.051  0.6028  0.1242  0.0526
12395WAT     H150286   0.914   6.685   0.098  2.6696  0.6485 -2.5657
12395WAT     H250287   0.831   6.790   0.067 -0.3945 -0.2953  1.6332
12395WAT    EPW50288   0.852   6.715   0.060  0.0544 -0.1360 -0.0231
12396WAT      O50289   1.210   0.394   0.827  0.0172 -0.2535  0.5485
12396WAT     H150290   1.249   0.444   0.886 -0.1405  0.8002 -0.2014
12396WAT     H250291   1.156   0.344   0.874 -1.8170  2.1127  1.1674
12396WAT    EPW50292   1.208   0.394   0.842  0.3611  0.2566 -0.5140
12397WAT      O50293   0.591   7.429   0.716 -0.0840 -0.2554  0.1822
12397WAT     H150294   0.659   7.426   0.771 -1.4739  0.2882  2.0438
12397WAT     H250295   0.627   7.451   0.640  2.2896 -3.4105  0.1664
12397WAT    EPW50296   0.607   7.432   0.713  0.0729  0.3782 -0.2767
12398WAT      O50297   0.249   7.889   1.363  0.2723 -0.5640  0.6859
12398WAT     H150298   0.299   7.862   1.429  0.8756  0.1396  0.5426
12398WAT     H250299   0.225   7.970   1.388 -1.0706 -0.9967  0.8897
12398WAT    EPW50300   0.253   7.897   1.377 -0.0477 -0.3857 -1.2352
12399WAT      O50301   0.051   0.626   2.081  0.1800  0.2001 -0.3296
12399WAT     H150302  -0.024   0.623   2.125  0.9000  1.3474  1.0530
12399WAT     H250303   0.091   0.552   2.105 -0.9056 -0.9492 -1.9042
12399WAT    EPW50304   0.046   0.614   2.091 -0.7494 -0.3939 -0.0536
12400WAT      O50305   2.210   3.306   7.227  0.0716 -0.1741 -0.2333
12400WAT     H150306   2.295   3.322   7.242 -0.5704  1.7515  1.8938
12400WAT     H250307   2.194   3.352   7.154  1.1219 -1.8053 -1.5761
12400WAT    EPW50308   2.220   3.315   7.218  0.0830 -0.6602 -0.3970
12401WAT      O50309   2.528   6.192   8.009 -0.3528  0.0115 -0.4564
12401WAT     H150310   2.535   6.152   8.086  0.9709 -1.6153 -1.3245
12401WAT     H250311   2.450   6.168   7.980  0.4171 -2.1272 -0.9616
12401WAT    EPW50312   2.518   6.182   8.016 -0.6866  0.5834 -0.3302
12402WAT      O50313   7.796   5.055   7.973  0.4862  0.3024  0.0284
12402WAT     H150314   7.805   4.994   8.035  1.6403  0.8646  0.4548
12402WAT     H250315   7.744   5.017   7.914 -2.2540  0.4363  2.1838
12402WAT    EPW50316   7.790   5.040   7.973  1.1191  0.5249 -0.1393
12403WAT      O50317   1.619   5.077   7.982 -0.3243  0.5723  0.0922
12403WAT     H150318   1.536   5.049   7.979 -1.6359  3.8916  0.2173
12403WAT     H250319   1.635   5.103   7.900  0.4207  0.4048  0.1809
12403WAT    EPW50320   1.609   5.077   7.970 -0.2813  0.2095 -0.0913
12404WAT      O50321   1.140   6.142   7.945 -1.0223  0.2757 -0.0294
12404WAT     H150322   1.224   6.155   7.927 -0.5301 -0.5913  1.4870
12404WAT     H250323   1.100   6.154   7.868  0.5440  0.1029 -0.9010
12404WAT    EPW50324   1.146   6.146   7.931  0.5300 -0.0149  0.2629
12405WAT      O50325   7.732   4.392   7.636 -0.2950 -0.2635 -0.1792
12405WAT     H150326   7.797   4.392   7.577  0.0372 -0.4131  0.1857
12405WAT     H250327   7.765   4.435   7.704  0.1517 -2.0461  0.7899
12405WAT    EPW50328   7.746   4.398   7.637 -0.9900  0.6638  0.1457
12406WAT      O50329   2.577   7.211   6.394  0.6979 -0.0713 -0.7499
12406WAT     H150330   2.541   7.185   6.319 -2.5663  0.4049  0.4980
12406WAT     H250331   2.593   7.296   6.380  0.8524 -0.1624 -1.1505
12406WAT    EPW50332   2.574   7.220   6.380  0.2547 -0.0995 -0.4232
12407WAT      O50333   1.798   5.481   6.228  0.1013 -0.7420  0.1666
12407WAT     H150334   1.792   5.566   6.248  0.8084 -0.4493 -0.8072
12407WAT     H250335   1.875   5.457   6.261  0.6096 -0.6105 -0.8848
12407WAT    EPW50336   1.808   5.490   6.236 -0.1456 -0.2508  0.1773
12408WAT      O50337   3.205   5.101   7.789 -0.3295 -0.6189 -0.1706
12408WAT     H150338   3.147   5.039   7.768 -1.1263  0.5451 -1.6427
12408WAT     H250339   3.278   5.074   7.750 -0.6874 -0.6115 -0.8603
12408WAT    EPW50340   3.207   5.088   7.780  0.6506  0.3517 -0.7697
12409WAT      O50341   1.480   5.681   6.117  0.0494  0.3102  0.0094
12409WAT     H150342   1.496   5.598   6.142  0.3217 -0.2678 -1.9330
12409WAT     H250343   1.427   5.711   6.180  0.0026 -1.3025  0.8108
12409WAT    EPW50344   1.475   5.673   6.130  0.1188  0.4564  0.0364
12410WAT      O50345   0.841   4.895   7.668 -0.1256 -0.3582  0.1106
12410WAT     H150346   0.868   4.842   7.732 -1.3048 -0.2996  0.6866
12410WAT     H250347   0.914   4.913   7.624  0.9832  0.6734  2.2260
12410WAT    EPW50348   0.856   4.890   7.671  0.2087 -0.5068 -0.0189
12411WAT      O50349   3.717   7.420   6.439 -0.2279  0.4176 -0.2955
12411WAT     H150350   3.777   7.368   6.476 -1.2993 -0.6164  0.0455
12411WAT     H250351   3.680   7.460   6.507 -0.4609  0.4564 -0.4451
12411WAT    EPW50352   3.720   7.418   6.455 -0.0992 -0.0652 -1.1862
12412WAT      O50353   2.668   6.843   7.757  0.1214  0.0997  0.2243
12412WAT     H150354   2.609   6.789   7.793  2.2094 -2.0297  0.7234
12412WAT     H250355   2.654   6.835   7.671 -1.0565  0.5799  0.3536
12412WAT    EPW50356   2.657   6.834   7.750 -0.4427 -0.3114 -0.3407
12413WAT      O50357   1.046   4.288   7.375 -0.0058  0.8605  0.3937
12413WAT     H150358   1.027   4.288   7.290 -0.7965  4.7812  0.3975
12413WAT     H250359   1.128   4.319   7.377 -0.9150  3.4298  1.0421
12413WAT    EPW50360   1.055   4.293   7.363  0.3039 -0.0289 -0.3382
12414WAT      O50361   1.075   3.903   7.574 -0.1531 -0.5829  0.0250
12414WAT     H150362   1.133   3.927   7.635 -1.1525  1.9725  0.0946
12414WAT     H250363   1.027   3.842   7.614 -0.0801  0.2320  1.4226
12414WAT    EPW50364   1.077   3.898   7.589  0.6773 -0.3298 -0.9434
12415WAT      O50365   6.963   4.394   7.079 -0.4156  0.4841  0.3292
12415WAT     H150366   6.980   4.411   7.163 -2.3438 -1.0597  1.1245
12415WAT     H250367   7.010   4.322   7.063 -0.0606  0.7702  0.0724
12415WAT    EPW50368   6.972   4.385   7.089 -0.4823  1.0599 -0.3351
12416WAT      O50369   2.141   6.398   7.596  0.1683  0.3822  0.0197
12416WAT     H150370   2.168   6.317   7.578 -2.3007 -0.3080 -0.9824
12416WAT     H250371   2.187   6.420   7.667  1.2567 -1.6930  0.0264
12416WAT    EPW50372   2.152   6.390   7.604  0.5067  0.7148  0.4272
12417WAT      O50373   1.173   6.538   7.345  0.2331  0.2524 -0.0566
12417WAT     H150374   1.227   6.517   7.281  0.5419  0.3589  0.1670
12417WAT     H250375   1.194   6.481   7.408 -0.0985  0.1179 -0.0671
12417WAT    EPW50376   1.184   6.526   7.345 -0.2181  0.2895  0.6159
12418WAT      O50377   2.279   6.481   7.824 -0.1934  0.3823  0.1657
12418WAT     H150378   2.358   6.518   7.813 -0.1093  0.9491  2.2834
12418WAT     H250379   2.230   6.546   7.854 -0.3436 -0.8373  2.8786
12418WAT    EPW50380   2.283   6.496   7.827 -0.1736 -0.7784  0.1090
12419WAT      O50381   1.567   3.729   7.059  0.2166  0.0595 -0.5182
12419WAT     H150382   1.601   3.689   7.129 -0.1313 -0.2391 -0.5107
12419WAT     H250383   1.537   3.804   7.091 -1.2973 -0.7104 -0.0058
12419WAT    EPW50384   1.567   3.734   7.074 -0.5608 -0.0686 -0.4200
12420WAT      O50385   1.120   4.907   6.923 -0.3073 -0.1541 -0.4828
12420WAT     H150386   1.053   4.851   6.916 -2.8014  2.7025 -1.6656
12420WAT     H250387   1.107   4.944   7.001  0.9346 -0.7212  0.0101
12420WAT    EPW50388   1.108   4.904   6.934  0.1774 -0.5908  0.3182
12421WAT      O50389   1.493   4.485   7.204  0.4303  0.1440  0.1691
12421WAT     H150390   1.498   4.559   7.157  1.7476 -0.3266 -0.5027
12421WAT     H250391   1.576   4.469   7.225  0.2070 -1.2592  0.0897
12421WAT    EPW50392   1.506   4.493   7.200 -0.0593 -0.0407 -0.0172
12422WAT      O50393   0.525   3.953   0.482 -0.8684  0.4924  0.3618
12422WAT     H150394   0.537   3.999   0.408 -0.9541 -0.6119 -0.3735
12422WAT     H250395   0.483   3.882   0.454  0.7916 -0.8586  1.1442
12422WAT    EPW50396   0.521   3.949   0.467 -0.3220 -0.3014 -0.2174
12423WAT      O50397   8.019   4.358   7.621 -0.0381 -0.2111  0.0685
12423WAT     H150398   8.014   4.351   7.707  1.0070 -0.5827  0.1214
12423WAT     H250399   8.029   4.276   7.594  0.8544 -0.0020 -0.2878
12423WAT    EPW50400   8.020   4.345   7.629  0.3828  0.4652 -0.4901
12424WAT      O50401   1.316   4.416   7.461  0.2286 -0.3865  0.4901
12424WAT     H150402   1.354   4.464   7.399  0.7526 -1.1366  0.2225
12424WAT     H250403   1.257   4.470   7.495 -0.8301 -0.2572 -1.3692
12424WAT    EPW50404   1.313   4.431   7.457 -0.1446  1.2219  0.2272
12425WAT      O50405   0.125   4.737   0.156  0.2355 -0.2665  0.2908
12425WAT     H150406   0.088   4.659   0.144  0.7634 -0.6247  0.8963
12425WAT     H250407   0.131   4.770   0.076 -0.0267 -0.8301  0.0322
12425WAT    EPW50408   0.120   4.730   0.143  0.7822  0.9609 -0.0437
12426WAT      O50409   1.928   6.314   7.304 -0.6735  0.1457  0.2057
12426WAT     H150410   1.879   6.299   7.374 -0.5536  1.2491  0.5566
12426WAT     H250411   1.910   6.397   7.284 -0.9422 -0.2363 -1.2708
12426WAT    EPW50412   1.918   6.324   7.312  0.0563 -0.8285 -0.1295
12427WAT      O50413   0.858   4.358   0.301 -0.6186  0.2095 -0.5900
12427WAT     H150414   0.795   4.370   0.360 -0.4656  0.0418 -0.3892
12427WAT     H250415   0.835   4.285   0.260  1.1124 -1.7982  1.7152
12427WAT    EPW50416   0.845   4.349   0.304 -0.1184  0.2076  0.0214
12428WAT      O50417   1.623   5.205   7.742  0.4727  0.0851  0.5039
12428WAT     H150418   1.673   5.275   7.751  1.1045  0.0384 -1.9655
12428WAT     H250419   1.544   5.238   7.726  0.4756  0.2111  0.7525
12428WAT    EPW50420   1.618   5.220   7.741  0.2540 -0.2129 -0.9043
12429WAT      O50421   1.768   4.432   7.654  0.6290 -0.4565  0.3511
12429WAT     H150422   1.685   4.441   7.678  0.7419  0.4128  0.4708
12429WAT     H250423   1.803   4.510   7.672  2.0189 -1.4714  2.4052
12429WAT    EPW50424   1.761   4.445   7.660  0.4476  0.2807 -0.3058
12430WAT      O50425   2.693   4.750   7.123 -0.1270  0.2078  0.0356
12430WAT     H150426   2.617   4.724   7.089  0.2394 -1.1379  0.1945
12430WAT     H250427   2.705   4.697   7.191  0.8676  0.5189  0.1242
12430WAT    EPW50428   2.684   4.738   7.128  0.8674  0.1688 -0.5041
12431WAT      O50429   1.756   7.215   7.229  0.0424  0.1483  0.0793
12431WAT     H150430   1.740   7.246   7.309 -0.2700 -1.8889  0.8644
12431WAT     H250431   1.781   7.132   7.244  2.5765  0.4555 -1.7521
12431WAT    EPW50432   1.758   7.207   7.243 -0.3729 -0.4970  0.8383
12432WAT      O50433   1.669   5.807   6.910  0.3109  0.0082  0.0562
12432WAT     H150434   1.736   5.752   6.898 -0.9793 -1.5228 -0.5344
12432WAT     H250435   1.674   5.827   6.995 -0.2132 -2.5486  0.7900
12432WAT    EPW50436   1.680   5.802   6.921 -0.1214 -0.5049 -0.5640
12433WAT      O50437   3.175   6.114   0.160 -0.3046  0.3213 -0.3818
12433WAT     H150438   3.089   6.130   0.160 -0.1942  0.9064 -0.4194
12433WAT     H250439   3.208   6.175   0.107  0.1819  0.3665 -0.0315
12433WAT    EPW50440   3.167   6.125   0.152  0.7472 -0.6420  0.6705
12434WAT      O50441   1.844   5.365   7.817  0.2341 -0.1933  0.4380
12434WAT     H150442   1.883   5.421   7.763 -0.8119 -0.6128 -0.8074
12434WAT     H250443   1.842   5.407   7.893 -2.2490  2.3374 -0.8798
12434WAT    EPW50444   1.850   5.379   7.820 -0.3251  0.1242  0.0354
12435WAT      O50445   0.901   0.043   0.148 -0.1261  0.2798 -0.1661
12435WAT     H150446   0.833   0.097   0.142 -0.0757  0.2539 -1.0532
12435WAT     H250447   0.866  -0.032   0.174 -0.3286  0.4738  0.1265
12435WAT    EPW50448   0.886   0.040   0.151  0.4590  0.0490 -0.9928
12436WAT      O50449   2.881   6.288   7.646  0.0780  0.4641  0.8394
12436WAT     H150450   2.916   6.210   7.629 -0.7798 -0.1179  1.6276
12436WAT     H250451   2.949   6.336   7.672  0.8055  0.3349 -0.7528
12436WAT    EPW50452   2.896   6.283   7.648  0.9319  0.4698 -0.0521
12437WAT      O50453   0.941   4.889   8.009 -0.0173 -0.6936 -0.2757
12437WAT     H150454   0.863   4.897   8.048 -1.0396 -0.4336 -2.2482
12437WAT     H250455   0.934   4.812   7.966 -0.1082  0.3530 -2.2686
12437WAT    EPW50456   0.928   4.879   8.008  0.8263 -0.5057 -0.4023
12438WAT      O50457   1.965   6.804   7.014 -0.1964 -0.5516 -0.3655
12438WAT     H150458   1.996   6.881   7.041  0.2720 -0.4086 -1.3016
12438WAT     H250459   1.898   6.825   6.962  0.2051 -0.7559 -0.9746
12438WAT    EPW50460   1.960   6.819   7.011 -0.7662 -0.8040  0.6331
12439WAT      O50461   2.523   6.167   7.599  0.4509  0.5947  0.0330
12439WAT     H150462   2.570   6.104   7.637  0.0507 -0.1609 -0.6943
12439WAT     H250463   2.443   6.134   7.593  0.3964  0.8587 -1.0410
12439WAT    EPW50464   2.518   6.153   7.603  1.1971 -0.1108 -0.4064
12440WAT      O50465   1.829   4.746   7.477 -0.7888  0.7237 -0.2265
12440WAT     H150466   1.819   4.694   7.408 -0.0170  0.3702 -0.0823
12440WAT     H250467   1.909   4.780   7.466 -1.6488  2.6630 -0.8330
12440WAT    EPW50468   1.840   4.743   7.465  0.5372  0.2595 -0.1697
12441WAT      O50469   2.273   5.169   7.177 -0.1389  0.4033  0.7398
12441WAT     H150470   2.314   5.114   7.123 -0.4605  1.0349 -0.1820
12441WAT     H250471   2.290   5.137   7.256  0.4406 -0.4905  0.2724
12441WAT    EPW50472   2.282   5.156   7.181  0.1410 -0.0584  0.7352
12442WAT      O50473   0.307   5.291   7.781  1.0257 -0.1529 -0.0350
12442WAT     H150474   0.221   5.276   7.787  1.0333 -0.5413 -0.7614
12442WAT     H250475   0.332   5.300   7.864  0.1135  0.9071  0.1567
12442WAT    EPW50476   0.298   5.290   7.794  0.8275  0.7112  0.1577
12443WAT      O50477   1.473   6.049   6.799  0.5816 -0.4046 -0.0212
12443WAT     H150478   1.459   6.044   6.885 -1.3912 -1.2412 -0.3487
12443WAT     H250479   1.525   5.981   6.783  1.2209 -0.0585  0.5421
12443WAT    EPW50480   1.479   6.038   6.810  0.4838 -0.5932 -0.7587
12444WAT      O50481   2.014   6.665   7.281 -0.0976 -0.2052  0.0615
12444WAT     H150482   1.969   6.701   7.346 -1.0360 -0.2713 -0.5323
12444WAT     H250483   1.952   6.634   7.227  0.5733  1.4299 -1.7783
12444WAT    EPW50484   1.998   6.665   7.282 -0.2174  0.5220 -0.1396
12445WAT      O50485   0.374   5.044   7.665 -0.1147  0.2423 -0.2446
12445WAT     H150486   0.359   5.126   7.690 -0.2735 -0.0017  0.4962
12445WAT     H250487   0.422   5.012   7.731 -0.4441 -0.3951 -0.3130
12445WAT    EPW50488   0.379   5.051   7.679  0.3005 -0.2091 -0.3131
12446WAT      O50489   1.032   6.155   7.183 -0.2074 -0.3743  0.0141
12446WAT     H150490   1.107   6.186   7.150  0.0582 -0.1429  0.8210
12446WAT     H250491   0.979   6.153   7.114  0.1551  0.6845 -0.3184
12446WAT    EPW50492   1.035   6.159   7.168  0.5579 -0.8695  0.8242
12447WAT      O50493   2.307   6.640   0.292  0.2084  0.0538 -0.3198
12447WAT     H150494   2.275   6.578   0.239  1.4159 -1.0796  0.2083
12447WAT     H250495   2.334   6.702   0.238 -0.6153 -0.0748 -0.8954
12447WAT    EPW50496   2.306   6.640   0.276 -0.0537  0.5996 -0.3056
12448WAT      O50497   1.053   6.591   0.185  0.0575 -0.5160  1.0037
12448WAT     H150498   1.053   6.517   0.140  2.8393 -0.9776  1.5716
12448WAT     H250499   0.997   6.576   0.250 -2.1547 -0.7266 -0.8561
12448WAT    EPW50500   1.045   6.578   0.188 -0.0563  0.2927  1.2296
12449WAT      O50501   0.561   4.639   7.676 -0.2124  0.3860 -0.4081
12449WAT     H150502   0.586   4.677   7.751  1.1208 -1.1025 -0.0345
12449WAT     H250503   0.559   4.704   7.619  0.9251  1.1987  0.4393
12449WAT    EPW50504   0.564   4.654   7.679 -0.3173  0.7626 -0.7975
12450WAT      O50505   1.325   5.544   7.009  0.8727  0.3048  0.5043
12450WAT     H150506   1.374   5.612   7.035  0.4314  0.4738  0.9193
12450WAT     H250507   1.246   5.562   7.042  0.4376  0.2041 -0.4491
12450WAT    EPW50508   1.320   5.557   7.018 -0.4326 -0.1247  0.3162
12451WAT      O50509   2.697   5.485   7.996  0.0380  0.1449  0.3381
12451WAT     H150510   2.711   5.464   7.912  1.0828  1.1677  0.2354
12451WAT     H250511   2.770   5.461   8.036 -0.1891  0.2767  0.8404
12451WAT    EPW50512   2.710   5.478   7.989 -0.3563  0.1806  0.5104
12452WAT      O50513   2.163   5.156   0.149  0.5140  0.1905  0.8905
12452WAT     H150514   2.200   5.229   0.179  0.4451  1.3877 -1.6800
12452WAT     H250515   2.224   5.123   0.096 -0.0775 -0.7519  0.7873
12452WAT    EPW50516   2.178   5.162   0.145  0.0208  0.7215 -0.6212
12453WAT      O50517   0.645   5.342   0.063 -0.1188  1.0154  0.4747
12453WAT     H150518   0.640   5.314   0.146 -0.7357 -1.8474 -0.3908
12453WAT     H250519   0.685   5.276   0.022 -1.4325  1.5267 -1.7949
12453WAT    EPW50520   0.650   5.328   0.069  0.1192  0.9477 -0.1103
12454WAT      O50521   1.359   6.297   6.782 -0.0357  0.3305  0.0696
12454WAT     H150522   1.290   6.289   6.730 -1.2004  1.1553  1.4179
12454WAT     H250523   1.398   6.219   6.776  0.7204  0.8138 -3.0831
12454WAT    EPW50524   1.355   6.285   6.774  0.4459 -1.1155 -0.2464
12455WAT      O50525   2.781   5.913   6.336 -0.0603  0.4689 -0.4579
12455WAT     H150526   2.798   5.828   6.332 -0.6964  0.3049  0.2249
12455WAT     H250527   2.833   5.947   6.274  0.2063 -0.4033 -0.7247
12455WAT    EPW50528   2.792   5.906   6.326  0.9093  0.1445 -0.2394
12456WAT      O50529   1.183   4.589   7.245  0.3245  0.5451 -0.1247
12456WAT     H150530   1.225   4.656   7.283 -1.3850  3.0437 -2.2707
12456WAT     H250531   1.099   4.608   7.258 -0.2159 -0.5380 -1.7834
12456WAT    EPW50532   1.177   4.602   7.253 -0.8964  0.2901  1.0593
12457WAT      O50533   1.982   4.467   4.999  0.4385 -0.0440 -0.0997
12457WAT     H150534   2.029   4.501   4.933 -0.5616  0.7968 -0.4047
12457WAT     H250535   2.033   4.403   5.029  0.7576 -0.7236 -1.9579
12457WAT    EPW50536   1.997   4.463   4.993  0.4475  0.6172  0.2487
12458WAT      O50537   1.307   6.375   5.116 -0.2547 -0.0674 -0.2884
12458WAT     H150538   1.221   6.363   5.103 -0.7530  1.8063  0.8529
12458WAT     H250539   1.321   6.333   5.191 -0.0962 -0.5859 -0.6017
12458WAT    EPW50540   1.296   6.367   5.125  0.1528  0.7316 -0.6069
12459WAT      O50541   3.202   5.497   5.638 -0.1861 -0.6182 -0.2273
12459WAT     H150542   3.174   5.419   5.663 -1.6504 -0.1915 -0.4810
12459WAT     H250543   3.289   5.492   5.649 -0.2344 -2.3285 -0.4267
12459WAT    EPW50544   3.211   5.485   5.643  0.2972  0.3490  0.0599
12460WAT      O50545   2.015   5.131   5.689  0.7752  0.1807  0.2447
12460WAT     H150546   2.070   5.095   5.632  1.3161  0.8962  0.2909
12460WAT     H250547   2.068   5.180   5.740  0.1909  0.2937  0.7595
12460WAT    EPW50548   2.031   5.133   5.688  0.2080  0.0109  0.1305
12461WAT      O50549   2.041   4.839   5.729  0.2082  0.1367  0.2924
12461WAT     H150550   2.024   4.897   5.791  0.2893  0.6463 -0.1596
12461WAT     H250551   2.126   4.852   5.711  0.0817  0.2745 -0.2140
12461WAT    EPW50552   2.051   4.849   5.735  0.2593 -0.2874  0.2979
12462WAT      O50553   1.501   6.040   4.617 -0.2224 -0.2809 -0.2349
12462WAT     H150554   1.444   6.055   4.553  0.2726 -2.0149 -1.1550
12462WAT     H250555   1.533   6.119   4.635 -1.4916  0.4503 -1.0470
12462WAT    EPW50556   1.497   6.054   4.610  0.3455 -0.5054 -0.1078
12463WAT      O50557   7.034   5.730   7.804 -0.0227  0.2346  0.3008
12463WAT     H150558   7.059   5.689   7.731  0.5288  2.8532 -1.1074
12463WAT     H250559   6.987   5.670   7.847  0.1220 -1.5840 -1.9264
12463WAT    EPW50560   7.031   5.715   7.800 -0.2555 -1.4852 -0.1760
12464WAT      O50561   1.240   4.312   8.036 -0.6600 -0.1272 -0.5813
12464WAT     H150562   1.191   4.312   8.108  0.7711 -0.9364  0.4646
12464WAT     H250563   1.278   4.391   8.037 -2.8566  1.0317 -2.1272
12464WAT    EPW50564   1.239   4.324   8.047 -0.2955  0.0128  0.0929
12465WAT      O50565   1.983   5.328   6.559 -0.2544  0.1550 -0.1855
12465WAT     H150566   1.925   5.276   6.597 -0.3932  0.5399  0.1443
12465WAT     H250567   1.972   5.314   6.474  0.8639 -1.5868 -0.0936
12465WAT    EPW50568   1.973   5.319   6.552  0.0914  0.6652 -0.2563
12466WAT      O50569   2.302   5.706   5.419 -0.3411  0.4298  0.1642
12466WAT     H150570   2.303   5.629   5.459 -0.2572  0.0889 -0.4747
12466WAT     H250571   2.343   5.690   5.344  0.8644  1.4191  0.5836
12466WAT    EPW50572   2.308   5.692   5.414 -0.5158 -0.3994  0.1048
12467WAT      O50573   1.951   7.174   5.549 -0.0422  0.0794  0.3657
12467WAT     H150574   1.872   7.140   5.557  0.2262 -0.7713 -0.3869
12467WAT     H250575   1.968   7.207   5.628 -1.1416  0.2780  0.5282
12467WAT    EPW50576   1.942   7.174   5.562  0.4377  0.8776  0.5541
12468WAT      O50577   1.942   5.710   6.021  0.4607 -0.1024 -0.1840
12468WAT     H150578   1.925   5.723   5.936 -0.7270 -0.6464 -0.0644
12468WAT     H250579   1.865   5.681   6.052  1.4724 -2.2400  0.5706
12468WAT    EPW50580   1.928   5.707   6.013  0.0968 -0.4048 -0.0269
12469WAT      O50581   1.520   4.810   5.540  0.4131  0.0021 -0.2563
12469WAT     H150582   1.523   4.884   5.494  0.7067  0.4684  0.4938
12469WAT     H250583   1.485   4.752   5.484  0.2028  0.6963 -0.8559
12469WAT    EPW50584   1.515   4.812   5.525 -0.0100 -0.9922 -0.7511
12470WAT      O50585   7.631   5.534   7.704  0.0735 -0.2033  0.1922
12470WAT     H150586   7.669   5.510   7.629 -0.5065 -1.8333  0.3836
12470WAT     H250587   7.686   5.506   7.765  0.5418  1.1167  0.4044
12470WAT    EPW50588   7.645   5.526   7.702  0.4468  0.0604 -0.6815
12471WAT      O50589   1.157   5.799   4.202 -0.1138  0.1904 -0.2671
12471WAT     H150590   1.137   5.875   4.238 -1.9721 -1.2432  2.0471
12471WAT     H250591   1.208   5.761   4.261  1.1802 -0.2223 -1.5942
12471WAT    EPW50592   1.161   5.804   4.216  0.4678 -0.0571 -0.6640
12472WAT      O50593   1.448   3.485   5.423  0.6488 -0.1069  0.4901
12472WAT     H150594   1.391   3.444   5.372  0.4889  0.7536 -0.0478
12472WAT     H250595   1.397   3.527   5.481  0.8581 -2.2048  2.3040
12472WAT    EPW50596   1.432   3.485   5.424  0.3351  0.1463 -0.4222
12473WAT      O50597   1.437   7.616   4.158 -0.7482 -0.9042 -0.0900
12473WAT     H150598   1.449   7.607   4.072 -0.9564  1.7128 -0.4679
12473WAT     H250599   1.385   7.549   4.179 -0.3590 -1.8246 -1.9006
12473WAT    EPW50600   1.431   7.605   4.149  0.2842  0.1134  0.1847
12474WAT      O50601   2.506   5.906   4.709  0.2169 -0.5369 -0.0078
12474WAT     H150602   2.524   5.887   4.793 -2.7899 -1.1372  0.6008
12474WAT     H250603   2.550   5.844   4.666 -0.2304 -1.8810  1.3321
12474WAT    EPW50604   2.515   5.894   4.715  0.4536 -1.0044 -0.6134
12475WAT      O50605   1.780   6.629   6.804 -0.1287  0.3479 -0.1902
12475WAT     H150606   1.797   6.652   6.722 -0.2248  1.7668  0.1551
12475WAT     H250607   1.828   6.558   6.816  1.0592  0.9726 -1.0218
12475WAT    EPW50608   1.789   6.622   6.794  0.2227 -0.3466 -0.1943
12476WAT      O50609   1.876   4.847   5.509 -0.2752 -0.6028 -0.4599
12476WAT     H150610   1.930   4.859   5.577 -1.0909  2.8294 -0.2263
12476WAT     H250611   1.891   4.916   5.459 -4.5163  0.7330 -0.2500
12476WAT    EPW50612   1.886   4.859   5.512 -0.1911 -0.4191 -0.4857
12477WAT      O50613   1.832   4.662   4.661 -0.4236  0.7866 -0.2030
12477WAT     H150614   1.778   4.712   4.709 -0.9951 -0.7095  0.7951
12477WAT     H250615   1.802   4.581   4.674  3.4003 -0.5137  2.3939
12477WAT    EPW50616   1.820   4.658   4.670 -0.0052 -0.2756 -0.7123
12478WAT      O50617   1.361   4.354   5.368 -0.1655 -0.1599  0.6617
12478WAT     H150618   1.329   4.338   5.289 -0.7221  0.5838  0.7292
12478WAT     H250619   1.292   4.342   5.420  0.0946 -0.2342  0.9926
12478WAT    EPW50620   1.346   4.350   5.364 -0.3891  0.7493  0.7278
12479WAT      O50621   3.138   6.859   6.565 -0.2639  0.0938 -0.6399
12479WAT     H150622   3.148   6.840   6.650  1.5966 -1.4095 -1.1199
12479WAT     H250623   3.138   6.946   6.563 -1.4951  0.1799  0.9918
12479WAT    EPW50624   3.139   6.869   6.577  0.4907  0.3233 -0.1930
12480WAT      O50625   1.442   4.149   5.156  0.0672 -0.5116  0.2055
12480WAT     H150626   1.492   4.184   5.094  1.8737 -0.9800  1.3364
12480WAT     H250627   1.484   4.167   5.230 -3.0311  1.8632  1.6326
12480WAT    EPW50628   1.455   4.157   5.158 -0.4923 -0.4089  0.4794
12481WAT      O50629   2.987   6.711   4.380 -0.0229 -0.2111  0.4170
12481WAT     H150630   3.035   6.642   4.358  0.5519  0.3017  0.0466
12481WAT     H250631   2.915   6.702   4.331 -0.4801 -1.1622  1.2264
12481WAT    EPW50632   2.983   6.699   4.369  0.2379 -0.4132 -0.3049
12482WAT      O50633   1.755   5.063   5.637 -0.1238  0.2885 -0.0995
12482WAT     H150634   1.779   4.997   5.585 -0.7164  0.3899 -0.5069
12482WAT     H250635   1.831   5.091   5.670  0.3933  0.9246 -1.7447
12482WAT    EPW50636   1.770   5.057   5.634  0.0356  0.4128  0.2184
12483WAT      O50637   2.614   4.406   4.511 -0.4088 -0.1359 -0.7706
12483WAT     H150638   2.683   4.451   4.484 -0.4242  0.7173  0.4946
12483WAT     H250639   2.615   4.418   4.598 -0.1556 -2.9501 -0.2772
12483WAT    EPW50640   2.624   4.414   4.520 -0.8424  0.1281  0.3056
12484WAT      O50641   0.944   4.710   7.028 -0.1632  0.3687  0.3788
12484WAT     H150642   0.874   4.660   7.015 -0.0086  0.3486 -0.4314
12484WAT     H250643   0.920   4.764   7.092 -0.6570 -0.1255  0.6122
12484WAT    EPW50644   0.930   4.711   7.035  0.4783 -0.2045 -0.1615
12485WAT      O50645   1.194   4.293   7.773  0.1011  0.6586  0.0283
12485WAT     H150646   1.193   4.312   7.858 -0.7004  2.3965 -0.3305
12485WAT     H250647   1.189   4.371   7.734 -1.0981 -0.1767 -1.6075
12485WAT    EPW50648   1.193   4.308   7.779 -0.2248 -0.9130 -0.2853
12486WAT      O50649   2.609   5.822   5.544  0.3796 -0.1925  0.1015
12486WAT     H150650   2.529   5.855   5.561  0.8549  0.9560  0.2118
12486WAT     H250651   2.618   5.834   5.458  0.6353  0.1567  0.1751
12486WAT    EPW50652   2.598   5.829   5.533  0.0828 -0.0923 -0.4161
12487WAT      O50653   2.275   4.006   7.130  0.4004 -0.0710 -0.1822
12487WAT     H150654   2.354   3.996   7.094  0.5881 -2.2333  0.6308
12487WAT     H250655   2.291   3.995   7.216 -0.9751 -2.5775 -0.1573
12487WAT    EPW50656   2.289   4.003   7.138  0.1581  0.6737  0.7087
12488WAT      O50657   1.668   6.421   4.159  0.1158  0.6959  0.7354
12488WAT     H150658   1.734   6.423   4.102 -0.2532 -2.3950  0.0218
12488WAT     H250659   1.616   6.486   4.133  0.2408 -0.2474 -2.1480
12488WAT    EPW50660   1.670   6.431   4.147  0.4378  0.1507  0.6610
12489WAT      O50661   1.586   5.585   7.343  0.7004  0.7628  0.7369
12489WAT     H150662   1.558   5.643   7.401  1.3023  0.5258  1.2672
12489WAT     H250663   1.563   5.620   7.266 -0.5996  0.8116  1.1202
12489WAT    EPW50664   1.578   5.599   7.340  0.2057  0.4886  0.1924
12490WAT      O50665   1.307   6.462   4.510  0.1680  0.3938  0.4351
12490WAT     H150666   1.226   6.453   4.479  0.8255 -2.2513 -0.8030
12490WAT     H250667   1.296   6.502   4.587 -2.6705 -2.4279  1.7183
12490WAT    EPW50668   1.294   6.466   4.517 -0.6326  0.1501  0.7581
12491WAT      O50669   1.502   5.153   6.154  0.1019  0.6091  0.1207
12491WAT     H150670   1.479   5.236   6.146  0.6816  0.7323 -0.3997
12491WAT     H250671   1.480   5.118   6.077 -0.6055  0.1571  0.5154
12491WAT    EPW50672   1.495   5.160   6.141  0.3040  0.6465  0.0196
12492WAT      O50673   2.020   5.482   7.364  0.1058  0.7065 -0.1064
12492WAT     H150674   2.008   5.466   7.449 -0.8319  1.2360 -0.1370
12492WAT     H250675   1.953   5.443   7.325  0.5174  0.4833 -0.6085
12492WAT    EPW50676   2.009   5.474   7.371  0.7176 -0.6956  0.2545
12493WAT      O50677   1.606   4.262   5.405  0.0249 -0.2812  0.2454
12493WAT     H150678   1.637   4.245   5.485  2.1460 -0.0780 -0.4598
12493WAT     H250679   1.525   4.290   5.420 -0.0335 -1.2922  2.2219
12493WAT    EPW50680   1.599   4.264   5.419  0.2616 -0.1177  0.8274
12494WAT      O50681   1.316   7.049   3.768  0.3213 -0.0152 -0.2950
12494WAT     H150682   1.245   7.075   3.812  0.2504 -1.8915  0.7704
12494WAT     H250683   1.284   6.998   3.705  0.6074  0.8090 -1.1351
12494WAT    EPW50684   1.301   7.046   3.765  0.9848  0.3663 -0.7415
12495WAT      O50685   1.245   4.053   6.359 -1.0570 -0.2542 -0.2575
12495WAT     H150686   1.221   3.970   6.349  1.2690 -1.2016  1.1475
12495WAT     H250687   1.210   4.075   6.436 -0.1429 -0.6229  0.2924
12495WAT    EPW50688   1.236   4.044   6.369 -0.4954  0.5499  0.3345
12496WAT      O50689   1.739   4.234   5.829 -0.5856 -0.2831  0.0162
12496WAT     H150690   1.728   4.208   5.747 -2.8477 -0.1103  0.1918
12496WAT     H250691   1.825   4.248   5.835 -0.3723 -0.1396 -2.3554
12496WAT    EPW50692   1.750   4.232   5.818  0.7044 -0.0080 -0.4739
12497WAT      O50693   2.027   5.432   5.558 -0.4795  0.0161  0.6388
12497WAT     H150694   1.985   5.403   5.629 -0.8599  1.5563  1.0727
12497WAT     H250695   1.983   5.504   5.535  0.7993  0.6270 -0.0211
12497WAT    EPW50696   2.014   5.438   5.565  0.4373 -0.4282  0.3537
12498WAT      O50697   1.345   4.797   5.743 -0.3393  0.3025  0.5642
12498WAT     H150698   1.324   4.878   5.768  0.3375  0.6562  0.0310
12498WAT     H250699   1.415   4.809   5.693  0.1090 -0.6793  0.9391
12498WAT    EPW50700   1.352   4.811   5.739  0.6323  0.0892  0.1845
12499WAT      O50701   7.765   5.465   7.940  0.4238 -0.1745  0.9044
12499WAT     H150702   7.777   5.516   8.010 -0.7534 -0.4866  1.3680
12499WAT     H250703   7.737   5.390   7.974  4.4030 -2.1067  0.4342
12499WAT    EPW50704   7.762   5.462   7.955  0.2453  0.4963  0.2018
12500WAT      O50705   2.177   6.099   5.926 -0.1099  0.4389 -0.0587
12500WAT     H150706   2.262   6.103   5.946 -0.0928 -0.3750  0.0874
12500WAT     H250707   2.177   6.087   5.840 -0.1106  1.3799 -0.1975
12500WAT    EPW50708   2.190   6.098   5.916  0.9203  0.1783 -0.7234
12501WAT      O50709   1.729   5.204   5.408 -0.2122 -0.3725 -0.6423
12501WAT     H150710   1.779   5.149   5.362 -0.5133 -0.5563 -0.7501
12501WAT     H250711   1.713   5.161   5.482  1.1286  0.3328  0.0894
12501WAT    EPW50712   1.734   5.189   5.412  0.5009 -0.5174 -0.7858
12502WAT      O50713   2.185   6.516   5.726  0.5618  0.0022 -0.4113
12502WAT     H150714   2.214   6.589   5.765  0.8468 -0.9142  1.1802
12502WAT     H250715   2.237   6.454   5.757 -1.9916 -1.4861  1.3307
12502WAT    EPW50716   2.197   6.518   5.736 -0.3603 -0.2110 -0.1442
12503WAT      O50717   2.823   6.508   5.103 -0.2615 -0.7758 -0.1709
12503WAT     H150718   2.875   6.438   5.099  0.3926 -0.3834  1.0747
12503WAT     H250719   2.879   6.574   5.111 -0.9097 -0.4112  1.9648
12503WAT    EPW50720   2.839   6.507   5.104 -0.2848  0.0142  0.4415
12504WAT      O50721   2.256   5.756   5.842 -0.4530  0.4986  0.0870
12504WAT     H150722   2.293   5.776   5.918  0.4783  0.3695 -0.3045
12504WAT     H250723   2.174   5.783   5.850 -0.1781  1.1414  0.8771
12504WAT    EPW50724   2.249   5.763   5.854  0.5312 -0.8174  0.5479
12505WAT      O50725   1.119   7.221   4.405  0.1813 -0.0513  0.9364
12505WAT     H150726   1.099   7.158   4.347  1.2850  1.2734 -1.0081
12505WAT     H250727   1.051   7.275   4.401 -0.6923 -0.9579  2.4896
12505WAT    EPW50728   1.106   7.219   4.396 -0.8729  0.1059 -0.8741
12506WAT      O50729   1.084   4.740   3.068 -0.1181 -0.0423 -0.2256
12506WAT     H150730   1.163   4.774   3.054 -0.7593  1.0715 -1.3658
12506WAT     H250731   1.079   4.734   3.155  1.1809 -0.0745 -0.1354
12506WAT    EPW50732   1.095   4.744   3.079 -0.5278 -0.1426 -0.2388
12507WAT      O50733   1.497   5.031   5.375  0.0361 -0.7707  0.3019
12507WAT     H150734   1.516   5.111   5.345  1.7193 -1.0876  0.3827
12507WAT     H250735   1.490   4.983   5.302 -0.5420 -0.6285  0.2657
12507WAT    EPW50736   1.499   5.036   5.360  0.0107  0.4105 -0.3368
12508WAT      O50737   2.097   5.961   6.170 -0.0729 -0.5801  0.2752
12508WAT     H150738   2.065   5.885   6.143 -3.0251  0.6016  0.0682
12508WAT     H250739   2.102   6.008   6.097  1.4624 -0.4376  0.4376
12508WAT    EPW50740   2.093   5.957   6.155  0.5087 -0.2155 -0.7762
12509WAT      O50741   3.210   0.040   6.007 -0.2204 -0.5799  0.5338
12509WAT     H150742   3.286   0.058   5.969 -0.0682  0.6980  1.3733
12509WAT     H250743   3.151   0.063   5.947  0.0246 -1.7813 -0.2051
12509WAT    EPW50744   3.213   0.046   5.993  0.2440 -0.4187  0.0112
12510WAT      O50745   1.250   3.812   6.763 -0.9698  0.1614  0.0823
12510WAT     H150746   1.293   3.767   6.823  0.9138 -0.6351 -1.7521
12510WAT     H250747   1.259   3.765   6.690  0.0414  2.8219 -1.6646
12510WAT    EPW50748   1.257   3.799   6.761  0.3551  0.3002  0.4935
12511WAT      O50749   1.674   5.360   5.804 -0.1975 -0.7255 -0.3812
12511WAT     H150750   1.744   5.335   5.850 -0.1616  1.8147  1.2158
12511WAT     H250751   1.614   5.301   5.824  0.4303 -0.8199  1.4162
12511WAT    EPW50752   1.676   5.348   5.814  0.8573 -0.8010  0.3039
12512WAT      O50753   0.947   5.426   3.260  0.0516  0.0319 -0.0436
12512WAT     H150754   0.996   5.406   3.191  1.1713  1.8498  0.1364
12512WAT     H250755   1.004   5.465   3.314 -0.9590 -0.6533  1.5703
12512WAT    EPW50756   0.963   5.429   3.258  0.0677 -0.6438 -0.1051
12513WAT      O50757   2.968   7.091   6.202 -0.5475  0.3004 -0.3986
12513WAT     H150758   2.904   7.098   6.261  0.3840  0.5896  0.6110
12513WAT     H250759   2.987   7.006   6.203 -0.6789  0.2698 -0.4482
12513WAT    EPW50760   2.961   7.080   6.211 -0.1610  0.0586 -0.5035
12514WAT      O50761   1.349   4.162   6.835  0.0462  0.5543 -0.4970
12514WAT     H150762   1.388   4.187   6.909  0.3337 -0.3024 -0.3530
12514WAT     H250763   1.392   4.089   6.813 -3.3622 -2.2789  1.2810
12514WAT    EPW50764   1.361   4.155   6.843 -0.5272  0.4717  0.0513
12515WAT      O50765   1.243   6.783   4.102  0.1240 -0.2734  0.0896
12515WAT     H150766   1.274   6.721   4.049 -0.1425 -0.7077  0.4325
12515WAT     H250767   1.255   6.749   4.182  0.2607  0.2518  0.2976
12515WAT    EPW50768   1.250   6.769   4.106 -0.3811 -0.7538  0.9093
12516WAT      O50769   1.559   4.995   6.615 -0.2196  0.0632 -0.0571
12516WAT     H150770   1.589   4.980   6.534  1.8658  1.7252  0.3081
12516WAT     H250771   1.578   4.921   6.657 -1.8117 -1.0275 -1.1470
12516WAT    EPW50772   1.567   4.981   6.609  0.6692  0.5782 -0.4192
12517WAT      O50773   1.671   4.849   5.925 -0.1361 -0.8551 -0.3465
12517WAT     H150774   1.689   4.779   5.876 -1.0381 -0.0370 -1.9160
12517WAT     H250775   1.740   4.901   5.911  0.3599 -1.2472  0.5352
12517WAT    EPW50776   1.684   4.846   5.916 -0.7918  1.0086 -1.3255
12518WAT      O50777   1.434   4.433   6.351 -0.3255 -0.2238  0.4423
12518WAT     H150778   1.468   4.474   6.282 -1.1272  1.2973  0.9022
12518WAT     H250779   1.435   4.349   6.328  0.3393  0.1556 -1.0073
12518WAT    EPW50780   1.439   4.427   6.338  1.1197  0.0101 -0.7134
12519WAT      O50781   2.037   6.495   6.123 -0.8881  0.5691 -0.7800
12519WAT     H150782   2.064   6.577   6.114  1.1455  0.2496  1.2752
12519WAT     H250783   1.955   6.503   6.152 -0.0674  2.0008  1.3664
12519WAT    EPW50784   2.029   6.508   6.126  0.1583 -0.2781 -0.3532
12520WAT      O50785   0.949   4.370   6.936 -0.3575  0.1551 -0.0341
12520WAT     H150786   0.991   4.321   6.878 -0.0468  0.7203 -0.2973
12520WAT     H250787   1.011   4.425   6.965 -0.4093 -0.3687  1.1170
12520WAT    EPW50788   0.964   4.371   6.932  0.5571  0.0648 -0.3586
12521WAT      O50789   1.260   4.760   4.863  0.4460  0.4303 -0.6668
12521WAT     H150790   1.255   4.818   4.798 -1.0672 -0.1559 -1.1204
12521WAT     H250791   1.216   4.691   4.832 -1.5856  0.6500  1.4787
12521WAT    EPW50792   1.253   4.758   4.849  0.0668  0.0588 -0.0608
12522WAT      O50793   2.195   6.105   5.637 -0.1991  0.3761  0.2404
12522WAT     H150794   2.184   6.164   5.573 -0.3535  0.8242  0.6772
12522WAT     H250795   2.252   6.049   5.602  0.6955  1.2937  0.1451
12522WAT    EPW50796   2.202   6.106   5.622 -0.1879 -0.0786 -0.1952
12523WAT      O50797   1.931   5.949   5.004  0.0414 -0.1614 -0.6715
12523WAT     H150798   1.895   5.984   4.933  2.3299  1.1019 -1.2997
12523WAT     H250799   1.926   6.013   5.063 -0.1278 -0.5237 -0.2931
12523WAT    EPW50800   1.925   5.964   5.002  0.2506  0.9777 -0.1066
12524WAT      O50801   1.670   4.592   8.015 -0.0075 -0.1651  0.1183
12524WAT     H150802   1.734   4.610   7.959  1.1378 -0.2346  1.3687
12524WAT     H250803   1.709   4.544   8.076 -1.6706 -1.8440 -0.0479
12524WAT    EPW50804   1.685   4.587   8.016 -0.1014  0.6087  0.2862
12525WAT      O50805   2.332   5.464   6.766  0.7309  0.2954 -0.0861
12525WAT     H150806   2.405   5.460   6.813  0.5287  0.8932  0.3053
12525WAT     H250807   2.282   5.518   6.813 -0.5293 -1.2395  0.4356
12525WAT    EPW50808   2.335   5.472   6.780  0.1231  0.5962  0.3823
12526WAT      O50809   0.220   6.094   3.890 -0.0677  0.2107  0.0919
12526WAT     H150810   0.193   6.111   3.971  0.0818 -0.9280  0.3931
12526WAT     H250811   0.159   6.040   3.859  0.1651  0.2104 -0.3701
12526WAT    EPW50812   0.207   6.089   3.897 -0.2766 -0.8051 -0.9748
12527WAT      O50813   1.130   4.794   7.476  0.4581  0.2531 -0.3969
12527WAT     H150814   1.144   4.830   7.554  0.3941  0.3804 -0.4418
12527WAT     H250815   1.210   4.780   7.444  0.5117  1.5107 -0.8996
12527WAT    EPW50816   1.144   4.797   7.483 -0.4237 -1.3185 -0.0832
12528WAT      O50817   1.706   6.510   6.040 -0.4842 -0.0753 -0.5520
12528WAT     H150818   1.695   6.577   5.985 -3.8543  0.1654  0.2162
12528WAT     H250819   1.706   6.547   6.119 -1.4530 -0.8741 -0.1534
12528WAT    EPW50820   1.704   6.525   6.044  0.1802 -0.5587  0.2999
12529WAT      O50821   2.380   6.310   5.767 -0.0274 -0.2144  0.2119
12529WAT     H150822   2.382   6.273   5.846  0.1072 -0.9702 -0.1310
12529WAT     H250823   2.327   6.258   5.721  1.0339 -0.6426 -0.5862
12529WAT    EPW50824   2.373   6.297   5.772  0.1637  0.1869 -1.1453
12530WAT      O50825   1.167   4.128   6.067  0.3526 -0.4679  0.6437
12530WAT     H150826   1.146   4.119   6.151 -1.1257 -0.9256  0.2645
12530WAT     H250827   1.199   4.209   6.062  3.0910 -1.3420  2.1079
12530WAT    EPW50828   1.169   4.139   6.078 -0.2682  0.3979 -0.5913
12531WAT      O50829   1.913   5.321   6.869 -0.3823 -1.3157 -0.4140
12531WAT     H150830   1.978   5.293   6.920  0.0627 -1.2167 -0.9219
12531WAT     H250831   1.864   5.249   6.858 -1.0888 -1.0888  1.0334
12531WAT    EPW50832   1.915   5.306   6.875 -0.3307 -0.5229  0.2270
12532WAT      O50833   2.333   5.705   6.337 -0.5914  0.3305 -0.1384
12532WAT     H150834   2.353   5.747   6.263 -0.0133 -1.7949 -1.2630
12532WAT     H250835   2.248   5.723   6.347 -0.0090  3.2486  0.5152
12532WAT    EPW50836   2.323   5.714   6.327 -0.4429 -0.3747  0.2611
12533WAT      O50837   1.798   4.501   4.321 -0.3037  0.3047  0.1844
12533WAT     H150838   1.861   4.561   4.309 -0.8723  0.7163 -0.8867
12533WAT     H250839   1.814   4.442   4.259 -0.2056 -0.2727  0.7510
12533WAT    EPW50840   1.810   4.501   4.310 -0.6538  0.1198  0.2108
12534WAT      O50841   0.725   3.317   8.000 -0.0465 -0.3766  0.0980
12534WAT     H150842   0.642   3.345   8.009  0.5012  0.7413  2.5533
12534WAT     H250843   0.766   3.386   7.967  0.0561 -0.6235 -0.2835
12534WAT    EPW50844   0.719   3.331   7.997  0.6635  0.6958  0.4726
12535WAT      O50845   0.583   3.234   7.722  0.1080  0.3639 -0.3995
12535WAT     H150846   0.583   3.321   7.730 -0.9380  0.1960  2.9915
12535WAT     H250847   0.657   3.210   7.761 -1.5482 -0.3260  2.6049
12535WAT    EPW50848   0.594   3.244   7.729  0.6754  0.0579 -0.3144
12536WAT      O50849   2.695   6.713   6.306  0.3839  0.0940 -0.5325
12536WAT     H150850   2.705   6.711   6.220 -1.8742 -2.5141 -0.8943
12536WAT     H250851   2.628   6.767   6.318 -0.9319 -1.4178 -0.7502
12536WAT    EPW50852   2.686   6.721   6.295 -0.5398  0.2560 -0.2931
12537WAT      O50853   1.259   6.259   7.086 -0.4937 -0.4426  0.4331
12537WAT     H150854   1.297   6.330   7.120  0.1698 -0.6888  0.2194
12537WAT     H250855   1.269   6.269   7.000 -0.7532 -0.6034  0.3836
12537WAT    EPW50856   1.266   6.271   7.079  0.3759  0.8302  0.6457
12538WAT      O50857   2.347   4.274   5.739  0.2361  0.1164  0.4437
12538WAT     H150858   2.348   4.222   5.809 -0.4710  2.3559  2.2014
12538WAT     H250859   2.265   4.267   5.709 -0.2699  1.2278  1.5134
12538WAT    EPW50860   2.335   4.265   5.745  0.1327  0.4009  0.1872
12539WAT      O50861   1.056   4.757   4.299  0.2107 -0.0798 -0.6192
12539WAT     H150862   1.014   4.812   4.245 -2.1563 -0.0536  1.1198
12539WAT     H250863   1.103   4.810   4.350  0.1581  0.1069 -0.7632
12539WAT    EPW50864   1.057   4.773   4.298  0.5897  0.3224  0.6589
12540WAT      O50865   1.986   7.296   7.059 -0.0762 -0.2325 -0.2224
12540WAT     H150866   1.938   7.266   7.125  0.8889  1.0468  1.1296
12540WAT     H250867   1.930   7.296   6.991 -2.1800  1.6375  1.3561
12540WAT    EPW50868   1.971   7.292   7.059 -1.1571 -0.2350 -0.7231
12541WAT      O50869   2.499   7.083   6.151  0.1450  0.7677 -0.1401
12541WAT     H150870   2.540   7.046   6.084  0.6152  0.3231  0.3836
12541WAT     H250871   2.426   7.034   6.159  0.8251 -0.1513  0.6310
12541WAT    EPW50872   2.494   7.070   6.142 -0.0611 -0.7416 -0.6302
12542WAT      O50873   0.528   4.437   3.286  0.1291 -0.4341  0.0148
12542WAT     H150874   0.573   4.503   3.248 -1.8632  1.0397  0.0855
12542WAT     H250875   0.446   4.465   3.285 -0.5050 -2.0251  2.0497
12542WAT    EPW50876   0.523   4.451   3.280  0.1685 -1.6989  0.0457
12543WAT      O50877   1.681   7.184   7.656  0.0550 -0.1475 -0.6015
12543WAT     H150878   1.679   7.261   7.696  1.5020 -0.0975 -0.5480
12543WAT     H250879   1.597   7.164   7.645 -0.3554  1.3807 -0.5189
12543WAT    EPW50880   1.669   7.192   7.660 -0.3133 -0.1676 -0.2043
12544WAT      O50881   1.955   4.293   6.713  0.0236  0.6197 -0.5165
12544WAT     H150882   1.883   4.274   6.667 -0.9551 -0.3277  1.2598
12544WAT     H250883   1.995   4.354   6.666 -1.1097 -0.0034 -2.3718
12544WAT    EPW50884   1.950   4.299   6.700 -0.8529  0.7555  0.4882
12545WAT      O50885   1.424   5.766   7.152  0.3750 -0.4094  0.7633
12545WAT     H150886   1.435   5.845   7.117 -0.4527 -0.1678  1.0269
12545WAT     H250887   1.340   5.765   7.174  0.4692 -1.2218  1.1207
12545WAT    EPW50888   1.413   5.777   7.150  0.2871  0.4060  0.3443
12546WAT      O50889   1.740   7.099   6.690 -0.3673 -0.1633 -0.7471
12546WAT     H150890   1.758   7.170   6.737 -2.3093 -0.5589  0.7516
12546WAT     H250891   1.729   7.129   6.609 -1.5905  1.3667 -0.0763
12546WAT    EPW50892   1.741   7.114   6.685 -0.1532 -0.0652 -1.0065
12547WAT      O50893   2.081   5.269   5.305  0.0792 -0.2915  0.6206
12547WAT     H150894   2.066   5.316   5.377 -0.9393 -0.9687  0.8678
12547WAT     H250895   2.102   5.329   5.245 -2.2183  0.6211  0.6507
12547WAT    EPW50896   2.082   5.285   5.306  0.2405  0.1721 -0.5434
12548WAT      O50897   2.644   6.884   6.562  0.3271 -0.4712  0.3641
12548WAT     H150898   2.695   6.924   6.504 -3.4854  3.3277 -0.9872
12548WAT     H250899   2.666   6.921   6.638  0.3968  0.3052 -0.0205
12548WAT    EPW50900   2.655   6.896   6.565 -0.0924 -0.4249 -0.7004
12549WAT      O50901   2.088   6.785   6.598 -0.0827  0.2694 -0.2716
12549WAT     H150902   2.105   6.736   6.669 -1.5797 -1.0086 -0.7368
12549WAT     H250903   2.049   6.856   6.631 -0.1040  0.0273  0.2371
12549WAT    EPW50904   2.085   6.788   6.613  0.1939  0.3579  0.6558
12550WAT      O50905   2.518   6.905   5.425 -0.0110  0.3289  0.5065
12550WAT     H150906   2.571   6.965   5.390 -1.0689  0.8286 -0.2749
12550WAT     H250907   2.490   6.859   5.356 -0.5435  0.0405  0.9060
12550WAT    EPW50908   2.522   6.907   5.410 -0.4690  0.0929 -0.4991
12551WAT      O50909   1.031   6.032   3.856 -0.0368 -0.0456 -0.4482
12551WAT     H150910   1.066   5.962   3.894 -2.8341 -1.1881  0.2345
12551WAT     H250911   1.039   6.094   3.917 -1.9323 -1.1285  1.0068
12551WAT    EPW50912   1.038   6.031   3.870  0.6446  0.3026  0.5143
12552WAT      O50913   2.079   4.598   5.852  0.2206 -0.8159  0.7385
12552WAT     H150914   2.044   4.610   5.931  0.5196  1.6929  0.5614
12552WAT     H250915   2.062   4.673   5.810  1.1620 -1.6017 -1.1685
12552WAT    EPW50916   2.071   4.611   5.858  0.7828 -0.5416 -1.1449
12553WAT      O50917   7.688   4.793   7.376  0.0467  0.5649 -0.4539
12553WAT     H150918   7.731   4.833   7.312  0.2515 -0.0122 -0.6877
12553WAT     H250919   7.721   4.828   7.449  1.4956 -0.4005 -0.5995
12553WAT    EPW50920   7.700   4.804   7.378  0.6783  0.0494 -0.1007
12554WAT      O50921   1.776   6.027   6.178 -0.5177 -0.7799  0.2313
12554WAT     H150922   1.862   6.014   6.168  0.0423  1.5946  1.4456
12554WAT     H250923   1.761   6.101   6.136 -2.1638 -1.4818 -0.5238
12554WAT    EPW50924   1.787   6.036   6.170  0.0922 -0.5444 -0.1448
12555WAT      O50925   1.601   4.763   6.173  0.0889  0.1980 -0.0626
12555WAT     H150926   1.633   4.787   6.096  1.6402 -0.6990  0.2509
12555WAT     H250927   1.589   4.839   6.215  0.2320  0.6443 -0.8085
12555WAT    EPW50928   1.604   4.778   6.168  0.4700 -0.6684  0.3603
12556WAT      O50929   1.103   5.993   4.410 -0.0373  0.0978  0.4877
12556WAT     H150930   1.093   6.075   4.437  0.1177  0.5646 -0.8148
12556WAT     H250931   1.034   5.952   4.444 -1.0930  1.1591 -0.2730
12556WAT    EPW50932   1.091   5.999   4.419  0.3367  0.1194 -0.3492
12557WAT      O50933   1.045   6.726   4.481 -0.0653 -1.0232 -0.3238
12557WAT     H150934   1.001   6.793   4.448 -0.4030 -1.7117 -1.3285
12557WAT     H250935   1.115   6.763   4.517 -0.8544 -0.0252  0.2406
12557WAT    EPW50936   1.049   6.741   4.481 -0.5304  0.2390 -0.7145
12558WAT      O50937   1.854   3.829   6.087 -0.3820  0.6750 -0.4417
12558WAT     H150938   1.886   3.892   6.138  0.2158 -0.5381  0.7785
12558WAT     H250939   1.926   3.788   6.058 -0.7277 -0.9864  0.8769
12558WAT    EPW50940   1.870   3.832   6.090  0.6682 -0.1648 -0.6107
12559WAT      O50941   0.933   4.869   7.275  0.1690  0.0354  0.0687
12559WAT     H150942   0.960   4.940   7.232 -0.8521  0.8234  0.6709
12559WAT     H250943   0.997   4.854   7.332  0.4036  0.4599 -0.0804
12559WAT    EPW50944   0.947   4.878   7.277 -0.1630  0.1411 -0.1615
12560WAT      O50945   1.710   5.763   6.246  0.1882 -0.2730  0.0581
12560WAT     H150946   1.639   5.737   6.203 -0.2288  0.2351  0.4347
12560WAT     H250947   1.715   5.849   6.230 -0.0084 -0.0575  1.0580
12560WAT    EPW50948   1.701   5.772   6.238  0.2640  0.3939  0.3942
12561WAT      O50949   1.809   5.684   0.129  0.4086  0.4040  0.0906
12561WAT     H150950   1.738   5.709   0.085 -0.5086 -1.0693  0.6550
12561WAT     H250951   1.874   5.727   0.091 -0.7086  1.2424 -0.9024
12561WAT    EPW50952   1.808   5.694   0.117 -0.0697  0.4230 -0.8928
12562WAT      O50953   1.526   6.523   6.899 -0.2421  0.4011  0.6906
12562WAT     H150954   1.598   6.554   6.860  1.3294 -2.1803  1.2961
12562WAT     H250955   1.483   6.484   6.834 -0.2552  0.4856  0.6473
12562WAT    EPW50956   1.530   6.522   6.884 -0.2300 -0.3102 -0.2753
12563WAT      O50957   2.574   7.325   5.469  0.8493 -0.6931 -0.1450
12563WAT     H150958   2.582   7.266   5.405 -0.5572 -0.7281 -0.3213
12563WAT     H250959   2.656   7.347   5.487  1.3925 -2.4224 -0.3366
12563WAT    EPW50960   2.587   7.319   5.462  0.0948 -1.0380 -0.2031
12564WAT      O50961   2.049   6.489   4.359  0.5780 -0.1671  0.4687
12564WAT     H150962   1.972   6.449   4.348 -0.6351  2.4141 -1.5212
12564WAT     H250963   2.051   6.506   4.445 -1.8802  0.9992  0.3847
12564WAT    EPW50964   2.038   6.486   4.370 -0.1837  0.2823 -0.0253
12565WAT      O50965   2.606   5.578   4.944 -0.3903 -0.1191  0.4308
12565WAT     H150966   2.638   5.659   4.932  0.2481 -0.3536  0.4965
12565WAT     H250967   2.554   5.567   4.874 -1.5963  0.8604  1.1291
12565WAT    EPW50968   2.603   5.589   4.932  0.1076 -0.8339 -0.8139
12566WAT      O50969   1.190   4.437   3.656  0.2379  0.3055 -0.3398
12566WAT     H150970   1.161   4.357   3.637  0.9770  0.3329 -1.6400
12566WAT     H250971   1.226   4.465   3.582  1.4535  1.2090  0.5470
12566WAT    EPW50972   1.191   4.429   3.643  0.0669  0.4522 -0.0710
12567WAT      O50973   1.208   5.531   4.843  0.7466 -0.1526  0.5939
12567WAT     H150974   1.146   5.583   4.878 -1.0785 -1.4765 -0.4685
12567WAT     H250975   1.237   5.485   4.910  0.3030  0.2485  1.0736
12567WAT    EPW50976   1.203   5.532   4.858  0.3092 -0.8168 -0.6422
12568WAT      O50977   1.516   4.220   6.004  0.8131  0.2736  0.6141
12568WAT     H150978   1.590   4.240   5.963  0.8443 -0.7508  0.1400
12568WAT     H250979   1.459   4.280   5.975  0.7519 -0.5950 -1.1786
12568WAT    EPW50980   1.519   4.232   5.994  0.6646  0.3576 -0.5686
12569WAT      O50981   2.313   5.875   5.030 -0.1369 -0.3790  0.3470
12569WAT     H150982   2.256   5.851   4.968 -0.7111  0.9322  0.3331
12569WAT     H250983   2.340   5.954   5.004  3.2912 -1.7409 -0.7349
12569WAT    EPW50984   2.309   5.883   5.017 -0.2259 -0.4918 -0.0608
12570WAT      O50985   2.322   6.242   6.499 -0.1235  0.3008 -0.3731
12570WAT     H150986   2.404   6.231   6.527  0.7542  2.7990 -1.6225
12570WAT     H250987   2.301   6.164   6.466  2.1943 -0.1393 -1.0276
12570WAT    EPW50988   2.331   6.229   6.498  0.5757  0.0027 -0.1392
12571WAT      O50989   1.386   5.141   5.605  0.1529 -0.0718 -0.5773
12571WAT     H150990   1.407   5.067   5.564  1.8627  0.4884 -0.7634
12571WAT     H250991   1.426   5.203   5.559  1.3378  0.6775  1.3377
12571WAT    EPW50992   1.395   5.140   5.592 -0.5022  0.5118  0.6929
12572WAT      O50993   2.220   6.425   6.929 -0.2762  0.2276 -0.3038
12572WAT     H150994   2.173   6.498   6.920 -2.5562 -1.0438  0.2344
12572WAT     H250995   2.191   6.374   6.864  0.7643 -0.4295 -0.2699
12572WAT    EPW50996   2.209   6.428   6.918 -0.1946 -0.2469 -0.4164
12573WAT      O50997   1.256   6.186   4.149  0.7871  0.3873  0.0925
12573WAT     H150998   1.311   6.131   4.108  1.8339  1.2150  0.3497
12573WAT     H250999   1.285   6.185   4.231 -0.0087  0.3267  0.3712
12573WAT    EPW51000   1.269   6.177   4.155  0.1350  0.1350 -0.2136
12574WAT      O51001   1.309   4.205   2.566 -0.0077  0.5668  0.2336
12574WAT     H151002   1.303   4.123   2.595 -0.3209  0.4946 -0.0355
12574WAT     H251003   1.258   4.249   2.621 -0.0055  0.5489  0.2500
12574WAT    EPW51004   1.301   4.200   2.579  0.2514 -0.7798  0.0820
12575WAT      O51005   0.409   5.319   3.578  0.4853  0.2109  0.0739
12575WAT     H151006   0.378   5.260   3.523 -0.7660 -0.1999  1.1589
12575WAT     H251007   0.436   5.271   3.646 -0.7108  0.8462  1.0473
12575WAT    EPW51008   0.409   5.303   3.580 -0.2247  0.6941 -0.1661
12576WAT      O51009   2.631   6.352   2.690  0.0867 -0.8809 -0.1994
12576WAT     H151010   2.627   6.306   2.616  0.6171 -0.2114 -0.6599
12576WAT     H251011   2.655   6.432   2.663 -0.5996 -0.3813  0.5940
12576WAT    EPW51012   2.634   6.357   2.675 -0.3801 -0.4215 -0.2014
12577WAT      O51013   0.110   4.420   1.733  0.7837  0.4665 -0.5474
12577WAT     H151014   0.193   4.449   1.729  1.2156 -0.6600 -0.0928
12577WAT     H251015   0.080   4.457   1.806  0.6029  1.5563 -1.1554
12577WAT    EPW51016   0.118   4.430   1.743 -0.6308  0.2667 -0.2988
12578WAT      O51017   1.281   5.201   4.283 -0.3127 -0.4061  0.4848
12578WAT     H151018   1.240   5.270   4.318 -0.4674  0.3065 -1.0127
12578WAT     H251019   1.361   5.207   4.315 -0.3693  0.4002  0.5121
12578WAT    EPW51020   1.286   5.212   4.293 -0.3747 -0.8357  0.2982
12579WAT      O51021   0.784   5.683   2.634 -0.0145 -0.6431 -0.0298
12579WAT     H151022   0.818   5.763   2.635  2.1311 -1.4788 -0.1015
12579WAT     H251023   0.820   5.644   2.703  0.4542 -2.0619 -1.0164
12579WAT    EPW51024   0.795   5.689   2.644  0.0352 -0.0770  0.5707
12580WAT      O51025   7.242   5.792   3.830  0.2987  0.4808 -0.1913
12580WAT     H151026   7.211   5.747   3.898  1.0871 -1.4191 -1.0037
12580WAT     H251027   7.204   5.753   3.761 -0.2524  2.1652 -0.8999
12580WAT    EPW51028   7.232   5.779   3.830 -0.2092 -0.6380  1.0086
12581WAT      O51029   2.003   4.662   4.273  0.2334  0.3050 -0.1579
12581WAT     H151030   1.983   4.746   4.286  0.9713  0.4268  0.2291
12581WAT     H251031   2.059   4.664   4.206 -0.1515  0.0674 -0.4934
12581WAT    EPW51032   2.008   4.675   4.265 -0.5025 -0.8037  1.1130
12582WAT      O51033   1.602   3.327   3.044  0.2439 -0.3616 -0.2268
12582WAT     H151034   1.521   3.358   3.053  0.3576 -0.5974  2.3172
12582WAT     H251035   1.590   3.249   3.006 -0.4990  0.4096 -1.6568
12582WAT    EPW51036   1.589   3.320   3.040  0.0856 -0.1710 -0.7665
12583WAT      O51037   0.060   6.088   4.125 -0.1790 -0.3464  0.6690
12583WAT     H151038   0.031   6.011   4.155 -1.0988 -0.7492 -1.1156
12583WAT     H251039  -0.013   6.132   4.108  0.3102  0.2200 -0.0174
12583WAT    EPW51040   0.045   6.083   4.127 -0.4492 -1.0414  0.1124
12584WAT      O51041   1.464   5.269   3.905 -0.0925  0.2014  0.7533
12584WAT     H151042   1.517   5.269   3.974  0.1751 -0.4476  0.5611
12584WAT     H251043   1.385   5.254   3.939 -0.2165  1.4451  1.0711
12584WAT    EPW51044   1.460   5.267   3.920 -0.0459 -0.6755 -0.0818
12585WAT      O51045   1.768   4.869   1.833 -0.5185 -0.0077  0.4650
12585WAT     H151046   1.803   4.795   1.803  0.9740  1.3079 -1.3000
12585WAT     H251047   1.754   4.853   1.917  0.7796 -1.9250  0.3695
12585WAT    EPW51048   1.771   4.856   1.841  0.8298  0.0856  0.6724
12586WAT      O51049   0.691   5.368   3.805  0.5747 -0.6327  0.1031
12586WAT     H151050   0.708   5.364   3.719 -3.4068  0.9769 -0.9846
12586WAT     H251051   0.696   5.453   3.823 -1.0336 -0.6356  0.7656
12586WAT    EPW51052   0.694   5.380   3.795  0.0211  0.2481  0.1136
12587WAT      O51053   1.587   4.416   3.092 -0.0361  0.2671 -0.2041
12587WAT     H151054   1.607   4.467   3.160 -2.9002  0.2396  0.7839
12587WAT     H251055   1.523   4.460   3.051  0.6665 -0.3817 -2.1079
12587WAT    EPW51056   1.581   4.430   3.096  0.1756  0.2241  0.0854
12588WAT      O51057   0.487   4.914   3.464 -0.0891 -0.4574  0.5454
12588WAT     H151058   0.415   4.868   3.483  0.2048 -0.6059  1.3420
12588WAT     H251059   0.520   4.934   3.542  0.8445 -0.5619  0.1922
12588WAT    EPW51060   0.481   4.910   3.478  0.1270 -1.0916  0.2657
12589WAT      O51061   7.913   5.376   3.209  0.0303  0.5671 -0.0081
12589WAT     H151062   7.895   5.448   3.162  2.8906  0.2057 -1.9253
12589WAT     H251063   7.923   5.314   3.148 -0.3343 -1.0008  1.4565
12589WAT    EPW51064   7.912   5.378   3.193 -0.1555  0.4878 -0.2013
12590WAT      O51065   1.534   6.969   3.494  0.4649  0.3932  0.3935
12590WAT     H151066   1.604   6.988   3.542  1.4791 -1.5190 -0.1910
12590WAT     H251067   1.540   7.022   3.425  1.9298 -0.3989 -0.1288
12590WAT    EPW51068   1.545   6.979   3.491  0.1223 -0.5610 -0.3578
12591WAT      O51069   1.644   4.989   4.995 -0.1333 -0.8108  0.0798
12591WAT     H151070   1.729   5.002   5.008  0.1270 -1.6319 -0.6661
12591WAT     H251071   1.642   4.939   4.923 -1.1757 -1.9528  0.8719
12591WAT    EPW51072   1.656   4.983   4.986  0.7432 -0.0284  0.3495
12592WAT      O51073   1.077   3.892   5.450  0.3297  0.5020  0.1104
12592WAT     H151074   1.101   3.958   5.502  0.4923 -0.1378  0.8598
12592WAT     H251075   1.067   3.825   5.505 -1.7221  0.3543 -0.3576
12592WAT    EPW51076   1.079   3.892   5.466  0.6769  0.0204  0.0766
12593WAT      O51077   0.520   5.679   2.536  0.0545 -0.0752 -0.4069
12593WAT     H151078   0.492   5.738   2.593 -0.9684 -1.7991  0.9825
12593WAT     H251079   0.605   5.673   2.553 -0.1956 -0.4008  0.8177
12593WAT    EPW51080   0.528   5.687   2.547 -0.1027  0.1770  0.7776
12594WAT      O51081   1.973   4.167   2.827  0.5124  0.1267 -0.2680
12594WAT     H151082   1.942   4.132   2.754  1.9585 -0.7156 -0.5089
12594WAT     H251083   1.909   4.221   2.852 -0.2310  0.0417 -1.8519
12594WAT    EPW51084   1.959   4.170   2.820  0.3182  0.4697 -0.5849
12595WAT      O51085   8.007   6.268   3.901 -0.2373  0.5131 -0.6273
12595WAT     H151086   7.986   6.294   3.821 -0.1864  0.1438 -0.7641
12595WAT     H251087   7.941   6.215   3.924  0.4647 -0.5768 -1.0229
12595WAT    EPW51088   7.995   6.264   3.893 -0.6367  0.8535 -0.2626
12596WAT      O51089   1.361   6.683   4.358  0.2985 -0.4577  0.4324
12596WAT     H151090   1.366   6.613   4.409  1.1696 -1.9466 -1.5843
12596WAT     H251091   1.442   6.695   4.330 -0.2660 -0.2021 -1.2200
12596WAT    EPW51092   1.374   6.675   4.362  0.8114 -0.5277 -1.2041
12597WAT      O51093   0.219   4.776   3.527  0.0477 -0.0968  0.7479
12597WAT     H151094   0.243   4.695   3.547 -1.0019 -0.9741 -1.1509
12597WAT     H251095   0.164   4.764   3.459 -0.9411  2.1271  1.0667
12597WAT    EPW51096   0.214   4.762   3.520 -0.7716  0.0736 -0.2492
12598WAT      O51097   0.234   7.079   3.892 -0.2802  0.3232  0.4622
12598WAT     H151098   0.179   7.053   3.954 -1.6562 -0.4780 -1.0023
12598WAT     H251099   0.282   7.007   3.876 -0.0421  0.4769  0.4737
12598WAT    EPW51100   0.233   7.064   3.899  0.2193  0.3684 -0.4168
12599WAT      O51101   8.048   5.471   3.672  0.6469  0.3164 -0.3460
12599WAT     H151102   8.055   5.425   3.598  0.5550  1.5290 -1.1350
12599WAT     H251103   8.078   5.550   3.650 -0.6994  1.1158  0.5100
12599WAT    EPW51104   8.053   5.476   3.658  0.1887 -0.6531 -0.6852
12600WAT      O51105   0.914   4.939   3.438  0.2263 -0.0950  0.3734
12600WAT     H151106   0.853   4.879   3.417 -0.9378  1.1116  0.1914
12600WAT     H251107   0.978   4.891   3.472  0.4470 -1.7391 -2.0990
12600WAT    EPW51108   0.914   4.923   3.440 -0.0289 -0.6670 -0.4075
12601WAT      O51109   7.845   4.869   4.058  0.1127 -0.3868 -0.5750
12601WAT     H151110   7.865   4.946   4.022  0.5951 -0.2919 -0.1072
12601WAT     H251111   7.758   4.871   4.064  0.0632 -0.2093 -1.2951
12601WAT    EPW51112   7.835   4.880   4.054 -0.5667  0.5285 -0.0346
12602WAT      O51113   0.755   5.358   3.533 -0.2431 -0.1989  0.6299
12602WAT     H151114   0.840   5.346   3.517 -0.1332  0.6958  0.4898
12602WAT     H251115   0.716   5.309   3.471  0.1839  0.5302 -0.2457
12602WAT    EPW51116   0.762   5.349   3.521  0.9835  0.1479  0.3332
12603WAT      O51117   1.316   3.319   2.808  0.2819 -0.0292  0.5726
12603WAT     H151118   1.388   3.350   2.769 -1.4759  1.4854 -1.7821
12603WAT     H251119   1.297   3.379   2.868 -0.8512  1.5025 -1.2061
12603WAT    EPW51120   1.324   3.332   2.811 -0.3243  0.0833 -0.2018
12604WAT      O51121   2.065   4.494   3.999 -0.0841  0.1805  0.2660
12604WAT     H151122   2.124   4.432   3.980  0.2215  0.1093  1.3412
12604WAT     H251123   2.007   4.488   3.934  0.3450 -0.7218 -0.0564
12604WAT    EPW51124   2.065   4.484   3.987 -0.1124 -0.1337 -1.1119
12605WAT      O51125   0.764   6.463   3.224 -0.7175  0.3478 -0.1355
12605WAT     H151126   0.679   6.449   3.210 -0.1760 -1.6776 -2.0709
12605WAT     H251127   0.787   6.517   3.160 -0.0621 -1.4205 -1.4860
12605WAT    EPW51128   0.755   6.469   3.213  0.2533  0.1324  0.5273
12606WAT      O51129   1.661   5.494   4.988  0.6299 -0.2232 -0.2376
12606WAT     H151130   1.611   5.423   4.986 -0.4605  0.5159 -0.6718
12606WAT     H251131   1.726   5.473   5.041 -1.0119 -0.6982  1.7162
12606WAT    EPW51132   1.663   5.481   4.996  0.8426  0.2192 -0.1179
12607WAT      O51133   0.230   5.473   3.295 -0.3412 -0.3213  0.8100
12607WAT     H151134   0.165   5.426   3.329 -1.0462  0.6810  0.8881
12607WAT     H251135   0.249   5.530   3.358  1.4242 -1.3361  1.2507
12607WAT    EPW51136   0.223   5.475   3.309  0.2845 -0.5995 -0.5966
12608WAT      O51137   0.887   3.979   2.812  0.1753  0.3121  0.3152
12608WAT     H151138   0.828   4.043   2.806  0.4225  0.5785  0.6423
12608WAT     H251139   0.854   3.915   2.763 -1.4685 -0.3634  2.1305
12608WAT    EPW51140   0.874   3.979   2.804  0.4574 -0.1012  0.4445
12609WAT      O51141   2.824   5.552   4.682 -0.3417  0.4703  0.4454
12609WAT     H151142   2.875   5.537   4.751  2.4085  2.9092 -0.8507
12609WAT     H251143   2.834   5.480   4.634  0.9629  0.4124  0.7688
12609WAT    EPW51144   2.833   5.539   4.685 -0.3321 -0.7627 -0.7913
12610WAT      O51145   1.360   4.542   3.476 -0.1877  0.3758  0.0933
12610WAT     H151146   1.407   4.612   3.500 -0.4136  0.8941 -0.9132
12610WAT     H251147   1.418   4.491   3.436  0.5403 -1.2007  2.9022
12610WAT    EPW51148   1.375   4.545   3.474 -1.1425 -0.6327  0.8608
12611WAT      O51149   0.725   5.790   4.351  0.4789  0.0956  0.1672
12611WAT     H151150   0.660   5.732   4.359  1.8161 -1.4523  0.2564
12611WAT     H251151   0.767   5.783   4.427  0.3817  1.5969  0.3872
12611WAT    EPW51152   0.721   5.780   4.363 -0.1687  0.3798  0.4242
12612WAT      O51153   1.606   4.678   3.814  0.5111  0.3106  0.1854
12612WAT     H151154   1.639   4.691   3.894  2.1219  1.4180 -0.5927
12612WAT     H251155   1.556   4.607   3.824 -0.4866  1.2055  2.4684
12612WAT    EPW51156   1.604   4.669   3.828  0.0254  0.3322  0.9754
12613WAT      O51157   1.294   7.312   2.905  0.1991 -0.1242 -0.3089
12613WAT     H151158   1.291   7.398   2.888 -0.1567  0.0964  0.7837
12613WAT     H251159   1.228   7.300   2.962  2.1322 -0.5112  2.0235
12613WAT    EPW51160   1.284   7.323   2.911 -0.0456  0.2968 -0.8791
12614WAT      O51161   1.226   5.227   3.338 -0.1713 -0.5892  0.4906
12614WAT     H151162   1.150   5.200   3.372 -0.6153 -1.4588 -1.0738
12614WAT     H251163   1.239   5.172   3.272  1.0640  0.4983 -0.2136
12614WAT    EPW51164   1.217   5.215   3.333  0.3819  0.2358  0.9041
12615WAT      O51165   0.533   5.820   2.914 -0.0052 -0.5034  0.0229
12615WAT     H151166   0.557   5.737   2.928 -0.1649 -0.5253  0.1821
12615WAT     H251167   0.449   5.820   2.937 -0.4458 -0.6637 -1.4851
12615WAT    EPW51168   0.524   5.807   2.920  0.2768 -0.0730  0.0435
12616WAT      O51169   1.075   5.169   4.845  0.1403 -0.4573  0.5077
12616WAT     H151170   1.009   5.132   4.887 -0.2444  1.5001  1.7758
12616WAT     H251171   1.123   5.204   4.909  0.2863  1.4620 -0.5724
12616WAT    EPW51172   1.073   5.169   4.861  0.3813 -0.3247 -0.2714
12617WAT      O51173   1.086   5.758   3.617 -0.0379 -0.4655  0.3907
12617WAT     H151174   1.111   5.701   3.556  2.0956  0.3146  0.4277
12617WAT     H251175   1.117   5.834   3.587  0.9072 -0.0279  2.3084
12617WAT    EPW51176   1.094   5.761   3.603  0.0635  0.6224 -0.1357
12618WAT      O51177   0.829   5.859   4.091 -0.7699  0.5670 -0.0392
12618WAT     H151178   0.788   5.840   4.166 -1.2355 -0.3953 -0.5259
12618WAT     H251179   0.883   5.924   4.113 -0.1374 -0.3871  1.3734
12618WAT    EPW51180   0.831   5.866   4.106 -0.4209  1.1006 -0.4529
12619WAT      O51181   7.955   4.615   2.590  0.6557 -0.0749 -0.7684
12619WAT     H151182   7.906   4.561   2.639  0.7366  1.2096  0.8171
12619WAT     H251183   8.024   4.567   2.569  1.7744 -0.0855  2.3823
12619WAT    EPW51184   7.958   4.600   2.594 -0.1905 -0.0644 -0.8837
12620WAT      O51185   0.323   5.743   4.157  0.6675 -0.1652  0.0115
12620WAT     H151186   0.300   5.745   4.072  0.9589 -1.1502 -0.0994
12620WAT     H251187   0.251   5.714   4.197  0.2226  1.1773  0.2286
12620WAT    EPW51188   0.309   5.739   4.150 -0.0702  0.0508 -0.4485
12621WAT      O51189   7.583   5.295   3.830  0.3019 -0.2684  0.0754
12621WAT     H151190   7.608   5.218   3.862  1.2933 -0.4274 -1.0544
12621WAT     H251191   7.551   5.336   3.900  0.1956 -1.5131  0.7887
12621WAT    EPW51192   7.582   5.289   3.845 -0.2210  0.3314 -0.0384
12622WAT      O51193   1.558   7.384   3.268 -0.3322 -0.2540  0.2000
12622WAT     H151194   1.579   7.431   3.197 -0.4226  1.2030  1.0804
12622WAT     H251195   1.477   7.410   3.285 -0.2811 -0.5346  0.8740
12622WAT    EPW51196   1.549   7.395   3.260 -0.0061  0.0100 -0.0881
12623WAT      O51197   1.268   7.432   3.280  0.7092 -0.6780  0.1820
12623WAT     H151198   1.219   7.472   3.339  0.0136 -1.2562  0.0104
12623WAT     H251199   1.211   7.406   3.219  0.9397 -2.8073  0.7750
12623WAT    EPW51200   1.252   7.434   3.280 -0.3073  0.4785 -0.8196
12624WAT      O51201   7.659   7.159   3.054  0.4224  0.1567 -0.0488
12624WAT     H151202   7.744   7.174   3.065  0.1056  1.2038  1.2720
12624WAT     H251203   7.624   7.240   3.050 -0.6514 -0.2235  0.8857
12624WAT    EPW51204   7.666   7.173   3.055  0.5488 -0.3203  0.7838
12625WAT      O51205   1.026   5.236   2.195 -0.5603  0.2781 -0.1725
12625WAT     H151206   0.995   5.289   2.256 -0.6055 -0.0334  0.0770
12625WAT     H251207   1.110   5.261   2.186 -0.3293 -0.1907  0.5821
12625WAT    EPW51208   1.034   5.247   2.203  0.8647  0.6077 -0.8812
12626WAT      O51209   0.835   5.244   4.123 -0.2377 -0.2465 -0.7110
12626WAT     H151210   0.872   5.317   4.154 -0.0651 -1.1112  1.2219
12626WAT     H251211   0.864   5.242   4.040  0.9810  1.0887 -0.3802
12626WAT    EPW51212   0.845   5.255   4.115  0.8243  0.6530  0.0333
12627WAT      O51213   1.508   5.381   4.587  0.1643 -0.0933 -0.1390
12627WAT     H151214   1.494   5.441   4.648 -1.1505 -0.2984 -0.2039
12627WAT     H251215   1.559   5.421   4.529  0.5556  0.4428  0.5733
12627WAT    EPW51216   1.513   5.395   4.587 -0.0944 -1.0672 -0.0835
12628WAT      O51217   0.379   6.830   3.848  0.3384 -0.3932  0.3914
12628WAT     H151218   0.310   6.787   3.879 -0.5147  0.1915 -0.6642
12628WAT     H251219   0.443   6.809   3.905  0.1586 -3.5419 -0.3966
12628WAT    EPW51220   0.378   6.821   3.861  0.1294 -0.4050 -0.3822
12629WAT      O51221   0.248   6.364   3.349 -0.1122  0.2117  0.0609
12629WAT     H151222   0.185   6.352   3.290  0.9123 -0.5714 -0.9301
12629WAT     H251223   0.307   6.413   3.306  0.3396  0.2028  0.6620
12629WAT    EPW51224   0.247   6.369   3.334  0.3950 -0.5292 -0.4680
12630WAT      O51225   1.067   6.684   3.384 -0.2919 -0.1132  0.1289
12630WAT     H151226   0.991   6.660   3.419  0.3880  0.3049  1.9769
12630WAT     H251227   1.124   6.625   3.414 -0.1584 -1.8815 -3.1202
12630WAT    EPW51228   1.064   6.672   3.393 -0.4821 -0.7044 -0.6466
12631WAT      O51229   1.683   5.823   5.110  0.5350  0.9002 -0.0382
12631WAT     H151230   1.735   5.850   5.175  1.1754  1.5313 -0.7889
12631WAT     H251231   1.736   5.823   5.040 -0.6383  2.3012 -0.9793
12631WAT    EPW51232   1.698   5.827   5.109  0.5905 -0.5102 -0.4846
12632WAT      O51233   0.902   6.312   1.791 -0.6500  0.2147  0.4874
12632WAT     H151234   0.977   6.275   1.817 -0.3698  0.6155  0.2770
12632WAT     H251235   0.919   6.398   1.798 -1.3403  0.3097  1.1305
12632WAT    EPW51236   0.916   6.319   1.796 -0.1913 -0.5801 -0.5593
12633WAT      O51237   1.668   5.158   2.218 -0.0642 -0.0218 -0.3101
12633WAT     H151238   1.691   5.127   2.296 -0.0006  0.1871 -0.2451
12633WAT     H251239   1.608   5.219   2.237 -0.5681 -0.4629 -0.4689
12633WAT    EPW51240   1.662   5.163   2.233 -0.1975 -0.4396 -1.2554
12634WAT      O51241   1.644   5.508   4.365  0.0455 -0.3069 -0.2422
12634WAT     H151242   1.659   5.487   4.282 -1.0281  1.2908 -0.8698
12634WAT     H251243   1.707   5.565   4.384  0.3578 -0.7547  0.0882
12634WAT    EPW51244   1.656   5.513   4.356  0.5068  1.0494  0.2084
12635WAT      O51245   1.398   4.457   4.212  0.3510  0.0121 -0.4448
12635WAT     H151246   1.425   4.406   4.146  2.5347  0.7333 -0.1827
12635WAT     H251247   1.451   4.526   4.208 -0.1617  0.5726  1.4156
12635WAT    EPW51248   1.410   4.460   4.201  1.3425 -0.3795  0.3087
12636WAT      O51249   1.216   6.567   3.911  0.0616 -0.0606  0.1755
12636WAT     H151250   1.298   6.580   3.884  0.4593  0.5018  1.5674
12636WAT     H251251   1.226   6.530   3.990 -1.0306 -0.5294  0.1083
12636WAT    EPW51252   1.230   6.563   3.919  1.1017 -0.2536 -0.7395
12637WAT      O51253   0.437   5.214   3.855  0.1587 -0.0780 -0.9197
12637WAT     H151254   0.501   5.267   3.884 -0.1166 -0.0793 -0.2912
12637WAT     H251255   0.387   5.202   3.926 -0.2970 -0.4313 -1.2963
12637WAT    EPW51256   0.439   5.220   3.870  0.4271  1.0814 -1.0991
12638WAT      O51257   0.621   4.928   3.224  0.7076  0.0599  0.7224
12638WAT     H151258   0.579   4.904   3.297 -1.2157  1.6238  0.2277
12638WAT     H251259   0.558   4.925   3.163  1.7811  0.7297 -0.4613
12638WAT    EPW51260   0.605   4.924   3.225  0.1157  0.1697 -0.7924
12639WAT      O51261   1.069   6.110   2.916 -0.8498 -0.7923 -0.0511
12639WAT     H151262   1.081   6.032   2.952  1.4487 -0.1520  0.7562
12639WAT     H251263   1.122   6.109   2.846 -1.1477 -0.1175 -0.2942
12639WAT    EPW51264   1.078   6.099   2.911  0.6415 -0.2109  0.4109
12640WAT      O51265   0.613   5.059   2.914 -0.3476 -0.5270  0.2811
12640WAT     H151266   0.631   5.041   2.831 -1.7470  2.2625 -0.7228
12640WAT     H251267   0.692   5.071   2.949  0.2282 -0.8145 -0.8652
12640WAT    EPW51268   0.628   5.058   2.907 -0.5320  0.2277 -0.2871
12641WAT      O51269   2.191   5.821   4.510  0.4672 -0.1733  0.5113
12641WAT     H151270   2.134   5.756   4.499 -0.1206  0.2360  1.0627
12641WAT     H251271   2.140   5.891   4.525  1.0594  0.5827 -0.8456
12641WAT    EPW51272   2.175   5.822   4.511  0.6024  0.5459  0.3538
12642WAT      O51273   2.012   4.733   5.159 -0.6191 -0.5770  0.4866
12642WAT     H151274   1.964   4.702   5.224 -0.2896 -2.5449 -0.1420
12642WAT     H251275   1.979   4.694   5.088 -0.3296  0.7264 -0.4102
12642WAT    EPW51276   2.000   4.723   5.158 -1.0372  0.2691 -1.1928
12643WAT      O51277   1.081   5.412   3.979  0.6968  0.4474  0.6688
12643WAT     H151278   1.066   5.454   4.054  2.0480 -0.1411  1.2962
12643WAT     H251279   1.023   5.447   3.924  1.0585  2.3794  1.4418
12643WAT    EPW51280   1.070   5.424   3.982 -0.2030 -0.6460  0.1959
12644WAT      O51281   1.203   4.283   5.085  0.1388 -0.2034  0.2231
12644WAT     H151282   1.128   4.247   5.110 -0.0575  0.7803  1.0993
12644WAT     H251283   1.262   4.222   5.102 -0.3153 -0.5283  0.6503
12644WAT    EPW51284   1.200   4.269   5.091 -0.4016  0.3452 -0.0512
12645WAT      O51285   2.209   6.732   3.860 -0.2585 -0.3040 -0.5016
12645WAT     H151286   2.208   6.696   3.781  1.2524 -0.4182 -0.5116
12645WAT     H251287   2.150   6.796   3.855  1.4108  1.2389 -2.5208
12645WAT    EPW51288   2.200   6.737   3.848 -0.3219 -0.2574 -0.0072
12646WAT      O51289   1.848   7.030   4.659 -0.0839 -0.3877  0.2598
12646WAT     H151290   1.849   7.078   4.732 -1.8761  0.4362 -0.1951
12646WAT     H251291   1.763   7.024   4.640  0.1921 -2.4685 -0.5686
12646WAT    EPW51292   1.836   7.036   4.667 -0.6501 -0.1748  0.0446
12647WAT      O51293   0.323   4.228   3.069 -0.1951  0.4162 -0.4697
12647WAT     H151294   0.371   4.297   3.045 -0.7442  0.8940 -0.2138
12647WAT     H251295   0.361   4.201   3.143 -0.3453  0.8235 -0.2419
12647WAT    EPW51296   0.336   4.234   3.077 -0.3114 -0.8249 -0.3924
12648WAT      O51297   1.636   6.176   3.990 -0.0681  0.6257  0.1738
12648WAT     H151298   1.588   6.234   4.035  0.1092 -0.0651  1.2619
12648WAT     H251299   1.577   6.121   3.958 -0.2349  1.3537 -0.8369
12648WAT    EPW51300   1.620   6.177   3.992  0.1389 -0.2940 -1.3156
12649WAT      O51301   2.290   5.104   5.208  0.1266  0.0136 -0.0168
12649WAT     H151302   2.225   5.146   5.247 -0.2387  0.3720 -0.9632
12649WAT     H251303   2.291   5.138   5.127  0.2706 -1.2797 -0.6021
12649WAT    EPW51304   2.280   5.115   5.202  0.4983  0.7153 -0.3258
12650WAT      O51305   1.037   5.690   2.272  0.4017  0.0785  0.8909
12650WAT     H151306   0.967   5.742   2.274 -0.9222 -1.6823  2.1856
12650WAT     H251307   1.103   5.745   2.288 -0.8365  1.5243  1.2448
12650WAT    EPW51308   1.037   5.706   2.274 -0.0646  0.0778  0.6972
12651WAT      O51309   2.148   5.305   3.338 -0.3664 -0.2261  0.0420
12651WAT     H151310   2.176   5.240   3.287  0.5043  0.0875  0.0971
12651WAT     H251311   2.152   5.375   3.285 -0.4622 -0.0770  0.2326
12651WAT    EPW51312   2.153   5.306   3.323  0.3466 -1.2620 -0.1241
12652WAT      O51313   1.263   6.231   3.725 -0.7009  0.0844 -0.5962
12652WAT     H151314   1.220   6.177   3.671 -0.4847  0.2087 -0.8983
12652WAT     H251315   1.200   6.264   3.775 -1.2408  1.6074 -2.1721
12652WAT    EPW51316   1.248   6.228   3.724  0.3875 -0.1084 -0.2047
12653WAT      O51317   1.394   6.053   3.909 -0.8566 -0.5680  0.3983
12653WAT     H151318   1.338   5.986   3.911 -1.4989 -0.1083 -1.1237
12653WAT     H251319   1.359   6.107   3.851  0.3216  0.5143  0.6604
12653WAT    EPW51320   1.380   6.051   3.901 -0.1337 -1.2643 -0.8033
12654WAT      O51321   0.808   4.002   1.651 -0.5016  0.3058 -0.1452
12654WAT     H151322   0.816   3.963   1.728  0.8533  1.2137  0.2078
12654WAT     H251323   0.759   4.072   1.668 -1.5002 -0.3011 -0.4398
12654WAT    EPW51324   0.802   4.007   1.665 -0.2964 -0.4862  0.5258
12655WAT      O51325   0.171   4.820   2.771 -0.6382  0.0155 -0.0872
12655WAT     H151326   0.163   4.872   2.841  1.2132  1.2347 -0.7212
12655WAT     H251327   0.222   4.865   2.717 -1.1542 -1.3542 -1.8117
12655WAT    EPW51328   0.177   4.834   2.774  0.7284 -0.7946  0.5007
12656WAT      O51329   8.075   6.174   3.472  0.4012 -0.4354  0.1431
12656WAT     H151330   7.995   6.158   3.501  0.9083 -1.4475  1.0819
12656WAT     H251331   8.062   6.209   3.393 -0.9686  0.2737  0.6567
12656WAT    EPW51332   8.061   6.177   3.465 -0.9486 -0.4582  0.4256
12657WAT      O51333   3.030   6.807   5.363 -0.1102 -0.1208 -0.2983
12657WAT     H151334   3.099   6.756   5.380  0.9879  2.0095  2.3704
12657WAT     H251335   2.978   6.795   5.432 -0.1281  1.7322  0.0723
12657WAT    EPW51336   3.032   6.798   5.376  0.0257 -0.6893  0.2701
12658WAT      O51337   8.001   5.787   3.304 -0.0181 -0.1159 -0.0356
12658WAT     H151338   7.961   5.853   3.263 -0.2851 -0.9981 -1.2654
12658WAT     H251339   7.937   5.752   3.352  0.2335  0.7705  0.9757
12658WAT    EPW51340   7.985   5.792   3.305  0.0748 -0.4992 -0.6771
12659WAT      O51341   7.150   5.450   2.493 -0.6317 -0.4089  0.3146
12659WAT     H151342   7.083   5.447   2.548 -0.8653  0.0931  0.0575
12659WAT     H251343   7.131   5.516   2.440  0.4227  0.2339  0.7054
12659WAT    EPW51344   7.138   5.459   2.493 -0.8086 -0.2489 -0.5179
12660WAT      O51345   7.445   5.620   3.681  0.0036  0.4734 -0.7054
12660WAT     H151346   7.400   5.663   3.742  0.0202  0.4105 -0.6482
12660WAT     H251347   7.528   5.629   3.706  0.0584  0.9691 -1.0549
12660WAT    EPW51348   7.450   5.627   3.694  0.6195  0.3265 -0.1993
12661WAT      O51349   0.552   4.984   3.730 -0.1924  0.1803  0.0165
12661WAT     H151350   0.513   5.060   3.747 -2.1161 -0.9480  1.0752
12661WAT     H251351   0.503   4.926   3.775  2.2861 -1.4698  0.7963
12661WAT    EPW51352   0.539   4.986   3.739  0.1842 -0.7725  0.1891
12662WAT      O51353   1.509   5.692   4.850 -0.3276  0.2516  0.4102
12662WAT     H151354   1.561   5.639   4.895 -2.5213 -1.7748  0.7616
12662WAT     H251355   1.463   5.735   4.912  1.0022  2.2344  0.1197
12662WAT    EPW51356   1.510   5.691   4.866 -0.1730  0.1874  0.5864
12663WAT      O51357   1.318   6.442   4.135 -0.2293  0.2876 -0.4427
12663WAT     H151358   1.319   6.356   4.118  0.1638  0.4285 -1.1472
12663WAT     H251359   1.274   6.447   4.210  0.6512 -0.6261  0.1635
12663WAT    EPW51360   1.312   6.430   4.144 -0.7045  0.3317 -0.7216
12664WAT      O51361   0.938   6.579   3.701 -0.5732  0.1808 -0.0880
12664WAT     H151362   1.013   6.550   3.669 -0.2490  0.2107  0.6125
12664WAT     H251363   0.881   6.566   3.637  0.2712  1.3087 -1.1030
12664WAT    EPW51364   0.940   6.573   3.687 -0.1403  0.1137  0.6482
12665WAT      O51365   1.889   0.106   3.174 -0.0728  0.3571  0.1832
12665WAT     H151366   1.817   0.068   3.142  0.4241  0.0295 -0.5452
12665WAT     H251367   1.922   0.045   3.227  0.3650  0.0165 -0.4759
12665WAT    EPW51368   1.883   0.091   3.177 -0.7455 -0.2797 -0.5157
12666WAT      O51369   1.578   6.538   4.725 -0.2929  0.3279  0.2050
12666WAT     H151370   1.539   6.584   4.788  0.3674 -0.5422  1.3134
12666WAT     H251371   1.612   6.470   4.769 -0.8723 -0.9733 -1.2900
12666WAT    EPW51372   1.578   6.535   4.741  0.2556 -0.4223  0.0610
12667WAT      O51373   1.475   4.757   3.089 -0.0903  0.0536  0.9209
12667WAT     H151374   1.516   4.713   3.153 -1.8948 -0.6647  1.6576
12667WAT     H251375   1.446   4.695   3.036  1.2962  0.6400 -0.6329
12667WAT    EPW51376   1.477   4.742   3.091  0.9058 -0.4462  0.6935
12668WAT      O51377   0.678   5.204   3.317 -0.0853  0.1971 -0.2915
12668WAT     H151378   0.677   5.124   3.281 -0.7636  0.3567 -0.6364
12668WAT     H251379   0.624   5.250   3.266  0.5165  0.9513 -0.2560
12668WAT    EPW51380   0.670   5.199   3.304  0.1461 -0.0353  0.0829
12669WAT      O51381   1.384   6.084   4.381  0.4845 -0.3181  0.4233
12669WAT     H151382   1.329   6.017   4.371  2.1071 -1.6519 -0.1130
12669WAT     H251383   1.442   6.072   4.317  2.7209 -0.3693  2.3215
12669WAT    EPW51384   1.385   6.072   4.370 -0.2539 -0.6912 -0.4758
12670WAT      O51385   0.155   4.673   3.820  0.2781  0.3281 -0.3941
12670WAT     H151386   0.097   4.684   3.884 -1.6294 -1.0352 -1.7510
12670WAT     H251387   0.205   4.608   3.849 -0.9545 -0.7030 -0.4770
12670WAT    EPW51388   0.154   4.665   3.834  0.5182 -0.5449 -0.6755
12671WAT      O51389   1.581   4.123   3.134 -0.0065 -0.4868 -0.5430
12671WAT     H151390   1.577   4.204   3.103  0.9847 -1.1636 -2.6088
12671WAT     H251391   1.648   4.127   3.191  0.2123  0.0797 -0.8288
12671WAT    EPW51392   1.590   4.136   3.138 -0.4455 -0.8703 -0.1244
12672WAT      O51393   0.693   6.229   3.519  0.0534 -0.0210 -0.0362
12672WAT     H151394   0.734   6.181   3.580  0.9490  1.6453  0.7622
12672WAT     H251395   0.758   6.254   3.466 -0.0446  1.6722  0.5546
12672WAT    EPW51396   0.709   6.226   3.520 -0.9850 -0.6191 -0.5756
12673WAT      O51397   1.117   5.436   2.750 -0.2143 -0.4757 -0.0345
12673WAT     H151398   1.102   5.469   2.670 -2.1429 -1.1546 -0.0067
12673WAT     H251399   1.203   5.445   2.760  0.0219 -0.0209 -2.0379
12673WAT    EPW51400   1.128   5.442   2.739  0.8572  0.4221  0.1496
12674WAT      O51401   0.515   6.690   4.250 -0.0333 -0.5005  0.3002
12674WAT     H151402   0.541   6.773   4.253 -1.4839  0.0180 -0.4146
12674WAT     H251403   0.428   6.696   4.243 -0.0415 -2.0020 -2.0301
12674WAT    EPW51404   0.506   6.703   4.250  0.1310  0.0683  0.5704
12675WAT      O51405   2.316   3.955   4.432  0.0712 -0.2903 -0.0188
12675WAT     H151406   2.389   3.916   4.405  0.5084 -0.1885  0.9662
12675WAT     H251407   2.325   4.037   4.402  1.5627  0.4224  2.1011
12675WAT    EPW51408   2.328   3.961   4.423 -0.2866 -0.1921 -0.2808
12676WAT      O51409   1.476   5.112   4.719 -0.1065 -0.6697  0.3091
12676WAT     H151410   1.473   5.184   4.670 -1.6224 -0.6304  0.4029
12676WAT     H251411   1.411   5.063   4.687  0.5309 -1.7472  0.6226
12676WAT    EPW51412   1.466   5.116   4.707  0.2920  0.1210  0.4350
12677WAT      O51413   1.384   5.805   4.630  0.1503  0.1687  0.2440
12677WAT     H151414   1.430   5.878   4.638  0.6696 -0.0553 -0.5377
12677WAT     H251415   1.414   5.755   4.695 -0.0545  0.5658  0.6489
12677WAT    EPW51416   1.395   5.808   4.640 -0.2223 -0.6221 -0.4187
12678WAT      O51417   0.549   5.595   4.203  0.3589 -0.3129 -0.0862
12678WAT     H151418   0.466   5.623   4.199  0.4660  0.1318  0.6901
12678WAT     H251419   0.586   5.629   4.132  0.0610  0.1014 -0.0441
12678WAT    EPW51420   0.542   5.604   4.192 -0.8354 -0.6813 -0.1823
12679WAT      O51421   0.065   6.572   2.253  0.3958 -0.6409 -0.5363
12679WAT     H151422   0.117   6.514   2.291  2.2356 -0.7622 -2.9733
12679WAT     H251423   0.013   6.523   2.203 -0.8672 -0.3846  0.4608
12679WAT    EPW51424   0.065   6.556   2.251  0.4603 -0.8393 -0.1706
12680WAT      O51425   1.126   5.561   3.424  0.0297  0.0543 -0.5531
12680WAT     H151426   1.165   5.586   3.350 -2.6386  0.4989 -1.9536
12680WAT     H251427   1.187   5.513   3.465  2.3114  1.5171 -2.0004
12680WAT    EPW51428   1.141   5.558   3.419 -0.5588 -0.5136 -1.0214
12681WAT      O51429   0.168   5.260   2.889  0.8033 -0.2028 -0.5774
12681WAT     H151430   0.157   5.183   2.927  2.0001  0.3669  1.0661
12681WAT     H251431   0.253   5.276   2.899  0.5474  1.4148 -0.6748
12681WAT    EPW51432   0.179   5.251   2.896  0.2902 -0.0929 -0.3409
12682WAT      O51433   7.873   5.163   3.996 -0.0251 -0.0815  0.4687
12682WAT     H151434   7.851   5.208   3.925 -0.0866 -1.5204 -0.4666
12682WAT     H251435   7.961   5.162   3.994 -0.0301 -0.2919  0.2890
12682WAT    EPW51436   7.883   5.170   3.985  0.0477 -0.3220 -0.6270
12683WAT      O51437   0.111   6.369   2.523  0.2448  0.0496  0.0979
12683WAT     H151438   0.144   6.329   2.453  0.2259 -1.0420  0.6764
12683WAT     H251439   0.173   6.426   2.546 -0.5526  1.8507 -1.9087
12683WAT    EPW51440   0.125   6.371   2.516 -0.2792  0.1172 -0.2308
12684WAT      O51441   1.889   7.854   2.321 -0.2280  0.2797 -0.0075
12684WAT     H151442   1.820   7.818   2.362 -2.5324  1.4769 -2.4931
12684WAT     H251443   1.906   7.798   2.257  0.5509  0.4319  0.0655
12684WAT    EPW51444   1.881   7.840   2.318 -0.2397  0.0386 -0.7389
12685WAT      O51445   1.332   5.808   5.057 -0.4130 -0.0158 -0.0989
12685WAT     H151446   1.367   5.882   5.087 -1.6710  1.2380 -1.5518
12685WAT     H251447   1.378   5.746   5.098  1.6700  1.5224  0.0879
12685WAT    EPW51448   1.344   5.810   5.067  0.4702 -0.1236  1.3093
12686WAT      O51449   0.054   5.763   3.567 -0.2296  0.1338  0.3603
12686WAT     H151450   0.133   5.738   3.540  0.2601  1.1340  0.8298
12686WAT     H251451   0.025   5.813   3.502 -0.0786  0.5284  0.5921
12686WAT    EPW51452   0.061   5.767   3.554  1.2635  0.9152 -1.0848
12687WAT      O51453   1.872   4.301   4.123  0.4672  0.0583 -0.4971
12687WAT     H151454   1.919   4.245   4.171  1.2363  0.3933 -0.8340
12687WAT     H251455   1.933   4.354   4.089 -0.1699  0.5458 -0.8965
12687WAT    EPW51456   1.888   4.300   4.125  0.2034  0.0091 -0.0980
12688WAT      O51457   7.811   4.748   2.370 -1.1822 -0.0411  0.1129
12688WAT     H151458   7.831   4.693   2.435  0.4199  0.3386 -0.0297
12688WAT     H251459   7.885   4.792   2.356 -2.2561  1.7993 -0.1498
12688WAT    EPW51460   7.825   4.746   2.377  0.0211 -1.1778  0.0590
12689WAT      O51461   1.446   4.844   5.119 -0.4530 -0.4721 -0.1191
12689WAT     H151462   1.400   4.822   5.048 -2.8844 -0.5161  1.3906
12689WAT     H251463   1.526   4.859   5.087 -1.1774 -1.5975 -2.6853
12689WAT    EPW51464   1.451   4.843   5.104 -0.2085  0.1677 -0.3930
12690WAT      O51465   0.276   5.743   3.869 -0.1155 -0.2018  0.5561
12690WAT     H151466   0.338   5.783   3.824  0.5950  1.8728  3.1405
12690WAT     H251467   0.284   5.659   3.845  0.0686  0.6837 -3.1067
12690WAT    EPW51468   0.286   5.736   3.859  0.1763 -0.4174 -0.0461
12691WAT      O51469   7.897   6.495   1.553  0.4075 -0.2009  0.4524
12691WAT     H151470   7.919   6.420   1.592 -0.6802 -0.4281  0.6416
12691WAT     H251471   7.886   6.551   1.619  0.5920 -0.0335  0.3453
12691WAT    EPW51472   7.899   6.493   1.568 -0.6568 -0.1447 -0.1914
12692WAT      O51473   7.470   6.127   3.632 -0.3597 -0.9930  0.3888
12692WAT     H151474   7.541   6.161   3.594 -0.3978 -1.0240  0.2926
12692WAT     H251475   7.444   6.066   3.576 -1.6086  0.3224 -0.5209
12692WAT    EPW51476   7.477   6.123   3.618  0.1670  0.6187  0.3559
12693WAT      O51477   0.523   6.193   7.650 -0.3961 -0.2238  0.2434
12693WAT     H151478   0.569   6.223   7.583  0.1552  0.5034  0.9287
12693WAT     H251479   0.556   6.236   7.719 -1.0923 -0.7859  0.9500
12693WAT    EPW51480   0.534   6.204   7.650  0.2446 -0.2877  0.5036
12694WAT      O51481   7.602   6.388   3.125 -0.0598 -0.0605 -0.2183
12694WAT     H151482   7.601   6.402   3.039  1.3732  0.2090 -0.2007
12694WAT     H251483   7.626   6.305   3.132 -1.9367 -0.6410 -0.1021
12694WAT    EPW51484   7.605   6.378   3.113  0.0519  0.3069 -0.3303
12695WAT      O51485   7.951   5.969   3.066 -0.0341  0.0225 -0.2256
12695WAT     H151486   8.000   5.915   3.018 -0.3592 -0.7932  0.3447
12695WAT     H251487   7.877   5.974   3.021 -0.7215 -1.5559  0.6688
12695WAT    EPW51488   7.947   5.962   3.052  0.4694 -1.1141  0.3833
12696WAT      O51489   0.967   6.068   1.143 -0.0793 -0.0674 -0.1586
12696WAT     H151490   1.016   6.009   1.185  0.9376 -0.0606 -1.2596
12696WAT     H251491   0.980   6.142   1.188  2.4213  0.3586 -1.4043
12696WAT    EPW51492   0.976   6.070   1.156  0.4933 -0.4165  0.2330
12697WAT      O51493   7.822   5.741   3.528 -0.0343  0.1160  0.4836
12697WAT     H151494   7.742   5.759   3.496 -0.2872  2.4955  2.2010
12697WAT     H251495   7.808   5.674   3.582 -0.6863 -0.1142  0.0413
12697WAT    EPW51496   7.808   5.734   3.531  1.0068 -0.9814  0.2611
12698WAT      O51497   0.812   4.360   2.595 -0.1301 -0.4691 -0.2553
12698WAT     H151498   0.756   4.357   2.529  0.0668 -1.4075 -0.3945
12698WAT     H251499   0.767   4.326   2.662  0.5924 -2.3468 -0.6449
12698WAT    EPW51500   0.797   4.354   2.595  0.3997  1.5671  0.6060
12699WAT      O51501   0.118   5.821   0.807  0.0870  0.0291  0.0495
12699WAT     H151502   0.201   5.818   0.780 -0.1574 -1.2572 -0.6613
12699WAT     H251503   0.090   5.899   0.780  0.8820  0.1915 -0.3219
12699WAT    EPW51504   0.126   5.832   0.799  0.4090 -0.0027 -0.2676
12700WAT      O51505   0.741   5.625   0.639 -0.0849  0.1588 -0.1057
12700WAT     H151506   0.795   5.590   0.698  1.2092  0.3295 -1.1458
12700WAT     H251507   0.789   5.685   0.599 -0.7957 -0.1932 -1.5874
12700WAT    EPW51508   0.756   5.628   0.642 -0.6333  0.2386  0.0252
12701WAT      O51509   1.028   6.152   0.449  0.4213 -0.5021 -0.2226
12701WAT     H151510   1.102   6.164   0.494 -0.1454 -0.3361  0.7047
12701WAT     H251511   0.974   6.120   0.509 -0.3042 -0.4856 -0.8600
12701WAT    EPW51512   1.031   6.149   0.465  0.5281 -0.4886  1.3116
12702WAT      O51513   0.790   5.806   2.268 -0.0542 -0.0040  0.5267
12702WAT     H151514   0.804   5.882   2.227 -1.2338  0.8618  1.6547
12702WAT     H251515   0.704   5.794   2.260  0.3981 -2.5785 -1.8328
12702WAT    EPW51516   0.780   5.816   2.260 -0.3829 -0.4795  0.0460
12703WAT      O51517   1.416   6.322   2.005 -0.3031  0.4875  0.0862
12703WAT     H151518   1.450   6.253   1.964 -0.7547 -0.2125  0.8603
12703WAT     H251519   1.335   6.296   2.024 -0.3759  1.1161  0.6732
12703WAT    EPW51520   1.409   6.308   2.002 -0.7281  0.2869  0.1469
12704WAT      O51521   0.090   4.446   2.517  0.4059  0.2465 -0.0265
12704WAT     H151522   0.120   4.388   2.459 -1.6300 -1.5290  0.5661
12704WAT     H251523   0.150   4.445   2.580  0.4503 -1.1951 -0.0628
12704WAT    EPW51524   0.103   4.437   2.517 -1.3287 -0.6888 -0.0668
12705WAT      O51525   8.005   6.297   1.253 -0.3739 -0.1997  0.3183
12705WAT     H151526   8.073   6.266   1.208 -0.8511 -0.0966 -0.5039
12705WAT     H251527   8.041   6.334   1.323  0.3779 -0.5485  0.1226
12705WAT    EPW51528   8.021   6.298   1.256  0.2636  0.0593  0.3411
12706WAT      O51529   0.222   5.460   1.045 -0.1175  0.3141  0.0792
12706WAT     H151530   0.234   5.469   0.959 -0.6956  1.0477  0.0572
12706WAT     H251531   0.185   5.536   1.068 -2.0715 -0.7250  0.5791
12706WAT    EPW51532   0.218   5.473   1.036 -0.8207  0.0251 -0.4949
12707WAT      O51533   1.979   6.414   1.891 -0.0717  0.0704 -0.2758
12707WAT     H151534   1.932   6.440   1.960  0.9112  0.2783  0.3384
12707WAT     H251535   2.054   6.385   1.927  0.1704 -0.4930 -1.2013
12707WAT    EPW51536   1.983   6.414   1.907 -0.0216  0.4755  0.5745
12708WAT      O51537   0.548   5.134   2.228  0.8335 -0.3482 -0.0816
12708WAT     H151538   0.546   5.209   2.184  0.7284 -0.1960  0.1770
12708WAT     H251539   0.473   5.136   2.274  0.9466 -0.4966  0.1104
12708WAT    EPW51540   0.536   5.145   2.229  0.6578  1.0073 -1.0254
12709WAT      O51541   1.174   6.764   2.915 -0.3340 -0.2444 -0.1431
12709WAT     H151542   1.260   6.776   2.922 -0.0495 -1.6148 -0.9540
12709WAT     H251543   1.165   6.677   2.909 -1.9790 -0.3593  2.3010
12709WAT    EPW51544   1.185   6.753   2.915  0.9777  0.2612 -0.9177
12710WAT      O51545   0.487   6.419   3.171 -0.2957  0.2188  0.0143
12710WAT     H151546   0.444   6.344   3.175  2.0391 -1.2525 -0.2989
12710WAT     H251547   0.480   6.443   3.087 -1.2571  0.5219  0.1702
12710WAT    EPW51548   0.480   6.412   3.159 -0.5983 -0.5851  0.7630
12711WAT      O51549   0.877   5.620   1.548 -0.1791  0.7980 -0.3472
12711WAT     H151550   0.819   5.557   1.565  0.5936 -0.1364 -1.0712
12711WAT     H251551   0.827   5.687   1.523 -0.9728  0.1627 -0.5275
12711WAT    EPW51552   0.861   5.620   1.547 -0.1458 -0.7134 -0.3091
12712WAT      O51553   0.516   6.503   0.548  0.9721 -0.2538  0.5335
12712WAT     H151554   0.558   6.520   0.474 -0.1253 -1.1559 -0.3404
12712WAT     H251555   0.435   6.531   0.532  0.9786  0.6444  1.8535
12712WAT    EPW51556   0.510   6.510   0.535  0.2947 -0.7598 -0.4057
12713WAT      O51557   0.897   6.818   3.824  0.3308  0.2427 -0.0970
12713WAT     H151558   0.935   6.804   3.902  1.1015 -1.7449 -0.7583
12713WAT     H251559   0.914   6.745   3.780 -1.9739  0.4040 -1.4060
12713WAT    EPW51560   0.905   6.805   3.829  0.0494  0.3629  0.2368
12714WAT      O51561   0.202   5.589   1.737 -0.1302  0.2271 -0.0041
12714WAT     H151562   0.285   5.564   1.724  0.0488 -0.2739  1.7698
12714WAT     H251563   0.175   5.536   1.801 -1.3591  1.3543  0.4429
12714WAT    EPW51564   0.211   5.577   1.745  0.3230  0.1561 -0.3201
12715WAT      O51565   0.091   5.924   2.504  0.1006  0.1841  0.0225
12715WAT     H151566   0.084   5.837   2.499 -1.2717  0.1336  1.9346
12715WAT     H251567   0.131   5.937   2.580  0.9282  1.2554 -0.5523
12715WAT    EPW51568   0.096   5.913   2.514 -1.0828 -0.1819 -0.4252
12716WAT      O51569   7.739   5.797   1.625  0.0394 -0.1527 -0.7135
12716WAT     H151570   7.777   5.870   1.653 -0.5432  0.1598 -0.7387
12716WAT     H251571   7.710   5.817   1.545 -1.6131  0.1334 -0.0797
12716WAT    EPW51572   7.740   5.811   1.617  0.2718 -0.4390  0.0225
12717WAT      O51573   0.836   6.009   3.211  0.0619 -0.0129  0.3007
12717WAT     H151574   0.769   6.045   3.168  0.1678 -1.2088 -0.9200
12717WAT     H251575   0.799   5.946   3.258  0.1904  0.0926  0.5461
12717WAT    EPW51576   0.821   6.005   3.211  0.3467  0.7705  0.1685
12718WAT      O51577   0.664   4.317   2.329 -1.1791  0.2338 -0.0113
12718WAT     H151578   0.726   4.352   2.278  0.6596 -2.3368  0.2645
12718WAT     H251579   0.632   4.252   2.280 -1.1502 -0.6838  1.1540
12718WAT    EPW51580   0.669   4.313   2.314  0.8060  0.6002  0.7269
12719WAT      O51581   1.314   5.612   2.563 -0.3073 -0.2301  0.9565
12719WAT     H151582   1.354   5.627   2.486  1.1637 -1.4163  1.4314
12719WAT     H251583   1.259   5.679   2.571 -1.3930 -0.6730 -1.7012
12719WAT    EPW51584   1.312   5.624   2.552  0.2795 -0.5226 -1.3275
12720WAT      O51585   7.897   4.599   1.566 -0.1936  1.0186  0.5324
12720WAT     H151586   7.879   4.624   1.484 -0.3360  0.2008  0.3031
12720WAT     H251587   7.961   4.540   1.555  1.7829  2.8703  1.2194
12720WAT    EPW51588   7.904   4.594   1.552 -0.1762 -0.6365 -0.9866
12721WAT      O51589   1.297   5.708   1.716 -0.0597  0.1809  0.2175
12721WAT     H151590   1.230   5.688   1.767  0.6099 -0.3801  0.8928
12721WAT     H251591   1.303   5.795   1.723 -0.8163  0.2580  0.0030
12721WAT    EPW51592   1.288   5.718   1.724  0.5208  0.2593 -0.0507
12722WAT      O51593   7.930   3.833   1.222  0.1459 -0.0107 -0.0545
12722WAT     H151594   7.844   3.843   1.232 -0.1112 -0.6805 -1.3449
12722WAT     H251595   7.964   3.897   1.271 -1.1374  1.4283 -0.9565
12722WAT    EPW51596   7.923   3.844   1.231  0.5681  0.2553  0.1722
12723WAT      O51597   7.872   6.471   2.884 -0.2451  0.1915  0.2240
12723WAT     H151598   7.785   6.475   2.881 -0.2014  2.0439  0.2155
12723WAT     H251599   7.891   6.401   2.836 -1.7399 -0.4254  0.4929
12723WAT    EPW51600   7.862   6.461   2.876  0.4595  0.6212 -0.4745
12724WAT      O51601   0.845   5.095   1.699  0.0539  0.1544 -0.3044
12724WAT     H151602   0.890   5.020   1.693  0.1693 -0.1541  2.8512
12724WAT     H251603   0.865   5.125   1.778 -0.6462  3.1598 -1.1298
12724WAT    EPW51604   0.855   5.088   1.710 -0.9317  0.3671 -1.0290
12725WAT      O51605   0.369   4.315   0.407 -0.0518 -0.4831  0.0013
12725WAT     H151606   0.341   4.358   0.337 -0.2530 -0.3357  0.1704
12725WAT     H251607   0.299   4.313   0.459 -0.6008 -2.5245 -0.7046
12725WAT    EPW51608   0.355   4.321   0.404 -0.5372 -0.9250  0.2191
12726WAT      O51609   1.964   5.606   2.188  0.0798 -0.1486 -0.0572
12726WAT     H151610   1.940   5.628   2.107  1.1126  0.1546 -0.2937
12726WAT     H251611   2.050   5.623   2.189 -0.0617  0.6293  1.3414
12726WAT    EPW51612   1.973   5.612   2.176 -0.5472 -0.0344 -0.1896
12727WAT      O51613   1.067   6.451   0.727 -0.2310  0.0836 -0.7538
12727WAT     H151614   1.020   6.516   0.692  2.2179  2.2048 -0.4395
12727WAT     H251615   1.105   6.414   0.658 -0.2382  0.1887 -0.8146
12727WAT    EPW51616   1.066   6.455   0.712  0.0991 -0.0291  0.0078
12728WAT      O51617   1.222   7.556   2.440  0.4036  0.2015  0.6767
12728WAT     H151618   1.299   7.533   2.407  0.0969 -0.8721  0.6499
12728WAT     H251619   1.175   7.482   2.434 -0.7968  0.9783  0.1829
12728WAT    EPW51620   1.226   7.541   2.435 -0.5932  0.4155 -0.8459
12729WAT      O51621   6.878   5.553   3.211 -0.4040 -0.5312 -0.0911
12729WAT     H151622   6.892   5.491   3.270 -1.7902 -1.0700 -0.2828
12729WAT     H251623   6.887   5.512   3.135 -0.4513 -0.2970 -0.2243
12729WAT    EPW51624   6.881   5.538   3.209 -0.8065  0.2986 -0.3788
12730WAT      O51625   0.039   6.391   1.850 -0.7121  0.3571  0.3479
12730WAT     H151626   0.062   6.475   1.840 -0.4319  0.4036  1.3155
12730WAT     H251627  -0.007   6.391   1.924 -1.3599 -0.2292 -0.0425
12730WAT    EPW51628   0.035   6.404   1.859 -0.7298  0.1325  0.4673
12731WAT      O51629   7.346   5.378   1.778 -0.1845 -0.2910 -0.3978
12731WAT     H151630   7.371   5.441   1.723  0.5850 -0.8969 -0.7574
12731WAT     H251631   7.308   5.421   1.843 -0.6734  0.4731 -1.1708
12731WAT    EPW51632   7.344   5.393   1.780 -0.6456 -0.3728 -0.2262
12732WAT      O51633   0.485   6.836   3.570  0.5028 -0.5733 -0.0654
12732WAT     H151634   0.468   6.813   3.652  1.1964 -0.7314  0.0375
12732WAT     H251635   0.439   6.779   3.523  0.4325 -0.7430  0.2076
12732WAT    EPW51636   0.476   6.825   3.575 -0.2444 -0.1507  0.9942
12733WAT      O51637   7.345   6.343   3.496  0.4065 -0.0026 -0.0288
12733WAT     H151638   7.376   6.276   3.543 -1.7033 -0.1814  1.2201
12733WAT     H251639   7.343   6.409   3.553 -1.1852  0.0690 -0.1271
12733WAT    EPW51640   7.350   6.343   3.511  0.5295  0.5490 -0.4761
12734WAT      O51641   0.636   6.626   0.764  0.2539 -0.3331  0.3036
12734WAT     H151642   0.589   6.598   0.832 -0.3058  0.3805  0.2310
12734WAT     H251643   0.613   6.572   0.699  0.7685 -0.9985  0.6565
12734WAT    EPW51644   0.626   6.614   0.765  0.0348 -0.1439 -0.3811
12735WAT      O51645   1.247   6.512   2.572  0.3332  0.3507  0.0880
12735WAT     H151646   1.205   6.533   2.645 -0.2723  1.7855 -0.6355
12735WAT     H251647   1.301   6.579   2.559  1.0397 -0.2855 -0.3536
12735WAT    EPW51648   1.249   6.525   2.581  0.2771  0.1796  0.0177
12736WAT      O51649   7.594   5.094   4.025 -0.6197  0.3413 -0.3436
12736WAT     H151650   7.680   5.103   4.032 -0.5433 -0.6483  0.2098
12736WAT     H251651   7.580   5.013   4.054 -2.1278  1.5732  2.7476
12736WAT    EPW51652   7.604   5.083   4.030 -0.0753  0.2987 -0.0635
12737WAT      O51653   0.969   5.690   0.186 -0.1123  0.0179  0.1728
12737WAT     H151654   0.900   5.673   0.134 -0.0031 -1.5897  0.4943
12737WAT     H251655   0.939   5.753   0.239  0.2156  2.7684 -2.6249
12737WAT    EPW51656   0.954   5.697   0.186 -0.6619 -0.2041  0.2406
12738WAT      O51657   1.828   6.186   7.750 -0.0205 -0.0684 -0.2089
12738WAT     H151658   1.750   6.162   7.782 -0.8193 -1.5942 -2.9490
12738WAT     H251659   1.859   6.113   7.715  2.3026  0.7265  0.0460
12738WAT    EPW51660   1.821   6.172   7.749  0.7157  0.4415 -0.4723
12739WAT      O51661   0.523   7.943   2.466 -0.0170 -0.2153 -0.4081
12739WAT     H151662   0.460   7.957   2.407 -1.3392 -3.0190  0.1634
12739WAT     H251663   0.484   7.959   2.542  0.6060  0.0386 -0.1378
12739WAT    EPW51664   0.508   7.947   2.468 -0.3275 -0.4543  0.2897
12740WAT      O51665   0.617   6.062   3.044  0.2105 -0.5392  0.0119
12740WAT     H151666   0.551   6.105   3.082 -0.1740  1.2645 -2.4580
12740WAT     H251667   0.580   5.986   3.019 -0.2537 -0.5795  0.8095
12740WAT    EPW51668   0.602   6.057   3.046  0.0851 -0.1514 -0.1302
12741WAT      O51669   0.586   6.386   2.637 -0.4685  0.5535 -0.0353
12741WAT     H151670   0.581   6.302   2.614 -2.5680  0.8249 -0.7401
12741WAT     H251671   0.644   6.419   2.581 -0.7202 -0.1375 -0.7263
12741WAT    EPW51672   0.594   6.379   2.625  0.8992  0.4219 -0.7928
12742WAT      O51673   0.386   5.238   1.852 -0.2973 -0.1115  0.3148
12742WAT     H151674   0.453   5.210   1.804  0.6900  1.4529  0.7121
12742WAT     H251675   0.422   5.297   1.906 -2.0736  1.1823  0.1694
12742WAT    EPW51676   0.401   5.243   1.853  0.0336 -0.4528 -0.3638
12743WAT      O51677   1.342   6.328   3.243  0.0004  0.2030  0.1051
12743WAT     H151678   1.294   6.338   3.171 -0.6346 -0.4933  0.4296
12743WAT     H251679   1.284   6.307   3.305  0.8594 -2.6127  0.0936
12743WAT    EPW51680   1.327   6.327   3.241 -0.2066 -0.1557  0.5277
12744WAT      O51681   0.921   3.045   1.278 -0.1207  0.1291  0.2139
12744WAT     H151682   0.947   3.106   1.335  0.6709 -0.1746  0.1851
12744WAT     H251683   0.973   2.977   1.294 -0.6484 -0.3636 -0.1047
12744WAT    EPW51684   0.932   3.044   1.288  0.1195  0.3530 -0.5154
12745WAT      O51685   1.867   5.995   3.571  0.5295 -0.6057 -0.2054
12745WAT     H151686   1.818   6.064   3.550 -3.3807 -2.6323  1.1762
12745WAT     H251687   1.889   5.961   3.494 -1.9465 -0.6027 -0.9799
12745WAT    EPW51688   1.863   6.000   3.556 -0.5127 -0.3495  0.5429
12746WAT      O51689   7.627   5.863   3.096  0.4830  0.0800 -0.0090
12746WAT     H151690   7.650   5.937   3.135  0.4335 -0.4769  1.1145
12746WAT     H251691   7.542   5.871   3.084  0.4715  0.1903  0.1502
12746WAT    EPW51692   7.618   5.875   3.100 -0.0379  0.4450  0.4428
12747WAT      O51693   1.079   6.605   7.821  0.2541 -0.0406  0.2890
12747WAT     H151694   1.042   6.552   7.880  1.0116 -0.9800 -0.0508
12747WAT     H251695   1.050   6.573   7.745  0.5894  0.1307  0.0883
12747WAT    EPW51696   1.069   6.592   7.818  0.4539 -0.3319 -1.4507
12748WAT      O51697   0.073   7.466   2.712  0.2734 -0.3317 -0.3430
12748WAT     H151698   0.101   7.444   2.632  0.0440 -0.4803 -0.3843
12748WAT     H251699   0.139   7.443   2.764  0.2258 -0.6907 -0.4372
12748WAT    EPW51700   0.087   7.459   2.708 -0.4881  0.7528 -0.2233
12749WAT      O51701   1.091   7.254   0.678  0.1997 -0.4216  0.8300
12749WAT     H151702   1.177   7.240   0.669  0.5185  1.9478 -0.4567
12749WAT     H251703   1.065   7.272   0.597 -1.9569 -2.8277  0.8399
12749WAT    EPW51704   1.100   7.254   0.665  0.3823  0.0752 -0.3808
12750WAT      O51705   1.085   5.279   2.999 -0.1871 -0.3779  0.1073
12750WAT     H151706   1.067   5.330   2.930 -1.9853 -1.5350 -0.3561
12750WAT     H251707   1.158   5.238   2.976 -0.5280 -0.4255 -0.9654
12750WAT    EPW51708   1.093   5.280   2.986 -0.1904 -0.1451 -0.2940
12751WAT      O51709   0.453   5.896   0.996  0.3021 -0.1541 -0.1119
12751WAT     H151710   0.438   5.980   1.015 -2.8463 -0.7022  0.4178
12751WAT     H251711   0.382   5.855   1.027  1.5007 -2.9799 -0.7541
12751WAT    EPW51712   0.440   5.902   1.003 -0.5844 -0.3265 -0.5453
12752WAT      O51713   0.735   5.519   2.126  0.7087  0.2436 -0.4640
12752WAT     H151714   0.772   5.466   2.185  0.2598 -1.9117 -1.9550
12752WAT     H251715   0.746   5.598   2.159  3.3944 -0.5714  0.9325
12752WAT    EPW51716   0.742   5.523   2.139  0.1014  0.5080  1.0918
12753WAT      O51717   1.952   6.139   2.063  0.0092  0.0196  0.0573
12753WAT     H151718   2.018   6.112   2.013  1.4166 -0.0079  1.8502
12753WAT     H251719   1.980   6.215   2.095 -1.0738  0.2812  0.4382
12753WAT    EPW51720   1.966   6.146   2.060 -1.2322  0.5172  0.4246
12754WAT      O51721   7.687   6.581   3.321  0.3069 -0.0903 -0.5141
12754WAT     H151722   7.767   6.592   3.287  0.4603 -1.1429 -0.5187
12754WAT     H251723   7.648   6.529   3.264 -0.1185 -0.2246 -0.1015
12754WAT    EPW51724   7.693   6.575   3.308  0.8470 -0.0722  0.4815
12755WAT      O51725   0.137   4.953   3.261 -0.0376 -0.6781 -1.1335
12755WAT     H151726   0.200   5.010   3.281  0.1751 -1.1064 -0.5494
12755WAT     H251727   0.071   4.979   3.312  0.0370 -0.9095 -0.9176
12755WAT    EPW51728   0.136   4.965   3.272 -0.2875 -0.7061 -0.0805
12756WAT      O51729   8.027   6.401   3.649 -0.3751 -0.0974 -0.2903
12756WAT     H151730   8.069   6.341   3.602 -2.1989 -1.6252 -0.0718
12756WAT     H251731   7.952   6.413   3.607 -1.1515  0.0851  1.0684
12756WAT    EPW51732   8.022   6.394   3.636 -0.2887  0.4250 -0.6440
12757WAT      O51733   0.957   5.233   1.920  0.3992 -0.1355 -0.2934
12757WAT     H151734   1.044   5.232   1.918  0.4794  1.8646 -0.2346
12757WAT     H251735   0.938   5.221   2.005  0.7891  2.1340  0.1804
12757WAT    EPW51736   0.967   5.231   1.933 -0.1018  0.1549  0.2688
12758WAT      O51737   1.981   5.969   2.300  0.0150 -0.0694  0.1129
12758WAT     H151738   1.968   6.012   2.225  2.4315 -0.1518 -0.4406
12758WAT     H251739   2.061   5.935   2.290 -0.3081 -1.5267  2.0574
12758WAT    EPW51740   1.991   5.971   2.288 -0.8683 -0.5153  0.2100
12759WAT      O51741   1.165   5.634   1.479 -0.0519  0.3975  0.2201
12759WAT     H151742   1.193   5.666   1.555 -1.5750  1.1782  0.4920
12759WAT     H251743   1.082   5.610   1.496  0.2890 -1.5519 -0.6019
12759WAT    EPW51744   1.157   5.636   1.493  0.4055 -0.1371 -0.6673
12760WAT      O51745   0.726   6.623   7.658  0.1885 -0.0963 -0.8034
12760WAT     H151746   0.732   6.710   7.661  1.4374 -0.1996  0.5904
12760WAT     H251747   0.648   6.607   7.695  1.3347  0.3364  2.0468
12760WAT    EPW51748   0.715   6.633   7.664 -0.2039  0.2381  0.2233
12761WAT      O51749   0.679   4.950   0.866 -0.3326  0.1698  0.1100
12761WAT     H151750   0.679   4.904   0.792  0.2274  0.1547  0.1203
12761WAT     H251751   0.675   5.033   0.840 -0.9011  0.1397  0.0831
12761WAT    EPW51752   0.678   4.955   0.851  0.2798 -0.0245 -0.7736
12762WAT      O51753   1.196   6.332   3.011 -0.3023 -0.2817 -0.1292
12762WAT     H151754   1.251   6.321   2.944 -1.3363  1.1248 -1.2867
12762WAT     H251755   1.140   6.266   3.002  0.9765 -1.5563  0.8897
12762WAT    EPW51756   1.196   6.321   3.000  0.2004 -0.7317  0.2352
12763WAT      O51757   0.524   7.368   3.144 -0.2580  0.0858 -0.1642
12763WAT     H151758   0.546   7.418   3.076 -0.5519 -1.4808 -1.4738
12763WAT     H251759   0.445   7.396   3.165 -0.4157  0.2061 -0.8703
12763WAT    EPW51760   0.516   7.380   3.137 -0.8032 -0.2260  0.0371
12764WAT      O51761   0.404   6.164   1.073 -0.5853  0.5185 -0.1815
12764WAT     H151762   0.432   6.192   1.151  1.4131  0.2015 -0.7459
12764WAT     H251763   0.458   6.201   1.016  1.5062 -3.3496 -1.0746
12764WAT    EPW51764   0.416   6.174   1.076  0.0852  0.5962 -0.3856
12765WAT      O51765   1.037   6.360   3.875  0.3733  0.0777  0.0574
12765WAT     H151766   0.977   6.389   3.820  0.3171  0.0738  0.1166
12765WAT     H251767   1.092   6.428   3.884 -0.1151  0.3955  0.7079
12765WAT    EPW51768   1.036   6.374   3.868  1.0445 -0.8301  0.1119
12766WAT      O51769   0.092   6.069   3.166 -0.2926 -0.0125  0.5785
12766WAT     H151770   0.015   6.037   3.139 -0.2126  1.6149 -1.9451
12766WAT     H251771   0.100   6.039   3.247 -1.8898 -3.2595 -0.2908
12766WAT    EPW51772   0.082   6.060   3.174  0.7838  0.0823 -0.0267
12767WAT      O51773   0.334   5.462   0.781  0.4069  0.2516 -0.3953
12767WAT     H151774   0.397   5.515   0.809 -1.3524  2.7966 -0.9661
12767WAT     H251775   0.333   5.475   0.695 -0.6200 -0.0830 -0.4500
12767WAT    EPW51776   0.343   5.472   0.772 -0.2808 -0.2185 -0.5244
12768WAT      O51777   7.293   6.073   3.838 -0.3317  0.2988  0.0519
12768WAT     H151778   7.360   6.090   3.785  0.3887  1.3414  1.2238
12768WAT     H251779   7.304   5.990   3.860  1.7455  0.9175  1.7027
12768WAT    EPW51780   7.304   6.063   3.834  0.6379  0.2658 -1.0734
12769WAT      O51781   1.980   5.057   1.877 -0.2030  0.2362 -0.3228
12769WAT     H151782   1.978   5.127   1.826  1.2546  0.5157 -0.0379
12769WAT     H251783   1.901   5.021   1.865 -0.7598  1.5782 -0.9263
12769WAT    EPW51784   1.968   5.062   1.868 -0.1875 -0.7651  0.7455
12770WAT      O51785   0.923   5.670   3.896 -0.4160 -0.2970  0.3778
12770WAT     H151786   0.947   5.720   3.829 -3.8502  0.7884 -0.2611
12770WAT     H251787   0.902   5.728   3.958  0.7315 -1.2179  1.6676
12770WAT    EPW51788   0.923   5.686   3.895  0.0153 -0.8215 -0.3750
12771WAT      O51789   1.087   6.897   7.746 -0.1692 -0.1305  0.5604
12771WAT     H151790   1.151   6.941   7.707 -0.8096  0.6398  0.3464
12771WAT     H251791   1.118   6.816   7.751  1.1524  0.3931  1.2141
12771WAT    EPW51792   1.101   6.892   7.741  0.0795  0.0735 -0.5303
12772WAT      O51793   0.443   4.445   1.451  0.4585 -0.1537  0.4189
12772WAT     H151794   0.527   4.461   1.434  0.3822 -0.4464 -0.2691
12772WAT     H251795   0.443   4.364   1.483  0.2997 -0.6794 -0.8693
12772WAT    EPW51796   0.455   4.435   1.453  0.9052 -0.8741 -0.7390
12773WAT      O51797   0.181   6.540   8.051 -0.1824  0.1322 -0.0889
12773WAT     H151798   0.231   6.603   8.017 -1.7511  1.0587 -0.7525
12773WAT     H251799   0.238   6.492   8.096  1.0685  2.1197  0.6036
12773WAT    EPW51800   0.197   6.542   8.053 -1.0354 -0.1282 -0.9322
12774WAT      O51801   7.985   5.717   2.914 -0.2935 -0.2367 -0.9277
12774WAT     H151802   8.049   5.657   2.923 -1.3744 -1.3650 -0.4992
12774WAT     H251803   7.949   5.697   2.837 -0.6664 -0.1411 -0.7806
12774WAT    EPW51804   7.989   5.705   2.904  0.6252 -0.4348 -0.5510
12775WAT      O51805   0.470   5.517   1.631 -0.0749 -0.1301  0.3880
12775WAT     H151806   0.469   5.595   1.591  0.2954 -0.0287  0.5677
12775WAT     H251807   0.411   5.471   1.588 -1.3142  0.6938  1.1550
12775WAT    EPW51808   0.461   5.522   1.619  0.2128 -0.5834  0.1507
12776WAT      O51809   0.005   5.527   2.276  0.9270  0.3756  0.2918
12776WAT     H151810  -0.070   5.568   2.259  2.1179  2.1182 -1.0020
12776WAT     H251811   0.020   5.545   2.360  0.5066  1.0548  0.2261
12776WAT    EPW51812  -0.004   5.536   2.286  0.3402 -0.3918 -0.3195
12777WAT      O51813   0.750   7.438   3.586  0.0343 -0.7854  0.3807
12777WAT     H151814   0.785   7.518   3.590 -0.3710 -0.6079  0.4756
12777WAT     H251815   0.758   7.417   3.502 -0.1029 -0.5267  0.2990
12777WAT    EPW51816   0.757   7.447   3.574 -0.1175  1.1257 -0.1675
12778WAT      O51817   1.756   5.049   2.440  0.9119 -0.2228  0.7993
12778WAT     H151818   1.791   5.121   2.474  1.9794  0.4463 -1.4908
12778WAT     H251819   1.825   4.995   2.433  0.8639 -0.1228 -0.7288
12778WAT    EPW51820   1.772   5.051   2.444  0.7907 -0.6779  0.1362
12779WAT      O51821   0.106   6.075   2.257  0.0941 -1.1384 -0.2287
12779WAT     H151822   0.125   6.021   2.324 -2.2113 -1.5293  0.1862
12779WAT     H251823   0.148   6.039   2.190 -0.4747 -2.8537  0.2788
12779WAT    EPW51824   0.115   6.061   2.257 -0.2243  0.0983 -0.2211
12780WAT      O51825   7.067   5.666   4.006  0.0600 -0.4985  0.5787
12780WAT     H151826   7.081   5.629   4.083 -0.4346 -0.0286  0.8979
12780WAT     H251827   7.004   5.617   3.970 -1.4621  0.6903  1.4998
12780WAT    EPW51828   7.060   5.653   4.012 -0.3694  0.1052 -0.3623
12781WAT      O51829   0.604   0.432   2.667  0.4497  0.3359  0.6131
12781WAT     H151830   0.655   0.418   2.736  0.4508 -1.3200  0.2977
12781WAT     H251831   0.624   0.368   2.612 -2.1465 -0.5744  0.5854
12781WAT    EPW51832   0.614   0.421   2.669 -0.0149  0.2181  0.4600
12782WAT      O51833   0.553   5.318   4.140 -0.1164  0.2062  0.8160
12782WAT     H151834   0.637   5.295   4.147 -0.0903 -0.1248 -0.3985
12782WAT     H251835   0.553   5.402   4.163  0.4767  0.0917  1.2459
12782WAT    EPW51836   0.565   5.327   4.144  0.1460  0.4039 -0.1676
12783WAT      O51837   0.817   5.761   3.597 -0.0449  0.1690 -0.1973
12783WAT     H151838   0.786   5.766   3.515 -0.8504 -1.4873 -0.0412
12783WAT     H251839   0.903   5.760   3.586 -0.1407 -0.8554 -1.1352
12783WAT    EPW51840   0.825   5.761   3.583  0.0975 -0.7400 -0.4875
12784WAT      O51841   1.680   4.726   1.445  0.0947  0.1088 -0.0756
12784WAT     H151842   1.673   4.641   1.462  1.4313  0.1775  0.9018
12784WAT     H251843   1.717   4.728   1.366  0.2305 -0.2199 -0.0207
12784WAT    EPW51844   1.684   4.714   1.436 -0.0198 -0.2403  0.0582
12785WAT      O51845   7.709   7.164   1.554  0.8010 -0.4260 -0.2117
12785WAT     H151846   7.648   7.184   1.494 -1.7417 -0.5117  2.1405
12785WAT     H251847   7.759   7.235   1.558 -1.3833  1.1807  0.2491
12785WAT    EPW51848   7.707   7.177   1.546 -0.1721 -0.4614 -1.2272
12786WAT      O51849   7.978   6.312   2.686  0.1102 -0.7627 -0.2800
12786WAT     H151850   7.952   6.231   2.668  1.8062 -1.4005  0.0012
12786WAT     H251851   8.052   6.321   2.640  0.9729 -0.0689  1.1881
12786WAT    EPW51852   7.985   6.302   2.676  0.3674  0.1006  0.4638
12787WAT      O51853   0.532   4.489   2.005 -0.9381 -0.4109 -0.2751
12787WAT     H151854   0.593   4.536   1.964 -0.0619 -1.7176 -0.5147
12787WAT     H251855   0.497   4.546   2.061 -0.9213  0.9279 -1.5490
12787WAT    EPW51856   0.535   4.505   2.007  0.0219  0.4065  0.0400
12788WAT      O51857   7.774   7.358   2.776  0.2323 -0.1071 -0.8795
12788WAT     H151858   7.824   7.421   2.810  0.2703 -0.1111 -0.9273
12788WAT     H251859   7.831   7.294   2.758 -0.0342 -0.8926  0.8694
12788WAT    EPW51860   7.790   7.358   2.778  0.0296 -1.0205 -0.5087
12789WAT      O51861   7.343   5.912   3.464 -0.1855 -0.0774  0.4754
12789WAT     H151862   7.296   5.840   3.480 -0.1245 -0.3603 -0.5802
12789WAT     H251863   7.422   5.880   3.443 -0.0905  0.3091  0.2298
12789WAT    EPW51864   7.348   5.896   3.464 -0.3971 -0.4079 -0.7360
12790WAT      O51865   6.927   6.611   1.651  0.2813 -0.0186  0.5485
12790WAT     H151866   6.940   6.634   1.568 -0.2605 -1.0881  0.1458
12790WAT     H251867   6.887   6.680   1.686  0.1874  0.2994 -0.1762
12790WAT    EPW51868   6.923   6.624   1.644 -0.0129 -0.5280 -0.2174
12791WAT      O51869   1.128   4.936   0.173 -0.3556  0.4556 -0.1357
12791WAT     H151870   1.072   4.915   0.109 -0.4113  1.1129 -0.3071
12791WAT     H251871   1.087   5.001   0.215 -2.4044 -2.6849  3.3319
12791WAT    EPW51872   1.113   4.943   0.170 -0.2864  0.3128  0.2554
12792WAT      O51873   0.534   5.060   1.450 -0.2294 -1.2679 -0.4979
12792WAT     H151874   0.564   5.093   1.526  1.4006  1.1110 -2.0473
12792WAT     H251875   0.453   5.035   1.469 -1.3389  2.8217  1.1922
12792WAT    EPW51876   0.527   5.061   1.464  0.0410 -0.0973 -0.7318
12793WAT      O51877   7.305   6.177   3.256  0.0543  0.1277 -0.0831
12793WAT     H151878   7.309   6.240   3.317  0.3864  0.1851 -0.1591
12793WAT     H251879   7.220   6.166   3.243 -0.0106  0.3804  0.1220
12793WAT    EPW51880   7.293   6.185   3.263 -0.2329  0.0843  0.3356
12794WAT      O51881   0.463   6.253   2.296  0.3981  0.5042 -0.2283
12794WAT     H151882   0.450   6.174   2.261  0.2147  0.0376  0.8790
12794WAT     H251883   0.494   6.236   2.376 -0.6366  1.5347  0.4174
12794WAT    EPW51884   0.466   6.239   2.302  0.1684  0.4242  0.1299
12795WAT      O51885   0.921   7.198   3.280  0.2263  0.0920  0.6505
12795WAT     H151886   0.861   7.253   3.312 -0.5812 -0.0565 -0.5421
12795WAT     H251887   0.980   7.193   3.344 -0.0499  1.7566  1.0928
12795WAT    EPW51888   0.921   7.206   3.294 -0.1889 -0.4581 -0.1875
12796WAT      O51889   1.109   5.994   2.192 -0.2861 -0.4459  0.5582
12796WAT     H151890   1.176   5.943   2.213  1.0961  0.9807 -0.1387
12796WAT     H251891   1.082   5.963   2.115 -1.2266 -1.7470  1.3840
12796WAT    EPW51892   1.115   5.982   2.184 -0.2812  0.3365  0.1308
12797WAT      O51893   0.923   7.050   1.858  0.6638 -0.3540  0.1583
12797WAT     H151894   0.897   7.006   1.787 -2.2701  0.6142  0.5256
12797WAT     H251895   0.907   6.995   1.923 -0.1852  0.1281  0.3642
12797WAT    EPW51896   0.917   7.035   1.857 -0.1880  0.1273  0.3998
12798WAT      O51897   0.028   5.656   2.537 -0.0600  0.4102 -0.1199
12798WAT     H151898   0.059   5.607   2.602  2.0400  3.0647  1.1141
12798WAT     H251899  -0.058   5.656   2.551  0.0821 -1.2541  1.0061
12798WAT    EPW51900   0.020   5.649   2.549 -0.0828  0.6945 -0.8720
12799WAT      O51901   1.529   5.493   1.346 -0.1981  0.1265 -0.1603
12799WAT     H151902   1.475   5.477   1.413  1.8219 -0.7609  1.3367
12799WAT     H251903   1.570   5.566   1.369 -0.4078  0.5631 -1.0919
12799WAT    EPW51904   1.527   5.502   1.359 -0.1381  0.9313  0.0063
12800WAT      O51905   0.993   5.548   2.511  0.1663 -0.1462  0.0893
12800WAT     H151906   0.919   5.585   2.539 -0.3500 -1.3615  0.4320
12800WAT     H251907   1.015   5.595   2.441 -1.9890 -0.8913 -1.1781
12800WAT    EPW51908   0.985   5.560   2.505  0.0362 -0.3127  0.0565
12801WAT      O51909   0.236   5.245   1.216  0.1296  0.3973 -0.1190
12801WAT     H151910   0.276   5.192   1.160  0.2502 -0.5753  0.8555
12801WAT     H251911   0.241   5.323   1.178  1.0297 -0.0846 -1.0229
12801WAT    EPW51912   0.243   5.249   1.202  1.0913  0.4738 -0.7223
12802WAT      O51913   1.245   5.289   1.778 -0.5254 -0.2193  0.2812
12802WAT     H151914   1.195   5.322   1.715  0.9868 -0.1302 -0.9317
12802WAT     H251915   1.306   5.245   1.735  0.4367 -0.3286  1.6958
12802WAT    EPW51916   1.247   5.287   1.763  0.7807  1.0980 -0.1785
12803WAT      O51917   1.600   6.113   7.853  0.6262 -0.0718  0.8348
12803WAT     H151918   1.603   6.059   7.921 -0.0131  1.3509  2.0467
12803WAT     H251919   1.563   6.185   7.885 -0.4363  0.3960 -1.2024
12803WAT    EPW51920   1.595   6.116   7.868  0.2002  0.4079 -0.6848
12804WAT      O51921   1.191   5.012   2.223 -0.1685 -0.2035 -0.3450
12804WAT     H151922   1.135   5.077   2.235  0.4335  0.0640  1.3210
12804WAT     H251923   1.221   5.026   2.142 -1.5430  0.3686 -0.7886
12804WAT    EPW51924   1.188   5.024   2.213 -0.0577 -0.1137 -0.4169
12805WAT      O51925   0.277   4.755   1.957  0.5288  0.3610  0.1816
12805WAT     H151926   0.230   4.828   1.964 -0.2468  0.0838 -1.6168
12805WAT     H251927   0.354   4.783   1.927 -0.1756  0.3761 -1.7292
12805WAT    EPW51928   0.282   4.770   1.954 -0.2909 -0.2392 -0.1182
12806WAT      O51929   7.876   6.009   3.654 -0.7093 -0.0195  0.6767
12806WAT     H151930   7.867   5.925   3.631  1.1047 -0.1440  0.2685
12806WAT     H251931   7.927   6.006   3.724  0.6818  0.7814 -0.2542
12806WAT    EPW51932   7.882   5.996   3.661 -1.1530 -0.0124  0.1678
12807WAT      O51933   7.913   6.630   3.178 -0.2417 -0.1332  0.2051
12807WAT     H151934   7.975   6.683   3.146  2.9356 -2.5980  1.7617
12807WAT     H251935   7.903   6.570   3.116  0.6027 -0.9496  0.8408
12807WAT    EPW51936   7.921   6.629   3.164  0.0462  0.0098 -0.0080
12808WAT      O51937   0.302   5.552   0.121 -0.1080 -0.3027  0.2289
12808WAT     H151938   0.319   5.488   0.064  0.2547  0.6429 -0.7625
12808WAT     H251939   0.220   5.576   0.101  1.2998  2.8686 -2.9434
12808WAT    EPW51940   0.292   5.546   0.109  0.3831 -0.2493 -0.0748
12809WAT      O51941   0.063   7.069   0.289  0.8224  0.2566 -0.2362
12809WAT     H151942   0.078   7.031   0.212 -0.0649  0.8020 -0.7004
12809WAT     H251943  -0.024   7.067   0.296  0.9443 -1.0305  1.4082
12809WAT    EPW51944   0.052   7.063   0.278 -0.5609  0.2659 -0.3629
12810WAT      O51945   1.885   4.185   0.238  0.1371 -0.2130  0.1424
12810WAT     H151946   1.837   4.250   0.204 -0.0985  0.4781  1.7262
12810WAT     H251947   1.852   4.174   0.318  0.4472 -2.0198  0.0709
12810WAT    EPW51948   1.873   4.193   0.244  0.2068 -0.6198  0.8050
12811WAT      O51949   0.955   6.080   1.527 -0.5800 -0.4028  0.0424
12811WAT     H151950   1.035   6.097   1.558 -0.9041 -0.8557  1.1800
12811WAT     H251951   0.943   6.142   1.467 -0.0766  0.8184  1.1461
12811WAT    EPW51952   0.965   6.092   1.523  1.1125  0.2889  0.3956
12812WAT      O51953   6.577   5.992   7.819 -0.5879  0.1173 -0.2589
12812WAT     H151954   6.614   6.051   7.871  2.1785  0.1348 -2.0925
12812WAT     H251955   6.538   6.040   7.758 -2.4085  0.0519  0.7771
12812WAT    EPW51956   6.576   6.008   7.818  0.0558  0.2771 -0.0881
12813WAT      O51957   7.435   5.472   0.487  0.5063 -0.2067  0.4918
12813WAT     H151958   7.489   5.403   0.494 -0.9070 -1.5961 -1.1793
12813WAT     H251959   7.463   5.512   0.415  0.2496 -0.0681  0.4701
12813WAT    EPW51960   7.447   5.467   0.477 -0.9870  0.6754 -0.6930
12814WAT      O51961   7.183   5.463   2.071  0.4964 -0.3025  0.1229
12814WAT     H151962   7.212   5.543   2.054  0.3700 -0.4062 -0.5723
12814WAT     H251963   7.096   5.469   2.060  0.5298 -0.6375 -0.3592
12814WAT    EPW51964   7.174   5.476   2.067 -0.2306 -0.5075 -0.4225
12815WAT      O51965   7.581   6.695   0.870 -0.0717 -0.1477 -0.2572
12815WAT     H151966   7.534   6.638   0.823  0.2925 -0.3023 -0.4360
12815WAT     H251967   7.607   6.648   0.939 -1.4654  0.3524  0.6427
12815WAT    EPW51968   7.578   6.680   0.873 -0.5159  0.8084 -0.0592
12816WAT      O51969   7.908   6.794   0.476  0.5636  0.1086  0.2433
12816WAT     H151970   7.869   6.813   0.551 -1.8888  2.2545 -1.3867
12816WAT     H251971   7.877   6.715   0.456 -0.1326  0.2735  0.6671
12816WAT    EPW51972   7.898   6.785   0.484 -0.2873 -0.2730 -0.2266
12817WAT      O51973   0.965   5.129   0.283  0.0341  0.3726 -0.1203
12817WAT     H151974   0.944   5.213   0.278 -0.5847  0.1701 -1.3082
12817WAT     H251975   0.895   5.089   0.250 -0.4071 -0.7219  1.9874
12817WAT    EPW51976   0.951   5.135   0.277  0.3825 -0.2843  0.2066
12818WAT      O51977   0.939   5.221   0.654 -0.3114 -0.3418  0.9730
12818WAT     H151978   0.985   5.293   0.636  0.2241 -0.8674  0.2052
12818WAT     H251979   0.946   5.213   0.740  0.9891 -0.3722  0.8850
12818WAT    EPW51980   0.947   5.231   0.664 -1.0513  0.4626  0.1324
12819WAT      O51981   7.891   5.677   0.880  0.1365 -0.3480  0.4221
12819WAT     H151982   7.838   5.631   0.828 -0.3636 -0.0283  0.6299
12819WAT     H251983   7.899   5.753   0.839 -1.6102  0.5234  1.5635
12819WAT    EPW51984   7.884   5.682   0.866  0.3175 -0.2046 -0.1856
12820WAT      O51985   1.041   5.090   7.132 -0.0216 -0.0937 -0.4080
12820WAT     H151986   1.066   5.129   7.058 -3.5001  0.0435 -1.6940
12820WAT     H251987   1.024   5.156   7.185 -0.7459 -0.0521 -0.6871
12820WAT    EPW51988   1.043   5.105   7.129  0.0069  0.0996 -0.9766
12821WAT      O51989   1.248   4.873   7.708  0.5508  0.0991  0.2163
12821WAT     H151990   1.242   4.832   7.785 -1.4380 -1.2987 -0.5837
12821WAT     H251991   1.329   4.855   7.681  1.5553  1.2143  2.2277
12821WAT    EPW51992   1.259   4.864   7.715  0.6329 -0.7274 -0.4216
12822WAT      O51993   8.024   6.434   0.020  0.1213 -0.0800 -0.6767
12822WAT     H151994   8.092   6.488   0.011  1.6415 -1.7912 -0.2086
12822WAT     H251995   7.967   6.462  -0.040  0.4480  2.5029  0.1036
12822WAT    EPW51996   8.026   6.446   0.010  0.4986 -0.0536 -0.0603
12823WAT      O51997   0.299   6.215   1.872  0.0218  0.1687  0.1700
12823WAT     H151998   0.295   6.180   1.792 -0.9079 -1.2867  0.8185
12823WAT     H251999   0.246   6.284   1.867  1.8796  1.5851 -1.1319
12823WAT    EPW52000   0.291   6.220   1.859 -0.1787 -0.5935  0.4604
12824WAT      O52001   0.451   6.333   1.283  0.1073  0.5488  0.3273
12824WAT     H152002   0.426   6.382   1.350  2.3867  1.4806  0.6053
12824WAT     H252003   0.536   6.321   1.297  0.6376  0.5912 -2.2642
12824WAT    EPW52004   0.460   6.338   1.295  0.2116  0.4597  0.3364
12825WAT      O52005   1.323   6.792   1.176 -0.4580 -0.6056 -0.3982
12825WAT     H152006   1.284   6.870   1.180 -1.6481 -1.1919 -0.2967
12825WAT     H252007   1.312   6.768   1.093  0.6800 -0.3115 -0.6644
12825WAT    EPW52008   1.316   6.800   1.164  0.2710  0.1320  0.3191
12826WAT      O52009   7.452   6.922   0.111  0.2559 -0.3475 -0.2641
12826WAT     H152010   7.523   6.943   0.156  0.0581 -2.1904  1.0080
12826WAT     H252011   7.406   6.873   0.166 -1.1059 -0.7918 -1.7062
12826WAT    EPW52012   7.456   6.918   0.126  0.4127 -0.0420 -0.1051
12827WAT      O52013   0.438   7.327   0.125 -0.0403 -0.5166 -0.1378
12827WAT     H152014   0.358   7.344   0.154 -0.0838 -2.0155  0.7337
12827WAT     H252015   0.477   7.289   0.194  1.7790  1.1287 -0.1878
12827WAT    EPW52016   0.432   7.324   0.140  0.3111 -0.2597 -0.2762
12828WAT      O52017   0.694   7.084   0.583  0.2249 -0.0094 -0.1124
12828WAT     H152018   0.673   7.003   0.559 -0.3983  0.2927 -0.6037
12828WAT     H252019   0.621   7.116   0.618  0.0103  0.8400 -1.2803
12828WAT    EPW52020   0.680   7.077   0.584  0.0504  0.0645  0.2505
12829WAT      O52021   2.209   4.514   0.665 -0.4061 -0.8173  0.0301
12829WAT     H152022   2.241   4.548   0.738  0.5087  1.1826 -1.2081
12829WAT     H252023   2.272   4.459   0.639  0.7565  0.8072 -0.7977
12829WAT    EPW52024   2.223   4.511   0.672  0.4042  0.0427 -0.2699
12830WAT      O52025   1.407   6.563   1.317 -0.1063 -0.0029 -0.0717
12830WAT     H152026   1.371   6.553   1.397  0.9747 -1.1455  0.3026
12830WAT     H252027   1.377   6.640   1.291 -1.6725 -0.2510  0.8250
12830WAT    EPW52028   1.397   6.573   1.325 -0.1271 -0.2626  0.3238
12831WAT      O52029   8.062   3.636   0.227  0.1380 -0.5328 -0.3601
12831WAT     H152030   8.101   3.712   0.244  1.1678 -1.1375  0.0680
12831WAT     H252031   7.984   3.660   0.196  0.6083  0.7025 -0.6680
12831WAT    EPW52032   8.056   3.651   0.225  0.0170 -0.1059  0.2671
12832WAT      O52033   0.557   6.335   7.936  0.7700  0.1472 -0.1828
12832WAT     H152034   0.499   6.326   8.001  0.1114 -1.3287 -0.9311
12832WAT     H252035   0.542   6.415   7.905  0.3712  0.4609  0.7833
12832WAT    EPW52036   0.546   6.346   7.941 -0.1157  0.0580 -0.4946
12833WAT      O52037   0.178   7.872   1.784 -0.3969 -0.2180 -0.1868
12833WAT     H152038   0.191   7.822   1.714  3.1831 -0.6616  0.6424
12833WAT     H252039   0.175   7.815   1.850  0.7711  0.4361  0.4540
12833WAT    EPW52040   0.179   7.856   1.784  0.5772 -0.1159 -1.2533
12834WAT      O52041   2.795   6.281   7.984  0.0996  0.4401  0.1570
12834WAT     H152042   2.812   6.259   7.901 -0.5607  2.1201 -0.4536
12834WAT     H252043   2.708   6.277   7.989  0.1756 -0.7605  1.1381
12834WAT    EPW52044   2.785   6.277   7.972  0.0184  0.7417 -0.8251
12835WAT      O52045   0.382   5.184   0.608 -0.3164  0.0857 -0.1266
12835WAT     H152046   0.426   5.153   0.677  0.1953  0.2786 -0.3633
12835WAT     H252047   0.424   5.259   0.589 -0.2281 -0.1452 -0.8716
12835WAT    EPW52048   0.395   5.191   0.616 -0.3726  0.3311  0.2474
12836WAT      O52049   1.714   5.014   7.554 -0.3968  0.3479 -0.7319
12836WAT     H152050   1.710   5.076   7.616 -0.8859 -1.0484  0.7137
12836WAT     H252051   1.762   4.951   7.591 -1.2764 -0.8205 -1.4887
12836WAT    EPW52052   1.721   5.014   7.569 -0.7767 -0.7314 -0.6901
12837WAT      O52053   0.733   5.636   0.049 -0.1465  0.7349 -0.3332
12837WAT     H152054   0.711   5.668  -0.030  0.6652  1.7973 -0.1476
12837WAT     H252055   0.730   5.550   0.037  0.0982  0.8729 -1.5737
12837WAT    EPW52056   0.729   5.628   0.036  1.7363  0.3695  0.2488
12838WAT      O52057   0.529   7.690   0.259  0.5671  0.0894 -0.1984
12838WAT     H152058   0.578   7.758   0.235 -1.0525  1.6523  0.6984
12838WAT     H252059   0.549   7.629   0.200  4.4692  0.1245  0.7890
12838WAT    EPW52060   0.539   7.691   0.247  0.0034 -1.0280 -0.0496
12839WAT      O52061   0.623   6.222   0.868  0.1440  0.6249  0.2185
12839WAT     H152062   0.639   6.293   0.821 -1.9292  1.5461  0.8224
12839WAT     H252063   0.568   6.176   0.818  1.2234 -0.4493 -0.0328
12839WAT    EPW52064   0.618   6.225   0.853  0.2244  1.0623 -0.3240
12840WAT      O52065   1.306   5.930   7.550  0.2964  0.1532 -0.1830
12840WAT     H152066   1.254   5.916   7.481  0.2797  1.7733 -0.5215
12840WAT     H252067   1.349   5.854   7.558 -0.6760 -0.5261 -1.1253
12840WAT    EPW52068   1.305   5.916   7.541  0.6353 -0.4249 -0.1147
12841WAT      O52069   0.933   5.336   8.031 -0.0339  0.2166  0.2504
12841WAT     H152070   1.005   5.382   8.050  0.5607 -0.0460 -1.2314
12841WAT     H252071   0.958   5.253   8.038  0.6843  0.0496 -2.9379
12841WAT    EPW52072   0.947   5.331   8.035  0.7076 -0.2495 -0.3337
12842WAT      O52073   1.777   7.314   0.274  0.4713  0.3838 -0.1851
12842WAT     H152074   1.736   7.238   0.289  2.4379 -1.4039 -2.8588
12842WAT     H252075   1.861   7.295   0.289  1.0760  1.8683 -1.4506
12842WAT    EPW52076   1.783   7.300   0.279  1.2753  0.3241 -0.1517
12843WAT      O52077   0.655   6.802   0.544  0.5556  0.2498 -0.3304
12843WAT     H152078   0.569   6.790   0.554  0.4835  1.6192  1.3109
12843WAT     H252079   0.690   6.750   0.605  0.8026  0.6013 -0.1662
12843WAT    EPW52080   0.647   6.793   0.555  0.4007  0.0706 -0.5804
12844WAT      O52081   0.279   6.108   7.999 -0.4615  0.5347  0.1386
12844WAT     H152082   0.320   6.079   7.928 -1.1271  2.3832 -1.1065
12844WAT     H252083   0.321   6.069   8.065  0.2593 -1.1639 -1.2456
12844WAT    EPW52084   0.291   6.098   7.998  0.1284 -0.5403  0.3583
12845WAT      O52085   0.886   3.866   0.170  0.0695  0.2987  0.6561
12845WAT     H152086   0.876   3.898   0.089  0.1907  0.2829  0.6352
12845WAT     H252087   0.960   3.904   0.198 -1.2865  2.3322  1.7058
12845WAT    EPW52088   0.896   3.877   0.162 -0.2704  0.2865 -1.5503
12846WAT      O52089   0.370   7.063   0.007 -0.6845  0.1422 -0.2013
12846WAT     H152090   0.454   7.041   0.008 -0.8550 -0.7040  1.6381
12846WAT     H252091   0.370   7.148   0.026 -0.2217  0.4710 -1.5849
12846WAT    EPW52092   0.382   7.072   0.010 -0.4984  0.6781 -0.6949
12847WAT      O52093   0.135   6.613   1.238 -0.4942 -0.7567  0.0403
12847WAT     H152094   0.157   6.574   1.163 -1.1670 -0.0885 -0.5169
12847WAT     H252095   0.058   6.649   1.220 -0.9344 -1.0605  1.2292
12847WAT    EPW52096   0.127   6.613   1.224  0.7479 -0.1306 -0.3778
12848WAT      O52097   0.072   5.812   1.324  0.3921  0.0498  0.6735
12848WAT     H152098   0.046   5.729   1.331 -0.5547  0.2449 -0.2116
12848WAT     H252099   0.047   5.834   1.244  2.0774  0.7155  0.2954
12848WAT    EPW52100   0.064   5.803   1.313 -0.3067  0.6799 -0.2001
12849WAT      O52101   0.378   5.534   0.533  0.0782 -0.2065  0.0800
12849WAT     H152102   0.382   5.621   0.528 -0.0072 -0.2114 -0.0763
12849WAT     H252103   0.311   5.514   0.481 -0.2844 -0.3214  0.5817
12849WAT    EPW52104   0.368   5.544   0.524  0.4084  0.0075  0.4517
12850WAT      O52105   0.739   5.916   1.834  0.3256  0.4111 -0.0825
12850WAT     H152106   0.703   5.951   1.762  3.8295 -0.7984 -2.7239
12850WAT     H252107   0.702   5.838   1.839  2.2831 -0.8736 -2.8216
12850WAT    EPW52108   0.728   5.910   1.824  0.2125 -0.3578  0.2360
12851WAT      O52109   1.824   6.197   0.287 -0.1912 -0.0681  1.0197
12851WAT     H152110   1.740   6.190   0.308 -0.2813  2.0890  1.5675
12851WAT     H252111   1.856   6.250   0.348  1.2786  0.1500  0.0992
12851WAT    EPW52112   1.816   6.204   0.299  0.0057  0.4437 -0.3912
12852WAT      O52113   7.605   5.284   0.961 -0.1364  0.5824  0.1714
12852WAT     H152114   7.606   5.231   0.891  0.3649  1.1077 -0.2238
12852WAT     H252115   7.520   5.300   0.972 -0.6955 -2.7683  2.2137
12852WAT    EPW52116   7.593   5.278   0.952  0.6574  0.7220 -0.2319
12853WAT      O52117   1.119   5.049   0.495 -0.0358  0.1683 -0.5116
12853WAT     H152118   1.072   5.061   0.422 -0.5975 -0.7341 -0.3120
12853WAT     H252119   1.072   5.089   0.556 -0.9671 -1.3714 -0.1758
12853WAT    EPW52120   1.105   5.057   0.493  0.2392  0.0626  0.2921
12854WAT      O52121   0.896   7.127   1.099  0.4169  0.0141 -0.1994
12854WAT     H152122   0.848   7.128   1.026 -0.5642 -0.6522  0.4230
12854WAT     H252123   0.887   7.208   1.131 -2.2429 -0.7098  1.1284
12854WAT    EPW52124   0.888   7.139   1.093 -0.2785  0.6122  0.3809
12855WAT      O52125   0.821   6.076   0.638 -0.6511 -0.2743  0.0384
12855WAT     H152126   0.770   6.143   0.616  1.6057  1.2921 -0.8932
12855WAT     H252127   0.844   6.095   0.720 -1.3797 -0.8653  0.3843
12855WAT    EPW52128   0.817   6.089   0.647  0.4709 -0.1318 -0.1196
12856WAT      O52129   0.972   7.456   8.029 -0.1728  0.6883  0.1369
12856WAT     H152130   1.016   7.530   8.040 -0.7578  1.4650 -2.2570
12856WAT     H252131   0.975   7.442   7.943 -2.9206 -0.2650  0.0941
12856WAT    EPW52132   0.979   7.465   8.018  0.3233 -0.4196 -0.6660
12857WAT      O52133   0.670   5.054   8.014 -0.4284 -0.0468 -0.5153
12857WAT     H152134   0.583   5.055   8.023 -0.3766 -0.7700  0.1341
12857WAT     H252135   0.682   5.065   7.928 -1.0604  2.9649 -0.3302
12857WAT    EPW52136   0.659   5.056   8.003 -0.1553  0.2334  0.2936
12858WAT      O52137   7.963   6.016   0.074 -0.2681 -0.0455 -0.6606
12858WAT     H152138   8.015   5.981   0.135  0.4549 -0.6358 -1.5820
12858WAT     H252139   8.016   6.073   0.033 -1.0494  1.1625 -0.0524
12858WAT    EPW52140   7.979   6.019   0.077  0.0216  0.5126 -0.3989
12859WAT      O52141   1.939   3.780   7.919  0.2985  0.4117 -0.6426
12859WAT     H152142   1.948   3.737   7.994  1.1584  0.0235 -0.9584
12859WAT     H252143   2.007   3.834   7.917  0.3417  0.3478 -1.1808
12859WAT    EPW52144   1.950   3.782   7.930 -0.1437  0.0123 -0.4268
12860WAT      O52145   0.688   6.322   7.441 -0.2802 -0.0637  0.1855
12860WAT     H152146   0.640   6.393   7.456 -1.4794 -0.6051 -0.9423
12860WAT     H252147   0.720   6.335   7.361  1.3308  0.1746  0.8099
12860WAT    EPW52148   0.686   6.334   7.432  1.6471  0.0752 -0.0037
12861WAT      O52149   1.665   5.190   6.800 -0.0915  0.1932  0.2066
12861WAT     H152150   1.607   5.254   6.786 -1.4144 -1.2540 -1.3636
12861WAT     H252151   1.625   5.119   6.770  1.0246 -1.5690  2.5927
12861WAT    EPW52152   1.651   5.189   6.793  0.4376 -0.1002 -0.9020
12862WAT      O52153   0.661   3.518   0.568  0.0972  0.0112  0.0811
12862WAT     H152154   0.646   3.432   0.565  0.0967 -0.0162  0.7608
12862WAT     H252155   0.650   3.543   0.485 -1.0492 -0.4568  0.0609
12862WAT    EPW52156   0.657   3.509   0.555 -0.5547 -0.5370 -0.3915
12863WAT      O52157   0.493   6.483   1.036  0.2533 -0.9059 -0.2249
12863WAT     H152158   0.537   6.546   1.077 -1.1313  0.1307 -0.2715
12863WAT     H252159   0.455   6.439   1.102 -1.2777  0.2369 -0.2973
12863WAT    EPW52160   0.494   6.486   1.052  0.1977 -0.1750  0.2890
12864WAT      O52161   7.403   6.788   7.923  0.0533 -0.2003  0.3536
12864WAT     H152162   7.415   6.832   7.997 -0.0894  1.3299 -0.4989
12864WAT     H252163   7.368   6.847   7.869 -1.1417 -1.6391 -0.5260
12864WAT    EPW52164   7.400   6.803   7.926 -0.3163 -0.1769 -0.0021
12865WAT      O52165   0.265   6.255   2.948 -0.0054 -0.3961  0.2417
12865WAT     H152166   0.191   6.297   2.968  0.7733  0.5864  1.2144
12865WAT     H252167   0.316   6.319   2.918  0.0363 -1.2808 -1.6505
12865WAT    EPW52168   0.261   6.271   2.947 -0.6409 -0.8391  0.4488
12866WAT      O52169   1.888   6.471   0.393  0.2637  0.4479 -0.1642
12866WAT     H152170   1.835   6.461   0.462 -0.4940 -0.4450 -0.8451
12866WAT     H252171   1.966   6.482   0.429 -0.0755 -0.2187  0.8498
12866WAT    EPW52172   1.892   6.471   0.409 -0.3669  0.7162  0.2163
12867WAT      O52173   0.383   6.439   0.142  0.1402  0.4000 -0.9781
12867WAT     H152174   0.375   6.394   0.217 -1.9133  0.6438 -0.9838
12867WAT     H252175   0.406   6.519   0.168  0.3300  0.2498 -0.6801
12867WAT    EPW52176   0.385   6.444   0.157 -0.0628  0.1724  0.9266
12868WAT      O52177   0.547   6.745   0.162 -0.0764 -0.1540  0.3597
12868WAT     H152178   0.579   6.762   0.083 -0.3642 -0.6074  0.1407
12868WAT     H252179   0.528   6.823   0.195 -1.7200 -0.0471 -0.7471
12868WAT    EPW52180   0.549   6.759   0.155  0.4169 -0.1172  0.6890
12869WAT      O52181   0.653   5.975   1.227 -0.5644  0.3758 -0.6943
12869WAT     H152182   0.571   5.949   1.210 -0.1093 -1.0435 -0.7863
12869WAT     H252183   0.686   5.990   1.148 -0.7244  0.9886 -0.6552
12869WAT    EPW52184   0.645   5.973   1.213  0.2300  0.2068 -0.0012
12870WAT      O52185   1.282   6.319   1.222  0.4871  0.7511  0.0677
12870WAT     H152186   1.317   6.392   1.253  1.6224  0.4713 -0.4915
12870WAT     H252187   1.331   6.256   1.258 -0.7901  0.2166  0.9474
12870WAT    EPW52188   1.294   6.320   1.232  0.4187  0.6030  0.2352
12871WAT      O52189   8.050   5.145   7.955  0.1078 -0.0195 -0.3594
12871WAT     H152190   8.050   5.177   8.036  0.8167 -1.6341  0.3111
12871WAT     H252191   7.969   5.117   7.943  0.6079 -2.1422  0.8137
12871WAT    EPW52192   8.038   5.146   7.965  0.3524 -0.5684 -0.0056
12872WAT      O52193   1.260   6.900   1.788  0.3008  0.6392  0.4286
12872WAT     H152194   1.233   6.980   1.809  0.0473  0.6923 -0.0831
12872WAT     H252195   1.347   6.905   1.796  0.2783  0.9332  0.5117
12872WAT    EPW52196   1.269   6.913   1.793  0.9850  0.7304 -1.0693
12873WAT      O52197   1.665   2.972   0.008  0.5537  0.0524  0.3128
12873WAT     H152198   1.609   2.907   0.024  2.1481 -1.7629 -0.9982
12873WAT     H252199   1.649   2.992  -0.076  0.6610  0.7462  0.4578
12873WAT    EPW52200   1.654   2.965  -0.002  0.5229  0.8418 -0.5246
12874WAT      O52201   2.542   2.868   6.947 -0.4803 -0.1595 -0.2608
12874WAT     H152202   2.602   2.873   7.010 -1.3514 -0.4849  0.6280
12874WAT     H252203   2.582   2.824   6.884 -0.4373 -2.2596  1.1421
12874WAT    EPW52204   2.557   2.862   6.947 -0.0142  0.2677  0.3227
12875WAT      O52205   1.199   3.556   7.030  0.0628 -0.0151 -0.1736
12875WAT     H152206   1.238   3.557   6.952 -0.4666 -1.5320 -0.5061
12875WAT     H252207   1.260   3.523   7.083 -0.1962 -0.8686 -0.3766
12875WAT    EPW52208   1.214   3.551   7.027  0.0295  0.3944 -0.5787
12876WAT      O52209   0.742   4.514   7.023  0.0187 -0.4561 -0.1666
12876WAT     H152210   0.668   4.505   6.978  0.5436  2.1151 -1.7935
12876WAT     H252211   0.796   4.458   6.985  0.4144  1.5568 -2.9317
12876WAT    EPW52212   0.739   4.505   7.011  0.8368 -0.1606  0.1652
12877WAT      O52213   7.228   4.258   0.143 -0.2334 -0.4455  0.1841
12877WAT     H152214   7.146   4.228   0.148 -0.2266 -0.6467 -0.7936
12877WAT     H252215   7.244   4.261   0.058  0.0774  1.4967  0.2550
12877WAT    EPW52216   7.218   4.254   0.132 -0.0108  0.0210 -0.3525
12878WAT      O52217   1.440   2.503   6.949 -0.0600 -0.4711  0.3917
12878WAT     H152218   1.393   2.565   6.910 -2.2004 -2.0413  0.2928
12878WAT     H252219   1.516   2.505   6.906 -0.4836  1.2577 -0.3723
12878WAT    EPW52220   1.445   2.513   6.937 -0.1580 -0.2311  0.5258
12879WAT      O52221   2.283   5.371   6.243  0.0792 -0.0499 -0.3119
12879WAT     H152222   2.259   5.439   6.193  0.1929  0.9996  1.0167
12879WAT     H252223   2.368   5.363   6.227 -0.2434 -0.9834 -1.7317
12879WAT    EPW52224   2.292   5.380   6.233  0.1205 -0.3246  0.6922
12880WAT      O52225   0.706   3.849   7.560 -0.8182  0.2576 -0.4986
12880WAT     H152226   0.757   3.888   7.501  1.0660  0.1548  0.9942
12880WAT     H252227   0.668   3.916   7.601 -0.0988  0.4214 -0.0922
12880WAT    EPW52228   0.708   3.864   7.557  0.1369 -0.4689 -0.2394
12881WAT      O52229   1.349   2.347   1.001 -0.3758 -0.1702  0.3622
12881WAT     H152230   1.427   2.385   1.007 -1.4126  2.0713  0.5019
12881WAT     H252231   1.334   2.343   0.915 -0.0887 -0.6782  0.3324
12881WAT    EPW52232   1.358   2.352   0.989 -1.1466 -0.0710  0.5271
12882WAT      O52233   1.419   3.589   6.865  0.0022  0.0010  0.0067
12882WAT     H152234   1.472   3.589   6.796  0.5436 -0.1128  0.4164
12882WAT     H252235   1.461   3.638   6.923 -1.0065  1.0998 -0.1491
12882WAT    EPW52236   1.433   3.596   6.863 -0.4260  0.0142 -0.7782
12883WAT      O52237   0.936   3.188   7.342 -0.2596 -0.4719 -0.4967
12883WAT     H152238   0.962   3.123   7.393 -1.0272  0.1554  0.7255
12883WAT     H252239   0.858   3.163   7.314 -3.2508  1.9824  4.2761
12883WAT    EPW52240   0.928   3.175   7.345  0.0494  0.2217  0.7504
12884WAT      O52241   0.562   4.250   7.893 -0.3663 -0.2657 -0.4353
12884WAT     H152242   0.516   4.319   7.919 -0.4892  0.5377 -2.5431
12884WAT     H252243   0.632   4.285   7.855  1.8276 -1.4465  2.1877
12884WAT    EPW52244   0.565   4.265   7.891 -0.0753  1.2739 -0.0486
12885WAT      O52245   7.389   4.334   7.774  0.2906  0.0936 -0.1490
12885WAT     H152246   7.443   4.280   7.815 -0.1260 -1.4936 -1.5765
12885WAT     H252247   7.313   4.321   7.814  0.1036 -0.7093 -0.7417
12885WAT    EPW52248   7.386   4.324   7.786  0.0653 -1.4871 -0.3699
12886WAT      O52249   1.235   2.637   7.750  0.0802  0.0751 -0.1868
12886WAT     H152250   1.202   2.673   7.822 -0.7033 -1.6134  0.3607
12886WAT     H252251   1.200   2.685   7.686  0.7264  1.5466  0.5118
12886WAT    EPW52252   1.225   2.649   7.751  0.0057  0.0859  0.2001
12887WAT      O52253   1.931   4.007   6.303  0.3489  0.2930  0.7271
12887WAT     H152254   1.878   4.074   6.318 -1.3196 -0.5045 -1.2407
12887WAT     H252255   1.935   3.966   6.380  1.4475  2.5637  1.9967
12887WAT    EPW52256   1.924   4.011   6.317 -0.0469 -0.7859  0.4088
12888WAT      O52257   1.623   2.616   0.179  0.9064  0.5929  0.3698
12888WAT     H152258   1.684   2.631   0.119  0.1852  1.4868 -0.1642
12888WAT     H252259   1.553   2.657   0.148 -0.6187 -2.0987 -0.0978
12888WAT    EPW52260   1.622   2.624   0.166 -0.1631 -0.2564 -0.4736
12889WAT      O52261   0.690   5.115   7.744 -0.3960  0.2573  0.4992
12889WAT     H152262   0.750   5.056   7.721  0.1108  0.3739  1.4562
12889WAT     H252263   0.627   5.105   7.685  0.2136 -0.4242 -0.0501
12889WAT    EPW52264   0.689   5.105   7.732  0.7201  0.6731 -0.9322
12890WAT      O52265   3.382   4.163   7.442  0.2240  0.2977 -0.1897
12890WAT     H152266   3.385   4.250   7.452  0.0312  0.4898 -1.5624
12890WAT     H252267   3.327   4.152   7.375 -0.9666 -0.9987  0.9333
12890WAT    EPW52268   3.374   4.174   7.433  0.2458 -0.3794  1.4274
12891WAT      O52269   1.894   3.079   0.496 -0.2334 -0.1853  0.2419
12891WAT     H152270   1.933   3.085   0.574 -0.8908 -2.2424  0.7889
12891WAT     H252271   1.931   3.009   0.460 -0.2706  0.4716 -1.1312
12891WAT    EPW52272   1.905   3.070   0.502  0.1935 -0.8307 -0.3721
12892WAT      O52273   1.099   2.095   8.032 -0.1791  0.1839  0.0592
12892WAT     H152274   1.026   2.057   8.060 -1.1392  0.4212 -1.9042
12892WAT     H252275   1.138   2.032   7.985 -0.0416  0.5876 -0.3755
12892WAT    EPW52276   1.094   2.080   8.029  0.4171  0.2824 -0.6540
12893WAT      O52277   0.787   3.089   7.854 -0.1867 -0.5215 -0.1467
12893WAT     H152278   0.864   3.101   7.816  0.7834  0.1439  1.8600
12893WAT     H252279   0.785   3.152   7.915 -2.8666  0.2798 -0.9143
12893WAT    EPW52280   0.798   3.100   7.858 -0.8966  0.5145 -0.0390
12894WAT      O52281   0.932   3.662   7.599  0.4016 -0.4979  0.4743
12894WAT     H152282   0.929   3.612   7.528  0.1798 -0.7471  0.6575
12894WAT     H252283   0.854   3.701   7.601 -0.0560 -1.3969  1.2240
12894WAT    EPW52284   0.920   3.661   7.589 -0.2651 -0.4443 -0.3461
12895WAT      O52285   1.173   3.709   0.691 -0.2439 -0.3538 -0.0409
12895WAT     H152286   1.114   3.752   0.644 -1.0899 -1.9584 -0.5413
12895WAT     H252287   1.198   3.644   0.638  0.7517 -0.6698  0.7722
12895WAT    EPW52288   1.168   3.706   0.676 -0.4504 -0.3484  0.6798
12896WAT      O52289   1.267   2.693   6.749  0.6109 -0.3522  0.1812
12896WAT     H152290   1.213   2.679   6.682  0.8813  0.8259 -0.3191
12896WAT     H252291   1.346   2.696   6.712  0.6208  2.0043  0.2248
12896WAT    EPW52292   1.271   2.692   6.734  0.7102  0.5780 -0.4330
12897WAT      O52293   7.350   3.620   7.695 -0.2318 -0.3298 -0.4230
12897WAT     H152294   7.432   3.627   7.724 -0.6575 -0.3490  0.8414
12897WAT     H252295   7.352   3.552   7.640  0.0827 -2.0488  1.6028
12897WAT    EPW52296   7.362   3.611   7.691 -0.0718 -0.4832  0.3293
12898WAT      O52297   0.317   4.464   7.917 -0.6390  0.2309  0.2549
12898WAT     H152298   0.275   4.493   7.846 -0.0481  1.2146  0.2785
12898WAT     H252299   0.267   4.398   7.945 -1.8993  1.0377  0.0082
12898WAT    EPW52300   0.303   4.459   7.911 -0.3325 -0.1172 -1.1142
12899WAT      O52301   2.140   2.953   7.901 -0.2966 -0.7629  0.0986
12899WAT     H152302   2.137   2.931   7.985 -0.7637  1.6291  0.7762
12899WAT     H252303   2.059   2.939   7.873 -0.3871 -0.6351  0.2984
12899WAT    EPW52304   2.128   2.947   7.909 -0.1335 -0.7980 -0.0758
12900WAT      O52305   1.313   3.616   7.471  0.0313  0.5628  0.8695
12900WAT     H152306   1.271   3.671   7.419  0.0945 -1.1855 -1.1591
12900WAT     H252307   1.379   3.664   7.503  0.8491  1.4013 -1.8284
12900WAT    EPW52308   1.317   3.631   7.468  0.5219  0.4277 -0.2797
12901WAT      O52309   1.725   3.211   0.841 -0.0944  0.1085  0.0830
12901WAT     H152310   1.728   3.125   0.831  0.3715  0.3110 -2.1266
12901WAT     H252311   1.764   3.225   0.918  0.4467 -1.5902  0.1441
12901WAT    EPW52312   1.731   3.201   0.851 -0.2678  0.4931 -0.3862
12902WAT      O52313   2.338   4.810   7.330  0.3005 -0.1909 -0.2764
12902WAT     H152314   2.345   4.797   7.245 -1.4419  2.2687 -0.9131
12902WAT     H252315   2.291   4.742   7.358  3.8212 -2.9709 -0.4774
12902WAT    EPW52316   2.332   4.798   7.322 -0.7988 -0.3783 -0.4275
12903WAT      O52317   1.912   4.373   6.959  0.0352  0.1074  0.5922
12903WAT     H152318   1.962   4.444   6.955 -0.2316  0.2364 -1.2296
12903WAT     H252319   1.923   4.335   6.881 -0.3274 -1.5070  1.2872
12903WAT    EPW52320   1.921   4.378   6.947 -0.4917 -0.3559 -0.4220
12904WAT      O52321   0.733   4.172   0.110  0.0476 -0.4076  0.4903
12904WAT     H152322   0.716   4.231   0.047  1.5271 -0.3219  0.1413
12904WAT     H252323   0.754   4.100   0.065 -0.3043 -0.7835  0.9147
12904WAT    EPW52324   0.733   4.170   0.094 -0.1119 -0.1682 -0.8321
12905WAT      O52325   0.364   3.078   0.232 -0.1183 -0.0004  0.0139
12905WAT     H152326   0.280   3.083   0.254 -0.2003 -0.2259 -0.2486
12905WAT     H252327   0.391   3.004   0.269  0.2852  0.6793  1.1528
12905WAT    EPW52328   0.355   3.068   0.241 -0.6750 -0.0503  0.4866
12906WAT      O52329   0.042   3.403   0.057  0.2859 -0.0754  0.4302
12906WAT     H152330   0.063   3.488   0.054  2.5390 -0.5668  0.7015
12906WAT     H252331  -0.036   3.403   0.096  0.2827  1.8571  0.5277
12906WAT    EPW52332   0.033   3.416   0.062 -0.0461 -0.2246  0.5390
12907WAT      O52333   7.663   3.927   7.562  0.3390 -0.5785 -0.1330
12907WAT     H152334   7.611   3.862   7.535  0.7864 -1.1230  0.2886
12907WAT     H252335   7.676   3.909   7.647  2.7557 -1.5646 -0.6276
12907WAT    EPW52336   7.657   3.914   7.571 -0.0048  0.0186 -0.2373
12908WAT      O52337   3.064   4.768   7.898  0.4776  0.4586  0.2322
12908WAT     H152338   3.020   4.708   7.853  1.5748  1.7940 -2.9081
12908WAT     H252339   3.139   4.726   7.919 -0.2337 -0.3179  1.3743
12908WAT    EPW52340   3.069   4.753   7.895 -0.2427  0.5814  0.0159
12909WAT      O52341   1.037   3.157   5.184  0.1081  0.1420 -0.3722
12909WAT     H152342   1.110   3.202   5.203  0.5746 -1.0694  0.8585
12909WAT     H252343   1.046   3.084   5.230 -1.5206 -0.3901 -0.8538
12909WAT    EPW52344   1.049   3.153   5.193  0.3598 -0.5855  0.7243
12910WAT      O52345   3.029   4.052   6.856  0.4117  0.5262 -0.1089
12910WAT     H152346   2.958   4.010   6.829  0.9063 -0.0784 -0.5133
12910WAT     H252347   3.012   4.072   6.939  0.2379 -0.6621  0.1539
12910WAT    EPW52348   3.016   4.049   6.864 -0.1515  0.2273  0.1233
12911WAT      O52349   1.504   3.281   5.896 -0.0941 -0.0414 -0.0155
12911WAT     H152350   1.488   3.247   5.817 -1.1661 -0.6766  0.4665
12911WAT     H252351   1.441   3.341   5.906 -0.6295 -0.7272  0.8036
12911WAT    EPW52352   1.493   3.285   5.886 -0.0115 -0.6231 -0.3728
12912WAT      O52353   6.813   3.995   7.164  0.5972 -0.3029  0.4200
12912WAT     H152354   6.768   4.064   7.135  0.6838 -0.8920 -1.2488
12912WAT     H252355   6.774   3.975   7.239 -1.0892 -0.0037 -0.3291
12912WAT    EPW52356   6.801   4.002   7.171 -0.0611  0.6848  0.5727
12913WAT      O52357   1.258   4.016   7.738 -0.0029  0.1540  0.4260
12913WAT     H152358   1.224   3.995   7.816  1.4884  0.2332  1.1306
12913WAT     H252359   1.262   4.103   7.740 -1.4608  0.2766 -0.4335
12913WAT    EPW52360   1.254   4.025   7.750 -0.1579  0.1421  0.5687
12914WAT      O52361   1.897   5.018   6.344 -0.5941  0.6699  0.4179
12914WAT     H152362   1.966   4.971   6.319 -1.2222  0.7501 -1.6202
12914WAT     H252363   1.904   5.020   6.431  0.7554 -1.1628  0.4041
12914WAT    EPW52364   1.908   5.011   6.353 -0.0937 -0.6106 -0.4809
12915WAT      O52365   2.802   2.381   6.457  0.3126 -0.0932 -0.3150
12915WAT     H152366   2.777   2.389   6.374  0.7285  0.8794 -0.3668
12915WAT     H252367   2.840   2.303   6.460 -1.6295 -1.0827 -0.5027
12915WAT    EPW52368   2.804   2.371   6.446 -0.8762 -0.7202  0.4362
12916WAT      O52369   7.248   3.661   7.935  0.0131 -0.1699 -0.0412
12916WAT     H152370   7.286   3.648   7.857 -0.2270 -0.2599 -0.1437
12916WAT     H252371   7.315   3.681   7.987  0.0903  0.6349 -0.4373
12916WAT    EPW52372   7.263   3.662   7.931  0.4112  0.4834 -0.7782
12917WAT      O52373   0.528   2.946   7.848  0.7356  0.0657 -0.3142
12917WAT     H152374   0.466   2.999   7.816  1.9043  1.0135 -1.0991
12917WAT     H252375   0.601   2.993   7.839  1.4988 -0.7671  1.1940
12917WAT    EPW52376   0.529   2.961   7.842  0.2378  0.1466 -0.5869
12918WAT      O52377   1.224   4.717   7.920 -0.1444 -0.2089 -0.2792
12918WAT     H152378   1.275   4.760   7.976 -0.3365 -1.0873  0.5941
12918WAT     H252379   1.270   4.646   7.901 -0.0612  0.0981 -1.3031
12918WAT    EPW52380   1.239   4.713   7.925 -0.9502  0.6584 -0.2113
12919WAT      O52381   2.172   3.437   6.972  0.3408 -0.0216  0.3609
12919WAT     H152382   2.128   3.468   6.904 -1.1579  1.4279  1.8753
12919WAT     H252383   2.251   3.419   6.940 -0.7019 -0.6629 -1.9971
12919WAT    EPW52384   2.177   3.439   6.957 -0.4326 -0.6883  0.1957
12920WAT      O52385   0.143   4.927   7.950  0.4096  0.2670 -0.1880
12920WAT     H152386   0.145   4.906   7.866 -0.4692 -2.0055  0.2844
12920WAT     H252387   0.079   4.986   7.954  0.7560  0.7317 -1.1557
12920WAT    EPW52388   0.134   4.933   7.938  0.8079 -0.1755  0.4602
12921WAT      O52389   1.477   4.421   7.681 -0.5737  0.2561  0.5183
12921WAT     H152390   1.446   4.424   7.599  0.5995 -0.3830  0.0301
12921WAT     H252391   1.488   4.336   7.696  2.9048  0.4462 -0.1566
12921WAT    EPW52392   1.474   4.409   7.671 -0.4085 -0.3776 -0.7895
12922WAT      O52393   0.936   3.240   0.599  0.0431 -0.4994  0.1039
12922WAT     H152394   0.989   3.179   0.565 -1.6741 -1.7114 -0.5485
12922WAT     H252395   0.964   3.249   0.681  1.3562 -0.9678 -0.2713
12922WAT    EPW52396   0.948   3.233   0.606 -0.3973 -0.1212  0.8821
12923WAT      O52397   0.479   4.718   0.414 -0.1733 -0.2375 -0.4736
12923WAT     H152398   0.489   4.772   0.346  1.2329  0.7654  0.4675
12923WAT     H252399   0.530   4.650   0.395  1.4858  0.7497  0.2228
12923WAT    EPW52400   0.488   4.716   0.401 -1.2122 -0.6021  0.8965
12924WAT      O52401   1.003   3.645   7.194 -0.2095  0.0320 -0.6794
12924WAT     H152402   1.057   3.626   7.128  1.0866  1.5291 -0.1004
12924WAT     H252403   1.044   3.708   7.237 -1.4870 -0.2197  1.0110
12924WAT    EPW52404   1.017   3.652   7.191  0.1485 -0.6048 -0.6090
12925WAT      O52405   0.672   3.710   1.067  0.5738 -0.2526  0.2417
12925WAT     H152406   0.598   3.754   1.050  0.7369  0.8082  1.9944
12925WAT     H252407   0.698   3.682   0.989 -0.4826  1.3024 -0.7216
12925WAT    EPW52408   0.665   3.712   1.053  0.0960 -0.1685  0.5320
12926WAT      O52409   8.028   3.578   7.652 -0.3383  0.2559  0.3095
12926WAT     H152410   8.021   3.652   7.606 -1.0317 -0.1501 -0.2608
12926WAT     H252411   8.103   3.544   7.625 -0.9805 -0.2390 -0.9547
12926WAT    EPW52412   8.038   3.584   7.641 -0.2876  0.4411  0.3716
12927WAT      O52413   2.146   3.312   7.514  0.0929 -0.0760  0.0509
12927WAT     H152414   2.195   3.326   7.444  1.0290 -3.5776 -0.2140
12927WAT     H252415   2.193   3.256   7.561 -3.2828 -3.4254 -0.0585
12927WAT    EPW52416   2.160   3.305   7.510  0.3456  0.2454 -0.6121
12928WAT      O52417   6.204   4.582   7.391  0.5142  0.4013 -0.1400
12928WAT     H152418   6.259   4.527   7.431  0.8893  1.0376  0.2376
12928WAT     H252419   6.174   4.632   7.456 -0.8575 -0.2064 -0.2644
12928WAT    EPW52420   6.207   4.581   7.407  0.6739  0.3319 -0.4209
12929WAT      O52421   1.196   3.782   6.274  0.1304  0.1328  0.2824
12929WAT     H152422   1.127   3.730   6.285 -0.4462  0.9107  0.3755
12929WAT     H252423   1.251   3.732   6.227 -0.4491 -0.5224  0.2817
12929WAT    EPW52424   1.194   3.767   6.268 -0.1647 -0.3393  0.7545
12930WAT      O52425   2.927   2.819   6.985 -0.6334  0.2731 -0.5471
12930WAT     H152426   2.869   2.759   7.010 -0.5337  0.8616  1.1785
12930WAT     H252427   2.877   2.885   6.958 -0.7552  0.2320 -0.4211
12930WAT    EPW52428   2.911   2.820   6.984 -0.8108 -0.1042 -0.3641
12931WAT      O52429   0.975   2.989   7.530  0.4268  0.1974  0.6596
12931WAT     H152430   1.005   2.909   7.547 -2.0518 -1.5190 -2.1548
12931WAT     H252431   0.890   2.983   7.546 -0.1056  1.6931 -1.2323
12931WAT    EPW52432   0.967   2.976   7.535 -0.7514 -0.2022  0.6829
12932WAT      O52433   1.660   3.376   6.192 -0.5259 -0.3819 -0.0305
12932WAT     H152434   1.647   3.461   6.200 -0.6245 -0.4811  1.1073
12932WAT     H252435   1.701   3.354   6.267 -1.2778 -1.4671  0.0903
12932WAT    EPW52436   1.664   3.385   6.204 -0.3056 -0.3909 -0.4340
12933WAT      O52437   1.138   3.923   5.861 -0.1239 -0.2398  0.1128
12933WAT     H152438   1.220   3.893   5.865  0.1206  0.2922 -0.5927
12933WAT     H252439   1.134   3.982   5.924  0.2643  0.2336 -0.2979
12933WAT    EPW52440   1.149   3.927   5.871 -0.7427  0.3707  0.1198
12934WAT      O52441   1.875   5.030   6.614 -0.3172  0.2262 -0.2378
12934WAT     H152442   1.941   5.048   6.669  2.4072 -0.6465 -2.9345
12934WAT     H252443   1.833   4.965   6.654  0.5773  0.6222  1.4848
12934WAT    EPW52444   1.879   5.023   6.628  0.8460  0.2389 -1.0432
12935WAT      O52445   2.085   4.563   4.765 -0.2274 -0.0612  0.3384
12935WAT     H152446   2.029   4.570   4.699  0.6080  3.6407 -0.1774
12935WAT     H252447   2.088   4.643   4.798  0.8235 -1.3314  3.7497
12935WAT    EPW52448   2.077   4.576   4.760 -0.2810  0.2464 -0.5539
12936WAT      O52449   0.705   3.038   7.544 -0.6212  0.5161  0.1049
12936WAT     H152450   0.664   3.093   7.597 -1.2959  0.2833 -0.1685
12936WAT     H252451   0.649   2.972   7.536  0.3527 -0.4437  0.8109
12936WAT    EPW52452   0.691   3.036   7.551 -0.2706 -0.5412 -0.8982
12937WAT      O52453   2.372   4.417   7.116 -0.1356  0.2837  0.0334
12937WAT     H152454   2.443   4.374   7.142 -0.5646 -0.6559 -0.3002
12937WAT     H252455   2.307   4.363   7.138 -0.7982  1.4097  0.9127
12937WAT    EPW52456   2.373   4.402   7.123  0.5812 -0.2219 -0.1734
12938WAT      O52457   1.059   3.962   4.788  0.7260 -0.2667  0.1329
12938WAT     H152458   1.126   3.954   4.732  0.2940  1.4772 -0.6922
12938WAT     H252459   1.043   4.048   4.789 -1.5378 -0.6305  0.2474
12938WAT    EPW52460   1.066   3.973   4.780  0.0279 -0.3319 -0.5235
12939WAT      O52461   1.476   2.889   4.833  0.0960 -0.1067  0.4271
12939WAT     H152462   1.437   2.966   4.820 -2.5440 -1.0680  2.0977
12939WAT     H252463   1.447   2.864   4.911  0.3915 -3.0791 -0.3253
12939WAT    EPW52464   1.466   2.897   4.842  0.2954 -0.0009 -0.7113
12940WAT      O52465   1.416   3.707   6.087 -0.5373 -0.2560  0.0299
12940WAT     H152466   1.424   3.786   6.051  1.3557 -0.1475  0.6104
12940WAT     H252467   1.493   3.693   6.125 -1.2388 -1.8878  0.9714
12940WAT    EPW52468   1.428   3.717   6.087  0.5878 -0.1214  0.1575
12941WAT      O52469   1.984   3.430   6.250 -0.0305 -0.0704  0.7959
12941WAT     H152470   2.035   3.362   6.232 -0.3139 -0.4624  1.4382
12941WAT     H252471   1.997   3.444   6.335 -0.3341  0.3774  0.7731
12941WAT    EPW52472   1.993   3.422   6.260 -1.4143 -0.0748  0.2464
12942WAT      O52473   1.290   4.373   5.964 -0.1335  0.3444 -0.2916
12942WAT     H152474   1.326   4.421   6.027 -0.9511 -1.8683  2.0245
12942WAT     H252475   1.293   4.425   5.894 -2.6431  4.5178  2.3386
12942WAT    EPW52476   1.296   4.388   5.963  0.2450 -0.1429 -0.5256
12943WAT      O52477   0.915   3.963   0.813 -0.0965  0.0774 -0.5952
12943WAT     H152478   0.879   3.912   0.752  2.0953 -1.3643 -0.8046
12943WAT     H252479   0.847   4.003   0.849 -1.6357 -0.4515 -2.7074
12943WAT    EPW52480   0.900   3.961   0.809 -1.2719 -0.2381  0.6346
12944WAT      O52481   1.166   4.198   4.055 -0.1811  0.2899 -0.0601
12944WAT     H152482   1.147   4.113   4.053 -0.4411  0.3047  1.0943
12944WAT     H252483   1.117   4.232   3.992 -0.5006 -0.3313 -0.1526
12944WAT    EPW52484   1.156   4.190   4.045 -0.0902 -0.1538 -0.1478
12945WAT      O52485   0.908   3.296   4.988  0.6180 -0.4586 -0.2520
12945WAT     H152486   0.940   3.256   5.059 -2.9843 -2.1816  0.6012
12945WAT     H252487   0.897   3.231   4.931  1.8609  0.6434 -1.8556
12945WAT    EPW52488   0.911   3.280   4.990  0.4575 -0.6588 -0.2967
12946WAT      O52489   1.167   4.325   5.610  0.1256  0.2495 -0.0161
12946WAT     H152490   1.083   4.345   5.620  0.2637  0.9947 -0.2697
12946WAT     H252491   1.209   4.396   5.639  0.7099 -0.4764  1.0272
12946WAT    EPW52492   1.161   4.338   5.616 -0.0452  0.7248  0.0370
12947WAT      O52493   2.216   2.397   6.454 -0.2013  0.5435 -0.2555
12947WAT     H152494   2.292   2.433   6.478  1.2314 -2.3048 -0.1728
12947WAT     H252495   2.166   2.409   6.524  0.6503  1.1726  0.2723
12947WAT    EPW52496   2.220   2.404   6.468  0.1551  0.8294 -0.4656
12948WAT      O52497   1.365   5.163   7.307  1.0508 -0.0831  0.3433
12948WAT     H152498   1.368   5.164   7.220  0.1888  0.2237  0.3121
12948WAT     H252499   1.438   5.120   7.329  1.0042 -0.6529 -0.5441
12948WAT    EPW52500   1.376   5.156   7.297 -0.0031 -0.0131 -0.9550
12949WAT      O52501   1.990   4.266   4.549  0.5840 -0.1812  0.8878
12949WAT     H152502   1.918   4.309   4.572  1.7328  1.3856  1.8171
12949WAT     H252503   2.047   4.330   4.532  1.0267 -1.2629 -2.6042
12949WAT    EPW52504   1.988   4.282   4.550  0.6200 -0.1581  0.3913
12950WAT      O52505   1.747   4.246   6.314 -0.3897 -0.0267  0.7957
12950WAT     H152506   1.766   4.276   6.394  0.5023  2.1274 -0.1600
12950WAT     H252507   1.659   4.242   6.315 -0.3857 -0.3112  1.9517
12950WAT    EPW52508   1.737   4.250   6.326  0.7651 -0.3489  0.6175
12951WAT      O52509   2.397   5.380   5.363  0.5854  0.9007 -0.5096
12951WAT     H152510   2.340   5.377   5.297 -0.7747 -3.1482  0.5791
12951WAT     H252511   2.473   5.358   5.326 -0.0308 -0.6379 -0.9563
12951WAT    EPW52512   2.400   5.376   5.348  0.1102 -0.3744  0.0737
12952WAT      O52513   1.138   2.326   7.909 -0.1880 -0.2444 -0.4888
12952WAT     H152514   1.188   2.275   7.859  2.7927 -0.4028  2.3345
12952WAT     H252515   1.107   2.271   7.970 -2.6911  0.1585 -1.2981
12952WAT    EPW52516   1.141   2.310   7.911  0.5943  0.5400 -0.9386
12953WAT      O52517   1.184   3.839   5.029 -0.4664  0.1755 -0.2748
12953WAT     H152518   1.135   3.882   4.971 -1.3619 -0.0849  0.2749
12953WAT     H252519   1.160   3.756   5.019  0.6354 -0.1122 -0.7249
12953WAT    EPW52520   1.174   3.833   5.019 -0.6175  0.9532  0.3074
12954WAT      O52521   2.100   4.596   7.053  0.0654  0.2221 -0.0799
12954WAT     H152522   2.165   4.574   7.106  0.5047 -0.6163 -0.9377
12954WAT     H252523   2.136   4.656   7.000 -0.4302  1.2200  0.6761
12954WAT    EPW52524   2.115   4.602   7.053 -0.0024 -0.0777 -0.6536
12955WAT      O52525   1.170   2.418   7.588  0.3657  0.3736  0.2503
12955WAT     H152526   1.199   2.447   7.665  1.6453  0.8148 -0.3697
12955WAT     H252527   1.083   2.424   7.595  0.3266 -1.7059  2.4445
12955WAT    EPW52528   1.161   2.423   7.600  1.0380 -0.3878 -0.1811
12956WAT      O52529   2.487   4.917   5.896  0.0516  0.0211 -0.0699
12956WAT     H152530   2.426   4.960   5.941 -0.3756  1.1547 -1.6360
12956WAT     H252531   2.440   4.864   5.845  0.5225 -1.2290  0.7444
12956WAT    EPW52532   2.471   4.915   5.895  0.1811  0.3665 -0.4098
12957WAT      O52533   2.228   4.618   6.406 -0.4470 -0.3543 -0.4144
12957WAT     H152534   2.146   4.588   6.415 -0.3285 -0.6822 -0.3908
12957WAT     H252535   2.241   4.616   6.320 -0.1619 -1.1588 -0.3686
12957WAT    EPW52536   2.218   4.613   6.395 -0.2952  0.1495 -0.0638
12958WAT      O52537   2.029   4.038   7.710 -0.4754  0.3703  0.4844
12958WAT     H152538   2.034   4.081   7.635 -1.4486  0.7605  0.6292
12958WAT     H252539   1.981   3.967   7.690  0.1030 -0.0383  0.5191
12958WAT    EPW52540   2.022   4.034   7.696  0.7558 -0.3516 -0.3331
12959WAT      O52541   2.639   2.222   7.458 -0.0908 -0.1926  0.2265
12959WAT     H152542   2.665   2.271   7.525 -1.4730  0.5039  0.2821
12959WAT     H252543   2.672   2.263   7.388 -2.8700  2.0627  0.0887
12959WAT    EPW52544   2.648   2.235   7.457  0.4307 -0.4327 -0.1326
12960WAT      O52545   2.464   3.701   7.009 -0.6557  0.1946 -0.7567
12960WAT     H152546   2.420   3.713   6.935 -2.1336  0.1539  0.0786
12960WAT     H252547   2.402   3.679   7.067  0.7311 -2.0895 -0.0228
12960WAT    EPW52548   2.448   3.700   7.007  0.6254 -0.1994  0.3078
12961WAT      O52549   1.581   3.459   3.805 -0.3104 -0.0258  0.3201
12961WAT     H152550   1.666   3.442   3.792 -0.2285 -0.7281  1.6400
12961WAT     H252551   1.574   3.463   3.892 -1.4382  1.1500  0.2076
12961WAT    EPW52552   1.593   3.457   3.816  0.5383  0.0119 -0.8095
12962WAT      O52553   1.452   4.385   6.641  0.4402 -0.2229  0.0707
12962WAT     H152554   1.431   4.389   6.556 -0.6851 -0.7869  0.2984
12962WAT     H252555   1.412   4.312   6.668  0.5006  0.1341  1.1700
12962WAT    EPW52556   1.443   4.375   6.632 -0.2334 -0.4119 -0.4732
12963WAT      O52557   1.387   2.721   5.648 -0.4583  0.2655 -0.5554
12963WAT     H152558   1.453   2.668   5.626  0.2049  1.8868 -2.8943
12963WAT     H252559   1.403   2.738   5.732  1.3313 -0.4936 -0.6850
12963WAT    EPW52560   1.399   2.716   5.657 -0.0899 -0.4986  0.7215
12964WAT      O52561   1.699   4.535   4.979 -0.1357 -0.0926 -0.1161
12964WAT     H152562   1.779   4.502   4.988 -0.1963 -0.0389  0.6572
12964WAT     H252563   1.663   4.526   5.058 -0.4453  1.0522 -0.0952
12964WAT    EPW52564   1.705   4.529   4.992 -0.2985 -0.5319 -0.4067
12965WAT      O52565   2.566   4.010   5.900 -0.2572 -0.2347  0.2442
12965WAT     H152566   2.648   3.983   5.895 -0.2782 -0.6167  1.6911
12965WAT     H252567   2.528   3.974   5.830  0.4355 -1.3574  0.4252
12965WAT    EPW52568   2.572   4.001   5.889  0.3717  0.2564 -0.1346
12966WAT      O52569   1.057   3.728   5.690  0.2416 -0.1616 -0.0858
12966WAT     H152570   0.979   3.708   5.722 -0.2457 -0.3385 -1.3332
12966WAT     H252571   1.081   3.799   5.735 -0.7346  0.0154  0.1583
12966WAT    EPW52572   1.049   3.736   5.701  0.1947  0.0448  0.7172
12967WAT      O52573   1.557   5.349   6.501  0.3357 -0.0059 -0.1392
12967WAT     H152574   1.541   5.263   6.493 -1.5726  0.4457 -1.9747
12967WAT     H252575   1.527   5.368   6.581  0.2100 -0.9341  0.0495
12967WAT    EPW52576   1.550   5.339   6.512  0.0141  0.8025 -0.4694
12968WAT      O52577   2.010   4.334   5.842  0.3752 -0.2036  0.5578
12968WAT     H152578   2.015   4.421   5.841  2.0578 -0.2684 -0.5034
12968WAT     H252579   2.066   4.310   5.904  0.7366 -0.5592  0.1023
12968WAT    EPW52580   2.019   4.343   5.851 -0.0055 -0.3997 -0.0152
12969WAT      O52581   0.973   3.467   7.412  0.3015 -0.2997 -0.5479
12969WAT     H152582   0.953   3.394   7.370 -3.8813  1.3995 -2.0060
12969WAT     H252583   1.008   3.518   7.350  0.8317 -0.1567 -0.1485
12969WAT    EPW52584   0.975   3.464   7.397  0.0177  0.2669 -0.7250
12970WAT      O52585   1.037   3.537   4.678  0.2499  0.0255 -0.4931
12970WAT     H152586   1.088   3.550   4.608 -0.5185  1.0298 -0.8943
12970WAT     H252587   1.008   3.455   4.668  0.3251  0.0846 -1.2362
12970WAT    EPW52588   1.040   3.527   4.666 -0.0259  0.5502  0.2248
12971WAT      O52589   0.993   3.902   6.841 -0.0661  0.1649 -0.0919
12971WAT     H152590   1.068   3.860   6.824  0.1014  0.9313 -1.4341
12971WAT     H252591   0.940   3.874   6.777 -0.9552 -0.3851  0.8559
12971WAT    EPW52592   0.996   3.891   6.829  0.5283 -0.2869  0.1713
12972WAT      O52593   2.047   3.026   7.302  0.0995  0.2489  0.9475
12972WAT     H152594   2.051   3.102   7.260  0.6863 -0.3120 -0.0543
12972WAT     H252595   2.117   3.028   7.354  2.4936 -1.1363 -1.8860
12972WAT    EPW52596   2.058   3.038   7.304  0.1264 -0.2234  0.0374
12973WAT      O52597   1.461   2.977   5.517  0.4138  0.5512 -0.5259
12973WAT     H152598   1.407   2.914   5.544 -1.5396  2.1948 -0.4104
12973WAT     H252599   1.525   2.932   5.477 -0.4783 -1.5227  0.1960
12973WAT    EPW52600   1.463   2.961   5.515  0.8595 -0.0651 -0.5135
12974WAT      O52601   2.574   3.953   5.613  0.1848  0.3544 -0.4449
12974WAT     H152602   2.642   3.998   5.583  0.3943 -0.5846 -1.4551
12974WAT     H252603   2.551   3.903   5.545 -0.8179 -0.1497  0.2343
12974WAT    EPW52604   2.581   3.952   5.599 -0.9416  0.0703 -0.3261
12975WAT      O52605   1.384   4.279   4.445  0.0333  0.3163 -0.2865
12975WAT     H152606   1.402   4.338   4.384  0.3020  1.4403  0.8322
12975WAT     H252607   1.329   4.320   4.499  0.1908 -0.4592  0.5007
12975WAT    EPW52608   1.379   4.293   4.444  0.5744  0.6142  0.5759
12976WAT      O52609   1.482   4.167   6.275  0.1855  0.4423  0.0820
12976WAT     H152610   1.408   4.123   6.287  1.2068 -1.2026  0.6584
12976WAT     H252611   1.492   4.166   6.188  0.0040 -0.1682  0.0603
12976WAT    EPW52612   1.473   4.160   6.264  0.4394  0.5891  0.0879
12977WAT      O52613   1.434   4.219   7.088 -0.1014  0.2214  0.4206
12977WAT     H152614   1.460   4.300   7.073 -1.1508  0.5433  0.2595
12977WAT     H252615   1.368   4.229   7.144 -1.7155 -0.3126 -1.2738
12977WAT    EPW52616   1.428   4.232   7.094  0.1254 -0.3978 -0.7197
12978WAT      O52617   1.066   3.597   4.959 -0.1466 -0.2445  0.2161
12978WAT     H152618   0.987   3.574   4.988 -0.3298  0.8669  0.6612
12978WAT     H252619   1.056   3.597   4.872 -0.9153  0.7124  0.2738
12978WAT    EPW52620   1.053   3.594   4.950 -0.2388  0.3743 -1.0132
12979WAT      O52621   1.601   4.975   6.344  0.2882 -0.0272  0.0077
12979WAT     H152622   1.560   5.038   6.299 -0.6876  0.6260  1.7341
12979WAT     H252623   1.683   5.002   6.347  0.4471 -0.2452 -1.6172
12979WAT    EPW52624   1.607   4.988   6.338  0.2457 -0.2435  0.7145
12980WAT      O52625   2.484   6.411   6.784  0.5117 -0.0758  0.0369
12980WAT     H152626   2.407   6.425   6.822  0.5324  0.2954 -0.0550
12980WAT     H252627   2.491   6.476   6.727  0.4597 -0.6602 -0.6506
12980WAT    EPW52628   2.474   6.422   6.781 -0.3791 -0.0819 -0.0911
12981WAT      O52629   1.580   4.022   7.431  0.1074 -0.0722  0.3910
12981WAT     H152630   1.656   4.048   7.398  0.2746  1.2237  1.6892
12981WAT     H252631   1.595   3.941   7.458  0.7073 -0.2013 -0.3148
12981WAT    EPW52632   1.593   4.014   7.430  0.4964  0.1403 -0.2144
12982WAT      O52633   1.310   2.537   7.386  0.6735 -0.1307 -0.2594
12982WAT     H152634   1.294   2.481   7.450  2.4094  0.2925  0.6258
12982WAT     H252635   1.397   2.549   7.390  0.5077  1.8481 -1.0221
12982WAT    EPW52636   1.320   2.531   7.396 -0.0890 -0.7446  0.2056
12983WAT      O52637   1.604   1.565   0.093  0.1629  0.4237 -1.3496
12983WAT     H152638   1.583   1.603   0.168 -0.9092 -1.2957 -0.7262
12983WAT     H252639   1.542   1.593   0.038  0.3719  0.9048 -1.3432
12983WAT    EPW52640   1.592   1.574   0.096 -0.1033 -0.1133 -0.0862
12984WAT      O52641   2.543   3.622   6.306 -0.2716 -0.0657 -0.2646
12984WAT     H152642   2.530   3.672   6.236  0.4501 -0.6449 -0.8334
12984WAT     H252643   2.546   3.541   6.274 -0.7500 -0.4221  0.5494
12984WAT    EPW52644   2.542   3.617   6.291  0.6943 -0.9311  0.7066
12985WAT      O52645   1.694   4.114   4.018  0.0340  0.2927  0.2451
12985WAT     H152646   1.748   4.161   4.068  1.0432  0.9111 -1.3378
12985WAT     H252647   1.628   4.169   4.002  0.2517  0.4861  0.0015
12985WAT    EPW52648   1.692   4.129   4.023 -0.0011  0.0736  0.0472
12986WAT      O52649   1.838   4.134   7.051  0.2397  0.7097 -0.7403
12986WAT     H152650   1.807   4.085   6.987 -1.3682  0.4751  0.1651
12986WAT     H252651   1.830   4.216   7.021 -3.3828  0.8548  0.1886
12986WAT    EPW52652   1.832   4.139   7.037 -0.7258  0.1126  0.2067
12987WAT      O52653   1.197   3.846   4.548  0.3412  0.1822 -0.8618
12987WAT     H152654   1.208   3.760   4.559 -0.5838  0.3018  1.7839
12987WAT     H252655   1.121   3.852   4.506 -1.4176 -0.3695  1.9758
12987WAT    EPW52656   1.187   3.834   4.543  0.2160 -0.3215 -0.3783
12988WAT      O52657   2.409   4.631   5.439  0.2113 -0.3609 -0.1158
12988WAT     H152658   2.341   4.666   5.396 -0.2250 -2.2608 -1.1026
12988WAT     H252659   2.411   4.549   5.409  1.3652 -1.0914  1.8248
12988WAT    EPW52660   2.399   4.624   5.428 -0.3627  0.1508  0.6210
12989WAT      O52661   2.712   3.429   7.429  0.2928  1.4079 -0.0205
12989WAT     H152662   2.764   3.444   7.360  2.8807  0.4496  1.5708
12989WAT     H252663   2.730   3.494   7.483  0.4410  0.6434  0.8723
12989WAT    EPW52664   2.723   3.441   7.427  0.1842 -0.4985  0.4387
12990WAT      O52665   2.669   2.928   0.655 -0.4105  0.0708  0.4724
12990WAT     H152666   2.605   2.920   0.596  1.3625 -0.0503 -1.5597
12990WAT     H252667   2.668   2.851   0.696 -0.6261 -0.5042 -0.5657
12990WAT    EPW52668   2.659   2.915   0.652 -0.8358  0.5194 -0.0737
12991WAT      O52669   2.303   3.668   7.246  0.1581  0.0954 -0.5646
12991WAT     H152670   2.221   3.648   7.224 -0.0302 -0.3496  0.4753
12991WAT     H252671   2.333   3.595   7.283  0.6919  0.5531 -0.0587
12991WAT    EPW52672   2.295   3.654   7.248 -0.1365 -0.3172  0.0956
12992WAT      O52673   2.087   4.086   7.373 -0.2835 -0.2997  0.4387
12992WAT     H152674   2.084   3.999   7.365 -0.5268 -0.1836 -1.0287
12992WAT     H252675   2.164   4.100   7.411  0.9694 -1.0709 -1.6161
12992WAT    EPW52676   2.098   4.075   7.377  0.1023 -0.3297 -0.2316
12993WAT      O52677   2.793   3.709   8.025 -0.2962  0.0073  0.1433
12993WAT     H152678   2.769   3.727   8.107 -0.7041 -1.8939  0.4875
12993WAT     H252679   2.755   3.632   8.009 -0.3295  0.3841 -1.8832
12993WAT    EPW52680   2.783   3.700   8.035 -0.2331  0.3405  0.6935
12994WAT      O52681   1.866   4.613   7.213  0.2840  0.1826  0.0127
12994WAT     H152682   1.851   4.529   7.228 -1.0549  0.2612 -0.6878
12994WAT     H252683   1.930   4.613   7.154  1.5833 -0.2624  1.3607
12994WAT    EPW52684   1.873   4.601   7.206 -0.0481  0.2952  0.6635
12995WAT      O52685   1.921   4.970   5.949 -0.1113  0.3974 -0.6606
12995WAT     H152686   1.899   5.054   5.950  1.0106  0.7173 -1.4014
12995WAT     H252687   1.926   4.949   6.034  0.4223  1.3159 -0.4508
12995WAT    EPW52688   1.919   4.979   5.962  0.4759  0.4443 -0.8102
12996WAT      O52689   3.078   5.273   5.716 -0.0149  0.4014 -0.2288
12996WAT     H152690   2.997   5.302   5.727  0.0824  1.6261 -2.1959
12996WAT     H252691   3.106   5.258   5.798 -0.9933  3.4423  0.7858
12996WAT    EPW52692   3.070   5.275   5.730  0.5307 -0.0176 -0.8046
12997WAT      O52693   2.921   2.288   7.751  0.0383 -0.2447 -0.2634
12997WAT     H152694   2.987   2.250   7.794  1.6932  0.6838 -1.8551
12997WAT     H252695   2.956   2.311   7.675 -2.0521  0.6168 -1.0464
12997WAT    EPW52696   2.936   2.286   7.746  0.6547 -0.6771 -0.6697
12998WAT      O52697   1.394   4.069   4.706  0.1481 -0.1893 -0.0534
12998WAT     H152698   1.423   3.987   4.699  0.2629 -0.0658 -1.1479
12998WAT     H252699   1.461   4.118   4.680 -0.4279  0.1792 -0.8914
12998WAT    EPW52700   1.408   4.064   4.701  0.3737 -0.8287 -0.0073
12999WAT      O52701   2.137   3.685   6.193  0.0079  0.0842  0.4917
12999WAT     H152702   2.110   3.615   6.149 -0.4046  0.1161  0.6929
12999WAT     H252703   2.148   3.655   6.275  2.0076 -0.2988  0.1503
12999WAT    EPW52704   2.135   3.670   6.199 -0.3958 -0.3834  0.1637
13000WAT      O52705   1.904   2.579   6.496  0.7880  0.0999 -0.3342
13000WAT     H152706   1.954   2.512   6.523  4.0604  1.8248 -1.5164
13000WAT     H252707   1.843   2.540   6.447 -1.2820 -2.4620  3.7537
13000WAT    EPW52708   1.902   2.563   6.493 -0.5309  0.1437 -0.3087
13001WAT      O52709   2.032   3.542   6.749  0.2728  0.1388  0.5144
13001WAT     H152710   1.956   3.566   6.783  0.1931 -0.0080  0.4427
13001WAT     H252711   2.013   3.467   6.709  0.4801  0.0437  0.5947
13001WAT    EPW52712   2.018   3.534   6.748 -0.0012 -0.0806  0.5985
13002WAT      O52713   1.807   6.164   5.212  0.6487 -0.0521 -0.4728
13002WAT     H152714   1.873   6.217   5.232  0.6852 -0.1730 -0.2797
13002WAT     H252715   1.818   6.096   5.265  0.0762  0.1541 -0.0888
13002WAT    EPW52716   1.818   6.162   5.223 -0.2016  0.1776  0.8741
13003WAT      O52717   3.153   2.796   6.860 -0.1575 -0.0700 -0.0333
13003WAT     H152718   3.144   2.822   6.778  1.6931  1.4891  0.2028
13003WAT     H252719   3.071   2.799   6.891 -0.9459 -1.0242 -1.8569
13003WAT    EPW52720   3.140   2.800   6.853 -0.1683  0.8601 -0.2662
13004WAT      O52721   1.489   2.480   7.750  0.1857  0.0611  0.6755
13004WAT     H152722   1.458   2.401   7.731 -0.5195  0.2464  1.0260
13004WAT     H252723   1.417   2.529   7.758  0.6317  1.0675 -0.8658
13004WAT    EPW52724   1.474   2.476   7.748  0.0232 -0.2810 -0.0486
13005WAT      O52725   2.106   3.778   0.298 -0.1703  0.1505  0.5140
13005WAT     H152726   2.095   3.802   0.215 -0.4055  0.4478  0.6265
13005WAT     H252727   2.110   3.691   0.295 -1.1626  0.1022  0.2984
13005WAT    EPW52728   2.105   3.769   0.285 -0.4210 -0.8960 -0.0963
13006WAT      O52729   2.707   5.042   4.848 -0.5609  0.6453  0.2709
13006WAT     H152730   2.779   5.036   4.896 -0.5682 -0.6606  0.1544
13006WAT     H252731   2.720   5.114   4.800  0.5473  0.5778  0.4484
13006WAT    EPW52732   2.720   5.052   4.848 -0.3636  0.4414  0.6846
13007WAT      O52733   1.842   3.841   7.641 -0.2429 -0.3865 -0.3078
13007WAT     H152734   1.876   3.778   7.692  1.1173  1.5347  1.3299
13007WAT     H252735   1.864   3.816   7.560 -0.2406 -2.2712  0.2192
13007WAT    EPW52736   1.850   3.828   7.637 -0.0783  0.1276  0.1684
13008WAT      O52737   2.564   3.101   6.675 -0.2829  0.1129  0.5964
13008WAT     H152738   2.502   3.160   6.692 -0.8607 -0.0914 -0.6767
13008WAT     H252739   2.576   3.061   6.751 -1.4798  0.3928  0.9530
13008WAT    EPW52740   2.557   3.104   6.688 -0.5355 -0.1160 -0.2818
13009WAT      O52741   0.424   4.949   7.953  0.1177  0.6913 -0.0894
13009WAT     H152742   0.337   4.961   7.961 -0.2249 -0.8175 -1.2758
13009WAT     H252743   0.437   4.869   7.984  0.9052  0.4621 -0.9594
13009WAT    EPW52744   0.413   4.939   7.959 -0.6952 -0.1795 -0.3182
13010WAT      O52745   2.150   2.471   4.928 -0.1290  0.3302  0.4677
13010WAT     H152746   2.142   2.386   4.948 -1.7485  0.5164  0.7206
13010WAT     H252747   2.227   2.492   4.962  0.7774 -1.2611 -0.4560
13010WAT    EPW52748   2.160   2.461   4.936 -0.5079 -0.3851 -1.3128
13011WAT      O52749   2.051   3.207   6.853 -0.0469 -0.4064  0.4784
13011WAT     H152750   2.066   3.260   6.921 -2.4762 -2.2544  2.6851
13011WAT     H252751   1.992   3.150   6.884  0.6724 -3.0160 -2.3933
13011WAT    EPW52752   2.045   3.206   6.868  0.8441 -0.0774 -0.2495
13012WAT      O52753   0.246   5.512   3.720 -0.8433 -0.3204 -0.0307
13012WAT     H152754   0.171   5.467   3.712 -0.1889 -1.3433 -0.7554
13012WAT     H252755   0.306   5.455   3.692  0.0468  0.9883 -0.8803
13012WAT    EPW52756   0.244   5.497   3.715  0.3929  0.2000  0.6928
13013WAT      O52757   0.094   3.875   0.260 -0.2670  0.6487  0.2362
13013WAT     H152758   0.173   3.902   0.234  0.9600 -0.0902  2.8429
13013WAT     H252759   0.086   3.910   0.340 -1.8122 -0.7141  0.7242
13013WAT    EPW52760   0.104   3.884   0.268 -0.5704  0.8852 -1.0409
13014WAT      O52761   1.503   3.969   6.725  0.2675 -0.3516  0.5130
13014WAT     H152762   1.434   3.916   6.728  0.1728 -0.2518  0.1117
13014WAT     H252763   1.514   3.984   6.640 -0.5971  1.4572  0.6764
13014WAT    EPW52764   1.495   3.963   6.713 -0.5674 -0.1868 -0.0567
13015WAT      O52765   1.575   3.352   6.905  0.3636  0.3468  0.0787
13015WAT     H152766   1.577   3.308   6.981 -1.2791 -0.8186 -0.5005
13015WAT     H252767   1.535   3.427   6.926  0.8997  0.4987  0.5758
13015WAT    EPW52768   1.569   3.357   6.920 -0.0489  0.4612 -0.0714
13016WAT      O52769   0.673   5.303   0.571  0.0901  0.8156 -0.0904
13016WAT     H152770   0.698   5.386   0.572  1.2968  0.5346 -1.9075
13016WAT     H252771   0.744   5.259   0.595  0.0338  0.2382 -0.9128
13016WAT    EPW52772   0.687   5.309   0.575 -0.1055 -1.1581  0.3709
13017WAT      O52773   2.615   3.504   1.059  0.2378 -0.0503  0.3367
13017WAT     H152774   2.554   3.561   1.087 -0.0574 -0.6371  0.9142
13017WAT     H252775   2.584   3.427   1.084  1.3136 -0.3446  0.8101
13017WAT    EPW52776   2.601   3.501   1.067  0.5164  0.3563  0.1900
13018WAT      O52777   1.175   3.806   7.320  0.0984  0.8899 -0.0098
13018WAT     H152778   1.197   3.867   7.262  2.9237 -1.3141 -1.5012
13018WAT     H252779   1.167   3.850   7.395  0.0358  3.2974 -1.3556
13018WAT    EPW52780   1.177   3.821   7.322  0.6258  0.5711 -1.0054
13019WAT      O52781   1.412   3.912   5.486 -0.1898  0.3601 -0.7956
13019WAT     H152782   1.402   3.918   5.399  0.1036  1.0045 -0.7849
13019WAT     H252783   1.364   3.978   5.517  0.0483  0.3878 -0.4846
13019WAT    EPW52784   1.403   3.922   5.477 -0.1140  0.6919 -0.4270
13020WAT      O52785   1.244   4.994   4.703  0.1821  0.1253 -0.3829
13020WAT     H152786   1.213   5.060   4.751  0.5350 -0.0292  0.0607
13020WAT     H252787   1.185   4.985   4.639 -0.1428  0.5136 -0.1373
13020WAT    EPW52788   1.231   5.002   4.700 -0.2377 -0.3703  0.6663
13021WAT      O52789   2.560   3.973   7.288  0.1903  0.1869 -0.2611
13021WAT     H152790   2.485   3.942   7.320  0.9680 -1.0331  0.4566
13021WAT     H252791   2.566   3.933   7.210  0.7914 -0.8980  0.3151
13021WAT    EPW52792   2.550   3.962   7.281 -0.2612  0.0244 -0.0096
13022WAT      O52793   0.599   2.668   7.973  0.5493  0.0862 -0.3386
13022WAT     H152794   0.548   2.730   7.940  0.7559  0.0880 -0.6597
13022WAT     H252795   0.679   2.688   7.943  0.9219  0.6374  0.9374
13022WAT    EPW52796   0.604   2.680   7.964  0.1015  0.3334 -0.8065
13023WAT      O52797   1.992   4.063   5.029  1.1135  0.5008  0.1192
13023WAT     H152798   1.970   4.133   5.076  1.9475  0.9733 -0.1756
13023WAT     H252799   2.067   4.086   4.991  0.9324 -0.2127 -0.7136
13023WAT    EPW52800   2.000   4.076   5.030 -0.3452 -0.0630 -0.3750
13024WAT      O52801   0.881   4.421   4.377  0.1706  0.1794  0.3102
13024WAT     H152802   0.958   4.434   4.337 -0.4706  2.3448 -0.3053
13024WAT     H252803   0.895   4.348   4.424  2.4898  0.3272 -0.0336
13024WAT    EPW52804   0.895   4.412   4.378  1.0783 -0.1879 -0.5576
13025WAT      O52805   2.158   1.530   4.644  0.1735  0.2834 -0.3042
13025WAT     H152806   2.079   1.554   4.614  0.2799  0.4129 -0.4819
13025WAT     H252807   2.141   1.457   4.688 -0.0930  0.4703 -0.0928
13025WAT    EPW52808   2.144   1.522   4.646  0.6700  0.8351 -0.2070
13026WAT      O52809   1.976   2.156   6.795 -0.5360  0.2655 -0.1534
13026WAT     H152810   1.960   2.149   6.880  0.0305  1.0016  0.0273
13026WAT     H252811   1.898   2.175   6.761 -1.1229 -1.7399 -0.0511
13026WAT    EPW52812   1.962   2.158   6.803  0.2365  0.2509 -0.2169
13027WAT      O52813   2.396   2.543   5.006  0.4329 -0.3124  0.0318
13027WAT     H152814   2.456   2.538   4.942  2.0383 -1.1012  1.5055
13027WAT     H252815   2.426   2.487   5.066 -2.3785 -1.5458  0.4190
13027WAT    EPW52816   2.409   2.534   5.005  0.6567  0.5535 -0.0650
13028WAT      O52817   0.366   3.311   4.344  0.5197 -0.0256 -0.5581
13028WAT     H152818   0.304   3.328   4.284  1.1294 -0.1121 -1.2303
13028WAT     H252819   0.386   3.390   4.376  0.2950  0.0383 -0.5737
13028WAT    EPW52820   0.359   3.325   4.340 -0.0353  0.8951 -0.0188
13029WAT      O52821   2.642   3.452   5.901 -0.2672  0.0906  0.2766
13029WAT     H152822   2.627   3.517   5.846  0.2172  0.5968  0.7273
13029WAT     H252823   2.645   3.381   5.850  1.1384  0.6682 -0.4763
13029WAT    EPW52824   2.640   3.451   5.886  0.7125 -0.0508 -0.0208
13030WAT      O52825   1.646   3.668   6.205  0.0843  0.1814  0.0832
13030WAT     H152826   1.658   3.692   6.289  1.5240 -1.6556  0.4483
13030WAT     H252827   1.715   3.703   6.164  0.5210 -0.7014  0.0594
13030WAT    EPW52828   1.658   3.677   6.211  0.4318 -0.4818  0.2606
13031WAT      O52829   2.052   3.497   5.062  0.2658  0.2232  0.4227
13031WAT     H152830   1.998   3.544   5.012  0.6315 -0.5210 -0.7166
13031WAT     H252831   2.002   3.432   5.091 -0.0356  0.8434  1.3464
13031WAT    EPW52832   2.037   3.495   5.059 -0.2514  0.0323 -0.9981
13032WAT      O52833   1.798   4.118   5.569  0.1736  0.3931 -0.0339
13032WAT     H152834   1.755   4.046   5.544  1.8983 -0.5646 -0.4318
13032WAT     H252835   1.857   4.088   5.625  1.2322  1.4055 -0.5591
13032WAT    EPW52836   1.800   4.103   5.573  0.3988  0.3445 -0.5901
13033WAT      O52837   1.377   4.757   7.384  0.3993  0.0231  0.5666
13033WAT     H152838   1.416   4.819   7.336 -0.8254  0.8854  0.6330
13033WAT     H252839   1.431   4.748   7.452  0.1605  1.7368  1.0404
13033WAT    EPW52840   1.391   4.765   7.387 -0.1757  0.0687 -0.3517
13034WAT      O52841   1.550   5.689   6.694 -0.3785  0.5942  0.4622
13034WAT     H152842   1.574   5.732   6.767 -1.2616 -0.3954  1.3752
13034WAT     H252843   1.621   5.693   6.643  0.3870  1.0002  1.5208
13034WAT    EPW52844   1.564   5.696   6.697  0.3363  0.3912  0.2125
13035WAT      O52845   0.839   3.762   4.723  0.5738  0.3937 -0.0148
13035WAT     H152846   0.893   3.830   4.727 -0.0976  0.8670  2.0041
13035WAT     H252847   0.887   3.700   4.684  2.9296  0.5205  2.3601
13035WAT    EPW52848   0.854   3.763   4.718  1.0167 -0.5850  0.1717
13036WAT      O52849   2.314   3.042   5.136  0.2553 -0.1981  0.0833
13036WAT     H152850   2.389   3.059   5.176 -0.4485  0.4140  1.1729
13036WAT     H252851   2.318   3.090   5.063  0.0024  1.5549  1.1930
13036WAT    EPW52852   2.325   3.051   5.131  0.5897  0.3237  0.5341
13037WAT      O52853   1.596   3.572   6.662  0.0889 -0.1078  0.5139
13037WAT     H152854   1.668   3.594   6.707 -1.2418  0.7427  2.3405
13037WAT     H252855   1.607   3.487   6.645  0.9772 -0.2774  1.8233
13037WAT    EPW52856   1.608   3.563   6.666 -0.4234 -0.4370 -0.1896
13038WAT      O52857   1.353   3.249   6.274  0.0081 -1.0766  0.2635
13038WAT     H152858   1.331   3.165   6.263  0.1369 -1.0563 -0.1316
13038WAT     H252859   1.439   3.250   6.259 -0.3257 -0.5019 -1.8656
13038WAT    EPW52860   1.362   3.237   6.270  0.4154 -0.0610 -0.0071
13039WAT      O52861   2.446   3.490   4.835  0.3041  0.3710 -0.4166
13039WAT     H152862   2.532   3.505   4.831  0.3879  0.1961  0.5471
13039WAT     H252863   2.437   3.439   4.905 -0.4289 -0.8073 -1.3233
13039WAT    EPW52864   2.457   3.485   4.845  0.2934  0.3281 -0.3811
13040WAT      O52865   1.714   4.402   4.619 -0.0438 -0.2963  0.1116
13040WAT     H152866   1.720   4.428   4.536  1.4196  0.4405  0.4121
13040WAT     H252867   1.715   4.315   4.614  2.1104 -0.2847 -0.5755
13040WAT    EPW52868   1.715   4.393   4.606  0.3078  0.3808  0.2636
13041WAT      O52869   2.263   3.400   6.511 -0.6998  0.0484 -0.1714
13041WAT     H152870   2.219   3.472   6.488  0.4497  0.2079 -2.1130
13041WAT     H252871   2.237   3.340   6.453 -1.7976 -1.2199  1.5563
13041WAT    EPW52872   2.253   3.402   6.499 -0.2950  0.0304 -0.9665
13042WAT      O52873   1.725   3.685   4.442  0.0343  0.3982  0.4865
13042WAT     H152874   1.667   3.678   4.507 -0.9041 -2.6264 -0.5114
13042WAT     H252875   1.773   3.612   4.448  0.4302  0.3930 -1.6876
13042WAT    EPW52876   1.723   3.673   4.452  0.7145  0.4227  0.4878
13043WAT      O52877   1.014   3.202   7.719 -0.1786 -0.5140  0.1088
13043WAT     H152878   1.050   3.275   7.687 -0.1231 -0.6071 -0.0397
13043WAT     H252879   0.995   3.156   7.648  0.6514 -1.0567  0.2219
13043WAT    EPW52880   1.017   3.206   7.704 -0.0424  0.0124  0.0485
13044WAT      O52881   2.013   3.993   6.735  0.1637  0.7406 -0.0329
13044WAT     H152882   1.982   4.074   6.744 -1.6048  0.0712  0.4420
13044WAT     H252883   2.004   3.958   6.814  0.8528  0.0493 -0.2430
13044WAT    EPW52884   2.007   4.000   6.748  0.9607  0.7403 -1.0086
13045WAT      O52885   1.532   5.428   6.233  0.9834  0.1242  0.8683
13045WAT     H152886   1.519   5.398   6.314  0.2751 -2.5526 -0.1485
13045WAT     H252887   1.617   5.419   6.221  0.7516 -1.8836  0.4954
13045WAT    EPW52888   1.542   5.423   6.243  0.1785  0.0523  0.2504
13046WAT      O52889   1.142   4.922   3.885  0.0417  0.2833 -0.2077
13046WAT     H152890   1.180   4.993   3.919  0.9268  0.1488 -0.8612
13046WAT     H252891   1.182   4.856   3.926 -0.0484  0.1504 -0.3337
13046WAT    EPW52892   1.154   4.923   3.896  0.3168 -0.1999 -0.7570
13047WAT      O52893   0.289   2.576   2.627 -0.0880  0.0002 -0.1004
13047WAT     H152894   0.266   2.635   2.688 -0.1391 -1.1472  1.0402
13047WAT     H252895   0.350   2.529   2.667  1.2106  0.3474 -1.6216
13047WAT    EPW52896   0.294   2.578   2.642 -0.2002 -0.1370 -0.4289
13048WAT      O52897   1.634   3.467   4.089  0.1741 -0.1051  0.4698
13048WAT     H152898   1.705   3.516   4.074 -0.3856  0.1635 -1.5389
13048WAT     H252899   1.604   3.498   4.166  1.0886  1.1647  0.3565
13048WAT    EPW52900   1.640   3.479   4.098 -1.1085 -0.1929 -0.5554
13049WAT      O52901   0.955   4.326   3.880 -0.2480  0.0691 -0.1025
13049WAT     H152902   0.973   4.411   3.888 -1.4748  0.5542 -1.9373
13049WAT     H252903   0.931   4.318   3.797 -1.4826 -1.8131  0.3841
13049WAT    EPW52904   0.954   4.337   3.869 -0.2791  0.4819  0.3590
13050WAT      O52905   1.875   3.691   5.311  0.0521  0.4518 -0.5403
13050WAT     H152906   1.855   3.711   5.394 -0.8420 -1.9776 -0.0870
13050WAT     H252907   1.798   3.673   5.275  0.6790 -1.5649 -0.9785
13050WAT    EPW52908   1.861   3.691   5.318 -0.6561 -0.2311 -0.4986
13051WAT      O52909   0.312   5.137   4.147  0.2640 -0.3375 -0.0462
13051WAT     H152910   0.363   5.068   4.156  1.2939  0.4036 -0.0174
13051WAT     H252911   0.365   5.205   4.162 -1.2664  0.4312  2.5286
13051WAT    EPW52912   0.327   5.137   4.150 -0.6313  0.2374 -0.1672
13052WAT      O52913   1.490   3.948   4.150 -0.1509 -0.3435 -0.8268
13052WAT     H152914   1.437   3.976   4.213 -0.9674  0.0073 -1.6404
13052WAT     H252915   1.531   4.020   4.124  0.2545 -0.5035 -0.6401
13052WAT    EPW52916   1.488   3.963   4.155 -0.2206  0.0784  0.1921
13053WAT      O52917   1.339   3.841   3.920 -0.1735  0.2506 -0.3846
13053WAT     H152918   1.358   3.900   3.859 -2.7480  3.3580  1.4792
13053WAT     H252919   1.393   3.861   3.985  0.8108 -1.3605 -0.6588
13053WAT    EPW52920   1.349   3.853   3.921 -0.3847 -0.2601  0.4120
13054WAT      O52921   1.310   3.646   5.600 -0.0911 -0.5136  0.0851
13054WAT     H152922   1.224   3.634   5.608 -0.0778 -0.9758 -0.4113
13054WAT     H252923   1.316   3.728   5.571 -0.3823 -0.5925 -0.2118
13054WAT    EPW52924   1.298   3.656   5.597  0.2356 -0.4772  0.1071
13055WAT      O52925   0.632   4.109   3.046  0.0519  0.0674  0.2069
13055WAT     H152926   0.569   4.106   3.106 -1.2679 -1.2762 -1.1678
13055WAT     H252927   0.667   4.029   3.048 -0.3373 -0.1686 -1.0854
13055WAT    EPW52928   0.628   4.097   3.055 -1.0470  0.3202  0.1851
13056WAT      O52929   0.559   3.749   2.380  0.0184 -0.2984 -0.0868
13056WAT     H152930   0.633   3.722   2.342 -0.6055 -2.2593 -0.0398
13056WAT     H252931   0.504   3.760   2.312  0.2181  0.7547 -0.0893
13056WAT    EPW52932   0.562   3.747   2.364 -0.3038  0.3571 -0.4692
13057WAT      O52933   0.438   5.268   2.906 -0.1544 -0.1148 -0.1634
13057WAT     H152934   0.483   5.193   2.899 -0.5407 -0.4510  0.8081
13057WAT     H252935   0.481   5.322   2.853  0.8223 -0.7009 -0.0002
13057WAT    EPW52936   0.451   5.265   2.897 -0.3746 -0.5902 -0.9192
13058WAT      O52937   2.243   4.031   3.650 -0.3313  0.5701  0.4413
13058WAT     H152938   2.326   4.016   3.671 -1.0969  0.4032  3.8003
13058WAT     H252939   2.230   4.114   3.673 -0.8850  0.9629 -1.1139
13058WAT    EPW52940   2.253   4.041   3.656 -0.0898 -0.7657 -0.0164
13059WAT      O52941   1.482   4.837   4.472 -0.0077 -0.0879  0.7548
13059WAT     H152942   1.569   4.842   4.469 -0.0071 -0.4006  0.1226
13059WAT     H252943   1.467   4.772   4.529  0.2102 -1.0937 -0.3155
13059WAT    EPW52944   1.492   4.828   4.480 -0.0700  0.1849  0.0072
13060WAT      O52945   1.442   2.320   7.208 -0.5706  0.2228 -0.1159
13060WAT     H152946   1.377   2.302   7.263  0.7007 -1.2721  1.0080
13060WAT     H252947   1.405   2.370   7.147 -2.6638 -0.2957  0.6525
13060WAT    EPW52948   1.427   2.325   7.207  0.7261  0.2214 -1.0919
13061WAT      O52949   0.496   3.497   3.845 -0.2339 -0.5581 -0.4276
13061WAT     H152950   0.548   3.444   3.892  1.2964 -1.6483 -3.1405
13061WAT     H252951   0.456   3.443   3.790  0.5224  0.9389 -2.5591
13061WAT    EPW52952   0.498   3.481   3.844 -0.0767  0.0515 -0.5991
13062WAT      O52953   0.322   4.486   3.572  0.1160 -0.1667  0.2510
13062WAT     H152954   0.306   4.502   3.488  0.3935 -0.3269  0.1661
13062WAT     H252955   0.366   4.411   3.570  3.6507  1.7053  0.2080
13062WAT    EPW52956   0.326   4.477   3.559 -0.0102 -0.6755 -0.0870
13063WAT      O52957   0.451   4.686   2.818  0.0191 -0.3424  0.6031
13063WAT     H152958   0.402   4.630   2.772 -0.2027  0.5421 -0.2620
13063WAT     H252959   0.533   4.660   2.801 -0.0607 -2.7998  3.2677
13063WAT    EPW52960   0.456   4.674   2.809 -0.6199  0.0323 -0.1108
13064WAT      O52961   2.716   4.331   4.058 -0.5286 -0.5301  0.5760
13064WAT     H152962   2.706   4.254   4.097 -0.7270 -0.1926  1.2013
13064WAT     H252963   2.778   4.371   4.105 -0.0880 -0.4852 -0.0233
13064WAT    EPW52964   2.724   4.326   4.071  0.6140 -0.7798 -0.0858
13065WAT      O52965   0.169   4.988   2.995 -0.1934 -0.0840 -0.6107
13065WAT     H152966   0.252   4.966   3.005  0.2962  1.5865 -0.7260
13065WAT     H252967   0.135   4.981   3.075  0.7443  1.7365  0.0080
13065WAT    EPW52968   0.176   4.984   3.008 -0.1729  0.0012 -0.1340
13066WAT      O52969   7.928   4.313   1.698 -0.0665 -0.2739  0.4407
13066WAT     H152970   7.909   4.242   1.651 -1.0592 -0.6324  1.3437
13066WAT     H252971   8.015   4.321   1.687 -0.2723 -0.2303 -1.5436
13066WAT    EPW52972   7.938   4.303   1.689 -0.1314  0.0500 -0.8116
13067WAT      O52973   1.621   2.852   3.141 -0.1516  0.7485  0.1096
13067WAT     H152974   1.678   2.812   3.088 -1.8248 -0.9194 -0.5380
13067WAT     H252975   1.669   2.871   3.212  0.8866 -2.0659  0.2887
13067WAT    EPW52976   1.637   2.849   3.144 -0.6293  0.2628 -0.2162
13068WAT      O52977   1.183   3.483   2.581  0.5515 -0.1457  0.1335
13068WAT     H152978   1.116   3.479   2.637 -1.0949 -1.3970 -1.7700
13068WAT     H252979   1.248   3.444   2.624 -0.0710  0.5658  1.8252
13068WAT    EPW52980   1.183   3.477   2.596  0.0852 -0.7060 -0.6319
13069WAT      O52981   1.137   3.496   3.511 -0.2142 -0.1728  0.2671
13069WAT     H152982   1.169   3.431   3.560  1.0198 -2.6044 -3.3621
13069WAT     H252983   1.208   3.530   3.474 -1.0668  1.8251  0.3274
13069WAT    EPW52984   1.152   3.491   3.513  0.1332  0.4463  0.0342
13070WAT      O52985   1.514   3.575   4.586  0.6102 -0.5001 -0.3477
13070WAT     H152986   1.484   3.496   4.563 -2.2523  1.0515 -2.7426
13070WAT     H252987   1.448   3.610   4.631  0.9069  1.2402 -1.1633
13070WAT    EPW52988   1.500   3.569   4.589  0.0474  0.0032 -0.7156
13071WAT      O52989   1.585   4.309   3.618  0.1560 -0.1027 -0.5828
13071WAT     H152990   1.624   4.231   3.627 -0.7645 -0.6425 -1.1235
13071WAT     H252991   1.547   4.305   3.540 -1.1060  0.3335 -0.0342
13071WAT    EPW52992   1.585   4.297   3.608 -0.0753  0.3494  0.2679
13072WAT      O52993   1.598   3.653   4.975  0.0983  0.3022  0.3655
13072WAT     H152994   1.684   3.646   4.966  0.2348  2.6850 -0.9025
13072WAT     H252995   1.587   3.667   5.060  0.7692 -1.4352  0.7936
13072WAT    EPW52996   1.609   3.654   4.986 -0.2142 -0.7906 -0.1776
13073WAT      O52997   1.623   5.255   1.485 -0.3226 -0.0366  0.2083
13073WAT     H152998   1.575   5.221   1.549 -0.9644  0.5711  0.0610
13073WAT     H252999   1.576   5.323   1.458  1.0750  1.1991  0.7312
13073WAT    EPW53000   1.609   5.260   1.491 -0.4453 -0.2613  0.2800
13074WAT      O53001   7.949   4.690   2.932  0.8826 -0.3258  0.2604
13074WAT     H153002   7.962   4.747   2.867 -1.3357 -1.7378 -1.5779
13074WAT     H253003   7.948   4.741   3.003  1.4063  1.5782 -0.9924
13074WAT    EPW53004   7.951   4.706   2.932 -0.6939 -0.9145 -0.8148
13075WAT      O53005   7.904   4.784   3.195 -0.7674 -0.1861 -0.6556
13075WAT     H153006   7.819   4.785   3.212 -0.4031  0.2520  1.3655
13075WAT     H253007   7.929   4.867   3.209 -0.1041 -0.1249 -1.9524
13075WAT    EPW53008   7.895   4.797   3.199 -0.4639  0.0673  0.5871
13076WAT      O53009   1.479   3.203   4.309  0.1772  0.1956  0.1506
13076WAT     H153010   1.470   3.117   4.324 -2.5160  0.5716  1.3035
13076WAT     H253011   1.462   3.210   4.224  0.5349 -0.4248  0.0192
13076WAT    EPW53012   1.475   3.191   4.299  0.5038  0.1451 -0.0293
13077WAT      O53013   1.271   3.573   3.932  0.1691  0.1765 -0.3868
13077WAT     H153014   1.302   3.548   3.854 -1.0130  1.1045 -1.2037
13077WAT     H253015   1.307   3.652   3.943  0.8785 -0.2412  0.3528
13077WAT    EPW53016   1.281   3.581   3.922 -0.6721 -0.3240 -0.5635
13078WAT      O53017   1.464   3.243   2.404 -0.2542  0.3852 -0.3543
13078WAT     H153018   1.415   3.236   2.476 -0.6191  1.0819 -0.5332
13078WAT     H253019   1.406   3.233   2.340 -0.4298  2.5912 -0.5994
13078WAT    EPW53020   1.448   3.240   2.405  0.2662  0.2130  0.1049
13079WAT      O53021   2.084   4.950   4.131 -0.2272  0.3245  0.0918
13079WAT     H153022   2.131   4.892   4.085  0.6846  0.9119  0.2454
13079WAT     H253023   2.145   4.992   4.178 -0.9698  0.8143  0.6342
13079WAT    EPW53024   2.100   4.948   4.131 -0.2925 -0.3691 -0.7828
13080WAT      O53025   0.472   4.412   2.470  0.4914  0.1914 -0.1955
13080WAT     H153026   0.533   4.395   2.410  0.4701  2.4240 -0.9536
13080WAT     H253027   0.399   4.380   2.435  0.4314  1.6847 -1.5837
13080WAT    EPW53028   0.470   4.405   2.456  0.8663 -0.4306 -0.2016
13081WAT      O53029   1.678   3.478   1.545 -0.8684  0.3056  0.5538
13081WAT     H153030   1.672   3.412   1.489 -2.2238  0.6137  0.2970
13081WAT     H253031   1.754   3.465   1.585 -0.8419 -1.0676  0.0872
13081WAT    EPW53032   1.688   3.466   1.543 -0.0652 -0.0361 -0.0647
13082WAT      O53033   0.328   4.885   3.893 -0.1098 -0.1197 -0.2264
13082WAT     H153034   0.284   4.813   3.870 -1.4122  0.2667  0.8857
13082WAT     H253035   0.349   4.871   3.977 -0.7817  0.9545  0.1474
13082WAT    EPW53036   0.325   4.872   3.902 -0.4951  1.0710  0.1887
13083WAT      O53037   1.306   3.749   3.026 -0.8207  0.3150 -0.5221
13083WAT     H153038   1.258   3.818   3.003 -1.5585  0.5352  1.4801
13083WAT     H253039   1.379   3.785   3.059 -1.4405  0.2067  1.0354
13083WAT    EPW53040   1.310   3.765   3.028  0.1632  0.4208 -0.0138
13084WAT      O53041   1.352   3.737   2.605  0.5537  0.1252 -0.6006
13084WAT     H153042   1.351   3.787   2.534  0.5579 -0.1377 -0.7872
13084WAT     H253043   1.283   3.684   2.593 -0.4503  1.1526  0.3626
13084WAT    EPW53044   1.342   3.737   2.593 -0.5583  0.0408  0.1261
13085WAT      O53045   1.502   3.398   4.908 -0.5005  0.0670  0.5317
13085WAT     H153046   1.527   3.478   4.933  1.0391 -0.0528 -0.4892
13085WAT     H253047   1.452   3.413   4.838 -2.0950  0.2088  1.6276
13085WAT    EPW53048   1.498   3.412   4.902  0.1148 -0.7023 -0.0073
13086WAT      O53049   2.727   5.001   6.250 -0.0732  0.2239  0.0995
13086WAT     H153050   2.640   5.002   6.244 -0.4034 -1.6684  2.8183
13086WAT     H253051   2.745   5.055   6.316  0.6986 -0.3945  0.4151
13086WAT    EPW53052   2.717   5.009   6.259 -0.6350 -0.3390 -0.4733
13087WAT      O53053   0.961   4.973   4.107  0.3262 -0.2776  0.4269
13087WAT     H153054   1.015   4.988   4.040 -1.6858 -0.2534 -1.2787
13087WAT     H253055   0.914   5.046   4.112 -0.1040 -0.6007  1.3656
13087WAT    EPW53056   0.962   4.986   4.098 -0.3550 -0.1101 -0.8318
13088WAT      O53057   0.049   4.452   3.672 -0.5535  0.2448  0.1609
13088WAT     H153058   0.132   4.447   3.647  0.1843 -1.4766  2.5939
13088WAT     H253059   0.052   4.507   3.740 -1.3172 -0.1804  0.5484
13088WAT    EPW53060   0.061   4.460   3.679 -0.4154 -0.8374  0.4855
13089WAT      O53061   0.673   4.518   4.234 -0.6231 -0.1863  0.5268
13089WAT     H153062   0.679   4.602   4.211 -1.7474 -0.7927 -2.4138
13089WAT     H253063   0.751   4.501   4.271 -0.0848  1.9382  0.4639
13089WAT    EPW53064   0.686   4.528   4.236 -0.5187 -0.4254  0.2596
13090WAT      O53065   0.939   3.705   3.229 -0.3275  0.4582  0.7925
13090WAT     H153066   1.012   3.748   3.250  0.6151 -0.8478  0.3099
13090WAT     H253067   0.917   3.664   3.303  0.3623 -0.4349  0.5176
13090WAT    EPW53068   0.947   3.705   3.243 -0.2752 -0.1787 -0.2938
13091WAT      O53069   2.145   4.743   3.965 -0.0210 -0.5096 -0.0379
13091WAT     H153070   2.231   4.733   3.965  0.3002  1.5665  1.0291
13091WAT     H253071   2.114   4.662   3.973  1.9735 -1.1324  3.2822
13091WAT    EPW53072   2.153   4.730   3.966  0.7417  0.8556 -0.3773
13092WAT      O53073   0.613   4.081   4.067 -0.1681  0.5403 -0.4609
13092WAT     H153074   0.533   4.108   4.086 -0.4734 -0.7186  0.1911
13092WAT     H253075   0.656   4.154   4.046 -1.7235  1.1113 -1.7864
13092WAT    EPW53076   0.608   4.096   4.067 -0.8675  0.3430  0.6201
13093WAT      O53077   7.743   4.379   3.296 -0.5407 -0.3890  0.6675
13093WAT     H153078   7.806   4.433   3.323 -1.1552 -0.0355  1.4403
13093WAT     H253079   7.741   4.318   3.358 -0.2922 -0.9545  0.1308
13093WAT    EPW53080   7.752   4.378   3.309 -0.5573  0.7513  0.6771
13094WAT      O53081   0.713   4.763   4.121 -1.1017  0.4723  0.1736
13094WAT     H153082   0.765   4.749   4.051  1.4799 -0.8516  2.1570
13094WAT     H253083   0.751   4.830   4.161 -0.2600 -1.0560  2.1212
13094WAT    EPW53084   0.727   4.771   4.116  0.1338 -0.4706 -0.2210
13095WAT      O53085   1.114   4.719   2.570 -0.3585  0.6250 -0.2446
13095WAT     H153086   1.128   4.762   2.645  1.6366 -0.6494  0.1939
13095WAT     H253087   1.165   4.761   2.513  0.3641 -0.1240 -0.1771
13095WAT    EPW53088   1.124   4.732   2.573 -1.2799 -1.0191 -0.7198
13096WAT      O53089   0.827   4.748   3.882 -0.3710 -0.0857 -0.0435
13096WAT     H153090   0.838   4.822   3.837  0.5247 -0.4841 -0.5022
13096WAT     H253091   0.899   4.703   3.865 -0.3792 -0.5855  1.1716
13096WAT    EPW53092   0.839   4.753   3.873 -0.0911  0.4780 -0.2588
13097WAT      O53093   0.577   5.110   1.708  0.1266 -0.0815 -0.4143
13097WAT     H153094   0.663   5.094   1.710  0.1639 -0.0144  2.1562
13097WAT     H253095   0.542   5.038   1.743 -0.8325  0.0872 -0.9865
13097WAT    EPW53096   0.584   5.097   1.713 -0.1509 -0.0686 -0.5155
13098WAT      O53097   1.109   4.841   3.603 -0.5280  0.0703 -0.4181
13098WAT     H153098   1.187   4.882   3.601 -0.4241 -0.1535 -0.9356
13098WAT     H253099   1.087   4.845   3.688  0.5183 -0.7314 -0.0893
13098WAT    EPW53100   1.118   4.848   3.615  0.5170  0.6292  0.4707
13099WAT      O53101   1.017   5.203   2.597 -0.1158 -0.2627 -0.6952
13099WAT     H153102   0.936   5.215   2.567 -0.4604  0.7902  0.5715
13099WAT     H253103   1.026   5.264   2.658  1.7547 -0.1707 -1.0023
13099WAT    EPW53104   1.007   5.214   2.602 -0.2237  0.1705 -0.5729
13100WAT      O53105   1.710   3.904   5.826  0.3141 -0.3169 -0.3720
13100WAT     H153106   1.773   3.958   5.801  1.4732 -1.7290 -0.6055
13100WAT     H253107   1.744   3.863   5.895  1.0974 -3.5672 -2.5112
13100WAT    EPW53108   1.724   3.906   5.833  0.2952 -0.6755 -0.6554
13101WAT      O53109   1.196   3.572   4.443 -0.3828  0.5452  0.3652
13101WAT     H153110   1.249   3.603   4.381  0.1409  0.2212  0.6433
13101WAT     H253111   1.187   3.488   4.422 -1.5244  0.7918 -0.1926
13101WAT    EPW53112   1.202   3.564   4.430  0.7041  0.6560 -0.2295
13102WAT      O53113   0.267   5.847   3.018 -0.9559  0.4024 -0.7449
13102WAT     H153114   0.232   5.777   3.057 -0.7770  0.6881 -0.0572
13102WAT     H253115   0.228   5.915   3.058  0.1435  0.7208 -0.1507
13102WAT    EPW53116   0.256   5.847   3.030  0.8779 -0.0512 -0.8699
13103WAT      O53117   1.018   3.033   2.627 -0.0146 -0.0340  0.2777
13103WAT     H153118   1.006   3.021   2.541  0.7535 -0.8153  0.2624
13103WAT     H253119   0.967   3.102   2.645 -0.8243 -0.3645 -0.6334
13103WAT    EPW53120   1.009   3.042   2.617  0.1129 -0.0934  0.4754
13104WAT      O53121   0.826   4.466   2.975  0.1774  0.0653  0.0123
13104WAT     H153122   0.770   4.514   3.021 -0.1632 -0.3465  0.0359
13104WAT     H253123   0.818   4.386   3.011  1.6445  0.2410  0.8094
13104WAT    EPW53124   0.817   4.461   2.987 -0.1065  0.2611  0.5908
13105WAT      O53125   1.110   4.424   2.644 -0.5022  0.2266  0.0996
13105WAT     H153126   1.024   4.425   2.626 -0.3818 -0.6133 -0.6071
13105WAT     H253127   1.144   4.474   2.581 -0.3639 -0.3858 -0.3184
13105WAT    EPW53128   1.102   4.431   2.632  0.4343  0.7068  0.0207
13106WAT      O53129   1.231   4.499   4.705 -0.2060  0.1905 -0.5532
13106WAT     H153130   1.203   4.421   4.732 -1.6037  0.9360  0.2342
13106WAT     H253131   1.170   4.524   4.648  0.4466  0.5481 -1.1187
13106WAT    EPW53132   1.218   4.491   4.700  0.3003 -0.8569  0.1359
13107WAT      O53133   2.029   3.808   2.762  0.1687  0.2384 -0.6885
13107WAT     H153134   1.986   3.746   2.719 -0.4214  0.1159  0.0546
13107WAT     H253135   1.988   3.881   2.740 -0.5973  0.0969  0.1963
13107WAT    EPW53136   2.017   3.810   2.752 -0.6866  0.1453 -0.0485
13108WAT      O53137   0.377   4.440   4.209  0.6425  0.4657 -0.0197
13108WAT     H153138   0.326   4.496   4.251 -0.0941  0.2062 -0.5521
13108WAT     H253139   0.457   4.474   4.218  0.3850  0.8443  0.8594
13108WAT    EPW53140   0.381   4.454   4.216 -0.1608 -0.1468 -0.1093
13109WAT      O53141   1.564   3.853   3.094 -0.1644  0.0492 -0.1874
13109WAT     H153142   1.604   3.822   3.023  0.3647  2.0871 -0.8264
13109WAT     H253143   1.582   3.938   3.093  0.5528  0.0647  2.8408
13109WAT    EPW53144   1.573   3.861   3.084  0.1094  0.1240 -0.4745
13110WAT      O53145   1.489   3.106   5.215 -0.1607 -0.3651  0.3155
13110WAT     H153146   1.558   3.124   5.165  0.0155  1.1451  1.0384
13110WAT     H253147   1.523   3.100   5.295 -1.0021  2.1957  0.9791
13110WAT    EPW53148   1.505   3.108   5.220 -0.5946 -1.1466  0.0051
13111WAT      O53149   2.336   5.004   3.564 -0.2272  0.1303 -0.0365
13111WAT     H153150   2.275   5.003   3.626 -0.0826 -0.2147  0.1030
13111WAT     H253151   2.361   4.920   3.559  0.6009  0.3502  0.2723
13111WAT    EPW53152   2.331   4.991   3.573 -0.3223  0.6178 -0.8534
13112WAT      O53153   0.203   3.272   2.494  0.5094  0.3356  0.3966
13112WAT     H153154   0.261   3.329   2.527  1.4430 -0.5243  0.2751
13112WAT     H253155   0.141   3.268   2.555  1.5730 -0.2448  1.4718
13112WAT    EPW53156   0.202   3.280   2.508  0.1797  0.0431 -0.6452
13113WAT      O53157   1.105   4.680   3.369  0.1702  0.1324 -0.3500
13113WAT     H153158   1.170   4.622   3.371  0.0963  0.0788  1.4194
13113WAT     H253159   1.114   4.724   3.443 -1.9032  0.0152  0.0194
13113WAT    EPW53160   1.116   4.678   3.380  0.1985 -0.5985  0.3802
13114WAT      O53161   1.591   4.430   5.668  0.2818  0.0252 -0.4946
13114WAT     H153162   1.633   4.507   5.662 -0.8147  0.7371  0.5172
13114WAT     H253163   1.622   4.395   5.741 -0.5292  0.3671  0.0347
13114WAT    EPW53164   1.602   4.436   5.678 -0.2855  0.8189 -0.2890
13115WAT      O53165   1.385   3.996   4.405  0.2908  0.6869 -0.4762
13115WAT     H153166   1.334   3.942   4.450  3.4186  0.3618  3.2791
13115WAT     H253167   1.356   4.075   4.427 -0.1789  0.5106 -0.4590
13115WAT    EPW53168   1.373   4.000   4.415  0.2957 -0.0317 -0.0994
13116WAT      O53169   0.218   4.711   3.127 -0.2033 -0.1092  0.1623
13116WAT     H153170   0.283   4.766   3.106 -1.4254  1.4707  0.3358
13116WAT     H253171   0.163   4.761   3.172 -2.4281 -0.8944 -1.5127
13116WAT    EPW53172   0.219   4.727   3.130  0.6001 -0.0077  0.0672
13117WAT      O53173   1.770   2.803   4.020  0.0875  0.3606 -0.6568
13117WAT     H153174   1.766   2.890   4.023 -2.2630  0.3259 -0.7720
13117WAT     H253175   1.779   2.779   4.103  2.4415  0.6744 -0.7447
13117WAT    EPW53176   1.771   2.812   4.033  0.3151 -0.4580  0.3227
13118WAT      O53177   1.244   3.350   3.706 -0.0382  0.8799  0.6860
13118WAT     H153178   1.319   3.306   3.706 -0.2634  0.4013 -1.0494
13118WAT     H253179   1.184   3.290   3.728 -0.1994  0.5367 -0.5569
13118WAT    EPW53180   1.246   3.335   3.709 -0.5570 -0.1005  0.5954
13119WAT      O53181   0.678   4.232   3.415  0.4908 -0.5950 -0.4578
13119WAT     H153182   0.606   4.270   3.384  1.2387  1.0252 -0.2983
13119WAT     H253183   0.649   4.155   3.446 -1.7625  1.1878  2.3482
13119WAT    EPW53184   0.663   4.226   3.415  0.5267  0.1620  0.6222
13120WAT      O53185   1.786   3.373   3.330  0.8050  0.3098  0.2417
13120WAT     H153186   1.712   3.388   3.374  1.3553 -1.8235  2.0443
13120WAT     H253187   1.761   3.321   3.265  0.1984  2.4833 -1.3709
13120WAT    EPW53188   1.771   3.368   3.327  0.1716 -0.9025  0.1236
13121WAT      O53189   1.749   5.052   2.987 -0.3986 -0.7001  0.4213
13121WAT     H153190   1.735   5.135   3.010  0.7079 -0.3692 -0.0442
13121WAT     H253191   1.766   5.012   3.062 -0.5678 -0.4342  0.6043
13121WAT    EPW53192   1.749   5.059   3.001  0.1951  0.1209  0.2104
13122WAT      O53193   2.515   4.694   5.689  0.2608  0.1608 -0.3075
13122WAT     H153194   2.472   4.649   5.749 -1.2031  0.7528 -0.8690
13122WAT     H253195   2.476   4.672   5.614  0.0994  1.6257 -0.6976
13122WAT    EPW53196   2.503   4.684   5.687 -0.3083 -0.2822  0.6358
13123WAT      O53197   2.324   3.359   2.395 -0.5747 -0.1822 -0.5952
13123WAT     H153198   2.351   3.308   2.461 -2.3115  0.6897  0.8659
13123WAT     H253199   2.394   3.408   2.378 -0.0537 -0.4727  0.5736
13123WAT    EPW53200   2.339   3.358   2.402 -0.3813  0.6306  0.6031
13124WAT      O53201   2.276   4.511   3.208 -0.1642 -0.3058 -0.2956
13124WAT     H153202   2.262   4.426   3.218  0.8214 -0.2785  2.1646
13124WAT     H253203   2.359   4.522   3.234  0.7210  1.0575 -3.2927
13124WAT    EPW53204   2.286   4.500   3.214 -0.3185  0.1772 -0.2606
13125WAT      O53205   1.884   3.900   4.811 -0.3981  0.2459 -0.1773
13125WAT     H153206   1.906   3.953   4.877  0.9405  0.5682 -0.8507
13125WAT     H253207   1.949   3.911   4.753  0.1564 -2.4436 -0.1726
13125WAT    EPW53208   1.897   3.910   4.812 -0.3915  0.0587 -0.3644
13126WAT      O53209   0.329   4.496   3.937 -0.7112  0.2481 -0.1180
13126WAT     H153210   0.401   4.475   3.893 -0.7291  0.2395 -0.1429
13126WAT     H253211   0.352   4.485   4.021 -0.4654  0.9246 -0.0956
13126WAT    EPW53212   0.343   4.491   3.943  0.1956 -0.8924  0.6410
13127WAT      O53213   0.026   3.360   2.290  0.2156 -0.5463 -0.1089
13127WAT     H153214   0.067   3.320   2.355  2.2509 -0.7030 -1.3925
13127WAT     H253215   0.058   3.441   2.291  0.3451 -0.5779 -0.9677
13127WAT    EPW53216   0.037   3.366   2.300  0.3392 -0.1104  0.2596
13128WAT      O53217   2.449   3.333   2.888 -0.1385 -0.1414 -0.5343
13128WAT     H153218   2.468   3.266   2.835 -0.0663 -0.2320 -0.3930
13128WAT     H253219   2.438   3.400   2.833 -3.6171 -0.9381 -1.0151
13128WAT    EPW53220   2.450   3.333   2.872 -0.4328 -0.1602  0.2866
13129WAT      O53221   0.471   4.042   3.245  0.3501  0.3441  0.0470
13129WAT     H153222   0.494   4.029   3.328 -0.1346 -1.2529 -0.0239
13129WAT     H253223   0.421   3.972   3.227 -0.1093  1.0028 -1.3788
13129WAT    EPW53224   0.467   4.030   3.254 -0.1539 -0.4246  0.4557
13130WAT      O53225   0.825   4.963   3.701 -0.2505 -0.4190  0.2115
13130WAT     H153226   0.861   4.969   3.622  0.3554 -0.5602  0.4719
13130WAT     H253227   0.740   4.954   3.684 -0.0057 -1.7347 -0.4783
13130WAT    EPW53228   0.818   4.963   3.686 -0.0881 -1.0376 -0.4156
13131WAT      O53229   0.276   2.402   1.964  0.4885 -0.4726 -0.0641
13131WAT     H153230   0.324   2.411   2.036  0.4178  0.0634 -0.0849
13131WAT     H253231   0.336   2.396   1.900  0.5343  1.0411 -0.1915
13131WAT    EPW53232   0.292   2.402   1.965 -0.4168 -0.0774 -0.5214
13132WAT      O53233   0.225   5.090   3.719  0.1434 -0.2097 -0.2407
13132WAT     H153234   0.290   5.142   3.746 -0.5764  0.1399  0.8971
13132WAT     H253235   0.249   5.011   3.748  1.2543 -0.5770 -2.0003
13132WAT    EPW53236   0.239   5.086   3.728  0.0975  0.6435 -0.2758
13133WAT      O53237   1.119   4.320   4.271  0.3027  0.4334 -0.0720
13133WAT     H153238   1.180   4.382   4.278  0.2545  0.3820  1.1697
13133WAT     H253239   1.140   4.278   4.198  0.9320  1.2808 -0.3980
13133WAT    EPW53240   1.131   4.323   4.261  0.2489 -0.1152 -0.0445
13134WAT      O53241   2.843   4.417   3.831 -0.1399 -0.1173 -0.4914
13134WAT     H153242   2.865   4.497   3.858  0.2910 -0.2477 -0.4586
13134WAT     H253243   2.792   4.387   3.894 -0.6678  0.3025 -0.7097
13134WAT    EPW53244   2.839   4.425   3.844 -0.6207 -0.0570  0.2717
13135WAT      O53245   1.048   3.964   3.733 -0.2244  0.6267 -0.0201
13135WAT     H153246   1.115   3.963   3.677 -0.5806 -0.4825 -0.4525
13135WAT     H253247   1.078   3.920   3.802 -0.8860 -0.9584 -0.7046
13135WAT    EPW53248   1.062   3.957   3.735 -0.1472  1.0119  0.7151
13136WAT      O53249   2.449   4.172   5.515  0.3123  0.1868  0.2340
13136WAT     H153250   2.428   4.215   5.589  0.8098  1.7584 -0.4943
13136WAT     H253251   2.492   4.102   5.544 -1.9970 -0.8009  1.5610
13136WAT    EPW53252   2.452   4.168   5.530 -0.4595 -0.5680  0.5901
13137WAT      O53253   2.055   3.521   3.402  0.0395  0.0301  0.0005
13137WAT     H153254   2.009   3.449   3.387  1.5712 -0.7347 -1.4319
13137WAT     H253255   2.004   3.585   3.374 -1.1035 -0.5154  0.7378
13137WAT    EPW53256   2.041   3.520   3.396 -0.1159 -0.6387 -0.0703
13138WAT      O53257   7.069   6.812   3.755  0.0159  0.4356  0.2088
13138WAT     H153258   7.126   6.833   3.693  0.8002  0.5628  0.9550
13138WAT     H253259   7.069   6.725   3.754 -0.5866  0.4338 -0.5047
13138WAT    EPW53260   7.078   6.802   3.746  0.0737 -0.0831 -0.1096
13139WAT      O53261   3.077   6.938   5.788  0.2683 -0.1312 -0.2330
13139WAT     H153262   3.152   6.896   5.772  1.6530  2.4540 -1.1408
13139WAT     H253263   3.094   6.985   5.859 -0.2878  0.9141 -0.7688
13139WAT    EPW53264   3.090   6.939   5.796 -0.1926  0.1835  0.2224
13140WAT      O53265   2.174   3.239   2.886 -0.0706 -0.3860  0.3580
13140WAT     H153266   2.246   3.281   2.913  0.3155 -0.8460  0.0524
13140WAT     H253267   2.109   3.283   2.926  0.1855  1.4208 -1.0533
13140WAT    EPW53268   2.175   3.252   2.896  0.6052  0.1407  0.3375
13141WAT      O53269   0.710   3.333   3.058 -0.6258  0.1666  0.0381
13141WAT     H153270   0.750   3.384   2.999 -0.9616  0.3747 -0.0122
13141WAT     H253271   0.628   3.363   3.059 -0.3244  1.0041  1.5361
13141WAT    EPW53272   0.704   3.345   3.050 -0.6938 -0.3569 -0.0046
13142WAT      O53273   0.739   3.878   4.251  0.2826 -0.0693  0.3300
13142WAT     H153274   0.711   3.959   4.235  0.3997  0.1193  1.0559
13142WAT     H253275   0.766   3.850   4.173  0.0711  0.5232  0.0374
13142WAT    EPW53276   0.739   3.886   4.237  0.1733 -0.1669 -0.1211
13143WAT      O53277   1.853   4.612   5.354  0.4788  0.2688 -0.8118
13143WAT     H153278   1.772   4.600   5.323 -0.8034  0.7631  1.9541
13143WAT     H253279   1.845   4.685   5.402  2.4560  0.0969 -0.1421
13143WAT    EPW53280   1.840   4.621   5.357 -0.0731  0.1849 -0.5540
13144WAT      O53281   1.054   4.066   5.220  0.8481  0.7862 -0.1315
13144WAT     H153282   1.037   3.999   5.166 -0.9996  0.4165  0.8167
13144WAT     H253283   1.056   4.028   5.299  0.6051  1.7188  0.3308
13144WAT    EPW53284   1.052   4.050   5.223  0.0533 -0.5285  0.2857
13145WAT      O53285   1.141   3.418   4.125 -0.0709 -0.2235  0.3894
13145WAT     H153286   1.151   3.474   4.059 -0.6527 -0.8814 -0.2695
13145WAT     H253287   1.058   3.428   4.148  0.4769  1.0436  2.0085
13145WAT    EPW53288   1.130   3.427   4.119  0.2739 -0.4512 -0.3606
13146WAT      O53289   7.890   3.436   3.938  0.2643  0.0966  0.2230
13146WAT     H153290   7.946   3.417   3.874 -0.8867 -0.1924 -0.7301
13146WAT     H253291   7.821   3.387   3.920 -0.9157  1.5858  0.4548
13146WAT    EPW53292   7.888   3.426   3.926 -0.6063 -0.2590 -0.3435
13147WAT      O53293   0.024   3.607   3.118 -0.0235  0.3356  0.1094
13147WAT     H153294   0.004   3.666   3.179 -0.8456 -0.1326  0.3161
13147WAT     H253295   0.111   3.611   3.113 -0.0399  1.3661  0.3076
13147WAT    EPW53296   0.034   3.617   3.126 -0.7885 -0.4930  0.3387
13148WAT      O53297   1.187   4.244   4.801  0.8624  0.1638  0.1300
13148WAT     H153298   1.246   4.181   4.791  0.3735 -0.3751  0.5426
13148WAT     H253299   1.186   4.258   4.887 -0.1869 -0.4129  0.2275
13148WAT    EPW53300   1.196   4.237   4.812  0.3485 -0.5671 -0.0526
13149WAT      O53301   1.062   4.588   3.849  0.2212 -0.3179  0.5627
13149WAT     H153302   1.123   4.621   3.902  1.0779  0.5440 -0.9135
13149WAT     H253303   1.109   4.543   3.790 -0.5531  0.3514 -0.5915
13149WAT    EPW53304   1.078   4.586   3.848  0.4298  0.6150 -0.3254
13150WAT      O53305   2.412   4.971   4.661 -0.0684 -0.0883 -0.0658
13150WAT     H153306   2.421   5.053   4.689 -0.0993 -0.1282  0.0627
13150WAT     H253307   2.334   4.970   4.621  0.6192  0.3522 -1.5005
13150WAT    EPW53308   2.402   4.983   4.659  0.1276 -0.4068  0.7914
13151WAT      O53309   1.706   5.045   4.560  0.0900 -0.4017  0.1756
13151WAT     H153310   1.640   5.062   4.506  0.8022 -1.1151 -0.9727
13151WAT     H253311   1.669   5.047   4.639 -1.4546 -1.4235 -0.4631
13151WAT    EPW53312   1.691   5.048   4.563 -0.2853 -0.0215 -0.0066
13152WAT      O53313   0.855   4.236   3.190  0.0976  0.1081 -0.5711
13152WAT     H153314   0.782   4.220   3.146 -0.1854 -1.9361  0.5484
13152WAT     H253315   0.828   4.249   3.272  1.0113 -2.2364  0.1903
13152WAT    EPW53316   0.840   4.236   3.196 -0.2143 -0.6526  0.0703
13153WAT      O53317   1.500   4.714   4.219  0.5072 -0.3597 -0.2805
13153WAT     H153318   1.492   4.733   4.304  0.0396 -0.4160 -0.3051
13153WAT     H253319   1.514   4.791   4.181  1.2284 -0.3992 -0.0950
13153WAT    EPW53320   1.501   4.728   4.226  0.9749 -0.4069 -0.0930
13154WAT      O53321   0.599   3.966   3.512  0.6605 -0.1998 -0.7401
13154WAT     H153322   0.567   3.992   3.589 -0.7222 -0.3774 -1.2215
13154WAT     H253323   0.678   3.934   3.532  0.7889  0.7832  0.4204
13154WAT    EPW53324   0.606   3.965   3.526  0.1279  0.3069 -1.2663
13155WAT      O53325   0.952   3.565   2.931 -0.4432 -0.1021 -0.0153
13155WAT     H153326   0.994   3.489   2.937 -3.5107 -1.8891  1.3474
13155WAT     H253327   0.940   3.588   3.014 -3.3652 -0.5741 -0.1942
13155WAT    EPW53328   0.956   3.557   2.945 -0.2695 -1.3393  0.0206
13156WAT      O53329   0.700   5.793   3.325  0.6875 -0.0017 -0.3668
13156WAT     H153330   0.616   5.808   3.342  0.2708 -2.8482  0.6170
13156WAT     H253331   0.699   5.727   3.268  2.2423  0.1183 -0.5972
13156WAT    EPW53332   0.688   5.785   3.319  0.7339  0.2852 -0.5893
13157WAT      O53333   1.198   5.524   1.163 -0.4626  0.2322  0.1278
13157WAT     H153334   1.152   5.560   1.098 -0.8012 -0.1244  0.1705
13157WAT     H253335   1.162   5.558   1.235 -0.0581  0.6626  0.1324
13157WAT    EPW53336   1.186   5.535   1.164  1.0547  1.0496  0.1486
13158WAT      O53337   2.379   4.213   4.334  0.7853 -0.0338  0.5401
13158WAT     H153338   2.349   4.185   4.258 -2.2306  0.5824  1.3750
13158WAT     H253339   2.376   4.300   4.327 -0.1104  0.0354  1.5187
13158WAT    EPW53340   2.375   4.222   4.322  0.6740 -0.0492 -0.0081
13159WAT      O53341   7.851   5.183   3.676 -0.2052  0.0714  0.7531
13159WAT     H153342   7.826   5.261   3.646  1.5783  0.3252 -0.2463
13159WAT     H253343   7.789   5.129   3.648 -0.9304  0.9855  0.5588
13159WAT    EPW53344   7.838   5.187   3.667 -0.6834  0.2244 -0.4606
13160WAT      O53345   2.709   2.977   4.257 -0.1385  0.0990 -0.3117
13160WAT     H153346   2.753   3.010   4.325  1.1500  0.6016 -1.3450
13160WAT     H253347   2.720   3.038   4.195 -1.0671 -0.4705 -1.0546
13160WAT    EPW53348   2.717   2.991   4.258 -0.2071 -0.2063 -0.2507
13161WAT      O53349   1.345   3.977   3.687  0.2457 -0.1399  0.3700
13161WAT     H153350   1.340   4.056   3.649  0.9989  0.8099  2.1188
13161WAT     H253351   1.396   3.932   3.632 -1.6201 -0.0384 -1.5717
13161WAT    EPW53352   1.352   3.982   3.673 -0.1835  0.4556 -0.6845
13162WAT      O53353   0.350   5.129   3.373 -0.5695  0.4249  0.7886
13162WAT     H153354   0.408   5.071   3.403 -1.2493 -1.4909 -1.3097
13162WAT     H253355   0.395   5.176   3.315 -0.6165  0.3039  0.6537
13162WAT    EPW53356   0.365   5.127   3.369  0.4684 -0.1167 -0.4116
13163WAT      O53357   0.309   5.111   2.378  0.0115  0.6890  0.0098
13163WAT     H153358   0.321   5.192   2.408  0.3163  1.4773 -2.0676
13163WAT     H253359   0.238   5.118   2.327  0.4188 -0.1850 -0.7095
13163WAT    EPW53360   0.300   5.124   2.375 -0.1196 -0.2697 -0.8035
13164WAT      O53361   0.667   4.606   1.261 -0.1755 -0.3140  0.3480
13164WAT     H153362   0.588   4.633   1.237 -0.1492 -1.0572 -0.6081
13164WAT     H253363   0.702   4.677   1.300 -0.2606  0.9198 -1.6802
13164WAT    EPW53364   0.661   4.621   1.263  0.2633 -1.1055  0.3557
13165WAT      O53365   1.413   4.024   3.353  0.0445  0.4531 -0.1550
13165WAT     H153366   1.455   3.964   3.400 -0.9389 -1.2034 -1.2677
13165WAT     H253367   1.464   4.034   3.283 -0.7772 -0.7439 -0.9815
13165WAT    EPW53368   1.427   4.017   3.350  1.5197  0.0787  0.5798
13166WAT      O53369   7.826   5.696   0.225 -0.5558  0.7435  0.5041
13166WAT     H153370   7.865   5.668   0.298 -0.1374  0.3889  0.1507
13166WAT     H253371   7.743   5.706   0.249 -0.7422 -0.8399  0.6498
13166WAT    EPW53372   7.820   5.693   0.240  0.4112  0.1477 -0.2947
13167WAT      O53373   0.525   4.894   1.878 -0.0228 -0.2533 -0.1574
13167WAT     H153374   0.569   4.902   1.953  2.1134  0.8053 -1.4204
13167WAT     H253375   0.555   4.819   1.845  0.0514 -0.0531 -0.5524
13167WAT    EPW53376   0.536   4.884   1.884 -0.1402 -0.2490 -0.0484
13168WAT      O53377   7.735   4.687   0.689 -0.2032  0.3534 -0.6967
13168WAT     H153378   7.717   4.704   0.606  0.5508  0.7632 -0.7903
13168WAT     H253379   7.661   4.654   0.721  0.1448 -1.9958 -2.1213
13168WAT    EPW53380   7.722   4.685   0.682  0.0027  0.5671  0.1395
13169WAT      O53381   0.865   5.495   1.894  0.6486  0.0101  0.1214
13169WAT     H153382   0.829   5.491   1.973 -3.3737 -0.5209 -1.4778
13169WAT     H253383   0.891   5.413   1.880 -0.3852 -0.3648  0.2670
13169WAT    EPW53384   0.863   5.482   1.903  0.4706  0.3836  0.4994
13170WAT      O53385   7.571   4.555   3.454 -0.2396 -0.1531  0.4641
13170WAT     H153386   7.637   4.517   3.410 -1.1510 -0.4403 -0.7106
13170WAT     H253387   7.598   4.553   3.537  0.0894 -2.7126  0.3724
13170WAT    EPW53388   7.585   4.549   3.460  1.2566 -0.2608 -0.4185
13171WAT      O53389   0.783   3.880   3.069  0.4907 -0.0342 -0.3378
13171WAT     H153390   0.835   3.892   2.999  0.4714 -0.7835 -0.4870
13171WAT     H253391   0.828   3.823   3.118 -0.4609 -1.1945 -0.7692
13171WAT    EPW53392   0.798   3.874   3.066  0.1135 -0.3844 -0.5794
13172WAT      O53393   6.325   3.755   1.747  0.0351  0.0549  0.6144
13172WAT     H153394   6.241   3.766   1.767 -0.3166 -1.5949  0.1433
13172WAT     H253395   6.361   3.732   1.823  0.1160  0.9191  0.8520
13172WAT    EPW53396   6.318   3.753   1.761 -0.5572 -1.1249  0.1542
13173WAT      O53397   7.499   3.790   0.628 -0.4255  0.3861 -0.8493
13173WAT     H153398   7.553   3.824   0.687 -1.2954  1.4216 -0.6301
13173WAT     H253399   7.461   3.859   0.592 -0.9678 -0.2936 -1.6189
13173WAT    EPW53400   7.501   3.805   0.631 -0.3875 -0.0890  0.0215
13174WAT      O53401   7.993   4.089   1.337  0.1443 -0.3194  0.2873
13174WAT     H153402   7.946   4.137   1.282 -2.4640 -2.1679  0.7065
13174WAT     H253403   8.072   4.084   1.299 -0.2544  2.0466 -1.0029
13174WAT    EPW53404   7.998   4.095   1.323 -0.0935 -0.0789 -0.6804
13175WAT      O53405   0.169   5.840   1.601  0.8845 -0.4628 -0.4062
13175WAT     H153406   0.176   5.767   1.648  2.6608 -0.3682 -0.4635
13175WAT     H253407   0.160   5.811   1.520  1.4854 -0.6398 -0.4165
13175WAT    EPW53408   0.169   5.825   1.596 -0.4419 -0.5714  0.0514
13176WAT      O53409   0.253   6.014   2.783  0.2602 -0.2786  0.5778
13176WAT     H153410   0.245   6.090   2.824 -0.3149  0.2783 -0.5125
13176WAT     H253411   0.261   5.956   2.847 -2.1614  0.3578  1.5398
13176WAT    EPW53412   0.253   6.017   2.798 -0.5063 -0.1496 -0.5201
13177WAT      O53413   8.009   3.452   3.372 -0.8353 -0.2270 -0.1770
13177WAT     H153414   7.994   3.378   3.330 -1.1456  0.4363 -1.2744
13177WAT     H253415   7.999   3.513   3.310  1.1679  0.6238  0.2794
13177WAT    EPW53416   8.005   3.450   3.357 -0.6843 -1.0779 -0.3788
13178WAT      O53417   6.609   5.840   1.713  0.1423 -0.8465 -0.6830
13178WAT     H153418   6.558   5.909   1.734  1.7822  0.6955 -1.4984
13178WAT     H253419   6.624   5.802   1.790 -0.8488 -0.3391 -0.2139
13178WAT    EPW53420   6.603   5.845   1.728  0.3400 -0.5721 -0.0959
13179WAT      O53421   6.955   4.829   1.978 -0.1215 -0.0892 -0.2686
13179WAT     H153422   7.014   4.872   1.929 -0.7486  0.3664 -0.6432
13179WAT     H253423   6.999   4.809   2.050  0.2330  1.0813 -0.1424
13179WAT    EPW53424   6.970   4.833   1.981 -1.0484 -0.4754  0.0964
13180WAT      O53425   0.972   5.218   0.945  0.7996 -0.8101  0.6132
13180WAT     H153426   0.947   5.205   1.028  0.7950 -0.4007  0.6808
13180WAT     H253427   1.058   5.230   0.951  0.9876 -2.0053  0.4063
13180WAT    EPW53428   0.981   5.218   0.958  0.1345 -0.0930  0.8084
13181WAT      O53429   6.980   4.600   1.643 -0.4852  0.0286 -0.2951
13181WAT     H153430   6.981   4.535   1.701 -0.9648  0.3278  0.0453
13181WAT     H253431   6.901   4.634   1.650  0.0662  1.2590  0.1971
13181WAT    EPW53432   6.969   4.595   1.652 -0.5507 -0.4560 -0.2893
13182WAT      O53433   1.993   4.244   2.218  0.1834  0.6315 -0.2114
13182WAT     H153434   1.919   4.217   2.182  1.1042 -2.5408 -0.0005
13182WAT     H253435   1.998   4.328   2.194 -2.9933  0.7293 -0.9195
13182WAT    EPW53436   1.983   4.253   2.209  0.3953 -0.7401 -0.2922
13183WAT      O53437   8.028   6.182   0.398 -0.2065 -0.6340 -0.1534
13183WAT     H153438   7.949   6.169   0.432 -0.8586 -0.5513 -1.5780
13183WAT     H253439   8.053   6.102   0.373  0.6519 -0.8414  1.2324
13183WAT    EPW53440   8.020   6.168   0.400  0.0861 -0.5682  0.2426
13184WAT      O53441   7.758   3.238   0.711 -0.5156  0.9258  0.0095
13184WAT     H153442   7.722   3.159   0.712 -1.1046  1.1685 -0.7855
13184WAT     H253443   7.704   3.285   0.761 -0.0106  0.7655  0.7111
13184WAT    EPW53444   7.744   3.234   0.718  0.0187 -0.6397 -0.3368
13185WAT      O53445   0.250   4.009   2.394  0.3984 -0.2177  0.2598
13185WAT     H153446   0.267   3.961   2.465 -1.0818  0.5301  1.1887
13185WAT     H253447   0.163   4.003   2.386  0.7057 -2.4462 -3.1199
13185WAT    EPW53448   0.240   4.001   2.403 -0.2734 -0.3989  0.1239
13186WAT      O53449   0.989   5.873   3.037 -0.2533 -0.2834 -0.1810
13186WAT     H153450   1.051   5.833   3.084  0.5271  0.4907 -0.5343
13186WAT     H253451   0.947   5.922   3.096  0.8133  0.7945 -0.2797
13186WAT    EPW53452   0.992   5.874   3.052  0.0278  0.4479 -0.8608
13187WAT      O53453   6.441   3.644   1.971 -0.0121 -0.3034 -0.3355
13187WAT     H153454   6.396   3.666   2.043  0.4675  0.0129 -0.1162
13187WAT     H253455   6.470   3.564   1.988  1.7291  0.4682  0.7059
13187WAT    EPW53456   6.439   3.636   1.984  0.8694  0.6208 -0.0572
13188WAT      O53457   1.016   5.340   1.594  0.3156  0.0621  0.0621
13188WAT     H153458   0.962   5.277   1.620 -0.5269  1.1312  0.9948
13188WAT     H253459   0.963   5.404   1.568  1.0457  1.4781  1.8009
13188WAT    EPW53460   1.000   5.340   1.594  0.3042 -0.0366  0.9226
13189WAT      O53461   0.699   2.853   2.057 -0.4472  0.0524  0.1052
13189WAT     H153462   0.624   2.821   2.028 -0.3834  0.2523 -0.2904
13189WAT     H253463   0.677   2.896   2.130 -0.4872 -1.1400  0.8185
13189WAT    EPW53464   0.685   2.855   2.064  0.0452 -0.3468  0.5497
13190WAT      O53465   1.312   2.288   2.975  0.2325  0.6328 -0.2503
13190WAT     H153466   1.269   2.216   2.999  1.3451 -0.1074 -0.4344
13190WAT     H253467   1.257   2.326   2.918  0.1459 -0.7066 -1.0898
13190WAT    EPW53468   1.297   2.283   2.970  0.6941 -1.1540  1.0532
13191WAT      O53469   7.572   4.645   3.051  0.1539 -0.5254  0.0607
13191WAT     H153470   7.602   4.685   3.122  1.2582 -1.0024 -0.1082
13191WAT     H253471   7.485   4.647   3.060  0.1456  1.8821  0.0613
13191WAT    EPW53472   7.564   4.651   3.063  0.3503 -0.7485 -0.0084
13192WAT      O53473   0.630   5.012   2.656  0.2109 -0.4735 -0.0063
13192WAT     H153474   0.671   4.962   2.596 -0.4213 -1.9100  0.7149
13192WAT     H253475   0.547   4.986   2.652 -0.0997  0.3734  0.5680
13192WAT    EPW53476   0.624   5.001   2.646  0.3017  0.4821  0.4806
13193WAT      O53477   7.888   2.908   1.811 -0.7300 -0.5809  0.5178
13193WAT     H153478   7.939   2.850   1.852  0.2871 -0.2408 -0.2098
13193WAT     H253479   7.941   2.976   1.799 -2.2824  1.1198  2.6230
13193WAT    EPW53480   7.903   2.909   1.815  0.7876 -0.7496 -0.1452
13194WAT      O53481   0.468   2.721   2.447 -0.4643 -0.2315  0.6128
13194WAT     H153482   0.527   2.738   2.509  0.2765  0.1450 -0.1843
13194WAT     H253483   0.409   2.672   2.489  1.0927 -1.7951  1.0893
13194WAT    EPW53484   0.468   2.717   2.462  0.0351 -0.1173 -0.0550
13195WAT      O53485   0.569   6.029   1.591 -0.0549 -1.1391  0.0912
13195WAT     H153486   0.619   6.098   1.571 -1.1966 -0.2247  0.2539
13195WAT     H253487   0.488   6.059   1.578 -0.7317 -1.5543  2.7407
13195WAT    EPW53488   0.564   6.044   1.586 -0.0371  0.0274 -0.0883
13196WAT      O53489   1.858   5.654   1.942 -0.3792  1.0614 -0.8958
13196WAT     H153490   1.823   5.723   1.981 -1.7003  0.0954 -0.2822
13196WAT     H253491   1.789   5.613   1.906  0.4625  0.4746 -1.9191
13196WAT    EPW53492   1.842   5.658   1.942  0.8853  0.2100  0.2267
13197WAT      O53493   7.709   3.584   1.679 -0.3442 -0.2798 -0.5114
13197WAT     H153494   7.713   3.520   1.738 -2.7215  0.5398  0.6424
13197WAT     H253495   7.698   3.656   1.727  2.3150  1.1208 -1.7599
13197WAT    EPW53496   7.708   3.585   1.695 -0.2248  0.4079  0.2508
13198WAT      O53497   7.200   3.371   1.805 -0.3323 -0.0028  0.1414
13198WAT     H153498   7.262   3.383   1.865  1.1764  1.1253 -1.5111
13198WAT     H253499   7.209   3.288   1.781  0.8938  0.2505 -0.3680
13198WAT    EPW53500   7.210   3.361   1.810  0.1492 -0.0908 -0.2039
13199WAT      O53501   0.835   3.679   1.710  0.1251 -0.4438 -0.1354
13199WAT     H153502   0.904   3.670   1.763 -0.9462  0.0356  1.4180
13199WAT     H253503   0.769   3.644   1.756 -0.7687 -0.3900 -1.3381
13199WAT    EPW53504   0.835   3.673   1.725  0.6175 -0.0523 -0.5360
13200WAT      O53505   0.392   3.894   2.199  0.2176 -0.5495  0.1895
13200WAT     H153506   0.351   3.928   2.268  1.1000  0.4047  0.2605
13200WAT     H253507   0.332   3.895   2.136 -0.5296 -1.2237  0.8633
13200WAT    EPW53508   0.377   3.899   2.200  0.1986  0.0461 -0.3076
13201WAT      O53509   7.506   5.037   0.796 -0.1226  0.4350 -0.2542
13201WAT     H153510   7.484   4.963   0.837  0.6869  0.1310 -0.3560
13201WAT     H253511   7.430   5.079   0.788 -0.9501 -1.2614 -1.9660
13201WAT    EPW53512   7.491   5.032   0.801  0.5235  0.0157  0.0087
13202WAT      O53513   7.938   4.056   1.614 -0.1716 -0.2868  0.5113
13202WAT     H153514   7.956   4.044   1.529 -2.5978  0.3508 -0.1835
13202WAT     H253515   7.963   3.981   1.651 -0.0458 -1.0112 -0.9609
13202WAT    EPW53516   7.944   4.043   1.607 -0.4129  0.3862 -0.1993
13203WAT      O53517   0.480   4.696   1.594  0.1971 -0.4735 -0.1761
13203WAT     H153518   0.452   4.641   1.532 -0.7257 -1.2163  0.8705
13203WAT     H253519   0.416   4.757   1.596 -1.2914 -1.9832  1.9753
13203WAT    EPW53520   0.466   4.697   1.585  0.0185  0.2856 -1.1236
13204WAT      O53521   0.762   3.370   3.642 -0.1040 -0.0088 -0.5470
13204WAT     H153522   0.790   3.365   3.559  0.9258  0.1137 -0.2177
13204WAT     H253523   0.690   3.320   3.642  0.6885 -1.1996 -1.1714
13204WAT    EPW53524   0.755   3.362   3.630  0.7822 -0.0299  0.1070
13205WAT      O53525   7.027   6.772   3.106  0.0766 -0.9620  0.6127
13205WAT     H153526   7.048   6.763   3.190 -1.6835 -0.6719  1.1229
13205WAT     H253527   7.043   6.694   3.072  1.6753 -0.8269  0.9906
13205WAT    EPW53528   7.032   6.759   3.113  0.7399 -0.1712  0.6826
13206WAT      O53529   7.772   4.464   2.737 -0.4322  0.6747 -0.1294
13206WAT     H153530   7.780   4.430   2.817  0.0676 -2.4065 -1.3702
13206WAT     H253531   7.688   4.486   2.731 -1.2579 -2.1204  0.1850
13206WAT    EPW53532   7.761   4.462   2.748  0.0894 -0.2533 -1.5162
13207WAT      O53533   7.352   4.169   1.068  0.2662 -0.2649 -0.4472
13207WAT     H153534   7.293   4.106   1.078 -0.4389 -0.0421 -2.6568
13207WAT     H253535   7.427   4.132   1.094 -0.6726 -0.7694  1.7423
13207WAT    EPW53536   7.355   4.155   1.073  0.0982  0.3913 -0.2888
13208WAT      O53537   7.796   5.014   2.992  0.4209  0.4070 -0.0093
13208WAT     H153538   7.827   5.054   2.920  2.6576 -1.0119  0.0657
13208WAT     H253539   7.754   4.944   2.960  0.6965  0.2237  0.0274
13208WAT    EPW53540   7.794   5.010   2.976  0.4098  0.2916  1.0391
13209WAT      O53541   8.000   6.252   1.658 -0.0024  0.2286 -0.2929
13209WAT     H153542   8.051   6.295   1.714  0.3213 -0.9346  0.3458
13209WAT     H253543   8.055   6.224   1.597  0.6123 -2.6746  1.3715
13209WAT    EPW53544   8.016   6.254   1.657  0.4405 -0.1553 -0.3771
13210WAT      O53545   0.051   3.290   0.850  0.2459  0.5530 -0.4557
13210WAT     H153546   0.076   3.227   0.904  0.5448 -0.0846 -1.3074
13210WAT     H253547   0.112   3.352   0.862 -0.7409  1.2685  1.2980
13210WAT    EPW53548   0.064   3.290   0.860 -0.3266  0.0590 -0.1418
13211WAT      O53549   7.204   4.688   2.775  0.6832  0.1463 -0.0873
13211WAT     H153550   7.255   4.730   2.718 -0.3116  0.9762 -0.4122
13211WAT     H253551   7.139   4.745   2.790  1.1202  0.1168  2.2199
13211WAT    EPW53552   7.202   4.702   2.769 -0.1226 -0.5008  0.0914
13212WAT      O53553   1.305   5.356   2.078 -0.0493  0.1678 -0.2721
13212WAT     H153554   1.249   5.422   2.069 -0.4812 -0.1866 -0.2205
13212WAT     H253555   1.325   5.335   1.995 -0.0402  0.2570 -0.2920
13212WAT    EPW53556   1.300   5.363   2.064 -0.8212  0.5573  0.3388
13213WAT      O53557   0.857   2.702   2.489  0.2411  0.1866 -0.5387
13213WAT     H153558   0.904   2.634   2.515 -1.2806 -0.8299 -0.3280
13213WAT     H253559   0.862   2.698   2.402  2.7642  1.7488 -0.5520
13213WAT    EPW53560   0.864   2.691   2.480  0.9674 -0.1631 -0.3524
13214WAT      O53561   6.532   5.711   0.436 -0.5043  0.4863  0.7433
13214WAT     H153562   6.464   5.689   0.485 -0.2268  0.7501  1.2568
13214WAT     H253563   6.573   5.635   0.422 -2.2851 -0.1420 -1.7794
13214WAT    EPW53564   6.528   5.696   0.441  0.5936  0.5255  0.0308
13215WAT      O53565   7.233   3.292   2.553 -0.0356 -0.1630 -0.4114
13215WAT     H153566   7.152   3.277   2.581  0.4603  0.5337  1.5268
13215WAT     H253567   7.255   3.366   2.592  1.2942  0.0714 -1.5101
13215WAT    EPW53568   7.224   3.300   2.563 -0.7366  0.6264 -0.0295
13216WAT      O53569   7.936   5.049   3.249  0.5265  0.2803 -0.7844
13216WAT     H153570   7.914   5.061   3.165  0.8108  0.9102 -0.7716
13216WAT     H253571   7.859   5.052   3.290  0.3554 -0.3207 -1.0510
13216WAT    EPW53572   7.921   5.051   3.243 -0.2254 -0.7391 -0.3293
13217WAT      O53573   0.217   4.687   4.235 -0.0621  0.0377 -0.0022
13217WAT     H153574   0.145   4.695   4.186 -0.0865 -0.6871 -0.0938
13217WAT     H253575   0.199   4.735   4.305 -1.3123 -1.4256  0.7323
13217WAT    EPW53576   0.204   4.695   4.238 -0.6799  0.3303  0.8478
13218WAT      O53577   7.882   4.424   1.935 -0.3481 -0.3801 -0.4997
13218WAT     H153578   7.946   4.481   1.950  1.6495 -2.0117 -2.2202
13218WAT     H253579   7.885   4.412   1.848 -1.2774 -2.4194 -0.3146
13218WAT    EPW53580   7.892   4.431   1.924  0.2877  0.2146  0.5697
13219WAT      O53581   7.813   5.293   1.840 -0.0760  0.4100 -0.1597
13219WAT     H153582   7.816   5.342   1.768  1.5883 -0.3584 -0.6605
13219WAT     H253583   7.843   5.215   1.813 -1.6444 -0.6033  0.8514
13219WAT    EPW53584   7.818   5.288   1.825  0.6256 -0.5534 -0.4809
13220WAT      O53585   1.485   4.868   1.295  0.6711  0.2149  0.3909
13220WAT     H153586   1.526   4.820   1.354  0.6384 -0.5445 -0.1947
13220WAT     H253587   1.438   4.810   1.250  0.0252  0.8917  0.1692
13220WAT    EPW53588   1.484   4.853   1.297 -0.0749  0.2067 -0.0195
13221WAT      O53589   7.676   5.268   1.554 -0.2230 -0.4642 -0.2653
13221WAT     H153590   7.614   5.279   1.494  0.6223  0.5801 -0.9892
13221WAT     H253591   7.656   5.192   1.590 -1.0806 -0.8525 -1.4830
13221WAT    EPW53592   7.664   5.259   1.550 -0.5794 -1.2232  1.1200
13222WAT      O53593   6.891   4.051   0.418 -0.3376  0.2085 -0.1813
13222WAT     H153594   6.905   4.073   0.335 -1.4693  0.4105 -0.3285
13222WAT     H253595   6.883   4.127   0.459  0.0631  0.1077  0.0944
13222WAT    EPW53596   6.892   4.065   0.412 -0.1019  0.4184  0.0235
13223WAT      O53597   7.968   5.697   1.963 -0.0253  0.1496 -0.4492
13223WAT     H153598   8.038   5.647   1.972 -0.2895  0.0888  2.4295
13223WAT     H253599   7.999   5.771   1.930  1.6777  0.4909  1.6598
13223WAT    EPW53600   7.983   5.701   1.960 -0.3685  0.4921  0.2855
13224WAT      O53601   0.350   3.632   2.035  0.5976 -0.4882  0.6136
13224WAT     H153602   0.349   3.584   1.962  0.5236 -0.9871  0.9392
13224WAT     H253603   0.382   3.578   2.095 -0.8741 -0.6334  1.3138
13224WAT    EPW53604   0.354   3.617   2.033  0.2745  0.9394 -0.3848
13225WAT      O53605   8.080   5.041   3.540 -0.2849  0.0944  0.6112
13225WAT     H153606   8.158   5.063   3.574  0.0730 -1.6858  1.0514
13225WAT     H253607   8.023   5.074   3.596  0.1776  0.6151  0.7860
13225WAT    EPW53608   8.083   5.049   3.553 -0.0107 -0.1457  0.4817
13226WAT      O53609   0.592   4.404   0.862 -0.5025 -0.0986 -0.3200
13226WAT     H153610   0.626   4.443   0.792 -0.2741  1.1471  0.4509
13226WAT     H253611   0.644   4.430   0.927 -0.9483 -0.9043  0.3782
13226WAT    EPW53612   0.604   4.413   0.861 -0.0788  1.4415 -0.9273
13227WAT      O53613   1.274   3.238   3.301 -0.1938  0.5230  0.1036
13227WAT     H153614   1.278   3.197   3.224  0.1231 -0.7073  0.7457
13227WAT     H253615   1.198   3.211   3.334  0.3044 -0.0593  0.8015
13227WAT    EPW53616   1.263   3.228   3.294  0.3654 -0.1902  1.0333
13228WAT      O53617   0.563   3.812   2.908 -0.2432  0.4108 -0.5276
13228WAT     H153618   0.636   3.816   2.955 -0.2293 -0.5874 -0.4360
13228WAT     H253619   0.538   3.895   2.900  1.7633  0.9467 -1.8904
13228WAT    EPW53620   0.570   3.825   2.913  0.1831  0.8066  0.2374
13229WAT      O53621   0.821   4.763   0.410 -0.0755 -0.2632  0.4395
13229WAT     H153622   0.894   4.767   0.458  0.9526  1.7625 -1.0868
13229WAT     H253623   0.842   4.710   0.344  0.1056  0.4442 -0.0855
13229WAT    EPW53624   0.835   4.756   0.408  0.0047  0.2936  0.4449
13230WAT      O53625   7.531   3.638   1.074 -0.4305 -0.5412  0.1672
13230WAT     H153626   7.447   3.645   1.050 -0.5693 -2.4130 -0.1075
13230WAT     H253627   7.572   3.695   1.022 -1.5776  0.8560  0.7276
13230WAT    EPW53628   7.525   3.647   1.063 -0.2333  0.1046 -1.1171
13231WAT      O53629   0.165   4.734   2.472  0.0706  0.0919 -0.0418
13231WAT     H153630   0.234   4.681   2.463  0.7765  0.7450  1.3534
13231WAT     H253631   0.101   4.680   2.498  0.7056 -0.1347  1.0847
13231WAT    EPW53632   0.165   4.718   2.474  0.6970 -0.1633 -0.2096
13232WAT      O53633   0.325   3.217   2.169 -1.0213 -0.1049  0.1703
13232WAT     H153634   0.319   3.135   2.198 -2.5220  0.1767  0.7479
13232WAT     H253635   0.255   3.227   2.118 -0.3587  0.5480 -0.6528
13232WAT    EPW53636   0.314   3.206   2.166  0.1639 -0.4348  0.4320
13233WAT      O53637   7.456   4.951   1.424 -0.3667 -0.0901  0.5503
13233WAT     H153638   7.493   4.875   1.403 -0.2389 -0.0999  0.8082
13233WAT     H253639   7.377   4.928   1.454 -1.2795  0.0439 -1.5935
13233WAT    EPW53640   7.450   4.937   1.426  0.5547 -0.0103  0.5844
13234WAT      O53641   0.527   3.998   3.815  0.6246  0.0325 -0.1238
13234WAT     H153642   0.514   3.912   3.818  0.8570  0.0298  1.4833
13234WAT     H253643   0.574   4.015   3.886  1.1729  1.4066 -0.7678
13234WAT    EPW53644   0.532   3.988   3.826  0.2607  0.1293 -0.2602
13235WAT      O53645   7.727   4.161   1.843 -1.0013  0.2581 -0.4865
13235WAT     H153646   7.783   4.216   1.804 -1.0833  0.2643 -0.5955
13235WAT     H253647   7.682   4.127   1.777  0.5746 -1.6711 -0.6389
13235WAT    EPW53648   7.729   4.164   1.827 -0.1682 -0.0770  0.0866
13236WAT      O53649   7.160   5.569   2.879  0.0800  0.2947 -0.0199
13236WAT     H153650   7.144   5.631   2.820 -1.3906 -0.6890 -0.6970
13236WAT     H253651   7.082   5.533   2.894  0.4419  0.2649  2.2972
13236WAT    EPW53652   7.146   5.573   2.873  0.4093  0.2632 -0.3087
13237WAT      O53653   2.554   2.418   2.074  0.0811 -0.2166 -0.3347
13237WAT     H153654   2.504   2.460   2.016  0.9931  0.2294 -0.8319
13237WAT     H253655   2.628   2.464   2.074 -0.4061  0.7464  2.3869
13237WAT    EPW53656   2.558   2.431   2.065  0.2108 -0.1202  0.4032
13238WAT      O53657   7.401   5.203   3.029 -0.6774 -0.4879 -0.3035
13238WAT     H153658   7.418   5.176   2.947 -0.2073 -1.3606  0.0692
13238WAT     H253659   7.422   5.134   3.078  1.5363  0.8686  0.8007
13238WAT    EPW53660   7.406   5.189   3.024  0.2878 -0.5288 -0.3859
13239WAT      O53661   7.883   5.119   1.284  0.3948 -0.0504 -0.0527
13239WAT     H153662   7.939   5.127   1.218  0.9044  2.3735  0.5807
13239WAT     H253663   7.934   5.109   1.354 -0.1290 -1.9690  0.1136
13239WAT    EPW53664   7.899   5.119   1.284  0.4775 -0.4283  0.0376
13240WAT      O53665   8.041   4.720   0.905  0.0155  0.3541  0.0671
13240WAT     H153666   8.111   4.669   0.896 -0.7421 -1.0351  1.7026
13240WAT     H253667   8.047   4.750   0.987 -1.1144  0.5190  0.1052
13240WAT    EPW53668   8.052   4.717   0.916  0.1049 -0.1192 -0.3045
13241WAT      O53669   7.546   4.403   4.054  0.2055  0.0617 -0.1278
13241WAT     H153670   7.472   4.403   4.008  1.4316 -0.1278 -2.2213
13241WAT     H253671   7.521   4.429   4.133 -2.1084 -0.1386 -0.7297
13241WAT    EPW53672   7.531   4.407   4.059 -0.0738 -0.3839 -0.7617
13242WAT      O53673   2.105   3.625   1.984  0.3329 -0.3624 -0.1636
13242WAT     H153674   2.085   3.545   1.954  0.0267 -0.3053 -0.1164
13242WAT     H253675   2.164   3.654   1.927  1.1480 -0.9866  0.3237
13242WAT    EPW53676   2.111   3.617   1.971  0.4032 -0.5522 -0.1626
13243WAT      O53677   7.293   5.598   3.153 -0.1286  0.1550 -0.2444
13243WAT     H153678   7.366   5.554   3.134  1.2029  2.3647 -0.5404
13243WAT     H253679   7.245   5.591   3.080 -0.0467 -0.9107 -0.2129
13243WAT    EPW53680   7.296   5.591   3.139 -0.7321 -0.2659  0.0100
13244WAT      O53681   7.513   4.321   2.000  0.4661 -0.3409 -0.0595
13244WAT     H153682   7.561   4.383   2.037  0.2196 -0.7104  0.8926
13244WAT     H253683   7.568   4.285   1.942  0.8583  0.2263 -0.0493
13244WAT    EPW53684   7.528   4.325   1.997  0.3104 -0.7618 -0.1932
13245WAT      O53685   6.611   4.659   1.031  0.2064 -0.4225 -0.0779
13245WAT     H153686   6.551   4.673   0.970  0.6703  0.9269 -0.2455
13245WAT     H253687   6.650   4.736   1.041  1.5496 -1.1183  0.4252
13245WAT    EPW53688   6.608   4.672   1.024 -0.1536  0.1258  0.1435
13246WAT      O53689   0.327   4.929   1.543 -0.5174 -0.5306  0.4795
13246WAT     H153690   0.272   4.931   1.475 -1.5108 -0.2438  1.2637
13246WAT     H253691   0.298   4.993   1.595  2.0172  1.2754 -0.1246
13246WAT    EPW53692   0.315   4.939   1.540 -0.3728  0.1638 -0.0782
13247WAT      O53693   7.573   5.551   2.966  0.0274  0.4311 -0.0164
13247WAT     H153694   7.625   5.567   3.034 -0.0509 -0.8794  0.3793
13247WAT     H253695   7.623   5.502   2.914  0.3520  2.0552 -1.3065
13247WAT    EPW53696   7.588   5.546   2.969 -0.9330 -0.2352 -1.0366
13248WAT      O53697   7.568   5.278   1.977 -0.0676 -0.6182  0.2477
13248WAT     H153698   7.634   5.283   1.920  0.2116  1.5395  0.6830
13248WAT     H253699   7.497   5.290   1.927  0.0376 -0.5413  0.1188
13248WAT    EPW53700   7.567   5.280   1.961  0.1750 -0.3331 -0.2630
13249WAT      O53701   0.262   4.016   1.980 -0.1114  0.0730 -0.2386
13249WAT     H153702   0.179   4.022   2.006 -0.2801  2.3375 -1.0752
13249WAT     H253703   0.292   4.098   1.987  2.0858 -0.6930  0.0701
13249WAT    EPW53704   0.254   4.029   1.985 -0.4678 -0.4856 -0.2225
13250WAT      O53705   7.439   3.770   1.959 -0.2756 -0.5638  0.4866
13250WAT     H153706   7.433   3.855   1.975  1.0018 -0.0977 -1.1666
13250WAT     H253707   7.375   3.755   1.902  0.4802 -0.3146 -0.4654
13250WAT    EPW53708   7.429   3.780   1.953 -0.2997 -0.4881  0.1382
13251WAT      O53709   7.275   3.900   1.133  0.0729 -0.0221  0.2059
13251WAT     H153710   7.323   3.843   1.087 -0.0102 -0.5123  0.7113
13251WAT     H253711   7.195   3.888   1.101 -0.0743 -0.7268  0.8132
13251WAT    EPW53712   7.271   3.890   1.121  0.4761  0.1378 -0.5887
13252WAT      O53713   0.685   4.636   3.196 -0.0758 -0.1091  0.1868
13252WAT     H153714   0.649   4.716   3.201  1.1049  0.3775  2.3414
13252WAT     H253715   0.721   4.625   3.274  2.1092 -1.6583 -0.9235
13252WAT    EPW53716   0.685   4.647   3.208 -0.4399 -0.0087  0.0301
13253WAT      O53717   1.273   2.190   4.139  0.0620 -0.1650  0.5949
13253WAT     H153718   1.354   2.214   4.115 -0.4557  0.2143 -0.9176
13253WAT     H253719   1.287   2.123   4.192  1.3750 -0.4974 -0.1017
13253WAT    EPW53720   1.287   2.184   4.143  0.2646  0.3296 -0.5333
13254WAT      O53721   0.709   4.664   1.843  0.2227 -0.4270 -0.0064
13254WAT     H153722   0.785   4.685   1.880 -0.0664 -0.2799  0.5115
13254WAT     H253723   0.727   4.666   1.757  0.2376  1.8567 -0.0053
13254WAT    EPW53724   0.723   4.667   1.836 -0.1271  0.2047 -0.5097
13255WAT      O53725   8.060   4.853   2.268  0.1542 -0.0364  0.0908
13255WAT     H153726   8.120   4.823   2.324  0.5338  0.2312 -0.1649
13255WAT     H253727   8.087   4.822   2.191  1.0984  1.7242 -0.3350
13255WAT    EPW53728   8.073   4.844   2.265  0.9886  0.5206  0.3856
13256WAT      O53729   1.566   4.223   2.446 -0.6867  0.0956 -1.1623
13256WAT     H153730   1.486   4.229   2.480 -1.1212  0.4029 -2.1841
13256WAT     H253731   1.552   4.187   2.367  0.3878 -1.5575 -0.6480
13256WAT    EPW53732   1.552   4.219   2.439  0.1860 -0.2650 -0.6480
13257WAT      O53733   0.132   3.826   1.477 -0.2380 -0.2070 -0.3698
13257WAT     H153734   0.167   3.899   1.511 -0.0228 -0.0152 -0.9854
13257WAT     H253735   0.079   3.798   1.540 -1.0819  1.0199 -0.4940
13257WAT    EPW53736   0.130   3.833   1.491 -0.8199 -0.3216  0.5157
13258WAT      O53737   0.906   4.676   2.374 -0.8952 -0.5154  0.4486
13258WAT     H153738   0.829   4.710   2.397 -0.7558 -0.5704  0.9924
13258WAT     H253739   0.951   4.674   2.448 -0.1948 -0.0427  0.0547
13258WAT    EPW53740   0.901   4.681   2.388  0.5064  0.8291 -0.2187
13259WAT      O53741   0.461   5.329   3.200 -0.3925 -0.1594 -0.0472
13259WAT     H153742   0.447   5.317   3.115  0.2998 -1.3930 -0.0074
13259WAT     H253743   0.402   5.389   3.222 -0.3544  0.4397 -1.4653
13259WAT    EPW53744   0.450   5.336   3.191 -0.0039  0.1552  0.9344
13260WAT      O53745   7.972   3.952   3.135  0.2554 -0.1808  0.3503
13260WAT     H153746   8.032   4.014   3.125  1.4001 -1.3046 -0.0665
13260WAT     H253747   7.898   3.996   3.150  1.0173  1.2579  0.0018
13260WAT    EPW53748   7.970   3.967   3.136 -1.0960 -0.4124  0.1599
13261WAT      O53749   2.108   3.198   2.594  0.1958  0.3211 -0.0477
13261WAT     H153750   2.048   3.261   2.598 -0.3030 -0.1809  2.5514
13261WAT     H253751   2.130   3.186   2.678  1.2612 -2.0170 -0.5743
13261WAT    EPW53752   2.102   3.206   2.607  0.0766  0.0710  0.4828
13262WAT      O53753   0.177   4.061   1.607 -0.3162  0.0598 -0.4243
13262WAT     H153754   0.252   4.099   1.629  0.3600 -1.9937  1.0222
13262WAT     H253755   0.149   4.026   1.681 -0.6023 -2.6880 -1.7237
13262WAT    EPW53756   0.184   4.061   1.621 -0.7423  0.3258 -0.1670
13263WAT      O53757   8.092   3.944   2.107  0.3288 -0.5937  0.6696
13263WAT     H153758   8.091   3.979   2.187 -0.8949 -1.0159  0.8589
13263WAT     H253759   8.013   3.964   2.075  0.7134 -0.6464 -0.3421
13263WAT    EPW53760   8.080   3.952   2.114 -0.1220 -0.7284  0.6531
13264WAT      O53761   0.922   5.431   0.328 -0.4421 -0.1346  0.1144
13264WAT     H153762   0.845   5.472   0.329 -0.0299  0.6523  0.5591
13264WAT     H253763   0.974   5.485   0.283 -0.4248 -1.2079 -1.2130
13264WAT    EPW53764   0.919   5.445   0.321 -0.5886  0.1114 -0.0826
13265WAT      O53765   7.603   4.103   2.632  0.5246  0.6375  0.1290
13265WAT     H153766   7.539   4.161   2.647  0.2582  0.6336 -0.9242
13265WAT     H253767   7.668   4.151   2.601  0.1454  0.3437 -1.1831
13265WAT    EPW53768   7.603   4.119   2.630 -0.2916  0.8341 -0.3398
13266WAT      O53769   1.698   4.314   2.773 -0.4065 -0.4265  0.3081
13266WAT     H153770   1.658   4.236   2.772 -0.7996 -0.2270  0.3293
13266WAT     H253771   1.635   4.369   2.798 -0.2981 -0.0087 -0.3222
13266WAT    EPW53772   1.683   4.311   2.777  0.3722  0.5983 -0.1184
13267WAT      O53773   1.475   4.653   2.655  0.5818 -0.4508  0.0495
13267WAT     H153774   1.559   4.649   2.679  1.0686  0.7085 -1.2945
13267WAT     H253775   1.469   4.731   2.616 -0.8101 -1.0537 -1.0150
13267WAT    EPW53776   1.487   4.664   2.653 -0.1787 -0.4541 -0.3465
13268WAT      O53777   1.431   5.110   1.645  0.0381  0.5699  0.3058
13268WAT     H153778   1.387   5.099   1.570  1.1989  0.8795 -0.4494
13268WAT     H253779   1.467   5.032   1.658  0.4514  0.7300  0.1293
13268WAT    EPW53780   1.429   5.097   1.636 -0.0555 -0.0079  0.5611
13269WAT      O53781   1.123   4.422   2.927  0.2048  0.0158 -0.7513
13269WAT     H153782   1.126   4.415   2.840 -0.5980  1.2595 -0.9067
13269WAT     H253783   1.045   4.459   2.942  1.4316  2.3890  0.2785
13269WAT    EPW53784   1.112   4.427   2.917  0.4654  0.1188  0.7456
13270WAT      O53785   1.258   4.995   1.933 -0.2556  0.4668 -0.3819
13270WAT     H153786   1.237   4.995   1.849  0.6895 -0.5990 -0.6383
13270WAT     H253787   1.340   5.024   1.934  0.5544 -1.6643 -0.0972
13270WAT    EPW53788   1.267   4.999   1.921 -0.4968  0.2990 -0.5246
13271WAT      O53789   7.894   3.523   2.665 -0.0680 -0.1101 -0.0455
13271WAT     H153790   7.884   3.553   2.746 -0.0393 -2.0131  0.7056
13271WAT     H253791   7.813   3.528   2.631  0.0517  1.3779 -0.2114
13271WAT    EPW53792   7.881   3.528   2.672  0.1640  0.0123  0.3935
13272WAT      O53793   8.050   5.189   2.029 -0.3328 -0.2918 -0.0391
13272WAT     H153794   7.967   5.169   2.011 -0.6507  1.3777 -0.5672
13272WAT     H253795   8.055   5.274   2.010  1.1560 -0.0566  1.2895
13272WAT    EPW53796   8.039   5.199   2.023  0.5851 -0.0242 -0.3913
13273WAT      O53797   7.402   3.844   0.341 -0.0048 -0.5031  0.0607
13273WAT     H153798   7.402   3.921   0.383 -0.0615  1.1319 -2.7069
13273WAT     H253799   7.318   3.819   0.345 -0.1040 -0.1271  0.4714
13273WAT    EPW53800   7.389   3.851   0.348  0.3917 -0.1369  0.4031
13274WAT      O53801   0.782   4.476   1.046 -0.6807  0.1221 -0.4074
13274WAT     H153802   0.817   4.535   0.992 -1.7569  0.3250 -0.8947
13274WAT     H253803   0.756   4.524   1.114  1.2185 -0.2012  0.6313
13274WAT    EPW53804   0.783   4.492   1.048 -0.2010 -0.0826 -0.4848
13275WAT      O53805   0.831   3.698   2.328  0.2095  0.1362 -0.0316
13275WAT     H153806   0.857   3.626   2.370  0.4307 -0.2089 -0.7423
13275WAT     H253807   0.839   3.676   2.244  1.1303  1.2906 -0.2743
13275WAT    EPW53808   0.836   3.684   2.322  0.3227 -0.2564 -0.3796
13276WAT      O53809   0.715   4.985   0.268 -0.5671 -0.0764  0.6886
13276WAT     H153810   0.661   4.945   0.212 -0.5534  0.6852  0.1135
13276WAT     H253811   0.730   4.925   0.329 -0.2008 -1.1130 -0.3824
13276WAT    EPW53812   0.710   4.970   0.269  0.3526  0.8421  0.0457
13277WAT      O53813   1.360   4.532   2.420  0.5842 -0.1327 -0.0328
13277WAT     H153814   1.341   4.615   2.400 -1.2249 -0.2230  1.0565
13277WAT     H253815   1.415   4.540   2.487 -0.0764  0.2232  0.4862
13277WAT    EPW53816   1.366   4.546   2.427  0.1010  0.2980  0.5325
13278WAT      O53817   0.154   5.006   1.951 -0.2144  0.0299  0.8318
13278WAT     H153818   0.224   5.058   1.944 -1.0536  1.2758  1.3534
13278WAT     H253819   0.090   5.060   1.974 -1.3062 -1.1293  0.6463
13278WAT    EPW53820   0.155   5.021   1.953  0.3227  0.3620 -0.8389
13279WAT      O53821   0.385   4.014   1.282 -0.4502 -0.1585 -0.3160
13279WAT     H153822   0.415   3.968   1.214  0.6111 -1.5991  1.0437
13279WAT     H253823   0.400   3.961   1.350 -1.0225  1.4239  1.1026
13279WAT    EPW53824   0.391   3.999   1.282 -0.5885  0.1485 -0.2168
13280WAT      O53825   7.631   7.080   0.289 -0.3598  0.1193 -0.0246
13280WAT     H153826   7.717   7.075   0.301 -0.3630 -1.6553 -0.3998
13280WAT     H253827   7.600   7.107   0.366  0.4913  0.1127  0.3203
13280WAT    EPW53828   7.639   7.083   0.302  0.4276 -0.2861  0.1301
13281WAT      O53829   0.435   2.588   0.397  0.1293 -0.3513  0.7296
13281WAT     H153830   0.371   2.573   0.339  0.4833 -0.4942  0.3758
13281WAT     H253831   0.502   2.543   0.365  0.4159 -0.1806  1.0921
13281WAT    EPW53832   0.435   2.579   0.384 -0.4303  0.8211  0.0088
13282WAT      O53833   7.322   3.671   1.328  0.0469  0.0514  0.3954
13282WAT     H153834   7.408   3.656   1.328  0.0631  0.0668 -0.6322
13282WAT     H253835   7.291   3.609   1.275 -0.2592  1.5717 -1.3227
13282WAT    EPW53836   7.330   3.659   1.320  0.0457 -0.7053  0.0565
13283WAT      O53837   0.844   3.529   2.658 -0.0809  0.0376  0.1501
13283WAT     H153838   0.856   3.452   2.618 -0.2521  0.7011 -1.2467
13283WAT     H253839   0.878   3.516   2.737  2.6911 -0.5830 -1.0070
13283WAT    EPW53840   0.851   3.516   2.664  0.3707 -0.0406  0.7979
13284WAT      O53841   7.559   5.733   0.274  0.1088 -0.1506 -0.3915
13284WAT     H153842   7.518   5.746   0.349  0.0226  0.0450 -0.4710
13284WAT     H253843   7.502   5.761   0.214 -0.4128 -1.6619 -0.6282
13284WAT    EPW53844   7.545   5.739   0.276  0.4117 -1.0383 -0.5891
13285WAT      O53845   0.085   3.260   2.000 -0.4722 -0.2714 -0.7592
13285WAT     H153846   0.086   3.342   1.972  2.7071  0.2455  0.5764
13285WAT     H253847   0.021   3.259   2.060 -0.4714  1.2330 -0.7153
13285WAT    EPW53848   0.075   3.272   2.004 -0.1025 -0.3398 -0.1137
13286WAT      O53849   2.027   3.629   7.149  0.2436  0.4011  0.0535
13286WAT     H153850   2.009   3.551   7.113  0.5814  0.7476 -0.9288
13286WAT     H253851   2.038   3.681   7.079  1.3763  1.0106  0.6497
13286WAT    EPW53852   2.026   3.625   7.133 -0.4565  0.6443  0.3888
13287WAT      O53853   0.217   3.834   1.051 -0.2878 -0.8240 -0.4691
13287WAT     H153854   0.264   3.861   0.982  0.1278  0.8874  0.4346
13287WAT     H253855   0.175   3.907   1.077  0.5511 -1.0997  1.8597
13287WAT    EPW53856   0.218   3.849   1.044 -0.8054  0.2808  0.3520
13288WAT      O53857   7.362   4.409   0.552  0.1531 -0.1802  0.5214
13288WAT     H153858   7.394   4.480   0.591 -0.0337  0.2923 -0.1504
13288WAT     H253859   7.355   4.351   0.616  0.0471  0.5048  1.1394
13288WAT    EPW53860   7.366   4.411   0.567  0.9696  0.1083 -0.1769
13289WAT      O53861   8.087   2.994   0.221  0.3347 -0.3493  0.3964
13289WAT     H153862   8.029   3.022   0.162 -2.2837 -0.4610  2.7056
13289WAT     H253863   8.117   3.068   0.257 -0.3904 -0.2985  0.9306
13289WAT    EPW53864   8.083   3.009   0.218  0.3786  0.2357  0.6298
13290WAT      O53865   0.769   3.905   0.584  0.7984 -0.0082 -0.1714
13290WAT     H153866   0.692   3.941   0.565  0.1852 -0.3156  1.5246
13290WAT     H253867   0.825   3.951   0.536 -0.4143  0.3493 -1.3120
13290WAT    EPW53868   0.766   3.917   0.574 -0.1816 -0.2950 -0.2231
13291WAT      O53869   0.410   2.520   2.217 -0.2506  0.3611 -0.0147
13291WAT     H153870   0.339   2.479   2.246 -1.4853  2.7421  0.6140
13291WAT     H253871   0.442   2.558   2.289  0.8345  0.5090 -0.5538
13291WAT    EPW53872   0.404   2.519   2.232  1.2387  0.7107  0.6458
13292WAT      O53873   0.457   3.408   8.015 -0.0648  0.2683 -0.1933
13292WAT     H153874   0.407   3.443   7.952  2.2492  0.2797 -2.1834
13292WAT     H253875   0.479   3.475   8.065 -1.4789  0.3596  0.3479
13292WAT    EPW53876   0.453   3.423   8.013 -0.6339 -0.0446 -0.4575
13293WAT      O53877   7.608   2.640   0.580 -0.5589  0.6410  0.2234
13293WAT     H153878   7.569   2.611   0.652 -0.8655  0.5524  0.0212
13293WAT     H253879   7.650   2.569   0.550  0.7088  1.0058  1.0581
13293WAT    EPW53880   7.609   2.625   0.586  0.0463  0.0409 -0.3396
13294WAT      O53881   0.023   4.816   1.175 -0.0069  0.2358  0.7579
13294WAT     H153882   0.072   4.748   1.200  0.6100 -0.0675 -1.1311
13294WAT     H253883   0.070   4.885   1.200  0.6770 -0.0571  0.3174
13294WAT    EPW53884   0.038   4.816   1.182  0.6294 -0.3502 -0.1062
13295WAT      O53885   0.251   2.727   0.192 -0.2556 -0.4179 -1.0391
13295WAT     H153886   0.209   2.664   0.148 -2.1204  1.6088 -2.3347
13295WAT     H253887   0.262   2.790   0.133  1.1927  0.6734  0.3087
13295WAT    EPW53888   0.247   2.727   0.177 -1.0766  1.0776 -0.0031
13296WAT      O53889   0.169   4.291   1.453  0.0317 -0.0502  0.3352
13296WAT     H153890   0.241   4.303   1.502  0.7678  0.4727 -0.8365
13296WAT     H253891   0.143   4.210   1.476  0.9999 -0.2612  0.7717
13296WAT    EPW53892   0.176   4.281   1.464 -0.2465  0.5526 -0.0424
13297WAT      O53893   1.690   2.683   0.524 -0.1107 -0.5531  0.0745
13297WAT     H153894   1.684   2.660   0.440  0.7906 -0.9859  0.1223
13297WAT     H253895   1.688   2.770   0.522 -1.3874 -0.5723 -0.2847
13297WAT    EPW53896   1.689   2.693   0.511 -0.7153 -0.6026  0.6781
13298WAT      O53897   7.771   4.711   1.052 -0.5923 -0.4499  0.0115
13298WAT     H153898   7.755   4.795   1.036 -2.5065 -0.6903  0.4195
13298WAT     H253899   7.812   4.684   0.980 -1.3836  0.4698 -0.8096
13298WAT    EPW53900   7.775   4.719   1.039 -0.1079  0.2344  0.2015
13299WAT      O53901   7.566   4.170   7.537  0.1311 -0.2252  0.3290
13299WAT     H153902   7.617   4.100   7.542  1.0488  0.5150  1.9097
13299WAT     H253903   7.615   4.234   7.570 -1.0542  0.9539 -0.1181
13299WAT    EPW53904   7.581   4.169   7.543 -0.0653 -0.0559  0.1106
13300WAT      O53905   7.846   6.040   1.726 -0.8012  0.1204 -0.6655
13300WAT     H153906   7.765   6.062   1.751 -0.8234  0.5071 -1.0631
13300WAT     H253907   7.881   6.116   1.704  0.3621  0.2596  1.4153
13300WAT    EPW53908   7.839   6.054   1.726  0.1436  0.3251  0.8168
13301WAT      O53909   6.862   3.440   1.772  0.1599 -0.0472 -0.3321
13301WAT     H153910   6.828   3.505   1.725 -0.2391  0.4752  0.6572
13301WAT     H253911   6.887   3.478   1.846 -0.0146 -1.0006  0.2457
13301WAT    EPW53912   6.861   3.455   1.776  0.0761 -0.3341 -0.8175
13302WAT      O53913   7.682   3.911   7.824  0.2294  0.4114  0.0586
13302WAT     H153914   7.768   3.896   7.831  0.5805  2.6798  1.8310
13302WAT     H253915   7.647   3.832   7.836  2.0233 -0.2444  1.4995
13302WAT    EPW53916   7.690   3.897   7.827 -0.2915  0.3172  0.4078
13303WAT      O53917   7.757   4.346   1.219 -0.4571  0.0641 -0.2453
13303WAT     H153918   7.830   4.371   1.260 -0.4028 -1.6789  0.8450
13303WAT     H253919   7.721   4.421   1.194  0.0090  1.2166  2.1789
13303WAT    EPW53920   7.763   4.361   1.222 -0.8643  0.2829  0.9487
13304WAT      O53921   7.601   3.840   0.891 -0.4934  0.7540  0.0184
13304WAT     H153922   7.590   3.926   0.883 -0.8943  0.6035 -1.2689
13304WAT     H253923   7.683   3.827   0.864 -0.2688  0.7800  0.6730
13304WAT    EPW53924   7.611   3.851   0.886 -1.2514  0.3245 -0.4064
13305WAT      O53925   0.158   4.517   1.213 -0.5579 -0.0357  0.2374
13305WAT     H153926   0.168   4.447   1.162  0.5684  2.1858 -2.8247
13305WAT     H253927   0.183   4.488   1.292 -0.4533 -3.1203 -0.7955
13305WAT    EPW53928   0.163   4.502   1.217  1.0192  0.0771 -0.1056
13306WAT      O53929   0.600   2.297   0.034  0.2018 -0.2247 -0.2687
13306WAT     H153930   0.602   2.216   0.065  2.8571  0.1837  0.9008
13306WAT     H253931   0.637   2.291  -0.044 -0.3139 -0.2329 -0.5181
13306WAT    EPW53932   0.606   2.284   0.027 -0.3514  0.6978 -0.3375
13307WAT      O53933   0.028   3.955   0.523  0.4477  0.0478 -0.2539
13307WAT     H153934  -0.050   3.973   0.559  0.5469 -0.5376  0.2681
13307WAT     H253935   0.080   4.015   0.558  0.5889 -0.6478  0.7881
13307WAT    EPW53936   0.024   3.967   0.533  0.0051  0.4779  0.0159
13308WAT      O53937   0.681   4.534   8.053  0.1849  0.8705  0.5477
13308WAT     H153938   0.707   4.474   7.995  0.8855  0.7974  0.9267
13308WAT     H253939   0.750   4.543   8.106  0.3701  2.5430  0.0785
13308WAT    EPW53940   0.695   4.526   8.052  0.1521  0.2442 -0.0951
13309WAT      O53941   1.382   4.002   2.002  0.7598 -0.2146 -0.5288
13309WAT     H153942   1.408   3.980   1.922  0.6751  0.4823 -0.7578
13309WAT     H253943   1.300   3.972   2.005  0.9411 -0.7172 -0.5027
13309WAT    EPW53944   1.373   3.995   1.991 -0.3852  0.3520 -0.3452
13310WAT      O53945   1.824   2.792   2.329  0.3687 -0.4937  0.2085
13310WAT     H153946   1.809   2.800   2.415  0.0930  0.3801  0.0807
13310WAT     H253947   1.907   2.765   2.326  0.1065 -1.4273  0.7714
13310WAT    EPW53948   1.834   2.789   2.341  0.4489  0.2918 -0.2755
13311WAT      O53949   0.063   3.151   7.749 -0.0986 -0.4858  0.9085
13311WAT     H153950   0.148   3.139   7.767  0.4277  0.0528 -0.9149
13311WAT     H253951   0.029   3.071   7.758  0.8441 -0.9483  0.5773
13311WAT    EPW53952   0.071   3.137   7.753  0.8028 -0.7337  0.2474
13312WAT      O53953   0.008   2.732   1.901 -0.0181 -0.4022 -0.2315
13312WAT     H153954   0.078   2.781   1.917  0.0571 -0.8607  0.9569
13312WAT     H253955   0.034   2.680   1.836  0.2112  0.4621 -0.8566
13312WAT    EPW53956   0.022   2.731   1.893  0.1837  0.1166 -0.0610
13313WAT      O53957   7.411   4.802   0.932  0.1716 -0.1605  0.2063
13313WAT     H153958   7.437   4.838   1.007  0.5416 -1.0561  0.5233
13313WAT     H253959   7.327   4.823   0.927  0.5754  1.4894 -0.0716
13313WAT    EPW53960   7.402   4.810   0.942 -0.3000 -0.1128 -0.1698
13314WAT      O53961   7.824   4.915   7.609 -0.1050  0.0294  0.4204
13314WAT     H153962   7.897   4.962   7.621  0.0745  0.1049 -0.8795
13314WAT     H253963   7.839   4.842   7.655  0.1803  0.6521  1.3406
13314WAT    EPW53964   7.837   4.911   7.618  0.2214 -0.6182  0.4287
13315WAT      O53965   1.336   2.948   0.281 -0.3720  0.1565  0.7309
13315WAT     H153966   1.387   3.013   0.307 -0.9331  0.8946  0.0248
13315WAT     H253967   1.361   2.881   0.331  0.9008  0.6430  0.7728
13315WAT    EPW53968   1.347   2.947   0.292 -0.6878 -0.1644  0.3248
13316WAT      O53969   0.426   2.702   1.031 -0.0165  0.2936 -0.4222
13316WAT     H153970   0.352   2.661   1.010 -0.0774  1.5461 -3.1392
13316WAT     H253971   0.428   2.769   0.975  2.3909  1.2175  0.6576
13316WAT    EPW53972   0.415   2.706   1.019  0.3413  0.0618  0.0589
13317WAT      O53973   0.863   4.599   0.178 -0.4742 -0.4262  0.1148
13317WAT     H153974   0.854   4.525   0.224 -1.0561  0.3094  1.2285
13317WAT     H253975   0.948   4.602   0.161 -0.6545 -2.2038 -1.4557
13317WAT    EPW53976   0.874   4.588   0.182  0.9569 -0.1365 -0.0568
13318WAT      O53977   0.070   2.874   0.737  0.3932 -0.3789  0.4493
13318WAT     H153978   0.141   2.823   0.730  0.8421  0.4767 -1.9226
13318WAT     H253979   0.009   2.820   0.769  0.9685 -2.3367 -1.5576
13318WAT    EPW53980   0.072   2.858   0.741  0.1860 -0.0357  0.7109
13319WAT      O53981   6.829   4.559   0.519  0.2236  0.2424  0.1277
13319WAT     H153982   6.761   4.540   0.571 -0.7015 -0.6603 -1.3229
13319WAT     H253983   6.872   4.483   0.514  0.5881  0.4584 -0.0099
13319WAT    EPW53984   6.825   4.545   0.526  0.3140 -0.0521  0.2194
13320WAT      O53985   6.711   5.650   1.082 -0.8749 -0.0605 -0.1253
13320WAT     H153986   6.754   5.574   1.081  0.6335  0.7213  1.2125
13320WAT     H253987   6.762   5.702   1.130 -2.4635  1.4560  0.0210
13320WAT    EPW53988   6.725   5.647   1.089  0.2445 -0.4912  0.4935
13321WAT      O53989   6.825   3.065   1.632  0.3151 -0.0984  0.3608
13321WAT     H153990   6.755   3.017   1.610  1.2004 -1.4450  0.3210
13321WAT     H253991   6.806   3.144   1.601 -2.1067  0.1547  2.2341
13321WAT    EPW53992   6.812   3.070   1.624  0.1010 -0.0366  0.0940
13322WAT      O53993   0.537   3.610   0.123 -0.0840  0.1438 -0.0243
13322WAT     H153994   0.624   3.616   0.132  0.0299 -0.8945 -0.4079
13322WAT     H253995   0.512   3.571   0.197  0.1463 -2.4539 -1.2351
13322WAT    EPW53996   0.546   3.605   0.135  0.9201 -0.8468  0.0181
13323WAT      O53997   7.963   3.972   0.093  0.6619 -0.0357  0.1376
13323WAT     H153998   8.038   3.957   0.136  1.2177  0.7802 -0.5054
13323WAT     H253999   7.901   3.956   0.153  1.2335 -2.5350  0.1775
13323WAT    EPW54000   7.965   3.968   0.109 -0.2635  0.2472 -0.2357
13324WAT      O54001   7.257   4.606   7.986 -0.0667  0.6910 -0.3999
13324WAT     H154002   7.207   4.583   7.919  0.5496 -0.6410 -0.4423
13324WAT     H254003   7.205   4.594   8.055  0.2610 -1.0130 -0.4165
13324WAT    EPW54004   7.242   4.601   7.987  0.4527 -0.3014  0.1410
13325WAT      O54005   7.846   5.360   0.723  0.2884  0.3792  0.3567
13325WAT     H154006   7.860   5.297   0.782 -0.0950  0.9087  1.0222
13325WAT     H254007   7.927   5.385   0.700  0.5167 -1.5576 -1.2763
13325WAT    EPW54008   7.860   5.354   0.728  0.2889 -0.7645 -0.8230
13326WAT      O54009   1.180   2.219   1.393  0.2911  0.3913  0.0023
13326WAT     H154010   1.259   2.226   1.428  0.9895 -0.4719 -1.3074
13326WAT     H254011   1.163   2.299   1.363  0.1757  0.8467  1.2223
13326WAT    EPW54012   1.189   2.232   1.393 -0.2694  0.3811 -0.0495
13327WAT      O54013   7.365   3.285   0.840 -0.0485 -0.4374  0.2799
13327WAT     H154014   7.363   3.258   0.922 -1.1363  3.3804  1.7354
13327WAT     H254015   7.413   3.358   0.843 -1.7501  0.9323 -1.9725
13327WAT    EPW54016   7.372   3.292   0.852 -0.4638  0.0966  0.4196
13328WAT      O54017   8.075   3.267   1.209 -0.1620 -0.0868  0.4275
13328WAT     H154018   8.046   3.219   1.142  0.0222  0.1147  0.1965
13328WAT     H254019   8.143   3.310   1.174 -1.0441  1.2554  0.2629
13328WAT    EPW54020   8.081   3.267   1.194 -0.2801 -0.9832  0.1324
13329WAT      O54021   7.813   6.528   0.426 -0.0435 -0.0792 -0.2599
13329WAT     H154022   7.749   6.479   0.459 -2.3710  2.1620 -1.1378
13329WAT     H254023   7.835   6.487   0.353  0.1149 -1.2637  0.4236
13329WAT    EPW54024   7.807   6.515   0.420  0.2106  0.4180 -0.3154
13330WAT      O54025   0.240   3.201   8.040 -0.7285  0.1097 -0.3891
13330WAT     H154026   0.191   3.265   8.072 -0.3338  0.3421 -0.2455
13330WAT     H254027   0.321   3.222   8.065 -0.4961 -0.0352 -0.9998
13330WAT    EPW54028   0.245   3.213   8.048 -0.2924 -0.2313  0.3827
13331WAT      O54029   8.027   5.585   0.387 -0.2400 -0.2123  0.3909
13331WAT     H154030   7.971   5.519   0.372 -1.6303  0.8265  0.7756
13331WAT     H254031   8.027   5.593   0.474  0.0540  0.1789  0.3594
13331WAT    EPW54032   8.019   5.577   0.397 -0.4814 -0.2337  0.0263
13332WAT      O54033   7.975   3.659   1.629 -0.1248 -0.4792  0.4462
13332WAT     H154034   7.902   3.622   1.657 -0.3274 -1.0327 -0.7348
13332WAT     H254035   7.963   3.665   1.543  0.3692  1.3270  0.4612
13332WAT    EPW54036   7.962   3.654   1.620  0.9281 -0.2465  0.4143
13333WAT      O54037   6.974   2.479   1.896 -0.0318  0.0204  0.3235
13333WAT     H154038   6.923   2.522   1.839  0.0712  0.2013  0.3684
13333WAT     H254039   7.009   2.416   1.848  0.1169  0.2222  0.1663
13333WAT    EPW54040   6.972   2.476   1.880  0.5597  0.3400 -0.0942
13334WAT      O54041   0.241   1.432   0.779 -0.1637 -0.3498  0.4474
13334WAT     H154042   0.223   1.508   0.740  0.3034  0.1088  1.0994
13334WAT     H254043   0.166   1.412   0.821 -0.4467 -0.5065 -0.1289
13334WAT    EPW54044   0.227   1.440   0.780  0.1115 -0.1121 -1.0243
13335WAT      O54045   0.781   2.311   2.870  0.3759  0.1417 -0.1294
13335WAT     H154046   0.840   2.269   2.820 -0.3206  1.5978 -2.3256
13335WAT     H254047   0.732   2.246   2.902  1.6338 -0.9409 -0.3126
13335WAT    EPW54048   0.782   2.295   2.867 -0.5255  0.3773 -0.0943
13336WAT      O54049   0.668   4.303   1.692 -0.0188  1.0144  0.1957
13336WAT     H154050   0.722   4.326   1.628  2.6888 -0.6507  1.6701
13336WAT     H254051   0.720   4.297   1.762 -2.1405 -0.5761  1.8027
13336WAT    EPW54052   0.684   4.305   1.693  0.3198  0.3925  0.0395
13337WAT      O54053   7.553   3.631   0.036 -0.3600  0.4300  0.0995
13337WAT     H154054   7.521   3.712   0.031  0.6437  0.7685 -2.1692
13337WAT     H254055   7.541   3.608   0.119  0.3235  3.3204  1.0829
13337WAT    EPW54056   7.547   3.639   0.047 -0.3471 -1.2548  0.0034
13338WAT      O54057   7.800   6.079   1.347  0.2660  0.1633  0.2093
13338WAT     H154058   7.854   6.146   1.329  0.2389  0.3891  0.9199
13338WAT     H254059   7.725   6.102   1.308  0.2103  0.6318  0.5751
13338WAT    EPW54060   7.797   6.093   1.339  0.0418 -0.4090 -0.5070
13339WAT      O54061   7.869   3.353   0.184  0.0539  0.2914  0.1031
13339WAT     H154062   7.873   3.341   0.270 -0.5409 -1.1095 -0.0503
13339WAT     H254063   7.806   3.300   0.158 -0.1708  1.1185 -1.1450
13339WAT    EPW54064   7.860   3.344   0.193 -0.2387 -0.1175  0.1459
13340WAT      O54065   0.549   5.781   7.890  1.1832  0.3010 -0.1956
13340WAT     H154066   0.507   5.705   7.880  0.7296  0.6586 -1.1597
13340WAT     H254067   0.607   5.781   7.824  3.3133 -0.5316  1.5531
13340WAT    EPW54068   0.552   5.770   7.879 -0.1175  0.3666  0.3685
13341WAT      O54069   0.362   4.503   1.735 -0.5602 -0.1800  0.7055
13341WAT     H154070   0.426   4.484   1.792 -0.4141  0.2559  0.6892
13341WAT     H254071   0.398   4.562   1.682 -0.9592  0.0289  0.6609
13341WAT    EPW54072   0.377   4.509   1.736  0.5000  0.7238  0.2935
13342WAT      O54073   0.417   1.994   0.449  0.3202  0.4046 -0.2619
13342WAT     H154074   0.362   2.039   0.499  0.5516  0.7371 -0.3017
13342WAT     H254075   0.439   1.926   0.499  1.3067  1.2403  0.4831
13342WAT    EPW54076   0.412   1.991   0.464  0.0812  0.0668  0.0560
13343WAT      O54077   0.412   2.849   1.274 -0.1120  0.3665 -0.3414
13343WAT     H154078   0.495   2.876   1.273  0.5484 -1.4480  0.2017
13343WAT     H254079   0.398   2.823   1.192  0.5193 -1.0420 -0.0350
13343WAT    EPW54080   0.422   2.849   1.262 -0.0212  0.4089 -0.1939
13344WAT      O54081   7.147   2.854   0.062 -0.3502 -0.1258 -0.0583
13344WAT     H154082   7.166   2.771   0.082 -0.9011 -0.7197 -1.7921
13344WAT     H254083   7.078   2.871   0.112 -0.5560 -0.9088 -0.0582
13344WAT    EPW54084   7.139   2.844   0.072 -0.3164  1.1084  0.8137
13345WAT      O54085   7.651   3.504   2.013  0.1752 -0.3220  0.2713
13345WAT     H154086   7.735   3.487   2.000  0.1777  0.9762 -1.8900
13345WAT     H254087   7.645   3.590   2.002 -1.3373 -0.2863  1.0561
13345WAT    EPW54088   7.662   3.514   2.010 -0.5401  0.0884  0.7916
13346WAT      O54089   0.995   1.195   7.873 -0.6691 -0.3293  0.3359
13346WAT     H154090   1.001   1.108   7.880 -0.2956 -0.2671  0.8370
13346WAT     H254091   0.964   1.220   7.950  1.4078  0.1697  1.0840
13346WAT    EPW54092   0.992   1.185   7.885  0.1133 -0.5008  0.5998
13347WAT      O54093   2.439   2.512   7.335 -0.6461 -0.5165 -0.2853
13347WAT     H154094   2.482   2.556   7.272 -0.2646 -0.5814 -0.0774
13347WAT     H254095   2.381   2.464   7.291  0.4552 -1.5122 -0.7092
13347WAT    EPW54096   2.437   2.511   7.319 -0.9096 -0.1503  0.6846
13348WAT      O54097   1.147   1.767   0.273 -0.4544 -0.1523 -0.6490
13348WAT     H154098   1.211   1.756   0.331 -0.4551 -1.0276 -0.8015
13348WAT     H254099   1.188   1.801   0.204 -0.5030  1.1694 -0.0534
13348WAT    EPW54100   1.163   1.770   0.271  0.8258 -0.3221 -0.0245
13349WAT      O54101   2.465   0.478   1.776  0.0673 -0.7681 -0.6687
13349WAT     H154102   2.480   0.399   1.741  0.3556 -0.3699 -1.4745
13349WAT     H254103   2.544   0.516   1.773 -0.5982  0.6198 -3.0821
13349WAT    EPW54104   2.479   0.472   1.771 -0.0730  0.0963 -0.8258
13350WAT      O54105   0.503   2.282   0.552 -0.1011  0.1402  0.1701
13350WAT     H154106   0.542   2.237   0.616 -0.9395  0.3027  0.8133
13350WAT     H254107   0.541   2.251   0.479  0.6864 -0.2283  0.7197
13350WAT    EPW54108   0.515   2.271   0.550  0.1137  1.4691 -0.2027
13351WAT      O54109   2.472   2.053   7.842 -0.2350 -0.0804  0.3114
13351WAT     H154110   2.468   2.124   7.791 -0.9955  0.8161  1.5512
13351WAT     H254111   2.536   2.006   7.807 -0.5968  0.5937 -1.3283
13351WAT    EPW54112   2.481   2.057   7.830 -0.5256  0.6587 -0.8355
13352WAT      O54113   1.581   4.010   6.477  0.3938  0.5915  0.2085
13352WAT     H154114   1.542   4.037   6.403  1.0800  0.3087 -0.2696
13352WAT     H254115   1.611   3.931   6.457 -0.8857 -0.2187  1.3496
13352WAT    EPW54116   1.580   4.002   6.463 -0.1594 -0.6204  0.4211
13353WAT      O54117   1.018   3.062   0.132 -0.5933 -0.5195 -0.3973
13353WAT     H154118   1.061   3.074   0.057  1.1879  0.5404  0.7266
13353WAT     H254119   1.032   2.978   0.150 -2.4961 -1.2776 -2.0386
13353WAT    EPW54120   1.026   3.051   0.124 -0.0576  1.0088 -0.5911
13354WAT      O54121   2.580   2.238   7.074 -0.3888  0.5316 -0.7516
13354WAT     H154122   2.636   2.237   7.007  1.4613  0.5141  0.7133
13354WAT     H254123   2.575   2.323   7.094  0.2233  0.4043 -0.0221
13354WAT    EPW54124   2.588   2.250   7.067 -0.4962 -0.3808  0.4369
13355WAT      O54125   1.553   2.889   7.521  0.3063  0.1365  0.2368
13355WAT     H154126   1.467   2.895   7.508  0.1441  0.9930  1.5152
13355WAT     H254127   1.586   2.912   7.443 -0.5312 -4.1400 -1.6574
13355WAT    EPW54128   1.545   2.894   7.508  0.0816  0.4410  0.0632
13356WAT      O54129   2.377   1.835   6.479  0.4748  0.1479  0.2979
13356WAT     H154130   2.381   1.855   6.395 -1.3755  0.7753  0.3171
13356WAT     H254131   2.423   1.760   6.485  0.5918  0.0710 -1.2544
13356WAT    EPW54132   2.385   1.827   6.468  0.5962 -0.1150 -0.0372
13357WAT      O54133   2.846   3.801   7.374  0.0074  1.0472  0.1647
13357WAT     H154134   2.805   3.782   7.299  0.5487 -0.7012  0.2653
13357WAT     H254135   2.832   3.887   7.384 -3.7857  0.5693  0.3091
13357WAT    EPW54136   2.838   3.811   7.364  0.0842  0.2384 -0.5095
13358WAT      O54137   2.114   1.533   5.508 -0.5487 -0.2087 -0.2343
13358WAT     H154138   2.125   1.446   5.502 -0.3940 -0.1896 -0.2315
13358WAT     H254139   2.052   1.542   5.569 -1.3324 -0.3614 -0.9906
13358WAT    EPW54140   2.106   1.521   5.516 -0.0858  0.5064  0.0400
13359WAT      O54141   1.720   1.578   7.818 -0.0899 -0.0614 -0.6694
13359WAT     H154142   1.743   1.630   7.885  0.3061 -0.2278 -0.6765
13359WAT     H254143   1.785   1.588   7.761  0.8492 -1.8329  0.0230
13359WAT    EPW54144   1.733   1.587   7.819  0.2011 -0.5486 -0.7886
13360WAT      O54145   2.156   0.985   5.037  0.0099  0.4394  0.2551
13360WAT     H154146   2.195   0.958   4.964  1.4944  0.4006  1.0354
13360WAT     H254147   2.080   0.943   5.036  1.2332 -1.9105  0.1991
13360WAT    EPW54148   2.150   0.975   5.026  0.6962 -0.3414  0.0190
13361WAT      O54149   2.646   1.283   0.047  0.4717 -0.4550  0.1374
13361WAT     H154150   2.705   1.270  -0.016 -0.1644  0.5070 -0.6920
13361WAT     H254151   2.612   1.203   0.060  1.2029 -0.8204 -0.1182
13361WAT    EPW54152   2.650   1.269   0.040  0.5596  0.8693 -0.1988
13362WAT      O54153   1.890   1.414   0.726 -0.5462  0.2833  0.0387
13362WAT     H154154   1.855   1.483   0.766  0.1250 -0.0413  1.2710
13362WAT     H254155   1.974   1.437   0.715  0.0431 -0.8043  1.7605
13362WAT    EPW54156   1.897   1.427   0.731  0.1900  0.6233 -0.4747
13363WAT      O54157   2.348   1.512   6.951 -0.7747 -0.4867  0.3172
13363WAT     H154158   2.334   1.477   6.872  0.3836  0.3973 -0.2922
13363WAT     H254159   2.311   1.454   7.005 -1.3383 -1.2468 -0.8428
13363WAT    EPW54160   2.340   1.498   6.948  0.3746 -0.0720 -0.6795
13364WAT      O54161   2.024   4.049   0.801 -0.0415 -0.1852  0.5670
13364WAT     H154162   1.982   4.126   0.796  0.3707 -0.0041 -0.2613
13364WAT     H254163   1.960   3.991   0.788  0.2518  0.1362 -3.3793
13364WAT    EPW54164   2.008   4.052   0.799  0.6211 -0.2835 -0.0060
13365WAT      O54165   1.573   0.199   7.834  0.7928  0.5003  0.4566
13365WAT     H154166   1.657   0.214   7.814  1.0307  0.8465  1.6420
13365WAT     H254167   1.543   0.277   7.859 -0.7299  1.0737 -2.5932
13365WAT    EPW54168   1.581   0.213   7.834  0.4219  0.4896 -0.0850
13366WAT      O54169   1.595   2.635   6.116  0.5559 -0.0905 -0.3051
13366WAT     H154170   1.592   2.551   6.140  1.0419  0.0328  0.2015
13366WAT     H254171   1.597   2.678   6.191  0.3877  0.3770 -0.5659
13366WAT    EPW54172   1.595   2.629   6.130 -0.3985 -0.2538 -0.3655
13367WAT      O54173   2.245   1.169   8.027 -0.0706  0.5388 -0.6428
13367WAT     H154174   2.209   1.248   8.023  0.2422  0.7131 -0.2107
13367WAT     H254175   2.225   1.132   7.950 -0.4502  0.9341 -0.7352
13367WAT    EPW54176   2.237   1.175   8.015  0.6515  0.8979 -0.2141
13368WAT      O54177   2.396   1.898   6.743 -0.1486  0.5610  0.0620
13368WAT     H154178   2.362   1.872   6.667 -3.7121  1.8110  1.0354
13368WAT     H254179   2.429   1.976   6.726 -0.1729  0.4799 -0.3591
13368WAT    EPW54180   2.396   1.905   6.729  0.5619  0.4972  0.1833
13369WAT      O54181   0.928   1.730   0.436 -0.0548 -0.0946  1.0421
13369WAT     H154182   0.958   1.704   0.514 -0.2425  1.5979  1.7078
13369WAT     H254183   1.001   1.738   0.388 -0.0094 -2.0538  0.7088
13369WAT    EPW54184   0.943   1.727   0.440 -0.5432 -0.5164  0.3902
13370WAT      O54185   1.135   2.201   0.619 -0.5942 -0.4619 -0.4343
13370WAT     H154186   1.070   2.221   0.673 -1.1455 -0.5094 -1.0579
13370WAT     H254187   1.139   2.114   0.623 -0.9550 -0.4980 -0.8268
13370WAT    EPW54188   1.126   2.191   0.627 -0.1603  0.3167  0.3541
13371WAT      O54189   0.022   7.362   0.661 -0.3614 -0.0810 -0.2892
13371WAT     H154190   0.036   7.298   0.718 -0.3474  1.0930  1.0825
13371WAT     H254191   0.088   7.355   0.605 -1.4600 -2.5213 -1.4339
13371WAT    EPW54192   0.033   7.351   0.661 -0.4390 -0.3951 -0.3661
13372WAT      O54193   2.198   1.317   7.127 -0.0009  0.7496  1.1387
13372WAT     H154194   2.135   1.257   7.114  0.9742 -0.2354  0.8404
13372WAT     H254195   2.228   1.297   7.207  1.6949 -0.4782  0.2342
13372WAT    EPW54196   2.193   1.305   7.137 -0.1256  0.1382  0.3455
13373WAT      O54197   1.740   2.438   6.775  0.5366  0.2328 -0.6287
13373WAT     H154198   1.758   2.427   6.859 -1.1545 -1.9959 -0.4505
13373WAT     H254199   1.812   2.409   6.735 -0.1641 -2.9408  0.1018
13373WAT    EPW54200   1.753   2.432   6.781 -0.6070  0.5683 -0.1777
13374WAT      O54201   0.204   2.347   0.500  0.5185 -0.3246 -0.3264
13374WAT     H154202   0.180   2.385   0.575 -1.6474 -1.5629 -0.3068
13374WAT     H254203   0.291   2.351   0.502  0.5200 -0.0054  2.0983
13374WAT    EPW54204   0.213   2.353   0.511  0.0650 -0.0564 -0.2398
13375WAT      O54205   3.293   0.977   6.770  0.8190  0.0219  0.7114
13375WAT     H154206   3.294   1.031   6.839 -0.5647  1.7368 -0.5373
13375WAT     H254207   3.208   0.967   6.753  0.9532 -3.2458  1.3154
13375WAT    EPW54208   3.281   0.983   6.778 -0.9761 -0.6575 -0.8114
13376WAT      O54209   1.370   2.188   7.847 -0.1869  0.0369  0.5856
13376WAT     H154210   1.392   2.213   7.928  1.0944 -0.6269  0.4698
13376WAT     H254211   1.424   2.122   7.831 -1.2158 -0.6061 -0.3842
13376WAT    EPW54212   1.381   2.182   7.857  0.0319  0.9845 -0.6211
13377WAT      O54213   1.409   1.180   0.844  0.0895  0.4767 -0.0361
13377WAT     H154214   1.427   1.136   0.771 -0.7261  0.8402 -0.4774
13377WAT     H254215   1.378   1.256   0.814  1.2838  1.2931  0.7030
13377WAT    EPW54216   1.407   1.185   0.829 -0.1110 -0.0528  0.2109
13378WAT      O54217   1.879   3.192   7.598  0.2095 -0.5147  0.1746
13378WAT     H154218   1.864   3.209   7.682  0.7497 -2.3330  0.6820
13378WAT     H254219   1.941   3.250   7.576 -0.7178  0.7192  0.6800
13378WAT    EPW54220   1.886   3.203   7.607 -0.3705 -0.4552 -0.0932
13379WAT      O54221   1.480   2.414   0.322 -0.0079 -0.3479  0.4974
13379WAT     H154222   1.455   2.353   0.265 -0.7034 -0.9904  1.4773
13379WAT     H254223   1.523   2.472   0.272 -0.2197 -1.1151 -0.6018
13379WAT    EPW54224   1.483   2.414   0.306 -0.1092 -0.6691 -0.7009
13380WAT      O54225   8.041   2.906   7.864  0.0103  0.0110 -0.6005
13380WAT     H154226   8.105   2.855   7.892  1.2097 -0.2528 -3.4146
13380WAT     H254227   7.970   2.855   7.866  0.2734 -0.3278  0.6524
13380WAT    EPW54228   8.040   2.891   7.868 -1.1262  0.0376 -0.7029
13381WAT      O54229   0.205   2.087   0.605 -0.2281  0.0517  0.5156
13381WAT     H154230   0.195   2.167   0.572  1.3673  0.3007  0.5653
13381WAT     H254231   0.133   2.045   0.578 -1.0392  1.4459  0.3966
13381WAT    EPW54232   0.193   2.093   0.596  0.7546 -0.8768  1.1343
13382WAT      O54233   1.558   1.982   7.804  0.3719 -0.4721  0.0534
13382WAT     H154234   1.640   1.975   7.776  0.7348  1.5151  0.4849
13382WAT     H254235   1.562   1.960   7.888  0.2611 -1.2608 -0.1348
13382WAT    EPW54236   1.570   1.978   7.812 -0.7933  0.7349  0.7398
13383WAT      O54237   2.171   1.035   0.232  0.2894  0.6119 -0.2447
13383WAT     H154238   2.188   1.083   0.161 -1.0818 -0.1152 -1.1135
13383WAT     H254239   2.084   1.028   0.232  0.3700 -0.9436  0.4745
13383WAT    EPW54240   2.161   1.041   0.222 -0.7806 -0.4378 -0.8024
13384WAT      O54241   1.956   1.348   6.118  0.2623 -0.6171 -0.0281
13384WAT     H154242   1.918   1.427   6.121  1.3214 -0.1160  0.6283
13384WAT     H254243   1.962   1.332   6.033 -0.3927 -0.2038 -0.1608
13384WAT    EPW54244   1.951   1.358   6.106 -0.5846  0.2011 -0.2004
13385WAT      O54245   0.617   1.997   7.961  0.2708 -0.2619 -0.5656
13385WAT     H154246   0.660   1.940   7.911 -0.6788 -0.3623 -1.2839
13385WAT     H254247   0.637   2.074   7.925 -0.0504 -0.2971 -0.8141
13385WAT    EPW54248   0.627   2.000   7.948  0.4096 -0.2925  0.5848
13386WAT      O54249   2.162   2.753   0.626  0.2131  0.0542  0.0159
13386WAT     H154250   2.155   2.714   0.549  0.7078 -1.4937  0.7079
13386WAT     H254251   2.088   2.731   0.667  1.0411 -1.3123  0.8716
13386WAT    EPW54252   2.150   2.744   0.621  0.5994 -0.2911 -0.5258
13387WAT      O54253   2.233   2.689   0.350  0.6042  0.6077 -0.0640
13387WAT     H154254   2.250   2.604   0.361 -2.0429 -0.2216 -1.4359
13387WAT     H254255   2.262   2.705   0.269 -1.7092  0.0777 -1.0703
13387WAT    EPW54256   2.240   2.679   0.340  0.2905  0.4167 -0.7192
13388WAT      O54257   1.108   2.816   7.940  0.0732 -0.9859 -0.1603
13388WAT     H154258   1.095   2.817   8.027  1.5297  0.8926  0.1148
13388WAT     H254259   1.136   2.897   7.923 -0.4528 -1.2349 -2.4537
13388WAT    EPW54260   1.110   2.828   7.951  0.2220 -0.5694  0.3219
13389WAT      O54261   2.758   2.883   1.290 -0.1054  0.1848  0.1031
13389WAT     H154262   2.775   2.953   1.339 -0.3020  0.2496  0.0802
13389WAT     H254263   2.773   2.911   1.209  2.3672 -0.5379  0.2384
13389WAT    EPW54264   2.763   2.897   1.285 -0.0239  0.1323 -0.7203
13390WAT      O54265   1.634   2.965   0.553  0.0898 -0.2521 -0.3173
13390WAT     H154266   1.707   3.010   0.537  0.6602 -1.1110 -0.1873
13390WAT     H254267   1.624   2.974   0.640  0.1331 -0.2844 -0.3092
13390WAT    EPW54268   1.643   2.973   0.564 -0.2514 -0.4207  0.6915
13391WAT      O54269   1.775   2.483   0.674  0.0345  0.0298 -0.5202
13391WAT     H154270   1.751   2.554   0.630  0.7657  1.3219  1.0504
13391WAT     H254271   1.707   2.429   0.666 -1.7416  1.9780  0.4721
13391WAT    EPW54272   1.762   2.486   0.667  0.8046 -0.3907 -0.1314
13392WAT      O54273   1.614   2.708   6.759  0.1005 -0.4545  0.2881
13392WAT     H154274   1.659   2.635   6.744 -0.1517 -0.7627  1.0219
13392WAT     H254275   1.641   2.733   6.838 -0.1003  0.0398  0.2034
13392WAT    EPW54276   1.625   2.701   6.769 -0.2097  0.3009  0.0342
13393WAT      O54277   3.020   1.209   0.606  0.2273  0.2007 -0.3886
13393WAT     H154278   3.048   1.127   0.604  0.0884  0.1605 -0.7576
13393WAT     H254279   2.970   1.216   0.535 -1.7214 -0.0774  0.8761
13393WAT    EPW54280   3.017   1.198   0.595  0.8031 -0.2296 -1.3015
13394WAT      O54281   1.492   1.703   7.433  0.2783 -0.0843 -0.0602
13394WAT     H154282   1.471   1.669   7.511 -0.2123 -0.2895 -0.2761
13394WAT     H254283   1.468   1.640   7.377  0.3642  0.1805 -0.3960
13394WAT    EPW54284   1.486   1.688   7.437  0.0946 -0.8273  0.1239
13395WAT      O54285   1.105   1.382   0.565  0.1866 -0.2537 -0.0357
13395WAT     H154286   1.162   1.339   0.515  0.9283  0.4346  0.2028
13395WAT     H254287   1.029   1.371   0.524  0.5926 -0.6561 -0.6940
13395WAT    EPW54288   1.102   1.374   0.552 -0.6948 -0.3752 -0.4152
13396WAT      O54289   1.642   2.877   7.790 -0.0421 -0.1567 -0.0664
13396WAT     H154290   1.620   2.807   7.838  2.3962 -1.3929 -0.5787
13396WAT     H254291   1.599   2.864   7.715  0.2389 -1.0275 -0.0883
13396WAT    EPW54292   1.632   2.864   7.786  0.3765 -0.0891  0.5543
13397WAT      O54293   7.610   3.631   7.504  0.0109 -0.0197  0.4383
13397WAT     H154294   7.602   3.550   7.472 -1.6779 -0.4413  1.7935
13397WAT     H254295   7.652   3.619   7.580  1.1101  0.5879 -0.0477
13397WAT    EPW54296   7.615   3.617   7.510 -1.0636 -0.1468 -1.1839
13398WAT      O54297   0.157   2.962   1.686  0.2361 -0.0601  0.9579
13398WAT     H154298   0.121   2.894   1.644  1.9881 -0.8568  0.6370
13398WAT     H254299   0.092   3.019   1.692 -0.3794 -0.2637 -2.0807
13398WAT    EPW54300   0.142   2.960   1.680 -0.2669  0.0168  0.1606
13399WAT      O54301   2.741   1.120   7.620 -0.1644  0.0511  0.3451
13399WAT     H154302   2.777   1.156   7.691 -0.0614 -1.9711  1.4041
13399WAT     H254303   2.655   1.125   7.636 -0.1372 -0.5494  0.7260
13399WAT    EPW54304   2.733   1.126   7.633 -0.4834 -0.0192 -0.2629
13400WAT      O54305   1.504   3.249   6.664  0.3026 -0.7282  0.4306
13400WAT     H154306   1.533   3.280   6.740 -1.0634  1.6824  0.0917
13400WAT     H254307   1.454   3.182   6.687 -1.3108  0.8623  1.9051
13400WAT    EPW54308   1.501   3.244   6.679 -0.3756  0.1905 -0.3274
13401WAT      O54309   1.816   2.414   7.022  0.1564  0.3655  0.1580
13401WAT     H154310   1.762   2.433   7.088 -0.2645 -1.8580  0.5261
13401WAT     H254311   1.885   2.465   7.037 -0.6315  1.1380  1.3454
13401WAT    EPW54312   1.818   2.424   7.034  0.2030 -0.2715  0.0601
13402WAT      O54313   1.336   3.027   6.627  0.3630 -0.1814 -0.0253
13402WAT     H154314   1.329   3.000   6.709  3.6622 -1.6876 -0.0642
13402WAT     H254315   1.354   2.954   6.583 -0.0272  0.7860 -1.8889
13402WAT    EPW54316   1.338   3.012   6.632  0.3263 -1.0681 -0.0381
13403WAT      O54317   2.787   1.299   4.539  0.3249 -0.2326  0.4186
13403WAT     H154318   2.753   1.233   4.585 -1.4469 -0.1286 -0.6475
13403WAT     H254319   2.778   1.367   4.593  0.2035 -0.4757  0.7127
13403WAT    EPW54320   2.780   1.299   4.554  0.1006 -0.0885  0.4176
13404WAT      O54321   1.804   0.612   5.791  0.2092 -0.5369  0.5962
13404WAT     H154322   1.788   0.530   5.766 -0.4146 -0.3539  0.3802
13404WAT     H254323   1.800   0.656   5.716  2.8785 -0.6223  0.3159
13404WAT    EPW54324   1.801   0.606   5.776  1.0886 -0.0631 -0.0474
13405WAT      O54325   2.340   1.687   4.776 -0.5984 -0.1070 -0.0630
13405WAT     H154326   2.283   1.720   4.833 -0.4064  2.7854 -1.4067
13405WAT     H254327   2.293   1.626   4.735 -1.3995 -0.6947  1.6226
13405WAT    EPW54328   2.324   1.683   4.779 -0.0533  0.7685 -0.0216
13406WAT      O54329   1.984   1.211   4.563  0.2529 -0.1910 -0.0874
13406WAT     H154330   2.044   1.154   4.534 -0.1284 -0.8327  0.3543
13406WAT     H254331   1.985   1.274   4.503  0.3293 -0.9111 -0.8588
13406WAT    EPW54332   1.993   1.212   4.550 -0.3856 -0.0271 -0.0098
13407WAT      O54333   1.713   3.240   6.484 -0.1371  0.3173 -0.3216
13407WAT     H154334   1.661   3.212   6.548 -1.2931 -0.4524 -1.5663
13407WAT     H254335   1.744   3.167   6.448  2.9326  0.6915  1.1464
13407WAT    EPW54336   1.710   3.225   6.488  0.3062 -0.1262 -0.5753
13408WAT      O54337   2.643   1.738   6.101 -0.1081 -0.1687  0.0825
13408WAT     H154338   2.699   1.736   6.168  2.6702  1.8611 -1.9534
13408WAT     H254339   2.637   1.655   6.076  0.1231 -0.7314  1.7599
13408WAT    EPW54340   2.650   1.726   6.108  1.0589 -0.2678 -0.8068
13409WAT      O54341   2.203   2.506   6.883 -0.0718 -0.3749 -0.0622
13409WAT     H154342   2.233   2.573   6.929 -0.3458  0.5220 -1.1402
13409WAT     H254343   2.241   2.436   6.920 -0.4985  0.2579  1.6590
13409WAT    EPW54344   2.213   2.505   6.895  0.1597  0.0219  0.9129
13410WAT      O54345   3.153   0.722   4.295  0.2250 -0.1197 -0.1121
13410WAT     H154346   3.086   0.719   4.350 -0.3968 -0.0059 -0.8455
13410WAT     H254347   3.118   0.699   4.218  1.1103 -0.4673 -0.4317
13410WAT    EPW54348   3.138   0.718   4.292 -0.2162 -0.1741 -0.3109
13411WAT      O54349   0.940   2.872   4.511  0.5194 -0.3035 -0.1225
13411WAT     H154350   0.878   2.886   4.451 -0.2069  1.3594  0.9558
13411WAT     H254351   1.010   2.912   4.478  0.1950  0.3783  0.0023
13411WAT    EPW54352   0.941   2.880   4.498  0.1285 -0.8168 -0.4407
13412WAT      O54353   1.637   1.518   4.616 -0.4129 -0.3091 -0.0250
13412WAT     H154354   1.619   1.602   4.629 -2.2139 -0.9279  2.1919
13412WAT     H254355   1.617   1.505   4.532  0.8493  1.6269 -0.6878
13412WAT    EPW54356   1.632   1.528   4.605  0.5847 -0.0530 -0.3098
13413WAT      O54357   1.934   2.682   7.662  0.1725 -0.4009  0.0686
13413WAT     H154358   1.930   2.763   7.694  1.0434 -0.3868  0.1604
13413WAT     H254359   1.884   2.636   7.717 -0.2393  0.0499  0.0790
13413WAT    EPW54360   1.926   2.687   7.675  0.2369  0.1619  0.2529
13414WAT      O54361   1.909   0.438   6.046  0.5665 -0.2180  0.3640
13414WAT     H154362   1.992   0.453   6.068  0.6619 -0.0467 -0.1012
13414WAT     H254363   1.897   0.488   5.975  0.0662 -0.2361  0.4332
13414WAT    EPW54364   1.919   0.448   6.038  1.0260 -0.7206  0.4933
13415WAT      O54365   1.274   3.430   6.077 -0.0159  0.3356  0.1460
13415WAT     H154366   1.328   3.498   6.082  2.8516 -1.7056 -0.6101
13415WAT     H254367   1.300   3.379   6.143 -1.3385 -0.5702  0.0045
13415WAT    EPW54368   1.285   3.433   6.088 -0.0077 -1.0279 -0.6628
13416WAT      O54369   2.063   0.375   3.840  0.7472  0.0093 -0.0797
13416WAT     H154370   2.062   0.447   3.890 -0.7348 -1.0790  1.6161
13416WAT     H254371   2.009   0.321   3.883 -1.3976 -0.7166 -3.3475
13416WAT    EPW54372   2.055   0.378   3.854 -0.1508 -0.3003 -0.9451
13417WAT      O54373   2.029   3.043   4.152  0.1756  0.2366 -0.2788
13417WAT     H154374   1.992   2.996   4.215  0.3642  0.9231  0.3601
13417WAT     H254375   2.057   2.983   4.095 -2.0342 -0.3003 -0.8913
13417WAT    EPW54376   2.028   3.027   4.153 -0.6079 -0.2460 -1.1074
13418WAT      O54377   2.381   0.592   4.833  0.2155 -0.1781  0.5109
13418WAT     H154378   2.337   0.610   4.906 -0.9215  0.2707 -0.2544
13418WAT     H254379   2.464   0.600   4.857 -0.1460  1.5174  1.3819
13418WAT    EPW54380   2.387   0.596   4.848  0.4853  0.5382  0.6783
13419WAT      O54381   1.442   3.578   5.829 -0.4508  0.4483  0.5057
13419WAT     H154382   1.402   3.624   5.892 -2.5484 -1.0145  0.3441
13419WAT     H254383   1.389   3.588   5.760  0.8623  0.5396 -0.5224
13419WAT    EPW54384   1.428   3.586   5.828 -0.0772 -0.1869 -0.5476
13420WAT      O54385   2.850   1.749   6.280  0.1792  0.2397  0.9288
13420WAT     H154386   2.808   1.793   6.342  0.4061 -1.8709  2.6860
13420WAT     H254387   2.870   1.673   6.318  3.4480  0.1639 -0.5680
13420WAT    EPW54388   2.847   1.744   6.295  0.1258 -0.6366  0.0958
13421WAT      O54389   1.421   3.215   7.615  0.1144 -0.0075 -0.5173
13421WAT     H154390   1.429   3.247   7.696 -0.0840 -0.2995 -0.3790
13421WAT     H254391   1.357   3.263   7.580  0.7645  0.6798 -0.7896
13421WAT    EPW54392   1.413   3.227   7.622 -0.1330 -0.3767  0.3231
13422WAT      O54393   2.316   3.158   4.281 -0.2885 -0.1182 -0.3009
13422WAT     H154394   2.230   3.169   4.271 -0.6085 -0.1749  1.8579
13422WAT     H254395   2.330   3.077   4.253 -1.0409 -0.2831 -0.2160
13422WAT    EPW54396   2.305   3.148   4.276 -1.0947  0.6486  0.2993
13423WAT      O54397   3.051   2.045   4.011  0.0192 -0.1751  0.0316
13423WAT     H154398   3.115   2.075   3.960  0.0019 -0.4438 -0.1524
13423WAT     H254399   3.033   1.966   3.978 -0.0802 -0.3014  0.3758
13423WAT    EPW54400   3.058   2.038   3.999 -0.1393  0.5058 -1.0954
13424WAT      O54401   1.568   0.126   3.971 -0.0719 -0.0798  0.7244
13424WAT     H154402   1.645   0.138   3.932 -0.2971 -0.7607  0.0439
13424WAT     H254403   1.564   0.040   3.985 -1.0809 -0.1866 -0.0836
13424WAT    EPW54404   1.579   0.115   3.967  0.5136 -0.0387 -0.0894
13425WAT      O54405   1.998   4.526   6.535  0.2148  0.1809  0.0455
13425WAT     H154406   1.974   4.489   6.461  0.1938  1.3605 -0.5647
13425WAT     H254407   1.941   4.592   6.545  0.3413  0.1658  0.9997
13425WAT    EPW54408   1.986   4.530   6.526  0.4892  0.3978  0.2787
13426WAT      O54409   1.980   1.109   5.510 -0.0967 -0.1294  0.4635
13426WAT     H154410   1.977   1.066   5.586 -2.3965 -1.2909 -0.1761
13426WAT     H254411   1.982   1.044   5.451 -1.1293  0.6605 -0.4790
13426WAT    EPW54412   1.980   1.093   5.513  0.7445  0.4277  0.2856
13427WAT      O54413   1.704   1.750   4.770  0.7270  0.0362  0.5500
13427WAT     H154414   1.789   1.739   4.784  1.1430 -0.5728 -1.9410
13427WAT     H254415   1.695   1.836   4.762  1.2011  0.0799  0.4466
13427WAT    EPW54416   1.715   1.761   4.771  0.0556  0.1485 -0.5398
13428WAT      O54417   1.873   1.224   4.902  0.2237  0.2389 -0.6999
13428WAT     H154418   1.810   1.228   4.843 -1.3401  1.0184  0.9263
13428WAT     H254419   1.873   1.304   4.937  2.4362  0.3982 -0.9315
13428WAT    EPW54420   1.864   1.236   4.899  0.3761  0.3758 -1.0418
13429WAT      O54421   1.909   2.428   6.153  0.0789  0.6460  0.6066
13429WAT     H154422   1.858   2.398   6.089 -0.2563 -1.9764  1.9640
13429WAT     H254423   1.871   2.396   6.225  2.3944  0.4805  1.8198
13429WAT    EPW54424   1.896   2.418   6.154 -0.0022 -0.0436  0.2566
13430WAT      O54425   2.002   0.640   6.333  0.4093  0.0153  0.2502
13430WAT     H154426   1.999   0.671   6.415  0.1118 -0.3030  0.3609
13430WAT     H254427   1.919   0.622   6.315  0.4263  0.3997 -0.2491
13430WAT    EPW54428   1.990   0.642   6.343 -0.1965 -1.2471  0.2990
13431WAT      O54429   2.472   3.498   5.506  0.0458  0.2049 -0.1366
13431WAT     H154430   2.402   3.463   5.544 -0.9744  1.3075 -0.9093
13431WAT     H254431   2.515   3.430   5.474  0.3391 -0.6543  1.9511
13431WAT    EPW54432   2.468   3.483   5.507  0.1040 -0.7093 -0.1018
13432WAT      O54433   1.524   0.994   3.887 -0.0713  0.2660 -0.1539
13432WAT     H154434   1.500   0.955   3.812  2.1687  1.8495 -1.8327
13432WAT     H254435   1.457   1.047   3.904 -1.3642 -1.3209 -0.0496
13432WAT    EPW54436   1.511   0.996   3.878  1.1515 -0.1883 -0.1326
13433WAT      O54437   1.102   1.031   0.133  0.1028 -0.5899  0.0084
13433WAT     H154438   1.157   0.990   0.187 -1.4258 -1.1432  1.2473
13433WAT     H254439   1.028   1.034   0.179 -0.7243  0.7112 -1.3310
13433WAT    EPW54440   1.099   1.026   0.148  0.1399  0.1058 -1.0538
13434WAT      O54441   2.059   3.520   4.183 -0.0230 -0.3315 -0.0058
13434WAT     H154442   2.094   3.517   4.263  1.4717  2.1889 -0.4337
13434WAT     H254443   2.077   3.442   4.149  2.7660 -0.1639  0.8362
13434WAT    EPW54444   2.066   3.508   4.190  1.2426  1.0068 -0.0795
13435WAT      O54445   1.956   0.734   6.597 -0.5098 -0.0727  0.3782
13435WAT     H154446   1.944   0.820   6.587 -0.7501 -0.0372  0.9112
13435WAT     H254447   2.004   0.729   6.670 -2.1737 -0.4603  1.4934
13435WAT    EPW54448   1.961   0.746   6.607  0.6886  0.4752 -0.0461
13436WAT      O54449   0.926   3.091   4.748 -0.0376 -0.4722 -0.3311
13436WAT     H154450   0.902   3.025   4.697  0.2137  0.0527 -1.1478
13436WAT     H254451   0.928   3.159   4.694 -0.5113  0.2544  0.5445
13436WAT    EPW54452   0.923   3.091   4.733  0.6910  0.2559 -0.1106
13437WAT      O54453   2.664   1.218   4.093  0.1299 -0.1218 -0.0032
13437WAT     H154454   2.644   1.170   4.023  0.5208  0.0552 -0.2409
13437WAT     H254455   2.725   1.172   4.133  1.3546  0.7003 -0.8570
13437WAT    EPW54456   2.670   1.204   4.089 -0.1627  0.0100 -0.5990
13438WAT      O54457   2.070   0.194   5.991 -0.4910  0.1399 -0.2349
13438WAT     H154458   2.011   0.223   6.049 -0.1527  0.5399 -0.0909
13438WAT     H254459   2.142   0.239   6.010 -0.5125  0.6408 -1.2859
13438WAT    EPW54460   2.072   0.205   6.003 -0.0434  0.4085  0.6526
13439WAT      O54461   2.319   1.639   4.345 -0.5221 -0.2030 -0.3822
13439WAT     H154462   2.358   1.590   4.406  1.5299  0.7114 -0.8592
13439WAT     H254463   2.284   1.704   4.391 -0.2428 -0.2844 -0.0464
13439WAT    EPW54464   2.320   1.642   4.361  0.8819  0.7694  0.7702
13440WAT      O54465   2.102   2.905   3.735 -0.5337  0.9425  0.4879
13440WAT     H154466   2.107   2.824   3.703  4.3230  1.8483 -2.0055
13440WAT     H254467   2.148   2.901   3.808 -1.1397  1.3127  0.8992
13440WAT    EPW54468   2.110   2.892   3.741  0.5832 -0.5509  0.4281
13441WAT      O54469   1.977   2.787   6.287 -0.0646 -0.1246 -0.0741
13441WAT     H154470   1.976   2.762   6.203  0.1907 -0.9672  0.1672
13441WAT     H254471   1.922   2.732   6.326 -0.3729  0.4231  0.2728
13441WAT    EPW54472   1.969   2.775   6.280  0.2774  0.7617 -0.0869
13442WAT      O54473   1.864   3.438   5.595 -0.1808 -0.0042  0.1034
13442WAT     H154474   1.803   3.418   5.536 -0.6778 -3.7180  1.5597
13442WAT     H254475   1.818   3.456   5.667  0.3708 -0.4305  0.5790
13442WAT    EPW54476   1.848   3.437   5.597  0.8178  0.3220 -0.2054
13443WAT      O54477   2.290   1.105   5.244 -0.0296 -0.1564 -0.6472
13443WAT     H154478   2.262   1.082   5.165 -1.6734  0.5754 -0.3266
13443WAT     H254479   2.351   1.166   5.228  0.5909 -0.9534 -1.3551
13443WAT    EPW54480   2.295   1.111   5.230  0.5476 -0.0854  0.4156
13444WAT      O54481   1.723   4.542   5.918 -0.3906 -0.0726 -0.0369
13444WAT     H154482   1.762   4.465   5.929  2.7504  1.5173  1.2394
13444WAT     H254483   1.746   4.565   5.837  1.9515  1.0501  0.8576
13444WAT    EPW54484   1.732   4.534   5.907  0.1658  0.0195 -0.0791
13445WAT      O54485   2.215   1.054   4.551 -0.2287  0.3330 -0.6208
13445WAT     H154486   2.222   0.992   4.490  0.1959  0.1651 -0.4049
13445WAT     H254487   2.285   1.104   4.537  0.2283 -0.0750  0.1365
13445WAT    EPW54488   2.227   1.052   4.540 -0.5990  0.7535  0.5527
13446WAT      O54489   1.840   2.033   6.320  0.0372 -0.1856  0.2483
13446WAT     H154490   1.842   1.959   6.367  0.5733  0.8724  1.9922
13446WAT     H254491   1.922   2.062   6.323  0.0424  0.0113 -1.2426
13446WAT    EPW54492   1.852   2.027   6.327 -0.8539  0.2898 -0.0460
13447WAT      O54493   1.713   1.119   5.946 -0.8398  0.1560 -0.2179
13447WAT     H154494   1.647   1.090   5.896  0.0593 -0.7909 -0.8988
13447WAT     H254495   1.758   1.047   5.964 -1.1971  0.4583  2.1118
13447WAT    EPW54496   1.710   1.104   5.941  0.2560 -0.0258 -0.5442
13448WAT      O54497   1.978   2.623   5.105  0.1411 -0.5408  0.3722
13448WAT     H154498   2.012   2.703   5.112 -0.2400 -0.4912  2.0040
13448WAT     H254499   2.036   2.580   5.055  0.3090  0.7435 -0.5980
13448WAT    EPW54500   1.992   2.628   5.098 -0.0736 -0.6095 -0.1215
13449WAT      O54501   1.865   7.626   3.894 -0.3590 -0.3329 -0.0255
13449WAT     H154502   1.893   7.588   3.821 -0.2135  0.1278 -0.2101
13449WAT     H254503   1.844   7.707   3.868  1.4699  0.4534  0.7991
13449WAT    EPW54504   1.866   7.632   3.879  0.7709 -0.3531 -0.2884
13450WAT      O54505   1.966   1.723   6.059 -0.1888  0.6220 -0.1023
13450WAT     H154506   1.929   1.801   6.052 -1.6346 -0.0478 -0.3096
13450WAT     H254507   1.931   1.690   6.132  0.1056  0.0036 -0.2315
13450WAT    EPW54508   1.956   1.729   6.069 -1.0928 -0.1987  0.1321
13451WAT      O54509   3.300   2.641   6.485 -0.2904 -0.3451  0.3046
13451WAT     H154510   3.377   2.631   6.526 -0.4669  0.5688  0.9034
13451WAT     H254511   3.260   2.565   6.499 -1.2241  0.6072  3.7978
13451WAT    EPW54512   3.306   2.628   6.493 -0.2611  0.1936 -0.2612
13452WAT      O54513   3.145   2.664   5.493 -0.2967  0.1994 -0.0402
13452WAT     H154514   3.060   2.662   5.511 -0.5099  1.4433 -0.7931
13452WAT     H254515   3.151   2.628   5.414  0.5455 -4.5096  1.8665
13452WAT    EPW54516   3.134   2.658   5.484  0.1070  0.6067 -0.1513
13453WAT      O54517   2.325   3.021   5.921  0.2280 -0.1594  0.2006
13453WAT     H154518   2.284   3.081   5.873 -1.3303 -0.8898  0.5657
13453WAT     H254519   2.276   3.015   5.993  0.2374 -1.9938  0.0988
13453WAT    EPW54520   2.312   3.029   5.925  1.0379 -0.3542  0.0058
13454WAT      O54521   1.602   2.096   7.274  0.1426  0.2907 -0.3102
13454WAT     H154522   1.545   2.054   7.326 -0.0931  0.3326 -0.5338
13454WAT     H254523   1.557   2.165   7.245 -0.2327 -0.5177 -1.7442
13454WAT    EPW54524   1.587   2.100   7.278 -0.1529  0.4928  0.3785
13455WAT      O54525   2.439   1.962   6.240  0.3420 -0.7509  0.0813
13455WAT     H154526   2.387   1.990   6.176  0.3544 -2.3167 -0.6727
13455WAT     H254527   2.489   1.903   6.200  0.4230 -1.6878  1.5165
13455WAT    EPW54528   2.439   1.957   6.225 -0.8190 -0.4021 -1.0716
13456WAT      O54529   3.887   2.398   7.302 -0.7024 -0.1918 -0.1689
13456WAT     H154530   3.941   2.376   7.237 -1.4486  1.0498 -1.2619
13456WAT     H254531   3.869   2.322   7.341  2.0166 -0.6523  0.4396
13456WAT    EPW54532   3.892   2.384   7.298 -0.3166 -0.6945  1.3207
13457WAT      O54533   1.548   2.854   6.282  0.1439 -0.3493  0.7779
13457WAT     H154534   1.499   2.896   6.223 -0.0597 -0.4610  0.8651
13457WAT     H254535   1.612   2.911   6.300  1.9551 -1.4176 -1.7614
13457WAT    EPW54536   1.550   2.869   6.276 -0.0760  0.5068  0.5536
13458WAT      O54537   1.840   1.946   5.022  0.3022  0.6888 -0.6117
13458WAT     H154538   1.755   1.954   5.008  0.1783 -0.6742 -0.7738
13458WAT     H254539   1.872   1.922   4.945  0.7423  0.5531 -0.3918
13458WAT    EPW54540   1.832   1.944   5.008 -0.1676  0.5735 -0.5415
13459WAT      O54541   2.244   1.023   7.782  0.5382 -0.0200  0.4224
13459WAT     H154542   2.165   1.054   7.763  0.9402  0.4721 -0.4643
13459WAT     H254543   2.230   0.937   7.793 -0.1843  0.1267  0.7061
13459WAT    EPW54544   2.230   1.015   7.781  0.0372  1.1148  0.2713
13460WAT      O54545   2.705   1.241   5.214 -0.6939 -0.1719 -0.2069
13460WAT     H154546   2.623   1.267   5.204 -0.6333 -0.1339 -0.6437
13460WAT     H254547   2.713   1.228   5.300 -1.1556 -0.1835 -0.1660
13460WAT    EPW54548   2.694   1.243   5.225  0.2493  0.4564 -0.1449
13461WAT      O54549   1.508   2.675   5.089  0.5103 -0.7174 -0.0393
13461WAT     H154550   1.471   2.617   5.036 -0.7019 -1.2667  1.3613
13461WAT     H254551   1.445   2.734   5.102  1.1286 -0.0460  0.0169
13461WAT    EPW54552   1.493   2.675   5.083  0.2924  0.1606 -0.6573
13462WAT      O54553   3.475   3.623   6.196 -0.0031  0.4170  0.1310
13462WAT     H154554   3.398   3.587   6.180  0.5575  0.3394 -2.8223
13462WAT     H254555   3.530   3.556   6.193  0.3186  0.5620  1.6359
13462WAT    EPW54556   3.472   3.608   6.193  0.4966 -0.0259  1.0376
13463WAT      O54557   2.057   1.979   5.585  0.0662  0.2907 -0.3277
13463WAT     H154558   2.063   1.934   5.511  1.5060 -1.8727  0.9815
13463WAT     H254559   1.973   2.001   5.590 -0.1663  0.0190 -2.2814
13463WAT    EPW54560   2.046   1.976   5.575  0.4145 -0.4310 -0.6236
13464WAT      O54561   2.280   1.575   6.199 -0.0004 -0.4834  0.3184
13464WAT     H154562   2.248   1.540   6.126  1.5920 -0.3478 -0.4958
13464WAT     H254563   2.293   1.658   6.178 -0.6017 -0.1702  1.1491
13464WAT    EPW54564   2.277   1.582   6.185  0.6806 -0.5083 -0.0143
13465WAT      O54565   3.005   2.688   6.442  0.2817 -0.3707  0.0471
13465WAT     H154566   3.044   2.695   6.365 -0.5420 -3.0916 -0.7297
13465WAT     H254567   3.039   2.615   6.476  0.5905  0.7355  2.2880
13465WAT    EPW54568   3.016   2.678   6.436 -0.3150 -0.0530  0.6537
13466WAT      O54569   1.613   1.351   7.449 -0.3907  0.3467 -0.4372
13466WAT     H154570   1.538   1.393   7.440 -1.7813 -2.0726 -1.1195
13466WAT     H254571   1.613   1.325   7.532 -0.7399 -0.3084 -0.6285
13466WAT    EPW54572   1.602   1.353   7.460 -0.1119 -0.7019  0.2241
13467WAT      O54573   1.970   1.558   5.808  0.0914  0.1941 -0.2491
13467WAT     H154574   1.935   1.610   5.868 -1.4174 -0.8593 -0.1680
13467WAT     H254575   1.942   1.478   5.830  3.6055 -0.9882  0.5927
13467WAT    EPW54576   1.961   1.554   5.820 -0.2154 -1.0720  0.3285
13468WAT      O54577   2.835   2.315   5.458  0.3307  0.0759 -0.1570
13468WAT     H154578   2.848   2.394   5.423 -0.8221  1.3227  2.0023
13468WAT     H254579   2.779   2.331   5.524 -0.2020 -2.6022  0.1520
13468WAT    EPW54580   2.828   2.329   5.463 -0.0004  0.3073 -0.1506
13469WAT      O54581   2.876   2.157   4.729  0.5946 -0.0211 -0.7298
13469WAT     H154582   2.931   2.215   4.762  0.5915  0.1392 -1.0017
13469WAT     H254583   2.829   2.203   4.672  0.5000 -0.2601 -0.8475
13469WAT    EPW54584   2.877   2.172   4.725  0.5893  0.2464  0.1595
13470WAT      O54585   1.259   2.220   0.173  0.1026 -0.5418 -0.2327
13470WAT     H154586   1.196   2.237   0.231  1.6266 -1.4326  1.8158
13470WAT     H254587   1.229   2.150   0.131 -0.5909 -0.5278  0.2230
13470WAT    EPW54588   1.245   2.212   0.175  0.0038 -0.2824 -0.2721
13471WAT      O54589   3.505   3.241   7.514 -0.2562  0.5574 -0.4847
13471WAT     H154590   3.447   3.276   7.569  0.1360 -0.7124  0.8052
13471WAT     H254591   3.460   3.231   7.440 -1.2350  0.9330  0.0396
13471WAT    EPW54592   3.490   3.245   7.511 -1.2669 -0.8795 -0.3653
13472WAT      O54593   1.463   3.035   6.056  0.0173  0.6683 -0.1026
13472WAT     H154594   1.492   3.102   6.008  3.4157 -2.2269 -2.6846
13472WAT     H254595   1.435   2.978   5.996  1.7825 -2.0278  1.4148
13472WAT    EPW54596   1.463   3.037   6.040  0.6143 -0.1682 -0.5420
13473WAT      O54597   2.140   1.303   4.813 -0.1702 -0.1401 -0.6261
13473WAT     H154598   2.178   1.248   4.756  1.1271 -1.8040  1.6729
13473WAT     H254599   2.066   1.262   4.834 -0.3449  0.1589 -0.6594
13473WAT    EPW54600   2.135   1.289   4.807 -0.1338 -1.0159  0.3962
13474WAT      O54601   1.843   2.178   4.249 -0.0444  0.5524 -0.1010
13474WAT     H154602   1.865   2.262   4.245  0.8149  0.3568  0.2722
13474WAT     H254603   1.867   2.154   4.329 -0.4543 -0.0067 -0.1359
13474WAT    EPW54604   1.849   2.187   4.260 -0.1116 -0.3094  1.0162
13475WAT      O54605   2.990   2.621   5.854  0.2184 -0.0935 -0.6150
13475WAT     H154606   2.962   2.539   5.867  1.0070 -0.2227  0.4668
13475WAT     H254607   3.075   2.611   5.838  0.1331  0.4542 -1.4556
13475WAT    EPW54608   2.998   2.607   5.854 -0.6664 -1.0190  0.2096
13476WAT      O54609   1.429   2.249   4.980  0.0829 -0.0222 -0.0036
13476WAT     H154610   1.402   2.275   4.902  0.4287 -0.3750 -0.2497
13476WAT     H254611   1.363   2.199   5.009 -0.1697  0.3459  0.0578
13476WAT    EPW54612   1.415   2.245   4.973 -0.5437 -0.8024 -0.6594
13477WAT      O54613   2.670   2.413   7.665 -0.4202  0.3169 -0.1258
13477WAT     H154614   2.726   2.369   7.715  0.9944 -0.2864 -2.1284
13477WAT     H254615   2.712   2.488   7.649 -0.8346  0.4811 -0.4591
13477WAT    EPW54616   2.685   2.418   7.670  0.3434 -0.6727 -0.5163
13478WAT      O54617   2.432   2.361   5.220 -0.0776 -0.1030  0.4816
13478WAT     H154618   2.463   2.381   5.299 -0.9247 -0.2490  0.8613
13478WAT     H254619   2.346   2.350   5.234 -0.3404  0.4977 -0.5740
13478WAT    EPW54620   2.424   2.362   5.234 -0.8306 -0.5784 -0.8703
13479WAT      O54621   1.944   2.126   5.199 -0.1953  0.3481 -0.1038
13479WAT     H154622   1.885   2.189   5.216 -0.1830  0.0757  1.0046
13479WAT     H254623   1.900   2.070   5.149 -1.0500 -0.0892  1.0944
13479WAT    EPW54624   1.929   2.127   5.194  0.3872  0.7924 -0.4415
13480WAT      O54625   1.353   1.679   0.434  0.1251  0.7890 -0.2975
13480WAT     H154626   1.356   1.723   0.509 -0.2963 -0.0914  0.2598
13480WAT     H254627   1.426   1.702   0.393  0.8115  0.6158  0.7843
13480WAT    EPW54628   1.364   1.689   0.439  0.4693 -0.3180 -1.1000
13481WAT      O54629   2.256   2.046   4.234  0.2073  0.0582 -0.2820
13481WAT     H154630   2.319   2.016   4.182  0.2689 -0.8899  0.3058
13481WAT     H254631   2.199   1.980   4.237  0.6862 -0.3296  1.6170
13481WAT    EPW54632   2.257   2.032   4.227  0.3799  0.6797 -0.7705
13482WAT      O54633   2.283   2.814   0.082 -0.4156  0.1805 -0.1548
13482WAT     H154634   2.276   2.757   0.016 -0.8629  0.5923 -0.4701
13482WAT     H254635   2.369   2.829   0.088 -0.4188  0.5791 -1.0288
13482WAT    EPW54636   2.295   2.808   0.073  1.1174  0.0670  0.6998
13483WAT      O54637   1.982   2.852   6.614  0.2864 -0.1484  0.2211
13483WAT     H154638   1.951   2.771   6.600 -1.3697  0.5918 -0.7021
13483WAT     H254639   2.047   2.839   6.670 -1.1837 -1.9301  1.6843
13483WAT    EPW54640   1.987   2.838   6.620 -0.1016  0.3434 -0.9724
13484WAT      O54641   2.574   0.961   5.512  0.0295  0.6186 -0.1431
13484WAT     H154642   2.559   1.009   5.583 -0.9138 -0.3046  0.3071
13484WAT     H254643   2.653   0.927   5.526 -0.4730 -0.1992  0.8693
13484WAT    EPW54644   2.583   0.963   5.525  0.6892  0.3737 -0.8330
13485WAT      O54645   1.314   2.621   3.498 -0.3592  0.8316  0.2483
13485WAT     H154646   1.388   2.586   3.528 -0.3741  1.1699  0.7021
13485WAT     H254647   1.341   2.690   3.452 -0.3983  1.0129  0.4979
13485WAT    EPW54648   1.329   2.626   3.496  0.1882 -0.1768 -0.2039
13486WAT      O54649   2.034   2.210   5.911  0.2628 -0.1784 -0.0074
13486WAT     H154650   2.020   2.296   5.910 -0.8470 -0.2915  1.4734
13486WAT     H254651   2.079   2.195   5.838 -1.5377  1.3205 -1.5295
13486WAT    EPW54652   2.038   2.221   5.900  0.6217 -1.1685 -1.2323
13487WAT      O54653   1.457   0.582   4.941 -0.4510  0.5669  0.0966
13487WAT     H154654   1.428   0.637   4.879  0.2211  1.5748  0.6481
13487WAT     H254655   1.502   0.523   4.895 -2.7205 -0.6485 -0.6971
13487WAT    EPW54656   1.459   0.582   4.925 -0.8363  0.0144  0.2121
13488WAT      O54657   1.186   2.764   3.163 -0.0210 -0.1741 -0.9848
13488WAT     H154658   1.250   2.794   3.214 -2.3571  2.8597  0.5433
13488WAT     H254659   1.183   2.679   3.181  0.9187  0.3209  2.0710
13488WAT    EPW54660   1.195   2.756   3.173 -0.3409 -0.2439  0.7003
13489WAT      O54661   1.318   2.937   6.874 -0.2650  0.3570 -0.6368
13489WAT     H154662   1.259   2.974   6.927  0.3034  0.7094 -0.2491
13489WAT     H254663   1.290   2.855   6.867  0.1213  0.0763  0.9042
13489WAT    EPW54664   1.305   2.930   6.881 -0.2143 -0.1013 -0.1277
13490WAT      O54665   0.869   1.934   0.049 -0.0989  0.0491  0.2619
13490WAT     H154666   0.787   1.949   0.022  0.3696  0.1607 -1.1900
13490WAT     H254667   0.880   1.849   0.033  0.0625  0.0307  0.4762
13490WAT    EPW54668   0.859   1.924   0.043  0.4601  0.4584  0.6441
13491WAT      O54669   2.135   1.796   5.383  0.3036  0.0234 -0.1983
13491WAT     H154670   2.207   1.791   5.335  0.8809 -1.1769  0.7386
13491WAT     H254671   2.132   1.719   5.424 -0.4380  0.7751  1.2655
13491WAT    EPW54672   2.145   1.784   5.382 -0.3087  0.1589 -0.2146
13492WAT      O54673   2.172   1.603   7.793 -0.1873 -0.5528  0.6639
13492WAT     H154674   2.193   1.666   7.850 -0.2405 -0.6400  0.7826
13492WAT     H254675   2.103   1.635   7.751 -0.6924 -0.8472  1.2598
13492WAT    EPW54676   2.165   1.617   7.795  0.6539 -0.1162  0.1352
13493WAT      O54677   2.107   4.224   5.601  0.0903  0.0321 -0.3415
13493WAT     H154678   2.086   4.275   5.534  0.4294  1.9438  0.9377
13493WAT     H254679   2.048   4.245   5.662  0.8950 -0.3054  0.5858
13493WAT    EPW54680   2.095   4.234   5.600 -0.8274 -0.1599 -0.7891
13494WAT      O54681   1.647   2.586   5.658 -0.0387  0.5355  0.4308
13494WAT     H154682   1.671   2.600   5.575 -0.7709 -0.4019  0.0548
13494WAT     H254683   1.683   2.654   5.700  1.7138  0.1867 -0.3784
13494WAT    EPW54684   1.656   2.598   5.652 -0.4364 -0.4857 -0.3630
13495WAT      O54685   2.025   1.927   7.754 -0.0656 -0.6882 -0.4440
13495WAT     H154686   2.098   1.931   7.801  0.8223 -1.2973 -1.7132
13495WAT     H254687   2.052   1.942   7.672 -1.4775 -0.1957 -0.8593
13495WAT    EPW54688   2.039   1.930   7.748  0.3731 -0.0297 -0.5981
13496WAT      O54689   3.317   2.894   5.542 -0.0874 -0.0367  0.0893
13496WAT     H154690   3.269   2.955   5.582 -0.2241  1.3205 -2.0306
13496WAT     H254691   3.261   2.829   5.528 -0.5448  0.3103  0.2854
13496WAT    EPW54692   3.302   2.894   5.546  0.2273  0.5223  0.8318
13497WAT      O54693   3.481   2.820   6.095 -0.1032 -0.7071 -0.7671
13497WAT     H154694   3.525   2.837   6.168 -1.5225  0.2078 -0.0913
13497WAT     H254695   3.519   2.874   6.037  0.5147 -0.8694 -0.5262
13497WAT    EPW54696   3.493   2.831   6.097 -0.9664  0.1582  0.2785
13498WAT      O54697   1.737   1.237   4.671 -0.2810  0.0665 -0.1812
13498WAT     H154698   1.820   1.230   4.643 -0.4575 -1.0501 -0.4828
13498WAT     H254699   1.714   1.317   4.646  0.1696 -0.2203 -1.6240
13498WAT    EPW54700   1.746   1.247   4.663 -0.7363 -0.2192 -0.0701
13499WAT      O54701   2.181   1.125   7.367  0.0360  0.1584  0.0401
13499WAT     H154702   2.098   1.101   7.373  0.0474 -0.3924 -1.5902
13499WAT     H254703   2.183   1.203   7.406 -0.9668 -0.3471  1.1785
13499WAT    EPW54704   2.169   1.133   7.374  0.1571  0.1902  0.1060
13500WAT      O54705   1.760   2.185   6.617  0.3831 -0.1220  0.3413
13500WAT     H154706   1.700   2.122   6.614  0.1475  0.0374  1.2709
13500WAT     H254707   1.719   2.255   6.588 -0.6948  0.5600  3.1459
13500WAT    EPW54708   1.745   2.186   6.613  0.2795  0.2103  0.5522
13501WAT      O54709   2.406   1.464   4.548 -0.2115 -0.3626 -0.1909
13501WAT     H154710   2.323   1.464   4.575  0.5725 -0.5055  2.5251
13501WAT     H254711   2.423   1.379   4.535  0.1487 -0.6346  1.7245
13501WAT    EPW54712   2.397   1.451   4.550 -0.4642  0.7664  0.2890
13502WAT      O54713   2.506   2.531   5.472 -0.0310  0.0643 -0.2651
13502WAT     H154714   2.420   2.520   5.468 -0.0130 -0.8713  1.2356
13502WAT     H254715   2.533   2.468   5.526  1.6277  0.2249 -0.8377
13502WAT    EPW54716   2.497   2.520   5.479  0.6016  0.5081 -0.0191
13503WAT      O54717   2.333   1.023   4.806 -0.2697 -0.5783  0.2608
13503WAT     H154718   2.311   1.026   4.722 -1.4874 -1.3411  0.5257
13503WAT     H254719   2.402   1.076   4.811 -0.2585 -0.4157 -1.1843
13503WAT    EPW54720   2.340   1.031   4.795  0.4278  0.1319  0.5871
13504WAT      O54721   1.234   1.029   4.374  0.1723 -0.1872 -0.4879
13504WAT     H154722   1.154   1.063   4.368  0.1618 -0.4009 -2.2162
13504WAT     H254723   1.224   0.948   4.344  1.1630  0.0466 -1.5370
13504WAT    EPW54724   1.221   1.022   4.369 -0.3391 -0.1246 -0.1628
13505WAT      O54725   2.020   0.884   6.101  0.2698 -0.1024  0.8164
13505WAT     H154726   1.951   0.845   6.064 -1.3888  0.8444  2.6708
13505WAT     H254727   2.036   0.835   6.171  2.3163 -0.9744 -0.1932
13505WAT    EPW54728   2.012   0.871   6.106 -0.0559 -0.0238 -0.4743
13506WAT      O54729   1.598   1.914   0.002 -0.2322  0.4056  0.4234
13506WAT     H154730   1.677   1.887  -0.022 -0.3970  0.0415  0.2870
13506WAT     H254731   1.607   1.930   0.087 -0.4155 -1.1910  0.7753
13506WAT    EPW54732   1.611   1.913   0.011 -0.3480  0.5356  0.2986
13507WAT      O54733   1.819   4.103   7.316 -0.4832 -0.3189  0.0905
13507WAT     H154734   1.903   4.110   7.339 -0.5327 -1.2418  0.5863
13507WAT     H254735   1.823   4.094   7.229  0.1186 -2.6211  0.2899
13507WAT    EPW54736   1.832   4.103   7.306 -0.5050  0.3590 -0.0818
13508WAT      O54737   3.375   2.839   7.181  0.0673 -0.2773 -0.2710
13508WAT     H154738   3.389   2.901   7.240 -1.3091  0.2860 -0.4948
13508WAT     H254739   3.367   2.883   7.106 -1.2877 -0.6444 -0.3815
13508WAT    EPW54740   3.376   2.855   7.178  0.0997  0.3305  0.2333
13509WAT      O54741   1.955   3.848   6.523  0.2891 -0.1861  0.0011
13509WAT     H154742   2.025   3.795   6.520 -0.1376 -0.7476 -0.2978
13509WAT     H254743   1.962   3.886   6.601 -0.2891 -1.9709  0.9810
13509WAT    EPW54744   1.966   3.845   6.534  0.1449  0.7084 -0.1788
13510WAT      O54745   1.473   7.891   3.908  0.1671 -0.5703  0.1192
13510WAT     H154746   1.408   7.939   3.942  0.8035  1.0708 -0.8889
13510WAT     H254747   1.523   7.872   3.978  1.0729  2.1236  0.3278
13510WAT    EPW54748   1.471   7.896   3.924 -0.3552 -0.9901  0.5333
13511WAT      O54749   1.398   2.503   4.460  0.5536 -0.2742 -0.4137
13511WAT     H154750   1.323   2.478   4.496 -0.0821  0.2151 -1.3464
13511WAT     H254751   1.451   2.435   4.474 -0.2020 -0.8316 -0.1632
13511WAT    EPW54752   1.394   2.489   4.467  0.2917 -0.0473 -0.6950
13512WAT      O54753   1.815   0.932   4.503 -0.3592 -0.3950  0.3377
13512WAT     H154754   1.834   0.883   4.573 -2.6078 -1.6189  0.1619
13512WAT     H254755   1.848   1.010   4.524  0.9177 -1.2686  1.8109
13512WAT    EPW54756   1.823   0.936   4.516 -0.1138  0.0093 -1.0514
13513WAT      O54757   1.752   2.606   4.697 -0.6381  0.3299  0.1614
13513WAT     H154758   1.710   2.529   4.698  0.5474 -0.3401  1.2469
13513WAT     H254759   1.746   2.634   4.779 -0.6664  1.2007 -0.1213
13513WAT    EPW54760   1.745   2.599   4.709  0.2880 -0.4115  0.4938
13514WAT      O54761   1.283   3.020   7.475 -0.1722 -0.9574  0.7765
13514WAT     H154762   1.275   3.072   7.405 -0.5404 -0.8922  0.8688
13514WAT     H254763   1.314   3.073   7.536  2.5008 -1.5066  0.0307
13514WAT    EPW54764   1.287   3.035   7.473 -0.8771  0.3789 -0.1368
13515WAT      O54765   1.700   2.446   7.260  0.0640  0.0078  0.3101
13515WAT     H154766   1.703   2.469   7.344  0.5218  1.2138 -0.0116
13515WAT     H254767   1.621   2.410   7.251  0.7030 -1.8808  1.6555
13515WAT    EPW54768   1.689   2.444   7.271  0.4493  0.1184  0.8484
13516WAT      O54769   2.538   0.822   7.928 -0.3211 -0.1124  0.7324
13516WAT     H154770   2.615   0.786   7.909  0.3755  1.9254 -0.6568
13516WAT     H254771   2.482   0.778   7.878  0.5675  0.8440 -1.2124
13516WAT    EPW54772   2.541   0.810   7.918  0.1703  0.1852 -0.7241
13517WAT      O54773   2.222   1.781   5.702 -0.0388 -0.3503  0.1152
13517WAT     H154774   2.165   1.715   5.701 -0.5074  0.0257 -1.3269
13517WAT     H254775   2.180   1.844   5.657  1.8145 -0.3475 -1.7445
13517WAT    EPW54776   2.207   1.781   5.695  0.2562 -0.4617 -0.3199
13518WAT      O54777   2.516   1.660   6.790  0.0008  0.3451 -0.0001
13518WAT     H154778   2.494   1.744   6.785  0.1361  0.3463 -0.5647
13518WAT     H254779   2.465   1.630   6.855 -3.1530 -0.0853 -2.4104
13518WAT    EPW54780   2.505   1.668   6.799 -0.7116  0.8758  0.1531
13519WAT      O54781   0.197   4.230   3.876  0.1286  0.0065 -0.1234
13519WAT     H154782   0.205   4.309   3.913 -1.6967  0.8851 -1.4745
13519WAT     H254783   0.261   4.229   3.817  1.5691 -0.4769  1.3555
13519WAT    EPW54784   0.208   4.241   3.873  0.2557  1.3903 -0.7100
13520WAT      O54785   1.765   2.246   2.657  0.2059  0.1874  0.1731
13520WAT     H154786   1.701   2.250   2.716 -1.3776 -1.0214 -1.3770
13520WAT     H254787   1.796   2.327   2.654 -0.7560  0.6255  1.4797
13520WAT    EPW54788   1.760   2.258   2.666  0.1191  0.2936 -0.4408
13521WAT      O54789   2.321   3.747   3.262 -0.1199  0.1104  0.3713
13521WAT     H154790   2.350   3.763   3.342  1.7125 -0.6016 -0.0876
13521WAT     H254791   2.273   3.675   3.271 -0.4976  0.4300  0.9297
13521WAT    EPW54792   2.318   3.739   3.275 -0.4634  0.7730  1.4859
13522WAT      O54793   3.517   3.091   2.405  0.3601 -0.0526  0.2603
13522WAT     H154794   3.574   3.042   2.449 -0.2458 -2.3524 -1.3437
13522WAT     H254795   3.444   3.086   2.452  0.0355 -1.5421 -0.3541
13522WAT    EPW54796   3.515   3.083   2.418 -0.2065  0.0093 -0.1804
13523WAT      O54797   1.179   2.325   3.739 -0.0109  0.3601 -0.3779
13523WAT     H154798   1.140   2.314   3.816 -0.3420 -1.1221 -0.7298
13523WAT     H254799   1.210   2.407   3.743  0.9456 -0.0512  1.7341
13523WAT    EPW54800   1.178   2.336   3.751 -1.0615 -0.6618 -0.2808
13524WAT      O54801   1.479   1.178   3.160  0.0686 -0.5104  0.1061
13524WAT     H154802   1.445   1.139   3.231  1.4784 -0.0250  1.0800
13524WAT     H254803   1.447   1.259   3.164 -2.0429 -1.1779 -1.3652
13524WAT    EPW54804   1.469   1.184   3.171 -0.5229  0.0186 -0.4529
13525WAT      O54805   0.212   2.602   4.017 -0.0150 -0.0016  0.5314
13525WAT     H154806   0.210   2.594   3.930  3.0558  0.5331  0.3150
13525WAT     H254807   0.169   2.677   4.032  0.2971  0.4161 -0.6212
13525WAT    EPW54808   0.205   2.612   4.007  0.5880 -0.4085 -1.6495
13526WAT      O54809   2.031   0.549   3.610  0.3227  0.4887  0.5346
13526WAT     H154810   2.115   0.572   3.605  0.1946  0.7680 -0.8010
13526WAT     H254811   2.029   0.493   3.676  1.2648  1.6919  1.6429
13526WAT    EPW54812   2.043   0.544   3.619  1.1048 -0.7051  0.2200
13527WAT      O54813   1.799   1.360   3.078 -0.4595 -0.5254  0.0265
13527WAT     H154814   1.791   1.337   3.162 -1.2198 -0.5132 -0.0365
13527WAT     H254815   1.783   1.287   3.034  1.4638 -0.9214 -0.1028
13527WAT    EPW54816   1.795   1.346   3.084 -0.2410  0.1975  0.2755
13528WAT      O54817   0.435   1.812   1.549 -0.5718 -0.0513  0.3690
13528WAT     H154818   0.427   1.848   1.470 -1.1239 -2.7215 -0.9040
13528WAT     H254819   0.498   1.859   1.587  1.0233  0.2295 -2.3510
13528WAT    EPW54820   0.443   1.824   1.543 -0.2821  0.0889 -0.1170
13529WAT      O54821   1.744   2.045   1.704  0.4176 -0.4225  0.4888
13529WAT     H154822   1.719   1.981   1.650 -1.7423 -0.2907  1.2280
13529WAT     H254823   1.803   2.007   1.756  1.1162 -1.0558 -0.7350
13529WAT    EPW54824   1.749   2.030   1.704  0.2112  0.3420  0.4156
13530WAT      O54825   1.480   4.317   3.371  0.1003 -0.4361  0.0359
13530WAT     H154826   1.433   4.243   3.368 -0.3802 -0.1324 -0.1205
13530WAT     H254827   1.519   4.319   3.293 -0.8488  0.0741 -0.4569
13530WAT    EPW54828   1.479   4.306   3.359 -0.2203  0.3939  0.7110
13531WAT      O54829   1.692   2.672   4.252 -0.1440 -0.4195  0.2711
13531WAT     H154830   1.675   2.716   4.326 -1.1948  0.9751 -0.7359
13531WAT     H254831   1.613   2.662   4.216  0.3824 -0.7349 -0.8312
13531WAT    EPW54832   1.678   2.677   4.257 -0.3064 -0.6272 -0.6761
13532WAT      O54833   8.047   2.687   3.651  0.6727 -0.6845  0.5572
13532WAT     H154834   8.069   2.762   3.613  1.3362 -0.1057  2.0101
13532WAT     H254835   8.124   2.649   3.668  0.3447 -1.7566 -0.2329
13532WAT    EPW54836   8.062   2.692   3.648  0.4532  0.0553  0.3664
13533WAT      O54837   1.366   1.375   3.526  0.4874  0.2900  0.4015
13533WAT     H154838   1.296   1.326   3.510  0.8125  0.0998 -0.5104
13533WAT     H254839   1.431   1.317   3.530  0.3512  0.1923  3.4435
13533WAT    EPW54840   1.366   1.359   3.525 -0.2999  0.4777 -0.4023
13534WAT      O54841   0.835   2.690   3.487 -0.0596  0.1614 -0.3918
13534WAT     H154842   0.889   2.631   3.451  0.2385  0.3655 -0.2851
13534WAT     H254843   0.759   2.676   3.447  0.3780  0.6987 -1.4572
13534WAT    EPW54844   0.832   2.679   3.476  0.3678 -0.2792 -0.2973
13535WAT      O54845   8.012   3.770   3.330  0.0618  0.4902 -0.8213
13535WAT     H154846   8.001   3.838   3.275  1.3505  2.0438  0.7203
13535WAT     H254847   8.080   3.794   3.379  1.5104 -2.5900 -1.0911
13535WAT    EPW54848   8.020   3.784   3.329  0.0783  0.0244  0.2212
13536WAT      O54849   1.551   3.498   2.309  0.5056 -0.1147  0.1057
13536WAT     H154850   1.521   3.442   2.368 -0.3232 -0.0062 -0.2018
13536WAT     H254851   1.480   3.542   2.284  1.2419  1.5978  0.8637
13536WAT    EPW54852   1.536   3.496   2.314  0.6324  0.2966 -0.0763
13537WAT      O54853   1.838   0.757   3.652 -0.4018 -0.2347 -0.0283
13537WAT     H154854   1.885   0.684   3.640  0.2330  0.3791 -1.5695
13537WAT     H254855   1.874   0.793   3.722  1.9435  0.5056 -1.4818
13537WAT    EPW54856   1.851   0.751   3.660  0.1203  0.1401 -0.6481
13538WAT      O54857   1.926   2.942   5.493  0.6235  0.2152  0.0265
13538WAT     H154858   1.898   2.977   5.568  0.4084 -0.3425  0.2126
13538WAT     H254859   1.973   3.006   5.457 -0.8975  1.2146 -0.3102
13538WAT    EPW54860   1.929   2.957   5.499  0.5581 -0.7695 -0.3238
13539WAT      O54861   7.403   4.299   2.691 -0.2199 -0.0300  0.2383
13539WAT     H154862   7.395   4.312   2.777 -0.3904  0.7486  0.1217
13539WAT     H254863   7.415   4.380   2.660  1.2367 -0.4332 -0.3382
13539WAT    EPW54864   7.403   4.313   2.699 -0.3099 -0.6039 -0.2255
13540WAT      O54865   0.297   1.575   1.467 -0.0429 -0.4109  0.2777
13540WAT     H154866   0.363   1.518   1.468  0.2838 -0.1903 -2.5213
13540WAT     H254867   0.336   1.651   1.447 -0.8915  0.1404  0.6539
13540WAT    EPW54868   0.313   1.578   1.464 -0.0058  0.1177  0.4000
13541WAT      O54869   1.935   1.380   4.373  0.8695  0.4134  0.1335
13541WAT     H154870   1.859   1.338   4.368  1.1003  0.1730 -2.1072
13541WAT     H254871   1.914   1.455   4.413 -0.8813  0.9978 -1.7673
13541WAT    EPW54872   1.921   1.385   4.378  0.0018 -1.2582 -0.2738
13542WAT      O54873   1.590   2.285   4.443  0.3816  0.2551  0.1919
13542WAT     H154874   1.629   2.249   4.374 -0.8995 -3.3020  1.1048
13542WAT     H254875   1.653   2.287   4.503  0.5459 -0.3824  0.0520
13542WAT    EPW54876   1.605   2.280   4.442 -0.2600 -0.1154 -0.5747
13543WAT      O54877   0.709   1.799   2.886 -0.0418  0.5147  0.5892
13543WAT     H154878   0.623   1.812   2.894 -0.0854  2.2192 -1.7266
13543WAT     H254879   0.714   1.718   2.855 -0.9891  0.9863 -0.9101
13543WAT    EPW54880   0.697   1.789   2.883  0.7089 -0.1118 -0.1057
13544WAT      O54881   1.753   2.792   3.579  0.3899 -0.2426 -0.0422
13544WAT     H154882   1.682   2.758   3.617  0.2719 -0.0969 -0.1294
13544WAT     H254883   1.815   2.731   3.591  0.4561 -0.0309  0.7276
13544WAT    EPW54884   1.752   2.778   3.587 -0.0506  0.2153 -0.1183
13545WAT      O54885   0.211   3.386   4.106 -0.9478 -0.1983 -0.3107
13545WAT     H154886   0.124   3.394   4.097 -0.7190  2.4743 -1.3280
13545WAT     H254887   0.241   3.458   4.066  1.7653 -1.2138 -0.2532
13545WAT    EPW54888   0.203   3.398   4.099  0.1500  0.3479  0.9526
13546WAT      O54889   0.576   3.111   2.533  0.5153 -0.0054  0.2281
13546WAT     H154890   0.629   3.127   2.601 -0.3097  1.1485  0.6390
13546WAT     H254891   0.502   3.085   2.571  0.2785 -0.0763 -0.2757
13546WAT    EPW54892   0.573   3.109   2.549 -0.3679  0.2438 -0.8252
13547WAT      O54893   0.225   2.667   3.742  0.1532  0.3044 -0.0635
13547WAT     H154894   0.312   2.658   3.732  0.0271  0.3529 -1.4301
13547WAT     H254895   0.215   2.751   3.759  0.3247  0.4671 -0.7284
13547WAT    EPW54896   0.237   2.678   3.743 -0.5839 -0.0710  0.2506
13548WAT      O54897   1.733   3.052   3.682 -0.0198  0.0083  0.3584
13548WAT     H154898   1.798   3.096   3.643 -1.8462 -0.0342 -3.2019
13548WAT     H254899   1.743   2.971   3.651 -1.5035 -0.0871  0.0920
13548WAT    EPW54900   1.744   3.046   3.671 -0.1211 -0.0468 -0.4004
13549WAT      O54901   2.126   1.686   3.979 -0.0124 -0.1832 -0.5043
13549WAT     H154902   2.080   1.718   3.912  0.7392 -0.0512 -0.9727
13549WAT     H254903   2.081   1.616   4.004 -0.2951 -0.2416 -1.1608
13549WAT    EPW54904   2.113   1.680   3.973  0.1811  0.0948 -0.8502
13550WAT      O54905   0.641   3.715   4.528 -0.5715  0.8118  0.1607
13550WAT     H154906   0.690   3.723   4.600  0.4874  1.6422 -0.6184
13550WAT     H254907   0.678   3.770   4.472 -2.6273  1.7525 -0.3613
13550WAT    EPW54908   0.654   3.724   4.530  0.1285  0.2379 -0.3012
13551WAT      O54909   0.137   1.347   2.083 -0.3364 -0.1061  0.7689
13551WAT     H154910   0.099   1.270   2.069  2.3578 -1.9219  2.4680
13551WAT     H254911   0.096   1.378   2.153 -0.1710 -0.9640  1.2534
13551WAT    EPW54912   0.125   1.340   2.091  0.0271  0.0007  0.1002
13552WAT      O54913   1.205   3.362   5.019  0.7099 -0.2134 -0.0777
13552WAT     H154914   1.183   3.443   4.996  0.4446 -0.2749 -0.0411
13552WAT     H254915   1.134   3.315   5.000  0.6147 -0.3252  0.5374
13552WAT    EPW54916   1.191   3.367   5.013  0.2190 -0.1248 -0.4066
13553WAT      O54917   2.839   2.973   2.376 -0.6750  0.0593  0.1550
13553WAT     H154918   2.765   3.019   2.372  0.7127  2.3196 -1.8820
13553WAT     H254919   2.894   3.025   2.418 -0.3810 -2.0327  2.6312
13553WAT    EPW54920   2.836   2.987   2.382  0.2715 -0.3446  0.5075
13554WAT      O54921   1.726   0.030   1.444 -0.2945  0.3585  1.0979
13554WAT     H154922   1.740   0.116   1.441  1.4295  0.0727 -1.0150
13554WAT     H254923   1.802  -0.004   1.420 -0.9076 -1.7947  2.0004
13554WAT    EPW54924   1.739   0.038   1.440  0.5837  0.3912  0.6606
13555WAT      O54925   1.863   1.505   2.858  0.0446  0.5111  0.2281
13555WAT     H154926   1.859   1.466   2.936  0.6060  0.3570  0.1840
13555WAT     H254927   1.787   1.484   2.821  0.2504 -0.3785  0.2843
13555WAT    EPW54928   1.852   1.496   2.864 -0.4326  0.0533 -0.2024
13556WAT      O54929   0.415   1.216   1.291  0.2498  0.4395 -0.2831
13556WAT     H154930   0.437   1.233   1.208 -1.6037  0.6601 -0.7772
13556WAT     H254931   0.448   1.137   1.305  1.4938  0.8335 -0.8648
13556WAT    EPW54932   0.423   1.207   1.281  0.6414 -0.7592 -0.1980
13557WAT      O54933   0.478   3.746   4.151  0.2597  0.1895  0.5128
13557WAT     H154934   0.546   3.784   4.190  0.4446  0.1365  0.2374
13557WAT     H254935   0.511   3.712   4.078 -0.1377  0.4892  0.1876
13557WAT    EPW54936   0.493   3.747   4.146 -0.2273  0.7326  0.5113
13558WAT      O54937   1.552   1.600   3.758  0.3949 -0.5382  0.6028
13558WAT     H154938   1.484   1.557   3.725  1.0768 -2.1459  1.1719
13558WAT     H254939   1.620   1.548   3.738  1.1655 -0.0961  1.9777
13558WAT    EPW54940   1.552   1.586   3.750  0.3154 -0.0020  0.0887
13559WAT      O54941   1.685   3.327   5.409  0.1507 -0.9277 -0.0152
13559WAT     H154942   1.652   3.284   5.476  0.4676  0.2236  0.9120
13559WAT     H254943   1.621   3.382   5.386 -0.6541 -2.5145 -1.8609
13559WAT    EPW54944   1.671   3.329   5.415  0.3736 -0.8052 -0.1600
13560WAT      O54945   0.798   2.430   4.048  0.1270  0.5892  0.5774
13560WAT     H154946   0.745   2.457   4.111 -0.2442  3.3582 -0.7853
13560WAT     H254947   0.749   2.433   3.976  1.2857  0.2430 -0.2667
13560WAT    EPW54948   0.783   2.435   4.047  0.7070  0.8522 -0.5662
13561WAT      O54949   1.815   3.095   3.966  0.0646 -0.0718  0.3514
13561WAT     H154950   1.899   3.078   3.951  0.7577  2.4310  0.9769
13561WAT     H254951   1.778   3.086   3.887  1.2543  0.5047 -0.2979
13561WAT    EPW54952   1.822   3.091   3.952  0.0039 -1.1829 -0.1459
13562WAT      O54953   1.875   1.991   6.033 -0.8621  0.7178 -0.2139
13562WAT     H154954   1.870   2.018   6.115  2.3801 -0.0856  0.3918
13562WAT     H254955   1.912   2.058   5.991  0.6854 -0.1032 -0.2206
13562WAT    EPW54956   1.880   2.005   6.039 -0.0960 -0.0354  0.6335
13563WAT      O54957   1.645   2.598   2.767  0.4874 -0.0859  0.0883
13563WAT     H154958   1.590   2.665   2.777  0.0568 -0.1873 -1.3761
13563WAT     H254959   1.634   2.551   2.839 -0.6233  0.4053  0.2586
13563WAT    EPW54960   1.635   2.601   2.779 -0.4089 -0.6602  0.1296
13564WAT      O54961   1.997   2.681   3.921  0.2643 -0.2314 -0.2470
13564WAT     H154962   1.971   2.633   3.852  0.9325 -2.7239  1.1269
13564WAT     H254963   1.924   2.720   3.947 -0.2251 -0.1091 -1.7002
13564WAT    EPW54964   1.982   2.680   3.914  0.3142  0.6367 -0.2392
13565WAT      O54965   1.778   2.101   3.882  0.5423  0.5358 -0.5796
13565WAT     H154966   1.768   2.039   3.822  0.8679  0.2737 -0.3605
13565WAT     H254967   1.848   2.145   3.855  0.9965  0.0996 -0.1117
13565WAT    EPW54968   1.787   2.098   3.869  0.0193  0.5294  0.2820
13566WAT      O54969   0.604   3.290   4.007  0.0150  0.1228  0.2256
13566WAT     H154970   0.591   3.214   3.967 -0.2594 -0.1798  0.8761
13566WAT     H254971   0.603   3.269   4.092  3.7910  0.2370  0.4406
13566WAT    EPW54972   0.602   3.276   4.014  0.0405  0.5082 -0.1404
13567WAT      O54973   8.025   2.813   3.050 -0.4807 -0.1574  0.1772
13567WAT     H154974   8.087   2.751   3.050 -0.6005 -0.2823 -0.2338
13567WAT     H254975   8.064   2.880   3.010  0.1860  0.6011  1.9916
13567WAT    EPW54976   8.040   2.813   3.044  0.3762 -0.2061 -0.0973
13568WAT      O54977   1.565   3.418   3.524 -1.0147  0.6348  0.2217
13568WAT     H154978   1.559   3.470   3.593  1.1602 -1.7408  2.4260
13568WAT     H254979   1.528   3.343   3.551  0.3396 -0.5298 -0.9428
13568WAT    EPW54980   1.559   3.414   3.538  0.5875 -1.1973  0.0530
13569WAT      O54981   0.769   3.816   2.607  0.3253 -0.3036 -0.1092
13569WAT     H154982   0.685   3.814   2.584  0.3463  0.0526 -0.2221
13569WAT     H254983   0.788   3.733   2.623  0.2345 -0.5199 -1.0775
13569WAT    EPW54984   0.759   3.804   2.606  0.3857  0.4408  0.8037
13570WAT      O54985   0.965   4.137   2.541  0.0699  0.0843 -0.2589
13570WAT     H154986   0.986   4.078   2.602  0.3195 -0.3561 -0.7706
13570WAT     H254987   0.910   4.190   2.583  0.6167  0.0647  0.4928
13570WAT    EPW54988   0.960   4.136   2.556 -0.7153  0.2727 -1.0152
13571WAT      O54989   0.924   3.302   4.572 -0.4173 -0.2041 -0.4114
13571WAT     H154990   0.866   3.326   4.512 -0.7678  1.0579  0.4028
13571WAT     H254991   0.995   3.282   4.525 -0.8476  0.2428 -1.2735
13571WAT    EPW54992   0.926   3.303   4.556 -0.2159 -0.5058  0.4265
13572WAT      O54993   0.349   2.983   4.110 -0.3618  1.1654  0.0001
13572WAT     H154994   0.344   3.017   4.030  1.4260  1.7908  0.1162
13572WAT     H254995   0.375   2.901   4.095  1.0737  1.6092 -0.0357
13572WAT    EPW54996   0.352   2.976   4.096 -0.1136 -0.0045 -0.5067
13573WAT      O54997   1.569   1.477   4.349  0.1266  0.1251  0.1137
13573WAT     H154998   1.598   1.544   4.302  0.3898 -0.0349  0.0450
13573WAT     H254999   1.616   1.409   4.321  1.2193  0.2615  1.4984
13573WAT    EPW55000   1.580   1.477   4.338 -0.0809 -0.1047 -0.2863
13574WAT      O55001   1.647   1.655   3.416 -0.3561 -0.3099 -0.8762
13574WAT     H155002   1.637   1.740   3.431 -0.8439 -0.5571  0.3323
13574WAT     H255003   1.728   1.638   3.442  0.0972 -0.0330 -2.0732
13574WAT    EPW55004   1.657   1.665   3.422  0.7130  1.0030 -0.0017
13575WAT      O55005   0.313   3.588   3.486  0.0922  0.1584 -0.2167
13575WAT     H155006   0.282   3.670   3.481 -0.9702 -0.1458  1.0419
13575WAT     H255007   0.395   3.596   3.457  1.2330  2.3857  3.0454
13575WAT    EPW55008   0.321   3.602   3.481 -0.1993  0.2210 -0.6615
13576WAT      O55009   2.740   3.107   3.981  0.2714  0.1801  0.4446
13576WAT     H155010   2.807   3.150   4.015  0.0539 -0.0337  1.1492
13576WAT     H255011   2.760   3.102   3.896  0.4500  1.3657  0.4125
13576WAT    EPW55012   2.753   3.112   3.973 -0.6067  0.7547  0.2757
13577WAT      O55013   0.708   2.810   3.920 -0.0044 -0.2856  0.1113
13577WAT     H155014   0.765   2.772   3.974 -1.7021  0.5698  2.7397
13577WAT     H255015   0.631   2.782   3.949 -1.0530  0.5763 -1.6614
13577WAT    EPW55016   0.705   2.800   3.932  0.1589 -0.8330 -0.4568
13578WAT      O55017   1.099   4.309   2.348  0.0543  0.1659  0.3287
13578WAT     H155018   1.182   4.325   2.327  0.0570  0.5901  0.6551
13578WAT     H255019   1.104   4.281   2.431 -0.1652  0.6024  0.4914
13578WAT    EPW55020   1.112   4.307   2.357  0.0492 -0.2052  0.0734
13579WAT      O55021   1.140   1.803   2.832  0.0164 -0.4304  0.5224
13579WAT     H155022   1.215   1.817   2.874 -1.3170  3.0487  2.1394
13579WAT     H255023   1.082   1.847   2.879 -2.3777  0.2907 -2.7518
13579WAT    EPW55024   1.143   1.811   2.845 -0.0206 -0.4992  0.8710
13580WAT      O55025   0.599   2.384   2.502  0.0938  0.2010  0.0031
13580WAT     H155026   0.537   2.322   2.502  1.4360 -1.2339  0.5535
13580WAT     H255027   0.603   2.408   2.586  0.3785  0.1640  0.0018
13580WAT    EPW55028   0.591   2.378   2.515 -0.4519  0.4995 -0.4869
13581WAT      O55029   1.791   0.768   6.037 -0.0534  0.0453  0.1519
13581WAT     H155030   1.778   0.716   5.968 -0.5522  0.7267 -0.2829
13581WAT     H255031   1.759   0.723   6.104 -1.5622  0.2690 -0.3962
13581WAT    EPW55032   1.785   0.754   6.036 -0.3271 -0.6262 -1.2404
13582WAT      O55033   2.372   2.439   3.180  0.1791 -0.5655 -0.1788
13582WAT     H155034   2.379   2.355   3.159  2.1867 -0.2927 -0.7723
13582WAT     H255035   2.429   2.448   3.246 -0.3519  0.2502  0.1848
13582WAT    EPW55036   2.381   2.428   3.187  0.6739 -0.2963 -0.6566
13583WAT      O55037   2.557   2.745   4.221  0.1420 -0.4743  0.9226
13583WAT     H155038   2.625   2.711   4.180  1.2551  2.3237  0.2016
13583WAT     H255039   2.590   2.813   4.264 -1.9190 -0.0388  1.9915
13583WAT    EPW55040   2.572   2.750   4.221 -0.7920 -0.6210 -0.2670
13584WAT      O55041   2.997   0.885   4.474 -0.4592 -0.2566 -0.5037
13584WAT     H155042   2.984   0.916   4.555 -3.2556  0.7514 -1.2404
13584WAT     H255043   3.036   0.952   4.433  0.0912 -0.4219 -0.2651
13584WAT    EPW55044   3.001   0.900   4.480 -0.0204  0.1868  0.1024
13585WAT      O55045   0.605   2.159   2.092 -0.2027  0.2991  0.0785
13585WAT     H155046   0.636   2.161   2.174 -0.4113  0.0185  0.1684
13585WAT     H255047   0.662   2.107   2.050 -0.1081  0.4253  0.0491
13585WAT    EPW55048   0.618   2.151   2.098  0.2180 -0.6923 -0.3825
13586WAT      O55049   0.220   0.977   3.660 -0.1015  0.2964 -0.0216
13586WAT     H155050   0.301   0.953   3.680  0.6360  0.6801 -2.2755
13586WAT     H255051   0.224   1.064   3.656 -1.3073  0.5363  2.3129
13586WAT    EPW55052   0.232   0.986   3.663 -0.5905  0.1080  0.6345
13587WAT      O55053   3.118   1.983   4.696  0.3748 -0.2247  0.1604
13587WAT     H155054   3.095   2.061   4.728  1.7036  0.1018  0.4098
13587WAT     H255055   3.093   1.987   4.612 -0.2121  0.1849  0.3470
13587WAT    EPW55056   3.111   1.995   4.688  0.7138 -0.3075  0.1587
13588WAT      O55057   2.600   1.799   5.066  0.3997  0.9594  0.5887
13588WAT     H155058   2.682   1.790   5.037  0.2202  2.3048 -0.4036
13588WAT     H255059   2.561   1.845   5.004 -1.4620 -0.6299  0.4931
13588WAT    EPW55060   2.606   1.804   5.053 -0.2249  0.7534 -0.3484
13589WAT      O55061   2.059   2.132   2.637  0.5165 -0.7096  1.2193
13589WAT     H155062   2.103   2.188   2.688  0.4790 -0.0898  0.5968
13589WAT     H255063   1.976   2.158   2.645  0.3999 -1.1590  1.5082
13589WAT    EPW55064   2.053   2.144   2.646 -0.3476  0.6289  0.1940
13590WAT      O55065   2.754   2.289   4.973  0.0688 -0.2401 -0.5579
13590WAT     H155066   2.720   2.250   5.043  0.7573 -0.3311 -0.2684
13590WAT     H255067   2.793   2.225   4.929  0.1858 -0.0753 -0.6994
13590WAT    EPW55068   2.754   2.274   4.977 -0.1424 -0.0432  0.7986
13591WAT      O55069   1.248   3.013   3.532  0.1156 -0.0686  0.0872
13591WAT     H155070   1.190   3.066   3.494 -0.4771 -0.8030 -0.0726
13591WAT     H255071   1.202   2.977   3.597  0.7729  0.2911  0.7646
13591WAT    EPW55072   1.232   3.015   3.536  0.1126 -0.3949 -0.5494
13592WAT      O55073   8.077   4.419   3.229 -0.1774  0.2873  0.5270
13592WAT     H155074   8.068   4.499   3.264 -0.8310  1.0007 -1.1562
13592WAT     H255075   8.082   4.435   3.144 -3.0406 -1.6016 -0.1477
13592WAT    EPW55076   8.076   4.433   3.222  0.0767  0.0128  0.0065
13593WAT      O55077   2.075   2.313   4.653  0.2365 -0.3329 -0.0017
13593WAT     H155078   2.149   2.280   4.619  2.0907  2.1950  1.2551
13593WAT     H255079   2.068   2.272   4.729  1.2123  0.3908  0.5091
13593WAT    EPW55080   2.085   2.302   4.659 -0.1230  0.3680  0.0189
13594WAT      O55081   1.368   1.908   4.037  0.1909 -0.2180 -0.4566
13594WAT     H155082   1.382   1.824   4.017  0.5000  0.0179 -1.2788
13594WAT     H255083   1.448   1.939   4.052  0.0533 -0.1311  0.1465
13594WAT    EPW55084   1.382   1.900   4.036 -0.2260  0.0832  0.2328
13595WAT      O55085   1.411   2.895   4.338 -0.6269 -0.7390  0.0535
13595WAT     H155086   1.422   2.852   4.413  3.5921 -1.3594 -0.6703
13595WAT     H255087   1.414   2.832   4.277 -0.4108  0.0188 -0.7469
13595WAT    EPW55088   1.413   2.880   4.340 -0.4641 -0.3216 -1.0444
13596WAT      O55089   1.497   2.138   2.801 -0.3115  0.3924 -0.3316
13596WAT     H155090   1.469   2.090   2.734 -0.2317  0.9342 -0.7567
13596WAT     H255091   1.434   2.198   2.811 -1.0082 -0.5100  0.9707
13596WAT    EPW55092   1.484   2.140   2.793  0.3357 -0.4360 -0.4076
13597WAT      O55093   1.923   0.026   4.110  0.0871 -0.2353  0.3177
13597WAT     H155094   1.980  -0.040   4.105  0.6243  0.1036  1.6630
13597WAT     H255095   1.972   0.097   4.098 -0.5680 -0.0586 -1.6492
13597WAT    EPW55096   1.939   0.027   4.107  0.4723  0.6285  0.0972
13598WAT      O55097   1.428   2.066   4.546  0.3170 -0.1626  0.1857
13598WAT     H155098   1.474   2.127   4.505 -0.3795  0.3378  0.1296
13598WAT     H255099   1.381   2.029   4.482 -1.4381  1.2079  0.5812
13598WAT    EPW55100   1.428   2.069   4.531  0.6423 -0.2288 -0.3815
13599WAT      O55101   1.501   2.795   5.895 -0.2122  0.1495  0.4710
13599WAT     H155102   1.555   2.862   5.913 -1.6184  0.9479  2.0916
13599WAT     H255103   1.544   2.726   5.927  1.2973  0.1806 -1.2868
13599WAT    EPW55104   1.516   2.795   5.903 -1.0190 -0.9652 -0.4210
13600WAT      O55105   1.645   1.914   3.448  0.3795 -0.0557 -0.3439
13600WAT     H155106   1.702   1.921   3.514  0.8323 -0.9439 -0.6241
13600WAT     H255107   1.693   1.931   3.378  0.1737 -0.2845 -0.5399
13600WAT    EPW55108   1.661   1.918   3.448  0.2567 -0.1869 -0.3021
13601WAT      O55109   2.125   1.409   3.091 -0.0839 -0.2813  0.4757
13601WAT     H155110   2.167   1.479   3.059 -0.3850 -0.1112  0.4493
13601WAT     H255111   2.151   1.406   3.174  1.3079 -1.1745  0.0447
13601WAT    EPW55112   2.135   1.419   3.099  0.1973 -0.2284  0.0118
13602WAT      O55113   1.766   1.972   3.202 -0.1937  0.8082  0.4931
13602WAT     H155114   1.714   2.023   3.155  1.6911  0.5462 -2.1138
13602WAT     H255115   1.784   1.906   3.148  1.5953  0.1206  1.8294
13602WAT    EPW55116   1.761   1.970   3.187 -0.1308 -0.4456  0.6210
13603WAT      O55117   7.785   3.672   4.043 -0.6222  0.0916  0.4046
13603WAT     H155118   7.815   3.598   4.009 -0.6047  0.8151 -1.2189
13603WAT     H255119   7.786   3.656   4.129 -0.9837 -1.9233  0.0923
13603WAT    EPW55120   7.789   3.658   4.051 -0.1902 -0.5563  0.3751
13604WAT      O55121   0.615   1.986   3.564  0.6347  0.7837 -0.0072
13604WAT     H155122   0.606   2.067   3.532  0.8596  0.7873 -0.0623
13604WAT     H255123   0.694   1.962   3.537 -0.0569 -0.0571 -1.3363
13604WAT    EPW55124   0.625   1.994   3.556  0.1188  0.0999  0.6723
13605WAT      O55125   0.252   4.471   3.296  0.2415 -0.0781 -0.3250
13605WAT     H155126   0.172   4.440   3.286 -0.1048  0.4529  0.7041
13605WAT     H255127   0.246   4.554   3.268  0.1341  0.3199  0.8401
13605WAT    EPW55128   0.240   4.479   3.290 -0.4381 -0.7385  0.4166
13606WAT      O55129   1.042   2.506   2.545  0.2191  0.8556 -0.3688
13606WAT     H155130   1.078   2.449   2.601  0.1019  2.4000  1.4014
13606WAT     H255131   1.111   2.540   2.504  0.8108  2.6423  1.8587
13606WAT    EPW55132   1.058   2.502   2.547 -0.3698 -0.7069 -0.4512
13607WAT      O55133   2.164   0.956   3.733 -0.0279  0.0438 -0.1898
13607WAT     H155134   2.161   0.952   3.645  1.1037  0.8087 -0.2915
13607WAT     H255135   2.210   0.886   3.755 -1.1211 -0.6763 -0.1146
13607WAT    EPW55136   2.170   0.945   3.723 -0.1801  0.0307  0.4487
13608WAT      O55137   0.552   3.124   4.250 -0.2225 -0.3385  0.5339
13608WAT     H155138   0.493   3.082   4.201  0.0217 -0.0938  0.0139
13608WAT     H255139   0.504   3.172   4.304 -0.5019 -0.7603  0.6622
13608WAT    EPW55140   0.537   3.125   4.251 -0.3773 -0.1718  0.0569
13609WAT      O55141   1.303   1.158   3.928  0.1029  0.1245 -0.2217
13609WAT     H155142   1.287   1.195   4.006  0.2234  2.2946 -1.1616
13609WAT     H255143   1.258   1.208   3.872  1.3594 -0.3665 -1.7332
13609WAT    EPW55144   1.294   1.171   3.932  0.0278 -0.1274  0.2704
13610WAT      O55145   1.063   2.948   4.104 -0.1573  0.1524  0.9559
13610WAT     H155146   1.035   2.895   4.041 -3.3354  2.0096  0.6060
13610WAT     H255147   1.086   3.020   4.062  1.0026  0.2446  1.6958
13610WAT    EPW55148   1.063   2.951   4.089  1.0342 -0.6783 -0.0164
13611WAT      O55149   0.813   3.713   4.042  0.3013 -0.0238 -0.6075
13611WAT     H155150   0.804   3.702   3.956 -0.1053 -1.0107 -0.4496
13611WAT     H255151   0.818   3.632   4.073 -3.7551  0.0244  0.7681
13611WAT    EPW55152   0.813   3.700   4.034  0.3322 -0.5111 -0.0568
13612WAT      O55153   2.243   2.506   5.411  0.0690  0.1469 -0.2085
13612WAT     H155154   2.198   2.576   5.385  0.6076 -0.0810 -1.8890
13612WAT     H255155   2.201   2.439   5.374  1.3074 -0.1348 -1.1590
13612WAT    EPW55156   2.230   2.506   5.402 -0.8278 -0.3312 -0.9392
13613WAT      O55157   1.742   2.423   3.511 -0.6501 -0.7964 -0.1619
13613WAT     H155158   1.754   2.337   3.512  0.5645 -0.6362  0.3074
13613WAT     H255159   1.674   2.435   3.564 -1.9418 -1.5895 -1.5555
13613WAT    EPW55160   1.734   2.412   3.519 -0.2867 -0.5232 -0.6081
13614WAT      O55161   0.632   1.347   3.170  0.2464 -0.1754 -0.2890
13614WAT     H155162   0.678   1.421   3.166 -1.0691  0.9492  2.4776
13614WAT     H255163   0.575   1.355   3.105  0.1529  1.2749 -0.0710
13614WAT    EPW55164   0.630   1.359   3.160 -0.2341  0.7071 -0.1574
13615WAT      O55165   1.343   3.134   4.823 -0.2693  0.4922 -0.6630
13615WAT     H155166   1.374   3.192   4.881  0.3785  0.2040 -0.7148
13615WAT     H255167   1.271   3.103   4.861  0.2142  0.2179  0.0513
13615WAT    EPW55168   1.337   3.138   4.837 -0.1742 -0.4922 -0.7100
13616WAT      O55169   1.528   2.482   3.974 -0.1410 -0.1283 -0.2257
13616WAT     H155170   1.523   2.406   4.017  1.6187  0.6839  1.6326
13616WAT     H255171   1.614   2.501   3.977 -0.3003  1.1473 -2.1021
13616WAT    EPW55172   1.540   2.474   3.981  0.2028  0.0190 -0.2437
13617WAT      O55173   0.984   1.186   2.229  0.4682  0.6013 -0.1091
13617WAT     H155174   1.062   1.182   2.189  0.6325  2.0426  0.0150
13617WAT     H255175   0.950   1.260   2.199 -1.0427 -0.1981 -0.4412
13617WAT    EPW55176   0.991   1.196   2.218 -0.0279 -0.2385 -0.1673
13618WAT      O55177   1.097   0.947   3.183  0.2182  0.0944  0.0531
13618WAT     H155178   1.071   1.029   3.199  0.8412  0.5893 -1.3029
13618WAT     H255179   1.051   0.900   3.240 -1.4254  1.2127 -0.2518
13618WAT    EPW55180   1.086   0.952   3.194 -0.1626  0.3348  0.2234
13619WAT      O55181   1.104   2.935   3.780 -0.2216  0.7686 -0.2737
13619WAT     H155182   1.101   3.004   3.834 -1.5918 -0.0942  0.8384
13619WAT     H255183   1.023   2.932   3.747  0.1859  0.4034 -1.2663
13619WAT    EPW55184   1.092   2.945   3.783  0.2286 -0.8557 -0.2320
13620WAT      O55185   0.094   2.844   4.013  0.1581 -0.3963 -0.9423
13620WAT     H155186   0.151   2.890   4.060 -0.4763  0.5239 -1.0416
13620WAT     H255187   0.100   2.880   3.933 -0.9683  0.1158 -0.8171
13620WAT    EPW55188   0.104   2.856   4.008  0.6156 -0.3635  0.4712
13621WAT      O55189   1.521   2.416   3.684  0.4273  0.1515 -0.2639
13621WAT     H155190   1.518   2.332   3.664 -0.1907 -0.0693  0.6941
13621WAT     H255191   1.530   2.417   3.771 -1.0056  1.0544 -0.0821
13621WAT    EPW55192   1.522   2.404   3.694 -0.0192  0.3787 -0.1094
13622WAT      O55193   1.898   0.938   4.962  0.8004 -0.1922  0.2003
13622WAT     H155194   1.908   0.894   4.888 -1.0089  0.7879 -0.6956
13622WAT     H255195   1.918   1.020   4.940  0.1682  0.1233  0.7593
13622WAT    EPW55196   1.902   0.943   4.948 -0.0959 -0.1095 -1.3844
13623WAT      O55197   2.058   3.316   4.411  0.1219 -0.6878 -0.6667
13623WAT     H155198   1.993   3.311   4.353  0.9906 -2.3121 -1.5319
13623WAT     H255199   2.045   3.246   4.462 -0.4492  0.5385  0.9892
13623WAT    EPW55200   2.046   3.305   4.410 -0.9048  0.5583 -0.3512
13624WAT      O55201   2.243   2.557   5.730 -0.7092  0.0088 -0.2334
13624WAT     H155202   2.317   2.516   5.751  0.3228  1.4900 -0.8632
13624WAT     H255203   2.226   2.529   5.649  0.8615  1.9098 -1.3018
13624WAT    EPW55204   2.251   2.547   5.721 -0.3719  0.5138 -0.2587
13625WAT      O55205   1.895   2.141   4.524  0.1981 -0.6733  0.7593
13625WAT     H155206   1.944   2.208   4.550 -1.0994  0.6886 -0.1509
13625WAT     H255207   1.843   2.126   4.593  0.4945 -0.7616  0.9667
13625WAT    EPW55208   1.895   2.148   4.538  0.2203 -0.9228  0.5610
13626WAT      O55209   1.314   2.248   4.734  0.0959 -0.4922 -0.0867
13626WAT     H155210   1.239   2.266   4.693  0.2814  0.7782  0.1135
13626WAT     H255211   1.345   2.179   4.690 -0.8586 -0.6219 -0.5846
13626WAT    EPW55212   1.308   2.240   4.721 -0.6045 -0.6382  0.0786
13627WAT      O55213   2.477   2.506   4.007 -0.1833 -0.1441  1.0054
13627WAT     H155214   2.476   2.421   3.988  0.6612  0.2377 -1.0519
13627WAT     H255215   2.414   2.515   4.066 -0.9575 -2.0398  0.5447
13627WAT    EPW55216   2.468   2.495   4.013 -0.0018 -0.6076  0.6605
13628WAT      O55217   2.185   1.927   2.951 -0.2683  0.1496  0.3501
13628WAT     H155218   2.121   1.987   2.954  0.1134  0.5340  1.7881
13628WAT     H255219   2.238   1.957   2.888 -0.0996  1.3336  1.0249
13628WAT    EPW55220   2.183   1.940   2.942 -0.3723  0.5033 -0.4787
13629WAT      O55221   1.139   3.253   4.373  0.0888  0.3902  0.0490
13629WAT     H155222   1.148   3.275   4.289  0.2741 -1.7023 -0.5273
13629WAT     H255223   1.195   3.187   4.384  0.2981  0.8009  1.9263
13629WAT    EPW55224   1.148   3.247   4.362 -0.5916 -0.5444 -0.2540
13630WAT      O55225   1.515   4.380   2.112  0.0933  0.3900  0.0101
13630WAT     H155226   1.453   4.353   2.057  0.2627 -0.8374  0.4042
13630WAT     H255227   1.471   4.404   2.183  0.0611 -0.4131  0.2635
13630WAT    EPW55228   1.499   4.380   2.114 -0.4558 -1.0848  0.0360
13631WAT      O55229   2.335   2.916   5.506 -0.0373  0.4161  0.3178
13631WAT     H155230   2.368   2.885   5.580  1.8609 -0.3337 -0.7617
13631WAT     H255231   2.283   2.852   5.478  0.1488  0.2123  0.4381
13631WAT    EPW55232   2.332   2.902   5.513  0.8573  1.2055 -0.6716
13632WAT      O55233   1.406   2.476   2.271 -0.4815 -0.0308 -0.1014
13632WAT     H155234   1.357   2.438   2.209 -0.9434  2.0015 -1.0708
13632WAT     H255235   1.488   2.466   2.243 -0.5004 -1.1675  0.1990
13632WAT    EPW55236   1.411   2.469   2.258  0.0578  0.6642  0.0233
13633WAT      O55237   1.881   2.737   5.994 -0.5010  0.6346  0.1115
13633WAT     H155238   1.794   2.740   5.991 -0.5364  0.7240 -3.1835
13633WAT     H255239   1.906   2.816   5.966  0.7063  0.9473  1.9058
13633WAT    EPW55240   1.872   2.749   5.989 -0.4435 -0.1850  0.4012
13634WAT      O55241   1.803   2.421   3.972  0.6471  0.4049 -0.0567
13634WAT     H155242   1.879   2.392   3.941  0.8827 -0.0455  0.8905
13634WAT     H255243   1.819   2.432   4.057 -0.8706 -1.4923  0.5358
13634WAT    EPW55244   1.817   2.418   3.980  0.0404 -0.7299 -0.1722
13635WAT      O55245   1.706   1.702   4.138 -0.2961 -0.7594 -0.4377
13635WAT     H155246   1.711   1.789   4.132 -1.3903 -0.5825  0.8180
13635WAT     H255247   1.775   1.674   4.092 -0.3612  0.7354 -1.5207
13635WAT    EPW55248   1.717   1.711   4.130  0.2953 -0.3717 -0.2127
13636WAT      O55249   0.330   3.636   2.983  0.0905 -0.1220 -0.8880
13636WAT     H155250   0.286   3.599   2.917 -1.3231  1.4223 -0.9104
13636WAT     H255251   0.408   3.655   2.948  0.1628 -1.3042 -1.4141
13636WAT    EPW55252   0.335   3.634   2.968 -0.1939  0.6979  0.2784
13637WAT      O55253   7.611   1.885   1.906  0.5130  0.4123 -0.0213
13637WAT     H155254   7.558   1.864   1.840  1.0356 -0.1597 -0.2692
13637WAT     H255255   7.658   1.951   1.874 -0.2002  1.0815  0.2828
13637WAT    EPW55256   7.610   1.891   1.892  0.3211  0.2087 -0.6316
13638WAT      O55257   0.906   1.448   4.361 -0.0372  0.2576  0.2014
13638WAT     H155258   0.862   1.515   4.327 -0.3168  0.2108  0.4643
13638WAT     H255259   0.942   1.481   4.434  2.5911  1.0539 -1.3202
13638WAT    EPW55260   0.905   1.463   4.367  0.5222  0.4263  0.2735
13639WAT      O55261   7.994   3.233   1.474 -0.2763  0.0002 -0.3024
13639WAT     H155262   8.008   3.244   1.388  2.3857 -1.6679 -0.1894
13639WAT     H255263   8.063   3.271   1.511 -1.2616  0.4790  1.1634
13639WAT    EPW55264   8.006   3.240   1.467  0.0055  1.5050  0.5911
13640WAT      O55265   0.523   1.000   1.838 -0.0332  0.4224  0.0852
13640WAT     H155266   0.517   0.973   1.921 -0.2017  1.7402  0.5339
13640WAT     H255267   0.519   1.087   1.845 -2.1214  0.5196 -1.4735
13640WAT    EPW55268   0.522   1.009   1.851  0.2057 -0.1405  0.3040
13641WAT      O55269   8.003   2.735   2.658  0.2224 -0.6574 -0.1334
13641WAT     H155270   7.976   2.817   2.670 -2.8010 -1.4957 -0.3788
13641WAT     H255271   8.046   2.738   2.582  0.1015  0.6686 -0.1683
13641WAT    EPW55272   8.005   2.748   2.649  0.8350  0.1526 -0.6364
13642WAT      O55273   0.617   1.715   2.106 -0.4576  0.0562  0.1861
13642WAT     H155274   0.551   1.710   2.049 -0.4380 -0.5640  0.2193
13642WAT     H255275   0.577   1.727   2.182 -0.5125  0.0941  0.1518
13642WAT    EPW55276   0.601   1.716   2.109 -0.0562 -0.5057 -0.1160
13643WAT      O55277   0.683   2.298   4.334  0.0381 -0.2031 -0.1777
13643WAT     H155278   0.717   2.240   4.279 -0.4041 -1.6546  1.0131
13643WAT     H255279   0.741   2.302   4.399 -0.2805  0.1462  0.0922
13643WAT    EPW55280   0.696   2.290   4.336  0.1846 -0.1237 -0.3556
13644WAT      O55281   0.732   0.750   3.773 -0.6143  0.2224 -0.0786
13644WAT     H155282   0.660   0.798   3.781 -1.3549 -0.9573  0.8178
13644WAT     H255283   0.761   0.743   3.854 -0.1268 -0.2299 -0.2846
13644WAT    EPW55284   0.725   0.756   3.786  0.7868 -0.0841 -0.4241
13645WAT      O55285   0.034   0.910   0.239  0.1770 -0.5273 -0.1752
13645WAT     H155286  -0.040   0.916   0.194  0.4514  0.6556 -0.5180
13645WAT     H255287   0.053   0.993   0.258  1.1971 -0.8415  0.2594
13645WAT    EPW55288   0.026   0.924   0.235 -0.0509 -0.2639  0.1200
13646WAT      O55289   7.609   2.908   2.646 -0.1485  0.1312 -0.3003
13646WAT     H155290   7.553   2.968   2.616 -1.7130 -1.4303 -0.7128
13646WAT     H255291   7.665   2.898   2.580  0.3714  1.3730 -0.0744
13646WAT    EPW55292   7.609   2.915   2.631  0.9023  0.1979 -0.9116
13647WAT      O55293   7.758   2.823   2.953  0.1623 -0.3334  0.1705
13647WAT     H155294   7.735   2.878   3.017 -0.5472  0.1234 -0.4586
13647WAT     H255295   7.843   2.808   2.968  0.1487  0.2293  0.8679
13647WAT    EPW55296   7.767   2.829   2.965 -0.0908  0.2567 -0.2516
13648WAT      O55297   1.292   0.180   2.396  0.0790 -0.3806 -0.0643
13648WAT     H155298   1.288   0.239   2.460  2.3337 -0.3931  0.1590
13648WAT     H255299   1.270   0.226   2.325 -0.2620  0.1765  0.3929
13648WAT    EPW55300   1.288   0.196   2.395 -0.6562 -0.5079  0.3145
13649WAT      O55301   0.859   2.372   3.151 -0.0439 -0.2225  0.1658
13649WAT     H155302   0.857   2.326   3.077  2.4423 -0.8339  0.4019
13649WAT     H255303   0.841   2.314   3.213  0.6792 -0.3660  0.2532
13649WAT    EPW55304   0.856   2.357   3.149 -0.2362 -0.3448  0.7964
13650WAT      O55305   0.760   1.103   2.899  0.6356  0.3604  0.4395
13650WAT     H155306   0.688   1.067   2.866  1.1365 -2.1049  1.8244
13650WAT     H255307   0.821   1.042   2.888  1.7309  1.0370  2.2921
13650WAT    EPW55308   0.758   1.089   2.893  0.8050  0.0109 -0.0806
13651WAT      O55309   7.993   2.517   2.080 -0.5039 -0.1019 -0.5177
13651WAT     H155310   8.035   2.581   2.037  0.0966  0.0293  0.2481
13651WAT     H255311   7.993   2.544   2.162 -0.7776 -0.8145 -0.2774
13651WAT    EPW55312   7.999   2.530   2.085 -0.5240  0.2243 -0.0203
13652WAT      O55313   7.466   2.527   2.806  0.4845 -0.3327 -0.4341
13652WAT     H155314   7.467   2.573   2.732  1.0920 -2.2323 -1.6919
13652WAT     H255315   7.398   2.559   2.850 -0.3209  0.4052 -2.1322
13652WAT    EPW55316   7.456   2.538   2.802  0.9962 -0.4278  0.4245
13653WAT      O55317   7.215   3.112   1.755  0.2138 -0.3461  0.3143
13653WAT     H155318   7.178   3.062   1.817  1.9454 -0.0152  1.7043
13653WAT     H255319   7.200   3.068   1.681  1.8915 -3.1850  1.4791
13653WAT    EPW55320   7.207   3.098   1.753  0.2689  0.3114  0.3265
13654WAT      O55321   0.970   0.138   1.747 -0.1099 -0.4705 -0.3325
13654WAT     H155322   0.934   0.217   1.739 -2.7496 -1.4891  0.4520
13654WAT     H255323   0.961   0.119   1.832 -3.1015 -3.0024 -0.9889
13654WAT    EPW55324   0.963   0.147   1.758 -0.0038 -0.1388  0.1110
13655WAT      O55325   1.087   2.323   3.995  0.4367  0.1978  0.0993
13655WAT     H155326   1.144   2.288   4.051 -0.1937 -0.3916  0.3793
13655WAT     H255327   1.010   2.314   4.035 -0.2041 -1.3680 -1.3598
13655WAT    EPW55328   1.084   2.317   4.009  0.4065 -0.4080  0.0129
13656WAT      O55329   7.871   1.252   2.888  0.3393  0.2028 -0.0048
13656WAT     H155330   7.814   1.313   2.914 -1.8747 -1.7485  0.0467
13656WAT     H255331   7.821   1.181   2.875  2.4593 -1.0496 -2.1048
13656WAT    EPW55332   7.855   1.250   2.890 -0.1987 -0.3957 -0.2563
13657WAT      O55333   0.900   0.922   2.120  0.7068  0.1692 -0.0393
13657WAT     H155334   0.861   0.912   2.197 -0.9986  0.3634 -0.8286
13657WAT     H255335   0.929   1.004   2.122  0.0899  0.3896  0.1595
13657WAT    EPW55336   0.898   0.932   2.132  0.6212  0.1172 -0.5482
13658WAT      O55337   1.088   1.272   2.918 -0.6029 -0.7605 -0.5110
13658WAT     H155338   1.121   1.352   2.930  0.7726 -1.3006 -0.4919
13658WAT     H255339   1.034   1.282   2.850 -1.0298  0.3194 -0.0318
13658WAT    EPW55340   1.085   1.285   2.909 -0.4440  0.8913 -0.2237
13659WAT      O55341   7.940   3.498   2.141  0.0261  0.1090 -0.1086
13659WAT     H155342   7.978   3.444   2.198 -1.3753  1.0976  1.8837
13659WAT     H255343   8.004   3.552   2.119  0.8110 -0.8105 -0.1741
13659WAT    EPW55344   7.955   3.498   2.146  0.3020 -0.1050  1.0936
13660WAT      O55345   0.939   0.864   2.648  0.0679  0.4363 -0.1749
13660WAT     H155346   0.981   0.888   2.721  2.0954 -2.1155 -0.3519
13660WAT     H255347   0.887   0.800   2.675 -1.1514  1.2474 -0.5624
13660WAT    EPW55348   0.938   0.858   2.663 -0.6836  0.1889  0.8698
13661WAT      O55349   0.866   2.741   1.557 -0.1043 -0.0157  0.4773
13661WAT     H155350   0.902   2.662   1.569  1.8431  0.5788 -0.9333
13661WAT     H255351   0.796   2.724   1.509  0.4960 -0.8604 -0.1247
13661WAT    EPW55352   0.861   2.727   1.552 -0.3328  0.1449 -0.1528
13662WAT      O55353   1.082   0.727   3.424  0.1620 -0.2124  0.2262
13662WAT     H155354   1.035   0.656   3.441  0.5815 -0.4471  0.4210
13662WAT     H255355   1.044   0.789   3.471  2.8427 -1.3223  4.3465
13662WAT    EPW55356   1.070   0.725   3.433 -0.8404 -0.4261 -0.1234
13663WAT      O55357   7.936   2.179   2.554  0.4523  0.5315 -0.0648
13663WAT     H155358   7.867   2.141   2.518  0.9368  0.4650 -0.9838
13663WAT     H255359   7.909   2.261   2.568  0.6014  0.9214 -1.7850
13663WAT    EPW55360   7.922   2.186   2.551 -0.0916  0.1630 -0.2759
13664WAT      O55361   0.830   1.133   3.172  0.1270  0.1036 -0.1690
13664WAT     H155362   0.799   1.107   3.095 -1.1444 -0.4709  0.5084
13664WAT     H255363   0.793   1.212   3.183 -1.8973 -0.9087  0.9981
13664WAT    EPW55364   0.820   1.141   3.163  0.2812 -0.7176 -0.5095
13665WAT      O55365   0.329   3.362   1.407 -0.1071 -0.3208 -0.3995
13665WAT     H155366   0.371   3.399   1.474 -0.2829 -1.0540  0.1203
13665WAT     H255367   0.317   3.280   1.433  1.1893 -1.0628 -1.9439
13665WAT    EPW55368   0.334   3.355   1.420 -0.0976  0.0974 -0.1723
13666WAT      O55369   0.081   0.834   1.596 -0.1017  0.1954  0.4959
13666WAT     H155370   0.158   0.872   1.612 -0.3716  0.0098  2.5461
13666WAT     H255371   0.041   0.834   1.674 -1.6839 -0.8243 -0.2432
13666WAT    EPW55372   0.086   0.840   1.610 -0.1495  0.1364 -0.8737
13667WAT      O55373   0.981   2.175   2.752  0.5711  0.0136  0.3091
13667WAT     H155374   0.987   2.115   2.816 -2.4222 -0.0061  0.7152
13667WAT     H255375   0.955   2.128   2.683  1.7188  0.3602 -0.3801
13667WAT    EPW55376   0.978   2.159   2.751 -0.2182  0.3744 -0.1147
13668WAT      O55377   0.128   1.188   0.344  0.6461  0.8757  0.1187
13668WAT     H155378   0.196   1.188   0.398 -0.4885  0.3406  1.6037
13668WAT     H255379   0.060   1.204   0.396 -0.6473 -0.8869 -0.9153
13668WAT    EPW55380   0.128   1.190   0.359 -0.1642 -0.3897 -0.4805
13669WAT      O55381   7.284   3.642   0.981 -0.2480 -0.0830  0.4931
13669WAT     H155382   7.307   3.616   0.901 -0.2459 -1.0466  0.7905
13669WAT     H255383   7.226   3.582   1.006 -3.0006  2.1461 -0.1328
13669WAT    EPW55384   7.279   3.629   0.973 -0.4123 -0.3546 -0.3917
13670WAT      O55385   7.750   2.845   1.560 -0.3153 -0.9995 -0.3840
13670WAT     H155386   7.790   2.868   1.635  2.6313  1.6074 -2.5013
13670WAT     H255387   7.684   2.902   1.555 -1.9687 -2.6594  1.1838
13670WAT    EPW55388   7.746   2.857   1.571  1.0527  0.5523 -0.6093
13671WAT      O55389   0.260   1.534   1.187  0.0434 -0.3697  0.2157
13671WAT     H155390   0.248   1.620   1.195 -1.5076 -0.6249  1.0201
13671WAT     H255391   0.283   1.509   1.267 -0.7760 -0.8650  0.3121
13671WAT    EPW55392   0.262   1.543   1.200  0.7648 -0.0076  1.1240
13672WAT      O55393   1.035   2.273   1.818  0.1698 -0.0383 -0.1287
13672WAT     H155394   1.120   2.286   1.804  0.3766 -0.2007  0.9181
13672WAT     H255395   1.016   2.330   1.882 -0.4507 -0.1849 -0.1776
13672WAT    EPW55396   1.045   2.283   1.826  0.4701  0.1471  0.5198
13673WAT      O55397   0.643   0.465   1.427  0.4146  0.1204  0.0787
13673WAT     H155398   0.721   0.481   1.390  0.7434 -0.2295  0.6095
13673WAT     H255399   0.592   0.445   1.359  0.6734  0.7898 -0.3186
13673WAT    EPW55400   0.647   0.464   1.411  1.1574 -0.1533 -0.5926
13674WAT      O55401   7.183   4.766   1.516  0.4681 -0.0839  0.0768
13674WAT     H155402   7.171   4.766   1.430  1.3046 -0.1498 -0.0489
13674WAT     H255403   7.141   4.695   1.543 -1.4512  0.9590 -0.0117
13674WAT    EPW55404   7.175   4.756   1.508  0.0497  0.0208  0.0314
13675WAT      O55405   6.973   2.617   1.343 -0.2390 -0.0244 -0.3604
13675WAT     H155406   7.026   2.601   1.411  0.1107  1.4304 -0.2696
13675WAT     H255407   7.024   2.660   1.287 -0.1717 -2.2097 -2.1222
13675WAT    EPW55408   6.989   2.621   1.345  0.8403 -0.0979 -0.3696
13676WAT      O55409   0.110   2.175   2.635 -0.0386 -0.0420  0.1502
13676WAT     H155410   0.066   2.247   2.614 -1.2283  0.0732  2.6215
13676WAT     H255411   0.055   2.110   2.615 -0.0388 -0.0948  0.3189
13676WAT    EPW55412   0.096   2.176   2.629 -0.7160  0.2655 -0.6831
13677WAT      O55413   7.685   2.636   3.352  0.2257  0.1934 -0.9159
13677WAT     H155414   7.681   2.587   3.280  0.9404 -1.0191 -0.1613
13677WAT     H255415   7.768   2.627   3.378 -0.1248  0.2657  0.2820
13677WAT    EPW55416   7.697   2.627   3.345  0.0204 -0.1245 -0.2691
13678WAT      O55417   0.044   3.672   2.047  0.0521 -0.2950 -0.4109
13678WAT     H155418   0.129   3.673   2.029 -0.2439  1.4270 -2.0698
13678WAT     H255419   0.027   3.754   2.072 -1.0313 -0.7492  0.4533
13678WAT    EPW55420   0.054   3.684   2.048  0.0770 -0.8632  0.0178
13679WAT      O55421   0.494   0.938   3.738 -0.1529 -0.2212  0.6410
13679WAT     H155422   0.503   1.022   3.757  0.4370 -0.1477  0.0462
13679WAT     H255423   0.473   0.938   3.654 -0.5840 -0.6512  0.7432
13679WAT    EPW55424   0.492   0.950   3.729 -0.0408 -0.2601  0.3814
13680WAT      O55425   0.034   1.075   0.968 -0.1794  0.4730  0.1489
13680WAT     H155426   0.073   1.152   0.957  1.5956 -0.2655  0.8926
13680WAT     H255427   0.020   1.071   1.054  3.0552 -1.4139  0.7768
13680WAT    EPW55428   0.038   1.086   0.979  0.0385 -1.1731  0.9959
13681WAT      O55429   1.553   3.154   3.349 -0.6148 -0.0489  0.3403
13681WAT     H155430   1.470   3.155   3.376 -0.5998  0.5933  0.3763
13681WAT     H255431   1.599   3.145   3.423 -0.6492 -0.4379  0.3173
13681WAT    EPW55432   1.547   3.153   3.364 -0.1634  0.6508 -0.1199
13682WAT      O55433   0.531   7.821   3.971 -0.2505 -0.3302  0.1897
13682WAT     H155434   0.593   7.872   3.936 -0.0376 -0.9977 -0.4125
13682WAT     H255435   0.576   7.756   4.007 -0.5409 -0.2292  0.7576
13682WAT    EPW55436   0.547   7.819   3.971  0.0624 -0.1488 -0.1335
13683WAT      O55437   7.326   1.568   1.953 -0.3733 -0.6378  0.5033
13683WAT     H155438   7.346   1.493   1.913 -1.1365  0.2647 -1.7257
13683WAT     H255439   7.373   1.566   2.026  0.7686 -2.6018 -0.2245
13683WAT    EPW55440   7.336   1.557   1.958  0.9162  0.2871  0.2847
13684WAT      O55441   8.012   1.917   3.353 -0.2763 -0.1973 -0.4467
13684WAT     H155442   8.086   1.912   3.307  0.7822 -0.2556  1.1614
13684WAT     H255443   8.028   1.868   3.423 -1.5990  0.3504  0.2815
13684WAT    EPW55444   8.025   1.909   3.356 -0.0001 -0.4353  0.1752
13685WAT      O55445   7.958   2.576   3.411  0.1000  0.1405  0.3478
13685WAT     H155446   7.960   2.608   3.492  0.3322  0.1884  0.3222
13685WAT     H255447   8.041   2.555   3.395  0.3627  1.6689 -0.4993
13685WAT    EPW55448   7.971   2.577   3.421 -0.1796 -0.7070  0.7268
13686WAT      O55449   7.899   1.909   2.771 -0.3298 -0.4498  0.3319
13686WAT     H155450   7.952   1.921   2.840 -0.6084 -1.7711  0.8043
13686WAT     H255451   7.952   1.919   2.703  0.3100 -0.7210  0.7757
13686WAT    EPW55452   7.915   1.912   2.771  0.1533 -0.1827 -0.1583
13687WAT      O55453   6.505   3.367   2.045 -0.2981  0.0803  0.3006
13687WAT     H155454   6.442   3.323   2.088 -1.6476  0.1907 -1.4554
13687WAT     H255455   6.520   3.317   1.975 -0.4527  1.4466 -0.7288
13687WAT    EPW55456   6.498   3.353   2.041  0.4676  0.7550  0.2143
13688WAT      O55457   0.902   3.103   3.016 -0.0878 -0.3981  0.5414
13688WAT     H155458   0.854   3.172   3.038 -0.0207 -0.4398  0.8206
13688WAT     H255459   0.932   3.074   3.092  0.4409 -0.3307  0.3588
13688WAT    EPW55460   0.899   3.109   3.030 -0.2361  0.2290 -0.0283
13689WAT      O55461   7.262   2.038   3.433  0.3682 -0.0357  0.1217
13689WAT     H155462   7.189   2.042   3.385  0.4781 -1.6420 -0.2372
13689WAT     H255463   7.324   2.060   3.377  0.3936 -1.0059 -0.2528
13689WAT    EPW55464   7.260   2.042   3.418  0.2200  0.4102  1.2516
13690WAT      O55465   0.898   0.729   3.991 -0.3205 -0.4852 -0.0091
13690WAT     H155466   0.883   0.814   3.998 -0.8729 -0.5160 -0.7969
13690WAT     H255467   0.965   0.724   3.936 -0.4288 -0.5684 -0.1340
13690WAT    EPW55468   0.906   0.741   3.984 -0.1465 -0.1394  0.8512
13691WAT      O55469   1.005   1.937   2.381  0.6604  0.2804 -0.6002
13691WAT     H155470   1.025   1.879   2.442 -1.1311  0.2807  0.0391
13691WAT     H255471   1.081   1.979   2.366  1.4181 -0.5926  0.6535
13691WAT    EPW55472   1.019   1.935   2.388  0.0002 -0.5257  0.0009
13692WAT      O55473   7.883   3.019   2.187  0.0977  0.0400 -0.2753
13692WAT     H155474   7.856   3.060   2.115 -0.9035  0.2715  0.2137
13692WAT     H255475   7.854   2.938   2.176 -1.3332  0.4133  0.4885
13692WAT    EPW55476   7.874   3.013   2.175  0.1419  0.2201  0.1051
13693WAT      O55477   0.384   2.013   3.969  0.1335 -0.2632  0.0513
13693WAT     H155478   0.328   1.958   4.007  2.1360 -0.9455  2.2810
13693WAT     H255479   0.410   1.970   3.897  0.6579 -1.7153  1.0551
13693WAT    EPW55480   0.380   1.998   3.964  0.2755 -0.0449 -0.3186
13694WAT      O55481   0.901   0.501   3.226  0.2612 -0.2173 -0.0270
13694WAT     H155482   0.948   0.490   3.299  0.0056 -2.7718 -0.1674
13694WAT     H255483   0.823   0.527   3.256 -0.1193 -2.0902  0.7384
13694WAT    EPW55484   0.896   0.503   3.242  0.0093  0.3010 -0.9766
13695WAT      O55485   0.184   1.268   1.710 -0.0038  0.0396  0.4547
13695WAT     H155486   0.203   1.335   1.763 -2.9862  0.4271  1.2016
13695WAT     H255487   0.103   1.247   1.732 -0.8026 -0.8766 -2.8956
13695WAT    EPW55488   0.175   1.275   1.721  0.1778  0.1839  0.0454
13696WAT      O55489   7.870   2.239   2.176  0.2621 -0.4475 -0.1688
13696WAT     H155490   7.913   2.252   2.101 -1.3404  0.2840 -1.0123
13696WAT     H255491   7.883   2.313   2.220  2.1957 -1.3252  0.8590
13696WAT    EPW55492   7.878   2.252   2.171 -0.0187  0.4741 -1.1091
13697WAT      O55493   1.331   1.815   1.044 -0.5285  0.3998 -0.2019
13697WAT     H155494   1.346   1.900   1.037  2.0331  0.0918  0.4281
13697WAT     H255495   1.378   1.780   0.979 -2.0779 -0.5339 -0.8822
13697WAT    EPW55496   1.340   1.822   1.034  0.0206 -0.3186  0.1632
13698WAT      O55497   0.863   0.560   1.271 -0.0843 -0.0557  0.1538
13698WAT     H155498   0.943   0.527   1.258 -0.3253 -0.1252 -1.3610
13698WAT     H255499   0.819   0.534   1.200 -1.2414  0.6215  0.6020
13698WAT    EPW55500   0.869   0.551   1.258  0.7683 -0.5074  0.3084
13699WAT      O55501   0.596   3.709   1.914  0.0178  0.4558  0.7172
13699WAT     H155502   0.521   3.693   1.956 -0.2185 -0.0803  0.1230
13699WAT     H255503   0.584   3.789   1.881 -0.6191  0.0859 -0.0037
13699WAT    EPW55504   0.583   3.718   1.915  0.9541  0.1247 -0.6715
13700WAT      O55505   1.839   2.721   3.012 -0.4233  0.2787  0.4723
13700WAT     H155506   1.901   2.778   2.988 -0.6596  1.5729  2.7000
13700WAT     H255507   1.805   2.695   2.936  1.2320  1.3800 -0.7092
13700WAT    EPW55508   1.843   2.726   2.997 -0.4945  0.0179 -0.6053
13701WAT      O55509   0.907   1.974   2.944  0.5193  0.2267  0.0924
13701WAT     H155510   0.841   1.925   2.914  0.7024  0.6096 -1.0022
13701WAT     H255511   0.914   1.951   3.028 -0.1652 -0.7485 -0.1032
13701WAT    EPW55512   0.898   1.964   2.952 -0.4157  0.4880 -0.0495
13702WAT      O55513   0.514   2.178   1.615  0.7779 -0.1582 -0.0169
13702WAT     H155514   0.514   2.203   1.531 -0.7688 -2.9373 -0.9623
13702WAT     H255515   0.509   2.254   1.658  0.7753  1.3325 -2.4342
13702WAT    EPW55516   0.513   2.193   1.609 -0.4457  0.1108  0.6963
13703WAT      O55517   7.995   1.784   1.335  0.0733 -0.1037 -0.8473
13703WAT     H155518   7.988   1.710   1.380 -0.2575  0.1488 -0.4734
13703WAT     H255519   7.946   1.770   1.264  1.3178 -0.8409 -1.6097
13703WAT    EPW55520   7.987   1.771   1.331  0.1416  1.1618 -1.0328
13704WAT      O55521   0.452   1.286   2.472 -0.4326 -0.0705  0.1564
13704WAT     H155522   0.425   1.316   2.395 -1.5801 -0.4368  0.3934
13704WAT     H255523   0.492   1.211   2.453  0.9686  0.7488 -0.2596
13704WAT    EPW55524   0.454   1.280   2.458  0.0584  0.1698  0.2849
13705WAT      O55525   1.386   1.906   2.933  0.0442  0.6327 -0.1440
13705WAT     H155526   1.410   1.976   2.886 -2.6852  0.8973 -1.3033
13705WAT     H255527   1.445   1.846   2.909  1.1134  1.8802 -0.8436
13705WAT    EPW55528   1.398   1.908   2.922  0.8294 -0.3357 -0.3863
13706WAT      O55529   0.908   0.419   0.325 -0.5633 -0.4525 -0.1739
13706WAT     H155530   0.954   0.470   0.271 -1.0048 -0.7754 -0.8799
13706WAT     H255531   0.964   0.400   0.388 -0.2047  0.4107 -0.2126
13706WAT    EPW55532   0.923   0.424   0.326  0.4537  0.2974 -0.2399
13707WAT      O55533   7.965   1.715   4.020  0.1394  0.2396 -0.2441
13707WAT     H155534   8.043   1.681   4.002 -0.1725  0.5120 -2.2903
13707WAT     H255535   7.983   1.798   4.041  0.7115 -0.5648  3.0230
13707WAT    EPW55536   7.979   1.723   4.021 -0.1635 -0.4186 -0.3824
13708WAT      O55537   8.043   2.199   3.410  0.5408  0.0664  0.2733
13708WAT     H155538   8.039   2.113   3.394 -0.8182 -0.0181  0.9093
13708WAT     H255539   7.963   2.227   3.387 -0.2287  0.5663  3.1215
13708WAT    EPW55540   8.030   2.190   3.404  0.4746 -0.3537 -0.3985
13709WAT      O55541   6.483   2.977   1.903  0.7754  0.1310  0.2948
13709WAT     H155542   6.523   2.941   1.972  0.7322  0.2282  0.3722
13709WAT     H255543   6.399   2.957   1.916  0.6736  0.7766  0.6619
13709WAT    EPW55544   6.476   2.969   1.915  0.2608 -0.0477  0.2835
13710WAT      O55545   7.951   1.600   2.035  0.4078  0.2493  0.0627
13710WAT     H155546   7.957   1.628   1.953  1.6188  0.5044  0.2139
13710WAT     H255547   7.881   1.643   2.066 -0.2750 -0.1347 -0.9260
13710WAT    EPW55548   7.941   1.611   2.028  0.1193  0.0293 -0.3102
13711WAT      O55549   0.576   2.943   2.312  0.1211  0.0442  0.0664
13711WAT     H155550   0.536   2.878   2.356 -1.0349  0.5648 -0.1772
13711WAT     H255551   0.577   3.009   2.369 -1.5210  0.7717 -0.6761
13711WAT    EPW55552   0.570   2.943   2.327  0.0729  1.6142 -0.8275
13712WAT      O55553   0.252   3.855   3.165  0.1651  0.0388 -0.8490
13712WAT     H155554   0.193   3.907   3.128 -0.3633  0.6495  0.7367
13712WAT     H255555   0.282   3.808   3.099  0.6954  2.3650 -2.4001
13712WAT    EPW55556   0.248   3.856   3.150  0.2688  1.0382 -0.2876
13713WAT      O55557   0.436   1.950   0.867  0.5018 -0.2928  0.4936
13713WAT     H155558   0.371   2.008   0.877  0.5194 -0.2490  0.3583
13713WAT     H255559   0.479   1.953   0.943  0.9605  0.4246  0.2152
13713WAT    EPW55560   0.432   1.959   0.880  0.3560  0.7639 -1.1388
13714WAT      O55561   1.562   1.271   2.899  0.4275 -0.2256 -0.1645
13714WAT     H155562   1.537   1.252   2.980  1.4483 -0.6673  0.0656
13714WAT     H255563   1.499   1.237   2.850  0.4027 -1.0308  0.4021
13714WAT    EPW55564   1.549   1.263   2.904  0.4612 -0.3471  0.2151
13715WAT      O55565   0.607   1.443   2.145  0.4983 -0.1899  0.4266
13715WAT     H155566   0.672   1.411   2.097  0.1643  0.2784 -0.3620
13715WAT     H255567   0.615   1.530   2.135 -0.0946 -0.1187  0.5149
13715WAT    EPW55568   0.618   1.451   2.137  0.0413 -1.0768  0.6884
13716WAT      O55569   0.481   3.555   4.382 -0.0892 -0.1469 -0.0680
13716WAT     H155570   0.523   3.599   4.445  0.6409 -0.4858 -0.3145
13716WAT     H255571   0.500   3.600   4.310  0.0529 -0.4530 -0.2189
13716WAT    EPW55572   0.490   3.568   4.381  0.8779  0.1603 -0.1777
13717WAT      O55573   8.034   1.552   3.086 -0.3351  0.2501 -0.2004
13717WAT     H155574   8.098   1.545   3.144  0.4478 -2.4165 -1.2312
13717WAT     H255575   8.072   1.531   3.010 -2.0817  0.1688 -1.1159
13717WAT    EPW55576   8.049   1.548   3.083 -0.2456  0.1726 -0.2246
13718WAT      O55577   8.057   0.359   1.057 -0.1179 -0.4101 -0.2024
13718WAT     H155578   8.097   0.290   1.021 -1.0171 -1.7746  1.2853
13718WAT     H255579   8.121   0.417   1.067  1.2166 -1.9764  0.7728
13718WAT    EPW55580   8.072   0.358   1.053 -0.3326 -0.2551  0.2980
13719WAT      O55581   7.389   3.068   2.527  0.3547  0.1567  0.2377
13719WAT     H155582   7.361   3.150   2.530  0.3695  0.2029 -0.5751
13719WAT     H255583   7.421   3.060   2.446 -0.0841 -0.7853  0.1375
13719WAT    EPW55584   7.389   3.079   2.515  0.3907  0.2275  0.5226
13720WAT      O55585   1.770   1.839   3.682  0.2037  0.6180 -0.1491
13720WAT     H155586   1.854   1.824   3.700  1.1529  2.0403 -2.8880
13720WAT     H255587   1.730   1.765   3.708  2.4556 -0.6113  0.0871
13720WAT    EPW55588   1.776   1.826   3.689  0.4800 -0.3795 -0.3256
13721WAT      O55589   0.508   1.711   2.378 -0.3037 -0.0639  0.1574
13721WAT     H155590   0.579   1.732   2.426  0.0851 -0.5575 -0.1829
13721WAT     H255591   0.443   1.751   2.419  0.0818 -0.1500  0.8807
13721WAT    EPW55592   0.509   1.720   2.391 -0.2209 -0.2048 -0.0402
13722WAT      O55593   1.099   3.360   3.047  0.0941 -0.1176  0.4500
13722WAT     H155594   1.171   3.403   3.073  0.5361  0.2348 -1.2219
13722WAT     H255595   1.127   3.278   3.037  0.4875  0.1501 -0.8713
13722WAT    EPW55596   1.114   3.354   3.049  0.3361 -0.2843 -0.5614
13723WAT      O55597   1.629   2.157   3.044  0.2702  0.4299 -0.4116
13723WAT     H155598   1.609   2.125   2.966  1.0289  0.1796 -0.5097
13723WAT     H255599   1.661   2.236   3.027  1.5180 -0.0654 -0.4739
13723WAT    EPW55600   1.631   2.164   3.030  0.4250  0.1018 -0.6463
13724WAT      O55601   1.483   1.775   1.790  0.2036 -0.1912 -0.7079
13724WAT     H155602   1.399   1.787   1.811  0.5803  1.7261 -0.0829
13724WAT     H255603   1.516   1.734   1.860 -0.3607 -1.7431 -1.3187
13724WAT    EPW55604   1.475   1.771   1.804  0.0099  0.3284 -0.1785
13725WAT      O55605   1.574   2.958   2.250  0.1726 -0.3620  0.6263
13725WAT     H155606   1.647   2.940   2.295 -0.0687  0.6893  1.4515
13725WAT     H255607   1.558   2.883   2.208 -0.0348 -1.6685  2.8996
13725WAT    EPW55608   1.583   2.944   2.250  0.2476  0.0504 -0.0042
13726WAT      O55609   0.890   1.886   3.531  0.5457  0.2867  0.4924
13726WAT     H155610   0.941   1.909   3.463  1.9037  1.1508  1.7323
13726WAT     H255611   0.889   1.799   3.526  1.9464  0.2509  0.2432
13726WAT    EPW55612   0.898   1.876   3.520  0.2714 -0.5646 -0.1820
13727WAT      O55613   1.667   2.404   2.220  0.3792 -0.0539  0.3639
13727WAT     H155614   1.650   2.364   2.145 -1.6797  0.2497  0.5862
13727WAT     H255615   1.753   2.419   2.218  0.6066 -1.3521 -1.2479
13727WAT    EPW55616   1.677   2.401   2.209  0.3853 -0.1073 -0.9802
13728WAT      O55617   0.066   3.460   3.790 -0.6446  0.4562 -0.3483
13728WAT     H155618   0.113   3.391   3.767 -1.2073  0.4326 -1.5189
13728WAT     H255619   0.120   3.506   3.841  0.1362 -0.2545 -0.5118
13728WAT    EPW55620   0.081   3.456   3.794  0.8645 -0.7959  0.2421
13729WAT      O55621   1.902   3.220   3.539 -0.0050 -0.1582 -0.1347
13729WAT     H155622   1.876   3.265   3.468  0.5775  0.4006 -0.0080
13729WAT     H255623   1.980   3.189   3.516 -0.4097 -1.1408 -0.2222
13729WAT    EPW55624   1.910   3.222   3.525 -0.4427 -0.7813 -0.8865
13730WAT      O55625   0.747   0.475   1.027  0.1772 -0.4465  0.3203
13730WAT     H155626   0.670   0.517   1.024  0.4903  0.2501  1.4295
13730WAT     H255627   0.788   0.503   0.955 -0.9105 -1.5080 -0.7745
13730WAT    EPW55628   0.742   0.485   1.016 -0.3164 -0.3610  0.1480
13731WAT      O55629   0.610   2.472   3.184  0.7135  0.1983  0.5113
13731WAT     H155630   0.598   2.553   3.153  0.8041  0.5275  1.3028
13731WAT     H255631   0.689   2.451   3.156  0.8035  0.4969  0.5350
13731WAT    EPW55632   0.620   2.481   3.175 -0.1416 -0.0665 -0.4137
13732WAT      O55633   0.729   1.758   2.581  0.0690 -0.2583  0.1156
13732WAT     H155634   0.815   1.772   2.581  0.3076 -1.6207 -0.5740
13732WAT     H255635   0.700   1.814   2.642  1.7274 -1.3729  2.0748
13732WAT    EPW55636   0.737   1.769   2.590  0.5035  0.1274 -0.3669
13733WAT      O55637   1.857   0.829   3.147  0.1615 -0.3267  0.3239
13733WAT     H155638   1.854   0.835   3.234 -0.0962  0.6845  0.2630
13733WAT     H255639   1.812   0.756   3.130 -1.5626  0.5299  0.9532
13733WAT    EPW55640   1.850   0.819   3.157  1.2505 -0.1874 -0.4125
13734WAT      O55641   0.001   1.063   2.319  0.1057 -0.4663  0.4577
13734WAT     H155642   0.073   1.036   2.360  1.4316  2.3425  0.1879
13734WAT     H255643  -0.043   1.106   2.381  0.1982  0.4780 -0.1208
13734WAT    EPW55644   0.005   1.065   2.334  0.2605  0.6117 -0.2488
13735WAT      O55645   0.718   1.539   2.758 -0.5061 -0.0174 -0.0224
13735WAT     H155646   0.729   1.577   2.680  0.9057 -1.0171 -0.3514
13735WAT     H255647   0.634   1.518   2.759 -0.6788  0.5706 -1.0136
13735WAT    EPW55648   0.707   1.542   2.747 -0.6241  0.6403 -0.3281
13736WAT      O55649   1.297   0.139   0.633 -0.5471  0.1416  0.1583
13736WAT     H155650   1.371   0.110   0.597 -1.0423 -0.8179 -0.1280
13736WAT     H255651   1.291   0.221   0.604  0.5038  0.2987  0.3529
13736WAT    EPW55652   1.307   0.147   0.623  0.3986 -0.1306 -0.2314
13737WAT      O55653   0.110   2.600   3.035  0.4032 -0.7652 -0.6035
13737WAT     H155654   0.190   2.570   3.018  1.1220 -0.3444  1.7139
13737WAT     H255655   0.067   2.530   3.064  0.2289 -0.7985 -0.9439
13737WAT    EPW55656   0.116   2.585   3.037 -0.3740 -0.7995  0.2728
13738WAT      O55657   1.124   0.044   1.073  0.2264  0.5849 -0.2417
13738WAT     H155658   1.128  -0.043   1.083  0.7233  0.2205 -2.7586
13738WAT     H255659   1.195   0.073   1.114  0.6601 -0.3394 -0.3266
13738WAT    EPW55660   1.135   0.035   1.080 -0.1078 -0.9356 -0.0380
13739WAT      O55661   0.548   0.814   3.216  0.4425 -0.3854  0.7701
13739WAT     H155662   0.595   0.760   3.266  0.3991 -1.1013  0.0429
13739WAT     H255663   0.493   0.762   3.174 -0.5206  0.3725  1.0544
13739WAT    EPW55664   0.547   0.799   3.217  0.6828  0.2516 -0.3866
13740WAT      O55665   1.039   3.122   3.402  0.7651 -0.4972 -0.6177
13740WAT     H155666   0.965   3.164   3.416 -0.0190 -1.5427 -1.4081
13740WAT     H255667   1.013   3.043   3.374  2.1588 -0.5842 -1.7927
13740WAT    EPW55668   1.024   3.116   3.400  0.8308 -1.1250 -0.0068
13741WAT      O55669   0.364   3.826   2.580  0.0431  0.2217  0.0231
13741WAT     H155670   0.331   3.746   2.587  0.1215 -0.0312 -1.8275
13741WAT     H255671   0.432   3.816   2.526 -0.5844  1.6682 -1.1242
13741WAT    EPW55672   0.369   3.813   2.573  0.3568 -0.0186  0.7401
13742WAT      O55673   0.487   3.613   1.452  0.2572  0.0093 -0.0706
13742WAT     H155674   0.505   3.696   1.474  1.6348 -0.6581  1.5977
13742WAT     H255675   0.411   3.619   1.411  0.4156  2.1308 -0.1779
13742WAT    EPW55676   0.479   3.626   1.449 -0.4689 -0.4213  0.1517
13743WAT      O55677   2.527   1.859   2.036 -0.1162  0.7025 -0.2440
13743WAT     H155678   2.526   1.831   2.118 -0.1794 -0.0182 -0.4822
13743WAT     H255679   2.445   1.885   2.022 -0.8823 -1.7744 -0.9216
13743WAT    EPW55680   2.515   1.859   2.046  0.6137  0.6844 -0.2376
13744WAT      O55681   0.573   1.795   3.818 -0.4668 -0.6577  0.1930
13744WAT     H155682   0.588   1.711   3.799 -0.1866 -0.6304  0.2968
13744WAT     H255683   0.595   1.837   3.745  0.3773 -0.5766  0.4865
13744WAT    EPW55684   0.579   1.789   3.805 -0.3007 -0.2658  0.1362
13745WAT      O55685   7.680   1.194   1.295  0.1418  0.1893  0.0686
13745WAT     H155686   7.688   1.256   1.235  1.0573  0.2886  0.2815
13745WAT     H255687   7.643   1.128   1.251  1.6400 -0.0797 -0.8714
13745WAT    EPW55688   7.676   1.193   1.280 -0.9319 -0.1674  0.4873
13746WAT      O55689   1.241   2.633   2.389  0.7763 -0.2832  0.2715
13746WAT     H155690   1.270   2.715   2.393  1.1770 -0.4373  0.6157
13746WAT     H255691   1.309   2.589   2.359  0.3283 -0.3827 -0.6165
13746WAT    EPW55692   1.255   2.639   2.385  0.1416  0.4393 -0.8408
13747WAT      O55693   1.063   4.010   1.991 -0.1318 -0.1362  0.5556
13747WAT     H155694   1.053   4.020   2.077  0.5199  0.7087  0.5530
13747WAT     H255695   0.984   4.026   1.958 -0.4548 -0.7515  1.0084
13747WAT    EPW55696   1.050   4.014   1.999 -0.5749 -0.2671 -0.5419
13748WAT      O55697   1.500   2.254   2.012 -0.3742  0.1225  0.5290
13748WAT     H155698   1.515   2.188   1.957 -2.1643 -0.4068  0.6122
13748WAT     H255699   1.475   2.215   2.085  0.9000  0.8658  1.4122
13748WAT    EPW55700   1.499   2.239   2.014 -0.4682 -0.0663 -0.6677
13749WAT      O55701   1.062   1.217   0.778  0.7002  0.8429  0.3515
13749WAT     H155702   1.084   1.265   0.848  0.0420  1.7367 -0.0411
13749WAT     H255703   1.085   1.267   0.711  2.7232 -0.6136 -0.1615
13749WAT    EPW55704   1.069   1.231   0.778  0.7746 -0.0254  0.2124
13750WAT      O55705   1.445   2.006   2.558 -0.0036 -0.1558 -0.3893
13750WAT     H155706   1.428   1.926   2.585 -0.6830  0.1298  0.0308
13750WAT     H255707   1.530   2.002   2.535  0.6044 -0.4122  1.7220
13750WAT    EPW55708   1.455   1.994   2.558 -0.3446 -0.4780 -0.4142
13751WAT      O55709   1.282   0.649   1.011 -0.7505  0.1364 -0.1693
13751WAT     H155710   1.340   0.703   0.976 -0.2720 -0.1789  0.1357
13751WAT     H255711   1.229   0.702   1.056 -0.0625  0.3120  0.4387
13751WAT    EPW55712   1.282   0.665   1.013 -0.2515 -0.2234  0.6971
13752WAT      O55713   0.576   2.423   2.021 -0.3591  0.2852  0.3993
13752WAT     H155714   0.583   2.341   2.050 -0.8027  0.4411  0.9738
13752WAT     H255715   0.541   2.466   2.089  0.1140  1.0053  0.2030
13752WAT    EPW55716   0.572   2.417   2.036  0.1174 -0.6709 -0.2637
13753WAT      O55717   1.069   1.929   1.341 -0.4384 -0.3577  0.3031
13753WAT     H155718   1.132   1.878   1.309 -1.7494 -0.3551 -2.5993
13753WAT     H255719   1.100   2.010   1.327 -1.4450 -0.3244 -2.2640
13753WAT    EPW55720   1.083   1.934   1.334 -0.1004 -0.0956 -0.7565
13754WAT      O55721   8.010   1.437   2.259 -0.4945  0.4673 -0.4732
13754WAT     H155722   8.020   1.484   2.186  0.1115  0.8677 -0.1378
13754WAT     H255723   7.962   1.489   2.310 -1.4762 -0.0715 -0.8065
13754WAT    EPW55724   8.004   1.452   2.256  0.8012 -0.4349  0.1019
13755WAT      O55725   0.253   0.547   0.812 -0.1127  0.1943 -0.4412
13755WAT     H155726   0.319   0.581   0.767  0.5693  0.0171  0.3970
13755WAT     H255727   0.186   0.550   0.756  0.2681  1.6044 -0.8566
13755WAT    EPW55728   0.253   0.552   0.797  0.1690 -0.1049 -0.9390
13756WAT      O55729   0.446   7.662   0.754  0.3899  0.8238  0.2841
13756WAT     H155730   0.506   7.726   0.748 -1.0014  2.1294 -0.6496
13756WAT     H255731   0.490   7.590   0.732  2.1793  1.3191  2.0487
13756WAT    EPW55732   0.461   7.661   0.750 -0.0283  0.2442  0.1923
13757WAT      O55733   7.358   3.183   1.111  0.4533 -0.1516  0.2007
13757WAT     H155734   7.277   3.154   1.117  0.1354  0.5621 -0.5127
13757WAT     H255735   7.369   3.227   1.186 -0.5879  1.5830 -0.6097
13757WAT    EPW55736   7.348   3.185   1.123 -0.1154  0.0984 -0.1286
13758WAT      O55737   8.038   8.014   1.802  0.3470 -0.6272  0.4021
13758WAT     H155738   8.053   8.089   1.843  0.4528  0.1617 -1.0284
13758WAT     H255739   8.112   7.969   1.814  1.1407  0.3814 -0.5495
13758WAT    EPW55740   8.051   8.018   1.810  0.2848 -0.8590 -0.3806
13759WAT      O55741   2.092   1.397   8.015  0.0720 -0.0687 -0.2269
13759WAT     H155742   2.008   1.396   8.035  0.0997 -0.1209 -0.1090
13759WAT     H255743   2.095   1.435   7.937 -0.2154 -1.4501 -0.9473
13759WAT    EPW55744   2.080   1.403   8.007  0.4007 -0.0753 -0.3936
13760WAT      O55745   7.987   2.430   0.755  0.4708 -0.1036  0.2912
13760WAT     H155746   7.990   2.497   0.698  0.6236 -0.4339 -0.0930
13760WAT     H255747   7.936   2.372   0.716 -0.2675  0.0830  0.9575
13760WAT    EPW55748   7.980   2.431   0.741  0.1086 -0.2328  0.7143
13761WAT      O55749   7.514   1.910   0.758 -0.6747  0.5144 -0.6332
13761WAT     H155750   7.437   1.951   0.750 -1.3056 -0.4635  0.0994
13761WAT     H255751   7.496   1.844   0.813  0.7516  0.4124 -0.2500
13761WAT    EPW55752   7.500   1.906   0.765 -0.4685 -0.0299  0.2539
13762WAT      O55753   7.806   7.937   1.938  0.3690  0.6252  0.0610
13762WAT     H155754   7.771   7.883   1.880  1.1120  0.5526 -0.3346
13762WAT     H255755   7.882   7.961   1.901  0.9920  0.3594  1.1162
13762WAT    EPW55756   7.812   7.933   1.924  0.7042  0.1687  0.2487
13763WAT      O55757   0.440   1.841   2.957 -0.3114 -0.1852 -0.4973
13763WAT     H155758   0.426   1.781   3.018 -0.1373 -0.3891 -0.6579
13763WAT     H255759   0.386   1.818   2.892 -0.2446 -0.1678 -0.5589
13763WAT    EPW55760   0.430   1.829   2.956  0.0416 -0.0582 -0.2069
13764WAT      O55761   0.116   2.026   0.014 -0.5604 -0.2334  0.0363
13764WAT     H155762   0.138   2.002   0.095 -0.9161  1.5021  0.6946
13764WAT     H255763   0.192   2.032  -0.028 -0.1064  1.2740  0.9879
13764WAT    EPW55764   0.130   2.024   0.020  0.3632 -1.1214 -0.4034
13765WAT      O55765   0.063   1.811   2.961  0.0545 -0.0258 -0.2991
13765WAT     H155766   0.099   1.870   3.015  2.3122 -0.4765 -1.2200
13765WAT     H255767   0.034   1.749   3.015  0.0044  0.6951  0.5299
13765WAT    EPW55768   0.064   1.811   2.977  0.2841 -0.1156 -1.4115
13766WAT      O55769   7.426   2.025   2.056  0.0367  0.8401 -0.1831
13766WAT     H155770   7.490   1.984   2.012 -0.9929 -1.3010  0.2179
13766WAT     H255771   7.470   2.078   2.110  1.4133  0.7973 -1.1907
13766WAT    EPW55772   7.442   2.027   2.057  0.4374 -0.0831  0.1480
13767WAT      O55773   1.223   1.319   0.179 -0.2094  0.2192 -0.1578
13767WAT     H155774   1.246   1.315   0.263 -0.0522 -0.4001 -0.2208
13767WAT     H255775   1.189   1.240   0.163  0.6656 -0.0304 -0.9176
13767WAT    EPW55776   1.222   1.307   0.189 -0.4121 -0.1540 -0.3342
13768WAT      O55777   0.084   0.567   0.601 -0.2795  0.1668 -0.5410
13768WAT     H155778   0.119   0.522   0.535 -0.7710 -1.3182  0.1444
13768WAT     H255779   0.053   0.639   0.564  0.7854  0.0761 -1.6642
13768WAT    EPW55780   0.085   0.571   0.586 -0.2296 -0.7411 -0.6224
13769WAT      O55781   7.880   4.088   0.876  0.1489 -0.3175  0.6142
13769WAT     H155782   7.945   4.141   0.851  0.7067 -2.2856 -2.7090
13769WAT     H255783   7.922   4.017   0.905 -0.6091  0.0418  2.7685
13769WAT    EPW55784   7.896   4.085   0.876  0.0597 -0.6097  0.3943
13770WAT      O55785   0.636   0.801   2.675  0.0385 -0.0921  0.4126
13770WAT     H155786   0.612   0.837   2.751 -0.4220 -1.4211  0.9293
13770WAT     H255787   0.569   0.817   2.622 -0.1595 -0.1744  0.6344
13770WAT    EPW55788   0.623   0.808   2.678 -0.5239  0.1230 -0.9479
13771WAT      O55789   7.839   3.609   0.054  0.5400 -0.1780 -0.2606
13771WAT     H155790   7.848   3.525   0.071  1.5821  0.0079  0.1633
13771WAT     H255791   7.754   3.624   0.064  0.2493 -1.2947 -0.9363
13771WAT    EPW55792   7.828   3.599   0.058 -0.0693 -0.0418  0.3525
13772WAT      O55793   7.628   0.645   1.327  0.0849 -0.2386  0.6240
13772WAT     H155794   7.690   0.611   1.378  0.2282 -0.9504 -0.0067
13772WAT     H255795   7.567   0.670   1.384  1.4233  1.5759  1.3659
13772WAT    EPW55796   7.628   0.644   1.343  0.8894  0.2164  1.0778
13773WAT      O55797   0.475   4.871   0.193 -0.0277 -0.2624 -0.4231
13773WAT     H155798   0.425   4.942   0.187 -2.1543 -1.3049  2.5437
13773WAT     H255799   0.442   4.817   0.133 -0.5135  0.1320 -0.5086
13773WAT    EPW55800   0.463   4.873   0.183  0.0681 -0.8221 -0.4369
13774WAT      O55801   0.916   2.459   7.763 -0.1081  0.0946 -0.8737
13774WAT     H155802   0.888   2.541   7.777 -1.6897 -0.5933  0.2626
13774WAT     H255803   0.992   2.456   7.805 -0.3858  0.7710 -0.3079
13774WAT    EPW55804   0.923   2.471   7.771 -0.7386 -0.8115 -0.8347
13775WAT      O55805   0.235   1.526   0.436  0.0853 -0.2816  0.2105
13775WAT     H155806   0.312   1.567   0.430  0.1740 -0.5825 -1.0236
13775WAT     H255807   0.253   1.445   0.411 -0.1187 -1.1089  2.5089
13775WAT    EPW55808   0.249   1.520   0.431 -0.2317 -0.8816  0.3380
13776WAT      O55809   0.812   1.877   1.438  0.6380 -0.0505 -0.2391
13776WAT     H155810   0.769   1.905   1.508  1.0662  0.2244 -0.0834
13776WAT     H255811   0.894   1.902   1.453  0.5898  0.7646 -1.2150
13776WAT    EPW55812   0.817   1.885   1.450 -0.6182  0.1638 -0.9238
13777WAT      O55813   1.297   1.433   0.813  0.2258 -0.1198  0.7482
13777WAT     H155814   1.238   1.452   0.752  1.9097 -0.2476 -1.0173
13777WAT     H255815   1.344   1.506   0.821  0.8729 -0.5354  0.8573
13777WAT    EPW55816   1.295   1.446   0.805  0.3074 -1.3368 -0.4242
13778WAT      O55817   7.766   2.025   1.269  0.0173  0.3627  0.0203
13778WAT     H155818   7.685   2.050   1.247  0.5832  1.1946 -1.2682
13778WAT     H255819   7.801   2.097   1.304 -0.5692 -0.6916  3.0706
13778WAT    EPW55820   7.759   2.039   1.271  0.1252  0.0009  0.4951
13779WAT      O55821   0.744   2.221   7.847 -0.4269 -0.5194  0.3452
13779WAT     H155822   0.760   2.300   7.813  0.7903 -0.7137  0.4350
13779WAT     H255823   0.822   2.183   7.847 -0.6775 -1.0781  1.9627
13779WAT    EPW55824   0.758   2.227   7.842 -0.0530  0.2675  0.6707
13780WAT      O55825   0.476   0.663   0.677 -0.6386 -0.5222  0.6993
13780WAT     H155826   0.451   0.715   0.611  0.1410 -1.6782 -0.5448
13780WAT     H255827   0.562   0.656   0.667 -0.6350 -1.4747  1.2746
13780WAT    EPW55828   0.485   0.669   0.666  0.7861 -0.0565 -0.2437
13781WAT      O55829   0.998   2.787   0.482  0.0701 -0.3470 -0.0718
13781WAT     H155830   1.010   2.713   0.437 -0.3524  0.7960 -2.1798
13781WAT     H255831   0.946   2.834   0.431  0.5821  1.5534  1.0664
13781WAT    EPW55832   0.992   2.783   0.468  1.3686  0.3050 -0.8264
13782WAT      O55833   1.836   0.438   0.429  0.0952 -0.2553 -0.2712
13782WAT     H155834   1.786   0.493   0.475  0.4352 -0.2385  0.0868
13782WAT     H255835   1.889   0.491   0.383  1.4519 -0.2476  1.2005
13782WAT    EPW55836   1.837   0.454   0.429  0.6957 -0.4935 -0.6702
13783WAT      O55837   7.911   1.343   0.057  0.2065 -0.3724  0.0268
13783WAT     H155838   7.835   1.368   0.091 -0.1795 -0.8620 -0.4576
13783WAT     H255839   7.936   1.411   0.008  1.2017  0.7083  1.9131
13783WAT    EPW55840   7.904   1.356   0.055  0.4453 -0.2782 -0.4515
13784WAT      O55841   7.226   2.224   7.987  0.1249  0.0978 -0.1219
13784WAT     H155842   7.160   2.274   7.959  0.7277  1.0134  0.0308
13784WAT     H255843   7.197   2.143   7.975 -1.2697  0.4670  0.5062
13784WAT    EPW55844   7.212   2.219   7.981 -0.1127 -0.3749  0.2814
13785WAT      O55845   7.473   2.342   3.325  0.5159 -0.1497 -0.3551
13785WAT     H155846   7.461   2.259   3.303  1.4997 -0.1305 -1.0351
13785WAT     H255847   7.540   2.367   3.275 -0.3476  1.3201 -0.8717
13785WAT    EPW55848   7.481   2.333   3.314 -0.1193 -0.0107  0.4871
13786WAT      O55849   0.682   1.573   0.045  0.3603  0.1086 -0.1426
13786WAT     H155850   0.657   1.497   0.010 -0.0627 -0.2319  0.8632
13786WAT     H255851   0.611   1.624   0.038  0.9304  0.7619 -1.6847
13786WAT    EPW55852   0.668   1.569   0.039 -0.0552  1.1071  0.3911
13787WAT      O55853   1.886   2.437   1.865 -0.2484 -0.1398  0.3207
13787WAT     H155854   1.884   2.524   1.866 -0.7636 -0.1449  0.0806
13787WAT     H255855   1.868   2.417   1.782 -1.0565 -0.4912  0.5708
13787WAT    EPW55856   1.883   2.447   1.853 -0.4765 -0.3248 -0.7990
13788WAT      O55857   7.233   1.721   0.768 -0.1850 -0.1290 -0.7386
13788WAT     H155858   7.162   1.681   0.799  0.0949  0.1818  0.3595
13788WAT     H255859   7.215   1.805   0.778  0.7061 -0.0539  0.4908
13788WAT    EPW55860   7.220   1.727   0.774 -0.1765 -0.1027 -0.6785
13789WAT      O55861   1.425   0.126   0.892  0.3768  0.2662 -0.2085
13789WAT     H155862   1.376   0.181   0.845  0.7486  0.7833 -0.0031
13789WAT     H255863   1.504   0.132   0.854  0.5465  0.2746  0.1486
13789WAT    EPW55864   1.429   0.135   0.879  0.4204 -0.2741 -0.7213
13790WAT      O55865   0.730   1.262   1.336 -0.4714 -0.4485 -0.5507
13790WAT     H155866   0.667   1.312   1.370 -0.2376  0.0288 -0.8055
13790WAT     H255867   0.710   1.182   1.364 -0.2052 -0.0600  0.8463
13790WAT    EPW55868   0.718   1.258   1.345 -0.2662 -0.4607 -0.7081
13791WAT      O55869   1.465   0.824   0.242  0.7172  0.5388 -0.6169
13791WAT     H155870   1.462   0.791   0.161  0.6539  1.6942 -1.1016
13791WAT     H255871   1.506   0.900   0.232 -0.2570  1.2149  0.2521
13791WAT    EPW55872   1.470   0.830   0.229  1.0123  0.5933 -0.8572
13792WAT      O55873   7.988   2.303   1.003 -0.3870  0.2629  0.2027
13792WAT     H155874   8.002   2.321   0.919 -0.2958  0.0590  0.1735
13792WAT     H255875   7.956   2.221   1.002 -1.4646  0.6723  0.2796
13792WAT    EPW55876   7.985   2.293   0.991 -0.8566 -0.0140  0.2472
13793WAT      O55877   7.444   1.652   2.418  0.2883 -0.4809  0.2052
13793WAT     H155878   7.515   1.660   2.467  0.6603  0.2895 -0.4243
13793WAT     H255879   7.424   1.734   2.397 -0.0945 -0.7551 -0.5758
13793WAT    EPW55880   7.451   1.665   2.422  0.3254 -0.0641  0.2638
13794WAT      O55881   7.393   1.560   0.289  0.1692 -1.0712 -0.2387
13794WAT     H155882   7.447   1.556   0.221  0.4065  0.9390 -0.2374
13794WAT     H255883   7.442   1.533   0.356  0.8997 -0.1814 -0.3970
13794WAT    EPW55884   7.408   1.555   0.289  0.4961 -0.7474 -0.0311
13795WAT      O55885   7.088   1.857   0.184  0.3445  0.0944  0.3195
13795WAT     H155886   7.053   1.794   0.134 -0.4177  1.0059 -0.3162
13795WAT     H255887   7.170   1.830   0.196  0.5029 -0.2098 -1.2923
13795WAT    EPW55888   7.095   1.843   0.178 -0.4704 -1.1197 -0.0178
13796WAT      O55889   1.631   2.446   2.986 -0.2130  0.0831 -0.0339
13796WAT     H155890   1.678   2.491   3.044 -1.2821 -0.3080  1.1696
13796WAT     H255891   1.551   2.443   3.021 -1.1622  0.6243 -1.9457
13796WAT    EPW55892   1.626   2.452   3.000 -0.0693  0.7909 -0.4291
13797WAT      O55893   7.780   3.131   1.965  0.3938  0.2136  0.2763
13797WAT     H155894   7.694   3.117   1.963  0.0203  2.1364 -1.9945
13797WAT     H255895   7.813   3.065   1.918  0.2271 -0.6082  1.2716
13797WAT    EPW55896   7.772   3.119   1.958  0.1525  0.9713 -1.2556
13798WAT      O55897   0.301   2.954   2.262  0.1693 -0.1188  0.0427
13798WAT     H155898   0.284   2.932   2.180 -0.5146  0.2834  0.0738
13798WAT     H255899   0.387   2.941   2.269  0.2429 -0.0946 -0.7458
13798WAT    EPW55900   0.311   2.949   2.251 -0.2267  0.1672 -0.2901
13799WAT      O55901   7.706   1.715   2.114  0.4958  0.2224 -0.0844
13799WAT     H155902   7.647   1.673   2.163  0.4578 -0.7219 -0.9211
13799WAT     H255903   7.658   1.770   2.067  0.3488 -0.1090 -0.3223
13799WAT    EPW55904   7.690   1.717   2.114  0.7536 -1.3399  0.1909
13800WAT      O55905   0.525   0.328   2.162 -0.3322  1.0299  0.4710
13800WAT     H155906   0.491   0.378   2.225 -0.6749  2.3118 -0.6639
13800WAT     H255907   0.593   0.374   2.134  0.1542  0.2095  0.2862
13800WAT    EPW55908   0.530   0.343   2.167  0.2196  0.1752  0.0910
13801WAT      O55909   7.681   1.535   0.823 -0.3251  0.2620  0.5746
13801WAT     H155910   7.682   1.477   0.888  0.4240 -0.3095  0.0691
13801WAT     H255911   7.598   1.534   0.796 -0.5521  0.2186  1.2701
13801WAT    EPW55912   7.669   1.526   0.828  0.9866  0.1749 -0.0402
13802WAT      O55913   0.508   3.887   1.508 -0.3183 -0.1590 -0.1833
13802WAT     H155914   0.587   3.881   1.471 -0.7834  2.7581 -1.9798
13802WAT     H255915   0.524   3.881   1.593  2.5405  4.1035 -0.1436
13802WAT    EPW55916   0.522   3.885   1.515  0.2537  0.1659  0.0534
13803WAT      O55917   7.580   2.957   0.237  0.0818 -0.0154  0.0465
13803WAT     H155918   7.645   2.937   0.292 -1.6741  1.2534  2.8077
13803WAT     H255919   7.616   3.015   0.183  1.7520 -0.9196  0.1040
13803WAT    EPW55920   7.595   2.963   0.237  0.6796 -0.0794 -0.1918
13804WAT      O55921   7.958   1.576   0.333 -0.0230  0.1731  0.4633
13804WAT     H155922   8.026   1.611   0.373 -0.7714  1.4818  0.6284
13804WAT     H255923   7.974   1.590   0.248  1.0954 -1.7584  0.2825
13804WAT    EPW55924   7.970   1.583   0.326  0.6244  0.6299 -0.1392
13805WAT      O55925   7.535   0.240   0.594  0.4900 -0.3364  0.6284
13805WAT     H155926   7.598   0.281   0.550  0.8273 -0.6542  0.8115
13805WAT     H255927   7.578   0.200   0.659  0.7176 -3.7892 -1.4287
13805WAT    EPW55928   7.551   0.240   0.597 -0.1997 -0.0591  0.6272
13806WAT      O55929   0.757   0.358   0.773  0.0668 -0.0877 -0.1041
13806WAT     H155930   0.778   0.302   0.710 -0.9379  0.9296 -1.3987
13806WAT     H255931   0.670   0.358   0.771 -0.0296  3.0013 -1.5957
13806WAT    EPW55932   0.747   0.350   0.763 -0.3263 -0.2668 -0.2076
13807WAT      O55933   1.601   0.711   7.690  0.0448 -0.0709 -0.2620
13807WAT     H155934   1.602   0.777   7.747  1.9490  0.0055 -0.3070
13807WAT     H255935   1.656   0.653   7.725 -0.0714 -0.7675 -1.1968
13807WAT    EPW55936   1.609   0.712   7.704  0.9090  0.0722 -0.2140
13808WAT      O55937   0.475   6.560   7.766 -0.3704  0.3734 -0.3893
13808WAT     H155938   0.453   6.635   7.805  0.4519  0.8707 -0.8568
13808WAT     H255939   0.399   6.517   7.761 -0.6212  0.5691  1.1452
13808WAT    EPW55940   0.460   6.565   7.771 -0.0998  0.6448  0.1752
13809WAT      O55941   0.555   0.325   3.505  0.2026  0.0157 -0.0364
13809WAT     H155942   0.584   0.311   3.424 -0.4788  1.2402 -0.5157
13809WAT     H255943   0.601   0.394   3.532  1.0928 -0.9424  0.9919
13809WAT    EPW55944   0.566   0.333   3.497  0.0836 -0.4329  0.4285
13810WAT      O55945   0.336   1.440   0.012 -0.3254 -0.1413 -0.2368
13810WAT     H155946   0.381   1.365   0.017 -0.4923 -0.2380 -0.1502
13810WAT     H255947   0.263   1.422   0.057  0.4019  0.6379  1.3576
13810WAT    EPW55948   0.332   1.426   0.020 -0.0818  0.7230 -0.0387
13811WAT      O55949   7.969   2.899   1.051  0.1536 -0.0068 -0.5571
13811WAT     H155950   7.967   2.980   1.018  1.1008  0.1548 -0.2640
13811WAT     H255951   7.904   2.898   1.108  1.3502  1.2391  0.9137
13811WAT    EPW55952   7.959   2.911   1.054 -0.1451  0.1946  0.1562
13812WAT      O55953   0.616   2.161   0.301  0.3188  0.6482 -0.2009
13812WAT     H155954   0.699   2.134   0.300 -0.3218 -1.4819 -2.2164
13812WAT     H255955   0.571   2.090   0.325 -1.0977  1.0976 -1.3778
13812WAT    EPW55956   0.622   2.147   0.305  0.1399  0.0449 -0.3063
13813WAT      O55957   7.550   2.827   1.138  0.0078 -0.0124 -0.4435
13813WAT     H155958   7.505   2.866   1.074 -0.9021 -0.0731  0.1492
13813WAT     H255959   7.616   2.883   1.153 -0.0155  0.2133 -1.1277
13813WAT    EPW55960   7.553   2.841   1.131 -0.3349 -0.2024  0.5970
13814WAT      O55961   7.854   0.787   1.230  0.2084  0.9873 -0.0070
13814WAT     H155962   7.874   0.804   1.314  2.0177 -3.1091  0.6661
13814WAT     H255963   7.777   0.747   1.235  0.3361  0.7017 -0.2832
13814WAT    EPW55964   7.846   0.783   1.243 -0.0815 -0.1558 -0.0510
13815WAT      O55965   7.837   2.225   0.663  0.0757 -0.0195 -0.5448
13815WAT     H155966   7.837   2.142   0.689  1.1563 -0.6414 -2.2869
13815WAT     H255967   7.812   2.219   0.579 -0.4832  1.4950 -0.5059
13815WAT    EPW55968   7.833   2.212   0.654 -0.0526  0.9196  0.1310
13816WAT      O55969   0.456   0.971   2.138 -0.0311 -0.2694 -0.5240
13816WAT     H155970   0.429   1.053   2.125  0.4534 -0.2888 -1.7801
13816WAT     H255971   0.389   0.923   2.110 -0.1546 -0.3033 -0.1694
13816WAT    EPW55972   0.443   0.976   2.132 -0.2880  1.1190 -0.5548
13817WAT      O55973   7.909   2.024   1.019  0.2521 -0.3514  0.0438
13817WAT     H155974   7.853   2.021   1.086  1.3454  0.1495  1.0301
13817WAT     H255975   7.861   2.003   0.950 -0.7084 -1.9178  1.1304
13817WAT    EPW55976   7.894   2.020   1.019  0.4065  0.9352 -0.2565
13818WAT      O55977   1.653   1.071   0.941  0.3702  0.1432  0.3767
13818WAT     H155978   1.579   1.115   0.957  0.9748  1.6311 -0.6846
13818WAT     H255979   1.699   1.081   1.014  0.6478  1.6782  0.0360
13818WAT    EPW55980   1.649   1.079   0.954  0.1887 -0.2779  0.3511
13819WAT      O55981   2.546   1.287   0.533  0.1918  0.4687  0.2809
13819WAT     H155982   2.489   1.240   0.488 -0.8589  1.0035  1.0013
13819WAT     H255983   2.586   1.336   0.473  1.1811 -1.1715 -0.4531
13819WAT    EPW55984   2.544   1.287   0.518 -0.4197  0.1945  0.0695
13820WAT      O55985   2.053   2.000   7.283 -0.2536 -0.1330 -0.7921
13820WAT     H155986   1.976   2.000   7.324 -0.3972 -1.0613 -1.0566
13820WAT     H255987   2.041   2.056   7.217 -0.5495  0.0850 -0.5542
13820WAT    EPW55988   2.040   2.009   7.279 -0.4716 -0.4250  0.0291
13821WAT      O55989   1.859   0.565   7.872 -0.0254 -0.1210  0.5195
13821WAT     H155990   1.941   0.537   7.880  0.3042  0.5165 -0.3947
13821WAT     H255991   1.828   0.563   7.953  0.4460 -1.6835  0.7004
13821WAT    EPW55992   1.867   0.560   7.885  0.3647  0.6724  0.6049
13822WAT      O55993   1.808   0.149   1.107 -0.6403 -0.2916  0.0821
13822WAT     H155994   1.752   0.084   1.121  1.2373 -1.8036  1.1697
13822WAT     H255995   1.884   0.117   1.138  0.4447  2.2908  0.3109
13822WAT    EPW55996   1.811   0.134   1.113  0.0813 -0.2251  0.0594
13823WAT      O55997   2.485   1.034   0.045 -1.0815  0.1626 -0.2917
13823WAT     H155998   2.501   0.989  -0.028 -0.7731 -0.5433  0.1970
13823WAT     H255999   2.418   1.085   0.024 -0.2273  0.8752 -1.4505
13823WAT    EPW56000   2.478   1.035   0.031  0.4840  0.2766  0.6144
13824WAT      O56001   1.916   1.565   6.964  0.1109  0.5794  0.4665
13824WAT     H156002   1.843   1.577   6.918 -0.6948  0.9852  1.7978
13824WAT     H256003   1.890   1.518   7.033  1.5039 -1.0312 -0.0173
13824WAT    EPW56004   1.902   1.560   6.968  0.2413  0.3436 -0.0600
13825WAT      O56005   1.088   0.894   7.938  0.6829 -0.3161 -0.2177
13825WAT     H156006   1.102   0.810   7.961 -0.1942 -0.3080  0.3999
13825WAT     H256007   1.110   0.938   8.010  0.0952 -0.1008 -0.1730
13825WAT    EPW56008   1.094   0.888   7.952  0.0166 -0.6486 -0.3734
13826WAT      O56009   2.372   7.561   6.136  0.2411 -0.0575 -0.6439
13826WAT     H156010   2.432   7.504   6.107  2.3015  0.3807  2.2887
13826WAT     H256011   2.420   7.631   6.158 -1.7994  1.5575 -1.0551
13826WAT    EPW56012   2.388   7.563   6.135 -0.0783 -0.3668 -0.0897
13827WAT      O56013   3.242   0.441   0.756 -0.2255 -0.0750 -0.1469
13827WAT     H156014   3.188   0.449   0.688  0.0690  0.1014 -0.3625
13827WAT     H256015   3.189   0.448   0.825 -0.5833 -0.6708 -0.3531
13827WAT    EPW56016   3.226   0.443   0.756 -0.1939 -0.6982 -0.1758
13828WAT      O56017   2.426   1.445   7.782  0.6668  0.0516  0.5349
13828WAT     H156018   2.353   1.487   7.804  0.2120 -0.9827  1.0838
13828WAT     H256019   2.467   1.501   7.729 -0.0060  1.0880  1.0728
13828WAT    EPW56020   2.421   1.459   7.777  0.5595 -1.6243  0.2918
13829WAT      O56021   1.680   1.601   6.835 -0.1088 -0.2182 -0.4473
13829WAT     H156022   1.692   1.576   6.752  2.3503  0.2182 -0.3017
13829WAT     H256023   1.682   1.688   6.831 -0.7476 -0.1752 -0.0060
13829WAT    EPW56024   1.682   1.610   6.822  0.9193 -0.2228  0.1095
13830WAT      O56025   1.878   1.188   6.446  0.2311  0.1555 -0.0927
13830WAT     H156026   1.889   1.123   6.504  0.2797  1.7034  1.7342
13830WAT     H256027   1.959   1.205   6.420  0.4717  0.8259  1.0217
13830WAT    EPW56028   1.891   1.181   6.451 -0.0827 -0.1309 -0.4042
13831WAT      O56029   2.214   0.901   7.187  0.3375  0.2705 -0.2050
13831WAT     H156030   2.128   0.891   7.176  0.1159 -0.8656  1.9514
13831WAT     H256031   2.221   0.961   7.250  1.0147 -0.9918  0.9784
13831WAT    EPW56032   2.203   0.908   7.194  0.0401  0.3617  0.1931
13832WAT      O56033   3.261   0.998   5.742  0.0114  0.2979 -0.3405
13832WAT     H156034   3.272   1.035   5.821 -1.6117 -1.4331  0.7891
13832WAT     H256035   3.199   1.047   5.705 -0.2940  0.2458  0.0890
13832WAT    EPW56036   3.253   1.011   5.748 -0.2732 -0.4295 -0.9032
13833WAT      O56037   2.186   1.431   5.971 -0.0112 -0.1757 -0.6688
13833WAT     H156038   2.139   1.383   6.027  1.0813 -3.1444 -2.0915
13833WAT     H256039   2.127   1.483   5.934 -1.9590 -2.5184 -1.1029
13833WAT    EPW56040   2.170   1.431   5.974  0.0167  0.2712  0.5315
13834WAT      O56041   1.365   1.001   0.641 -0.5297 -0.3711  0.5041
13834WAT     H156042   1.297   0.946   0.639 -0.5550 -0.3213 -0.2164
13834WAT     H256043   1.429   0.957   0.600 -1.0446  0.7563 -1.6561
13834WAT    EPW56044   1.365   0.986   0.634  1.0428  0.4885 -0.6517
13835WAT      O56045   1.435   1.978   7.486 -0.1056 -0.0842  0.5944
13835WAT     H156046   1.487   1.989   7.555  2.2751 -0.9261 -0.9582
13835WAT     H256047   1.440   1.892   7.470 -2.4962 -0.3162  0.7037
13835WAT    EPW56048   1.443   1.967   7.494  0.1359 -0.4070  0.1454
13836WAT      O56049   3.077   0.824   5.899  0.1332  0.0661  0.2155
13836WAT     H156050   3.125   0.852   5.832 -0.8160 -0.9898 -0.9554
13836WAT     H256051   3.122   0.755   5.929 -0.3469 -0.6084 -0.5578
13836WAT    EPW56052   3.091   0.818   5.894  0.4484 -0.0128 -0.6405
13837WAT      O56053   2.384   0.814   6.798  0.1722 -0.1835 -0.1226
13837WAT     H156054   2.390   0.869   6.866 -0.0439 -0.4947  0.1524
13837WAT     H256055   2.346   0.743   6.833 -0.7409 -0.0228 -0.7658
13837WAT    EPW56056   2.379   0.812   6.813 -0.3578  0.0247 -0.1571
13838WAT      O56057   2.287   0.427   6.506  0.1251 -0.4265  0.2547
13838WAT     H156058   2.331   0.390   6.441 -0.6440  0.3450 -0.7374
13838WAT     H256059   2.270   0.360   6.560  2.2894 -0.7936  0.6006
13838WAT    EPW56060   2.291   0.412   6.504  1.0821 -1.3887  0.3435
13839WAT      O56061   2.096   6.923   5.519  0.0104  0.1087  0.6419
13839WAT     H156062   2.132   6.948   5.594  0.9747  0.2262  0.1582
13839WAT     H256063   2.024   6.971   5.514 -0.6819 -0.7346  2.0384
13839WAT    EPW56064   2.091   6.934   5.529 -0.1338 -0.4228 -0.8431
13840WAT      O56065   2.383   0.691   6.528 -0.8340  0.0739  0.1302
13840WAT     H156066   2.348   0.612   6.536  0.8701 -0.7649 -0.1274
13840WAT     H256067   2.394   0.717   6.611 -0.2972 -0.4910  0.2407
13840WAT    EPW56068   2.380   0.683   6.541 -0.0098  0.1310  0.7354
13841WAT      O56069   2.151   1.170   6.769  0.7743 -0.1259 -0.1390
13841WAT     H156070   2.194   1.178   6.693 -1.7925 -1.2105 -1.8800
13841WAT     H256071   2.098   1.240   6.769  0.8498 -0.0547  0.7779
13841WAT    EPW56072   2.149   1.182   6.757 -0.2051  0.9223 -0.1933
13842WAT      O56073   2.859   0.025   6.284  0.4171  0.2363 -0.4505
13842WAT     H156074   2.931   0.064   6.314  1.2595  0.4501 -2.5742
13842WAT     H256075   2.878  -0.060   6.289  0.6322  0.2768 -0.5644
13842WAT    EPW56076   2.873   0.019   6.289  0.2403 -0.2537 -0.0755
13843WAT      O56077   1.941   0.717   4.336  0.2864  0.6221 -0.3075
13843WAT     H156078   1.906   0.774   4.392  0.0230 -0.8677  1.1085
13843WAT     H256079   1.874   0.696   4.284 -0.3911 -0.4776  0.9468
13843WAT    EPW56080   1.926   0.722   4.337 -0.2372  0.3752 -0.5375
13844WAT      O56081   2.948   7.727   6.410  0.2585 -0.9897 -0.1760
13844WAT     H156082   2.898   7.786   6.449  0.4729 -1.6142  1.1227
13844WAT     H256083   2.996   7.694   6.476  5.6870  2.5495 -1.6658
13844WAT    EPW56084   2.948   7.731   6.426  0.0464  0.4514 -0.1584
13845WAT      O56085   2.707   2.078   1.165  0.2192  0.6508 -0.2420
13845WAT     H156086   2.734   2.096   1.084  1.5841 -1.1498 -0.2508
13845WAT     H256087   2.685   2.156   1.198  0.1181  1.4761 -2.1535
13845WAT    EPW56088   2.708   2.092   1.158  0.6063  0.0844 -0.3280
13846WAT      O56089   1.953   0.785   4.724 -0.1369  0.0471  0.1158
13846WAT     H156090   1.885   0.731   4.726 -0.1721  0.0530 -0.7101
13846WAT     H256091   2.022   0.733   4.716 -0.2016  0.1187 -1.1412
13846WAT    EPW56092   1.953   0.769   4.723  0.1787 -0.5311 -0.6025
13847WAT      O56093   2.668   0.752   6.483  0.1287  0.3606 -0.2303
13847WAT     H156094   2.602   0.697   6.473 -0.1986  0.8517 -0.8666
13847WAT     H256095   2.674   0.763   6.569  0.2054 -0.6679 -0.0970
13847WAT    EPW56096   2.659   0.746   6.494 -0.3759  0.3578 -0.3034
13848WAT      O56097   2.825   0.818   0.515  0.0085 -0.3646  0.1383
13848WAT     H156098   2.760   0.874   0.533  1.1232  0.8774  0.4813
13848WAT     H256099   2.785   0.752   0.474 -1.2060  1.2155 -1.3614
13848WAT    EPW56100   2.809   0.817   0.512  0.1067  0.3778  0.7663
13849WAT      O56101   2.016   0.433   1.716  0.4051 -0.1731 -0.1375
13849WAT     H156102   2.056   0.441   1.793  1.4421 -1.5277 -0.4812
13849WAT     H256103   2.053   0.362   1.682  0.5357  0.8363 -2.2353
13849WAT    EPW56104   2.028   0.423   1.722 -0.5267 -0.1625 -0.0411
13850WAT      O56105   1.907   0.946   0.155 -0.0758  0.1271 -0.3396
13850WAT     H156106   1.825   0.975   0.163  0.6366  1.9328  1.0635
13850WAT     H256107   1.913   0.927   0.070 -2.2145 -1.0240 -0.3087
13850WAT    EPW56108   1.895   0.948   0.144  0.8441  0.4370 -0.6942
13851WAT      O56109   2.789   7.817   6.072 -0.3437  0.1887 -0.3940
13851WAT     H156110   2.760   7.878   6.018 -1.1265 -0.2071 -0.4406
13851WAT     H256111   2.718   7.792   6.116  0.4844  1.5007  1.8755
13851WAT    EPW56112   2.774   7.822   6.071  0.5225 -0.1077  0.2635
13852WAT      O56113   1.651   0.661   4.632 -0.7690 -0.2213  0.2630
13852WAT     H156114   1.576   0.697   4.659  0.0802  0.8942  1.2638
13852WAT     H256115   1.660   0.690   4.551 -1.4992 -0.4942  0.0839
13852WAT    EPW56116   1.642   0.671   4.624  0.0015 -0.6067 -0.0948
13853WAT      O56117   2.253   0.109   0.513  0.0674 -0.5617 -0.4312
13853WAT     H156118   2.333   0.097   0.546 -0.4472 -1.0970  0.6924
13853WAT     H256119   2.227   0.028   0.494 -0.3253 -0.4229 -0.4946
13853WAT    EPW56120   2.261   0.095   0.515  0.5548 -0.1105 -0.0008
13854WAT      O56121   2.330   0.200   5.724  0.0663 -0.0140  0.2140
13854WAT     H156122   2.294   0.157   5.657 -1.4929  0.8398  0.4576
13854WAT     H256123   2.382   0.259   5.685 -0.8029  0.4568 -0.2483
13854WAT    EPW56124   2.333   0.202   5.708 -0.5525  0.3574 -0.6799
13855WAT      O56125   1.895   1.615   4.543  0.0877  0.7338  0.2864
13855WAT     H156126   1.823   1.607   4.592 -0.0701  1.4019  0.1724
13855WAT     H256127   1.909   1.701   4.541  1.1538  0.5849  0.6764
13855WAT    EPW56128   1.886   1.626   4.550 -0.8822 -0.5872 -0.2599
13856WAT      O56129   2.424   7.546   3.643  0.2030  0.1928  0.3323
13856WAT     H156130   2.371   7.608   3.675 -1.0057 -0.8132  0.3633
13856WAT     H256131   2.394   7.532   3.562  1.7428  1.0419 -0.4263
13856WAT    EPW56132   2.412   7.553   3.636  0.6676  0.1029 -1.3018
13857WAT      O56133   1.635   7.945   3.686 -0.2465  0.2221  0.0829
13857WAT     H156134   1.711   7.937   3.728 -0.7761 -0.7478  0.9109
13857WAT     H256135   1.576   7.946   3.750 -0.8803  2.4579 -0.4494
13857WAT    EPW56136   1.638   7.944   3.702 -0.3757 -0.2120  0.3420
13858WAT      O56137   1.524   1.021   4.420 -0.1168 -0.3183 -0.2428
13858WAT     H156138   1.546   0.998   4.501 -1.2428 -1.6170 -0.2746
13858WAT     H256139   1.437   1.027   4.423 -0.0564  2.0448 -0.7846
13858WAT    EPW56140   1.514   1.019   4.432 -0.4243 -1.1539 -0.2666
13859WAT      O56141   2.528   3.334   3.966 -0.1466  0.6063  0.4365
13859WAT     H156142   2.534   3.340   4.052  0.2037 -1.3274  0.6019
13859WAT     H256143   2.599   3.289   3.943 -0.8834 -0.0638 -0.6857
13859WAT    EPW56144   2.539   3.328   3.975  0.2761 -0.6807 -0.4089
13860WAT      O56145   1.728   1.224   4.334  0.1908  0.1944 -0.3721
13860WAT     H156146   1.671   1.170   4.372  2.4422 -1.9509  0.2138
13860WAT     H256147   1.751   1.182   4.261 -0.5220  2.0515 -1.7398
13860WAT    EPW56148   1.723   1.210   4.329 -0.1743  0.1245 -0.5345
13861WAT      O56149   1.644   0.521   5.150 -0.0897  0.2640 -0.6392
13861WAT     H156150   1.564   0.523   5.115  0.1054  1.3783 -1.0671
13861WAT     H256151   1.672   0.603   5.142  1.2136 -0.1671 -0.7599
13861WAT    EPW56152   1.636   0.533   5.143 -0.1855 -0.2301 -0.5082
13862WAT      O56153   2.781   1.455   4.954  0.0440 -0.0468  0.3092
13862WAT     H156154   2.789   1.539   4.934  0.2351 -0.5603 -1.9782
13862WAT     H256155   2.816   1.449   5.034  0.5471  1.9246  0.2653
13862WAT    EPW56156   2.787   1.466   4.963 -0.2893  0.0423  0.5333
13863WAT      O56157   2.597   0.326   5.605  0.5068  0.3727 -0.5783
13863WAT     H156158   2.640   0.373   5.664 -0.1795 -0.0145  0.2528
13863WAT     H256159   2.660   0.286   5.560  1.0366  0.5461  0.0071
13863WAT    EPW56160   2.612   0.327   5.607  0.2531  0.0792 -0.8122
13864WAT      O56161   1.579   0.754   4.364 -0.3200  0.6212 -0.7059
13864WAT     H156162   1.571   0.834   4.397 -0.6014 -1.1228  4.1602
13864WAT     H256163   1.499   0.720   4.370  0.0114 -0.4085 -1.6446
13864WAT    EPW56164   1.566   0.760   4.369  0.1101 -0.1063 -0.9116
13865WAT      O56165   1.549   0.998   4.703  0.2498 -0.2366 -0.7951
13865WAT     H156166   1.583   1.077   4.688 -1.6522  0.6584 -0.6121
13865WAT     H256167   1.593   0.970   4.773  0.2986  1.0884 -0.2628
13865WAT    EPW56168   1.561   1.005   4.711 -0.5330  0.1783 -0.8395
13866WAT      O56169   2.035   0.189   4.461  0.4752 -0.3080  0.1401
13866WAT     H156170   2.041   0.275   4.444  0.3876 -0.5443 -1.1479
13866WAT     H256171   1.965   0.164   4.416  2.5316 -1.7358 -2.5895
13866WAT    EPW56172   2.026   0.198   4.452 -0.0646  0.1246  0.3025
13867WAT      O56173   2.901   7.907   4.731 -0.1412  0.1835  0.2902
13867WAT     H156174   2.949   7.885   4.662  1.6279 -0.2610  1.5933
13867WAT     H256175   2.931   7.987   4.753 -2.0403  1.2003 -0.5565
13867WAT    EPW56176   2.912   7.916   4.724  0.0409 -0.6595 -0.0741
13868WAT      O56177   2.188   0.170   6.666 -0.0274  0.1744  0.5865
13868WAT     H156178   2.244   0.106   6.687 -0.3422 -0.4673 -0.4379
13868WAT     H256179   2.172   0.209   6.743 -1.8427 -2.6083  1.8041
13868WAT    EPW56180   2.194   0.166   6.681 -0.5637 -0.3282 -0.1970
13869WAT      O56181   0.883   7.320   3.807  0.0625  0.3886 -0.5641
13869WAT     H156182   0.962   7.349   3.784 -0.2653  1.4369 -0.4131
13869WAT     H256183   0.829   7.360   3.752 -0.3276 -0.8616 -1.1312
13869WAT    EPW56184   0.886   7.330   3.796 -0.5432 -0.7566  0.8530
13870WAT      O56185   2.803   0.131   6.640 -0.4136 -0.5422  0.0819
13870WAT     H156186   2.761   0.206   6.628 -3.2130 -2.0852 -0.7259
13870WAT     H256187   2.856   0.147   6.708 -1.8826  1.7523  0.7851
13870WAT    EPW56188   2.805   0.144   6.648 -0.1070 -0.3298 -0.2039
13871WAT      O56189   0.995   0.848   3.659  0.2049 -0.3164 -0.1464
13871WAT     H156190   1.068   0.842   3.707  0.5971 -0.6574 -0.7776
13871WAT     H256191   0.933   0.865   3.719  0.8756  0.5449  0.3407
13871WAT    EPW56192   0.996   0.850   3.675 -0.3523  0.1521  0.3604
13872WAT      O56193   1.594   7.621   4.588  0.3793 -0.0676 -0.9047
13872WAT     H156194   1.545   7.647   4.520 -1.0426  0.7113  0.3541
13872WAT     H256195   1.560   7.665   4.655  2.4799  0.0487  0.1455
13872WAT    EPW56196   1.582   7.632   4.588 -0.4030 -0.1628  0.1309
13873WAT      O56197   2.107   7.657   6.204 -0.4300  0.3494  0.3317
13873WAT     H156198   2.134   7.732   6.239  0.8996  0.1060 -0.0878
13873WAT     H256199   2.179   7.607   6.206 -0.5557 -0.0078 -1.7993
13873WAT    EPW56200   2.122   7.660   6.209  0.5101 -0.5362  0.2070
13874WAT      O56201   1.821   0.444   6.523  1.4082  0.1413  0.5773
13874WAT     H156202   1.853   0.525   6.520  1.9830 -0.0789  0.6186
13874WAT     H256203   1.885   0.396   6.489  0.7668 -0.2067 -0.1706
13874WAT    EPW56204   1.835   0.449   6.517 -0.2025  0.5708 -0.2798
13875WAT      O56205   3.520   7.622   5.697  0.2675  0.4187  0.5810
13875WAT     H156206   3.558   7.661   5.766 -0.3179  0.3544  0.9418
13875WAT     H256207   3.507   7.540   5.724  2.0493 -0.2450 -0.3866
13875WAT    EPW56208   3.524   7.616   5.711  1.3380 -0.1203  0.3421
13876WAT      O56209   1.342   1.417   4.176  0.1974  0.6627  0.1116
13876WAT     H156210   1.361   1.485   4.125 -0.0692  0.6056 -0.0640
13876WAT     H256211   1.407   1.417   4.235  1.6504 -0.4767 -1.3938
13876WAT    EPW56212   1.355   1.427   4.177 -0.4765 -0.4325  0.1885
13877WAT      O56213   1.825   0.077   5.342  0.2043  0.2414  0.1304
13877WAT     H156214   1.908   0.069   5.314  0.1313  1.4220 -0.4598
13877WAT     H256215   1.782   0.103   5.271 -0.6126  0.0308  0.5354
13877WAT    EPW56216   1.831   0.079   5.327  0.2994  0.0577  0.0677
13878WAT      O56217   1.513   7.509   4.928 -0.0787 -0.0559 -0.4275
13878WAT     H156218   1.488   7.592   4.915  0.0834 -0.1339 -1.2979
13878WAT     H256219   1.462   7.463   4.875  0.5134 -0.4104 -0.7013
13878WAT    EPW56220   1.502   7.515   4.918  0.6800 -0.3438 -0.2810
13879WAT      O56221   2.128   7.819   5.035  0.0769 -0.0515 -0.3968
13879WAT     H156222   2.105   7.749   4.988 -1.4013 -1.2316  1.8809
13879WAT     H256223   2.178   7.786   5.098  0.4117  1.1514 -0.0011
13879WAT    EPW56224   2.132   7.804   5.038  0.2144  0.3094  0.0504
13880WAT      O56225   1.391   0.755   4.671  0.2744 -0.1441  0.2254
13880WAT     H156226   1.340   0.733   4.603 -1.7145  1.2045  1.1710
13880WAT     H256227   1.402   0.841   4.661 -0.3210  0.1471  1.7164
13880WAT    EPW56228   1.385   0.765   4.659 -0.2126 -0.1084  0.3338
13881WAT      O56229   2.005   7.991   5.899  0.3750 -0.0318  0.0362
13881WAT     H156230   1.969   8.017   5.824  0.6233  0.1781 -0.0110
13881WAT     H256231   2.037   8.064   5.933 -2.0543  0.3750  1.6681
13881WAT    EPW56232   2.005   8.005   5.893 -0.2305  0.3813  0.7625
13882WAT      O56233   2.207   2.180   5.696 -0.4893  0.5548 -0.1526
13882WAT     H156234   2.165   2.111   5.664  0.6636  0.4458 -1.5350
13882WAT     H256235   2.287   2.150   5.711 -0.4260  1.1768  0.8111
13882WAT    EPW56236   2.213   2.165   5.693  0.2615 -0.1093 -0.1747
13883WAT      O56237   2.329   0.305   4.749  0.5450 -0.1434  0.2152
13883WAT     H156238   2.406   0.267   4.762  0.4835 -0.3709 -0.0775
13883WAT     H256239   2.339   0.385   4.784  0.3494 -0.7457  1.7110
13883WAT    EPW56240   2.342   0.311   4.756 -0.5163 -0.2822  0.5951
13884WAT      O56241   1.650   7.331   5.065 -0.3584  0.0378 -0.1134
13884WAT     H156242   1.670   7.388   5.128 -1.3360  1.2167 -0.8222
13884WAT     H256243   1.584   7.369   5.023  0.1904 -0.7728 -1.7905
13884WAT    EPW56244   1.643   7.345   5.068  0.2769  0.0146  0.5528
13885WAT      O56245   1.467   7.217   4.331 -0.0094 -0.3815 -0.0233
13885WAT     H156246   1.393   7.215   4.378  0.1548 -0.3744  0.2373
13885WAT     H256247   1.528   7.233   4.390  0.0964  0.5944 -0.3855
13885WAT    EPW56248   1.465   7.219   4.347  0.7256  0.2926  0.0053
13886WAT      O56249   1.990   7.737   5.611 -1.0771  0.6754  0.6123
13886WAT     H156250   2.002   7.740   5.697  0.1103 -0.0678  0.5027
13886WAT     H256251   2.059   7.692   5.583 -1.1946  1.3152 -0.7794
13886WAT    EPW56252   2.002   7.731   5.620 -0.1707  0.2124  0.3273
13887WAT      O56253   1.433   2.116   3.476 -0.5673  0.6333 -0.5525
13887WAT     H156254   1.497   2.056   3.473  0.0778  1.1358  1.4281
13887WAT     H256255   1.455   2.173   3.414  0.8489  0.6923 -0.0436
13887WAT    EPW56256   1.446   2.115   3.467 -0.7537 -0.3519 -0.0396
13888WAT      O56257   1.940   7.845   4.588 -0.1144  0.3541  0.0418
13888WAT     H156258   2.022   7.839   4.616  0.2112 -1.5852 -1.1306
13888WAT     H256259   1.916   7.762   4.578 -1.7023  0.8988 -1.0805
13888WAT    EPW56260   1.948   7.832   4.591  0.2089 -0.0043 -0.5404
13889WAT      O56261   2.740   0.092   4.951  0.2495 -0.4439 -0.0745
13889WAT     H156262   2.676   0.038   4.975 -0.0392 -1.0796 -2.1327
13889WAT     H256263   2.712   0.125   4.875  1.8181  0.2148 -0.4029
13889WAT    EPW56264   2.727   0.089   4.944 -0.5483  0.3370  0.2486
13890WAT      O56265   2.987   1.282   5.364 -0.7364 -0.4557 -0.4618
13890WAT     H156266   2.917   1.327   5.389  0.4761  1.3324 -0.1220
13890WAT     H256267   3.007   1.234   5.435  0.6053  1.9432  0.8908
13890WAT    EPW56268   2.980   1.281   5.378  0.2665 -0.0098 -0.4483
13891WAT      O56269   2.153   0.099   4.699  0.7889  0.1678  0.4548
13891WAT     H156270   2.170   0.180   4.725 -2.3059  0.9256  0.5041
13891WAT     H256271   2.123   0.109   4.618  0.5787 -0.9401  0.3778
13891WAT    EPW56272   2.151   0.112   4.691  0.7811  0.1779  0.3208
13892WAT      O56273   2.011   1.420   6.736 -0.3588 -0.2924 -0.3797
13892WAT     H156274   1.974   1.447   6.810 -1.6359 -0.5354 -0.8954
13892WAT     H256275   1.944   1.415   6.681  0.6495  0.5038 -1.7487
13892WAT    EPW56276   1.995   1.423   6.739  0.8068  0.6421 -0.6522
13893WAT      O56277   2.016   0.824   5.432  0.3910 -0.4024  0.6780
13893WAT     H156278   2.092   0.807   5.393  0.8899  2.7847 -0.0165
13893WAT     H256279   2.040   0.850   5.512  0.0263  0.3607  0.5448
13893WAT    EPW56280   2.031   0.825   5.438  0.0744  0.3184 -1.1856
13894WAT      O56281   3.279   0.811   3.752  0.2014 -0.1832  0.0165
13894WAT     H156282   3.290   0.826   3.837 -1.4294 -0.3952  0.3022
13894WAT     H256283   3.324   0.875   3.714 -0.0850  0.6825  1.0727
13894WAT    EPW56284   3.287   0.823   3.759  0.3708  0.1332 -0.3863
13895WAT      O56285   1.386   0.229   4.586 -0.2202  0.0749  0.5923
13895WAT     H156286   1.366   0.273   4.513  0.2432 -1.5039 -0.5094
13895WAT     H256287   1.454   0.273   4.619 -1.3402  1.6715  0.9191
13895WAT    EPW56288   1.393   0.242   4.580  0.4057 -0.2355  0.1828
13896WAT      O56289   2.310   0.616   5.089 -0.1539 -0.3113  0.1603
13896WAT     H156290   2.225   0.632   5.101 -0.1133 -0.3443  0.5253
13896WAT     H256291   2.329   0.560   5.153  0.7936  1.8781  1.9334
13896WAT    EPW56292   2.300   0.610   5.100 -0.5347 -0.0747  0.2503
13897WAT      O56293   2.121   0.547   7.411  0.2709 -0.4683  0.0759
13897WAT     H156294   2.070   0.584   7.472  0.4925  0.0154 -0.0308
13897WAT     H256295   2.066   0.494   7.368 -0.2334  0.3085 -0.2602
13897WAT    EPW56296   2.105   0.545   7.413 -0.2654 -0.5498  0.1416
13898WAT      O56297   1.785   0.646   5.489 -0.8063 -0.7043  0.4488
13898WAT     H156298   1.850   0.703   5.483 -0.0609 -1.4350  1.2975
13898WAT     H256299   1.777   0.614   5.408  0.5940 -1.3625  0.5563
13898WAT    EPW56300   1.793   0.650   5.476 -0.9856 -0.6697 -0.0084
13899WAT      O56301   1.703   0.596   4.185 -0.1010  0.1815 -0.1654
13899WAT     H156302   1.664   0.583   4.108  1.2086  3.7025 -1.6292
13899WAT     H256303   1.647   0.647   4.228  1.0414  1.9155 -0.6568
13899WAT    EPW56304   1.689   0.601   4.180 -0.4638 -0.7134 -0.3767
13900WAT      O56305   1.878   7.571   4.593  0.6562 -0.1528  0.1183
13900WAT     H156306   1.792   7.581   4.583  0.6125  2.2308  2.0326
13900WAT     H256307   1.887   7.561   4.679  2.3263 -0.0027 -0.0107
13900WAT    EPW56308   1.867   7.571   4.604 -1.0346  0.2824  0.1455
13901WAT      O56309   1.672   0.116   5.101 -0.3299  0.3127  0.0588
13901WAT     H156310   1.731   0.113   5.037 -0.0988 -1.5050  0.2978
13901WAT     H256311   1.596   0.127   5.059 -0.2655 -1.5605 -0.6250
13901WAT    EPW56312   1.669   0.117   5.086 -1.0958 -0.3342 -0.2713
13902WAT      O56313   2.417   7.839   6.457 -0.0037  0.4274 -0.3319
13902WAT     H156314   2.426   7.913   6.503 -1.1472  0.7408 -0.5899
13902WAT     H256315   2.398   7.780   6.518  1.5638  0.1696 -0.0363
13902WAT    EPW56316   2.416   7.841   6.473 -0.3629 -0.1859  0.6007
13903WAT      O56317   1.218   7.409   4.212 -0.0256  0.0655  0.6332
13903WAT     H156318   1.163   7.356   4.254  0.0231 -0.5228 -0.0432
13903WAT     H256319   1.249   7.361   4.147  0.1982  0.8451  0.1407
13903WAT    EPW56320   1.214   7.394   4.209 -0.0821 -0.0991 -0.0239
13904WAT      O56321   2.389   1.842   5.892 -0.2667 -0.5273  0.3771
13904WAT     H156322   2.355   1.819   5.968  0.0319 -0.5306  0.5125
13904WAT     H256323   2.322   1.837   5.836 -0.9981  1.3785  0.9845
13904WAT    EPW56324   2.374   1.838   5.895  0.5136 -0.1851 -0.0715
13905WAT      O56325   2.477   0.267   6.385 -0.8569  0.2033  0.1935
13905WAT     H156326   2.526   0.304   6.447  1.2721 -0.9178 -0.6888
13905WAT     H256327   2.500   0.311   6.313 -2.0683  0.4330 -0.0618
13905WAT    EPW56328   2.488   0.279   6.383  0.1119 -0.3139 -0.1847
13906WAT      O56329   2.312   0.884   4.144  0.5081  0.1549 -0.0890
13906WAT     H156330   2.390   0.856   4.115  0.6419 -0.6803  1.0401
13906WAT     H256331   2.323   0.971   4.151  1.5611 -0.0184  0.6765
13906WAT    EPW56332   2.325   0.893   4.141  0.3650  0.8041 -0.0045
13907WAT      O56333   2.480   0.529   4.116  0.4216 -0.1379 -0.7256
13907WAT     H156334   2.533   0.513   4.184  0.6347 -1.2448 -1.1288
13907WAT     H256335   2.506   0.608   4.089  0.3006  0.3454  0.4890
13907WAT    EPW56336   2.492   0.538   4.122 -0.5229 -0.4662  0.2280
13908WAT      O56337   1.818   2.006   7.429 -0.0575 -0.1189 -0.6430
13908WAT     H156338   1.762   2.043   7.374  0.3292 -0.3840 -1.2153
13908WAT     H256339   1.809   2.054   7.502 -0.9335 -0.0837 -0.7581
13908WAT    EPW56340   1.808   2.018   7.432  0.6426 -0.3881  0.0685
13909WAT      O56341   1.414   2.176   3.766  0.0985 -0.3333 -0.0600
13909WAT     H156342   1.341   2.223   3.761  1.3124  1.5733 -1.0250
13909WAT     H256343   1.413   2.129   3.693  0.3375  0.5234 -0.6329
13909WAT    EPW56344   1.403   2.176   3.754 -0.0544 -0.0624 -0.6013
13910WAT      O56345   2.204   7.900   6.300 -0.3612 -0.0928  0.1685
13910WAT     H156346   2.279   7.878   6.339  0.4694  1.1747 -0.6425
13910WAT     H256347   2.166   7.952   6.358 -0.2152 -0.0775  0.2523
13910WAT    EPW56348   2.210   7.904   6.314  0.0429  0.1473  0.3325
13911WAT      O56349   1.331   0.377   4.342 -0.2114 -0.0850  0.0541
13911WAT     H156350   1.404   0.339   4.315 -0.0916 -0.3293  0.7008
13911WAT     H256351   1.269   0.337   4.295 -0.1029 -1.2017  0.8039
13911WAT    EPW56352   1.332   0.365   4.331  0.3896  0.5491 -0.0278
13912WAT      O56353   2.367   8.006   6.688  0.1826  0.5766 -0.8723
13912WAT     H156354   2.447   8.026   6.717 -0.7348  1.4677  1.2394
13912WAT     H256355   2.324   7.982   6.760 -1.5247  0.3789 -1.9054
13912WAT    EPW56356   2.373   8.006   6.703 -0.1099  0.6133 -0.8696
13913WAT      O56357   2.270   0.817   5.312  0.3870 -1.1331  0.0178
13913WAT     H156358   2.300   0.898   5.301  0.0843 -1.0122  0.0881
13913WAT     H256359   2.315   0.771   5.252 -1.3833 -0.4469 -1.9513
13913WAT    EPW56360   2.281   0.822   5.301  0.2120  0.7050  0.4837
13914WAT      O56361   2.294   6.912   6.235  0.7128 -0.0339  0.0640
13914WAT     H156362   2.246   6.859   6.187  0.2288 -0.4432  0.9687
13914WAT     H256363   2.348   6.858   6.278  0.6534  0.2496  0.5066
13914WAT    EPW56364   2.295   6.896   6.234  0.6366 -0.9406  0.3198
13915WAT      O56365   2.217   0.051   4.975  0.1873 -0.2565  0.0296
13915WAT     H156366   2.204  -0.032   4.999  2.1758 -0.5114  0.4122
13915WAT     H256367   2.218   0.048   4.888 -0.6058 -0.4610  0.0182
13915WAT    EPW56368   2.216   0.038   4.966  0.2596  0.9114  0.1379
13916WAT      O56369   1.934   1.522   4.098 -0.1381 -0.0852  0.2060
13916WAT     H156370   1.949   1.485   4.176  2.1794 -0.6711 -0.4349
13916WAT     H256371   1.914   1.454   4.047  2.4181 -0.3397 -0.5805
13916WAT    EPW56372   1.933   1.506   4.102 -1.3649  0.0073 -0.5225
13917WAT      O56373   3.177   7.636   3.773  0.1273  0.2914 -0.0848
13917WAT     H156374   3.091   7.620   3.768  0.2146 -0.0090 -0.9097
13917WAT     H256375   3.204   7.626   3.690  0.9955  0.1631  0.2026
13917WAT    EPW56376   3.168   7.632   3.760 -0.4205  0.7671 -0.6527
13918WAT      O56377   2.523   0.391   6.123  0.0048 -0.0938  0.4634
13918WAT     H156378   2.593   0.386   6.071 -0.3002  1.7697 -0.2136
13918WAT     H256379   2.460   0.353   6.078  0.4845 -1.4905  0.9363
13918WAT    EPW56380   2.524   0.385   6.109  0.4849  0.6323 -0.7613
13919WAT      O56381   2.169   0.220   3.608 -0.0120  0.0957 -0.2906
13919WAT     H156382   2.161   0.293   3.655 -0.7431 -0.3568  0.3222
13919WAT     H256383   2.152   0.246   3.527 -2.2711  0.3028  0.1573
13919WAT    EPW56384   2.165   0.234   3.603 -0.7235  0.0258 -0.0978
13920WAT      O56385   2.657   7.635   6.576  0.1736  0.4396 -0.2396
13920WAT     H156386   2.673   7.719   6.556  0.3778  0.5888  0.5059
13920WAT     H256387   2.571   7.635   6.595  0.4096  0.7308  0.8942
13920WAT    EPW56388   2.646   7.648   6.576 -0.6250  0.4907 -0.2690
13921WAT      O56389   2.728   7.077   2.645 -0.0580 -0.0727  0.1259
13921WAT     H156390   2.756   7.084   2.727  2.3830  1.3510 -0.7419
13921WAT     H256391   2.764   7.003   2.617 -1.0891 -0.6881  0.3376
13921WAT    EPW56392   2.737   7.067   2.653  0.3490 -0.0234 -0.3982
13922WAT      O56393   1.186   2.662   3.766  0.1383 -0.0417 -0.0368
13922WAT     H156394   1.225   2.647   3.690  0.6005  0.1091  0.1687
13922WAT     H256395   1.173   2.748   3.766  3.0141  0.5060  1.3888
13922WAT    EPW56396   1.190   2.672   3.755  0.1229 -0.0125  0.5559
13923WAT      O56397   7.933   7.546   3.625  0.2846  0.2843  0.3589
13923WAT     H156398   7.945   7.603   3.691 -2.9912  0.1133  1.2624
13923WAT     H256399   7.911   7.597   3.558 -2.8369  0.2502  1.2165
13923WAT    EPW56400   7.931   7.562   3.625 -0.5461  0.0640 -0.5039
13924WAT      O56401   1.390   0.340   3.846  0.0775  0.0119  0.3361
13924WAT     H156402   1.436   0.268   3.860  2.3810  1.2016 -0.5896
13924WAT     H256403   1.415   0.366   3.766 -2.0228  0.9003 -0.1073
13924WAT    EPW56404   1.400   0.333   3.836 -0.4331 -0.1748 -0.5413
13925WAT      O56405   2.479   2.987   3.991  0.6312  0.3428 -0.2788
13925WAT     H156406   2.555   3.029   3.998 -0.1105  1.4708  1.8010
13925WAT     H256407   2.492   2.914   4.036  0.8345 -0.0563 -0.9659
13925WAT    EPW56408   2.492   2.982   3.999 -0.2508  0.6328  0.5107
13926WAT      O56409   1.366   0.578   2.304  0.0172 -0.4858 -0.3502
13926WAT     H156410   1.297   0.526   2.300  0.4028 -1.1657  1.0873
13926WAT     H256411   1.430   0.532   2.266  0.3091 -1.0039  0.7386
13926WAT    EPW56412   1.365   0.564   2.298  0.3936 -0.2273 -1.2575
13927WAT      O56413   0.850   1.670   3.907  0.2814  0.3286  0.0179
13927WAT     H156414   0.904   1.722   3.861 -0.8905 -0.8769 -3.0125
13927WAT     H256415   0.773   1.711   3.902  0.0444 -0.0413  0.5741
13927WAT    EPW56416   0.847   1.684   3.899  0.4539 -0.2265  0.4969
13928WAT      O56417   1.030   1.839   3.771 -0.1746  0.1096 -0.0925
13928WAT     H156418   1.043   1.899   3.832 -0.0140  0.5306 -0.5344
13928WAT     H256419   0.980   1.879   3.712 -0.6955 -0.4346 -0.0288
13928WAT    EPW56420   1.025   1.854   3.771  0.1498  0.0366  0.5512
13929WAT      O56421   1.079   0.403   1.236 -0.4530  0.6708 -0.0577
13929WAT     H156422   1.081   0.377   1.153 -0.8375  0.8477 -0.1264
13929WAT     H256423   1.043   0.335   1.278  2.0581 -0.4914  0.3942
13929WAT    EPW56424   1.074   0.389   1.230 -0.7013  1.0950 -0.8230
13930WAT      O56425   2.566   1.647   4.180  0.2019 -0.7646  0.1571
13930WAT     H156426   2.591   1.575   4.223 -0.1445 -0.5915  0.6640
13930WAT     H256427   2.483   1.658   4.206 -0.3908 -1.2760 -1.4034
13930WAT    EPW56428   2.558   1.638   4.190  0.1261  0.3749  0.1742
13931WAT      O56429   1.750   1.434   3.654  0.6048 -0.3627 -0.1604
13931WAT     H156430   1.713   1.359   3.630  0.9284 -0.2403 -1.0874
13931WAT     H256431   1.790   1.415   3.729 -0.0833 -0.8711  0.0836
13931WAT    EPW56432   1.751   1.420   3.662  0.4751  0.1317 -0.5568
13932WAT      O56433   1.075   2.542   3.394 -0.1392  0.3781  0.0073
13932WAT     H156434   1.151   2.551   3.436 -0.5680 -0.9087  1.1627
13932WAT     H256435   1.098   2.518   3.314  0.6781 -0.0499  0.3608
13932WAT    EPW56436   1.090   2.540   3.388  0.2842 -0.4038 -0.3577
13933WAT      O56437   2.545   1.789   3.773  0.0873 -0.2700 -0.1102
13933WAT     H156438   2.549   1.712   3.814  3.9535  0.6995  1.8156
13933WAT     H256439   2.614   1.787   3.719 -0.7928  1.2001 -1.3484
13933WAT    EPW56440   2.556   1.777   3.771  0.5023 -0.2685  0.9596
13934WAT      O56441   2.209   1.230   4.050  0.4605  0.0505  0.3134
13934WAT     H156442   2.231   1.278   3.980  1.4690  1.7300  1.6955
13934WAT     H256443   2.200   1.290   4.113 -2.9426 -1.1256  1.1175
13934WAT    EPW56444   2.211   1.246   4.049 -0.4359  0.2332 -0.3776
13935WAT      O56445   0.934   1.414   3.905 -0.5437 -0.4273  0.1665
13935WAT     H156446   0.912   1.498   3.898  1.5745  0.1403 -0.4751
13935WAT     H256447   0.978   1.410   3.980 -1.1409 -1.1210  0.4964
13935WAT    EPW56448   0.937   1.426   3.915 -0.3444  0.7364  0.0350
13936WAT      O56449   2.077   1.447   2.692 -0.5005  0.2130 -0.1234
13936WAT     H156450   2.107   1.373   2.727  0.5692  0.5789 -0.2215
13936WAT     H256451   2.003   1.462   2.736 -0.5563 -0.7236  0.1270
13936WAT    EPW56452   2.071   1.438   2.704 -0.2245 -0.2320  0.4065
13937WAT      O56453   2.201   0.493   4.159  0.7711  0.0166 -0.1478
13937WAT     H156454   2.152   0.531   4.097 -0.2912  1.5071  1.4813
13937WAT     H256455   2.281   0.525   4.145  0.5614  0.2635 -0.7981
13937WAT    EPW56456   2.206   0.504   4.148  0.0533 -0.2720 -0.7342
13938WAT      O56457   1.937   7.930   3.360  0.6831  0.4805  0.4287
13938WAT     H156458   1.936   7.945   3.446 -0.5505  1.2169  0.3122
13938WAT     H256459   1.879   7.865   3.350  2.5255 -1.2430  0.3800
13938WAT    EPW56460   1.928   7.922   3.371 -0.2956  0.0780 -0.0636
13939WAT      O56461   0.950   2.878   3.256  0.2167 -0.3198  0.6087
13939WAT     H156462   1.019   2.834   3.228  1.3301  1.5814  0.1801
13939WAT     H256463   0.911   2.823   3.311  1.9903 -1.4840  0.7654
13939WAT    EPW56464   0.954   2.863   3.260  0.9539  1.1207  1.1944
13940WAT      O56465   1.805   0.166   3.841 -0.1446 -0.5435 -0.0506
13940WAT     H156466   1.844   0.090   3.823  0.0542 -0.5249  0.2880
13940WAT     H256467   1.807   0.209   3.765  0.6465 -0.4789 -0.0060
13940WAT    EPW56468   1.811   0.161   3.827  0.3268 -0.7679 -0.1842
13941WAT      O56469   1.154   1.595   3.677 -0.1624 -0.3860  0.7580
13941WAT     H156470   1.203   1.608   3.606 -1.8077 -2.4797 -0.8703
13941WAT     H256471   1.146   1.676   3.710  0.8027  0.6510 -1.3149
13941WAT    EPW56472   1.160   1.609   3.671 -0.3327 -0.2910  0.2556
13942WAT      O56473   2.198   1.379   4.280  0.1864  0.1196  0.1527
13942WAT     H156474   2.119   1.396   4.314  0.4145  1.8125 -0.0742
13942WAT     H256475   2.243   1.452   4.294  1.0017  0.0534 -1.7440
13942WAT    EPW56476   2.193   1.393   4.287  0.0114  0.4933 -0.1737
13943WAT      O56477   0.651   7.034   4.001 -0.5367 -0.2409 -0.0606
13943WAT     H156478   0.652   6.958   3.958  0.1261  0.5756 -1.5779
13943WAT     H256479   0.578   7.073   3.972 -0.0350  0.3581 -0.5415
13943WAT    EPW56480   0.640   7.029   3.991  0.0687 -0.0348 -0.0920
13944WAT      O56481   0.983   1.377   3.361 -0.2766  0.5433  0.6058
13944WAT     H156482   0.957   1.317   3.419  0.7175 -0.2554  0.2587
13944WAT     H256483   1.027   1.330   3.302  0.3587  1.5959  0.2197
13944WAT    EPW56484   0.986   1.361   3.361  0.3277 -0.4616  0.2113
13945WAT      O56485   2.790   0.410   3.738 -0.3832  0.7345 -0.2290
13945WAT     H156486   2.863   0.381   3.699 -1.0426  1.8633 -2.4801
13945WAT     H256487   2.742   0.338   3.747  0.7740  0.0547  0.8521
13945WAT    EPW56488   2.794   0.395   3.733 -0.5057  0.8041 -0.4917
13946WAT      O56489   0.800   2.978   4.290 -0.4930 -0.1516 -0.0935
13946WAT     H156490   0.832   2.967   4.209  1.1986  1.3213  0.3107
13946WAT     H256491   0.724   3.019   4.276 -0.7096 -0.8152 -0.9615
13946WAT    EPW56492   0.794   2.983   4.276 -0.5456  0.1853  0.0495
13947WAT      O56493   2.339   1.689   3.599 -0.1580 -0.0794  0.5850
13947WAT     H156494   2.380   1.764   3.616 -1.5551  0.6989  0.6497
13947WAT     H256495   2.389   1.652   3.538  0.2583  1.1532  0.1399
13947WAT    EPW56496   2.353   1.695   3.593 -0.5436 -0.3573 -0.2242
13948WAT      O56497   3.028   0.100   4.833  0.0822 -0.0223 -0.1828
13948WAT     H156498   2.980   0.062   4.896 -0.5538 -1.9894 -1.7705
13948WAT     H256499   3.108   0.066   4.846 -0.1317 -0.7154 -0.6414
13948WAT    EPW56500   3.033   0.090   4.844  0.1364 -0.7891 -0.4999
13949WAT      O56501   2.949   0.290   4.639  0.6890 -0.2803 -0.1173
13949WAT     H156502   2.956   0.225   4.581  1.2738 -0.6152  0.3136
13949WAT     H256503   2.984   0.256   4.711 -1.7489 -0.5647  1.0217
13949WAT    EPW56504   2.955   0.276   4.641  0.3993 -0.0293  0.4044
13950WAT      O56505   1.686   2.232   4.929  0.4981 -0.3221  0.2676
13950WAT     H156506   1.601   2.234   4.949  0.7101 -1.2141  1.3659
13950WAT     H256507   1.725   2.267   4.999  1.1130 -1.1565  0.3660
13950WAT    EPW56508   1.680   2.238   4.942  0.4166 -0.2672  1.0730
13951WAT      O56509   2.035   1.818   3.772 -0.0152 -0.2972 -0.4469
13951WAT     H156510   2.067   1.890   3.810  1.0767 -1.7252  1.5164
13951WAT     H256511   2.076   1.816   3.696  2.0705 -0.2315  0.5930
13951WAT    EPW56512   2.046   1.828   3.767 -0.2334 -0.3510 -0.2365
13952WAT      O56513   1.212   0.044   3.936  0.2608  0.0534 -0.1878
13952WAT     H156514   1.148  -0.014   3.925  0.5864 -0.1932 -0.8545
13952WAT     H256515   1.223   0.079   3.857  0.0439  1.0687  0.2122
13952WAT    EPW56516   1.204   0.040   3.923 -0.3529  0.3349  0.6430
13953WAT      O56517   1.005   7.882   4.090  0.3129 -0.1171 -0.3268
13953WAT     H156518   1.023   7.799   4.071  0.0838 -0.3739  0.5535
13953WAT     H256519   1.055   7.899   4.159  0.3322  0.4745 -0.4751
13953WAT    EPW56520   1.015   7.872   4.097  0.1214 -0.6081 -0.3754
13954WAT      O56521   0.673   0.529   2.011  0.1713  0.5985  0.4251
13954WAT     H156522   0.713   0.604   1.990  2.3009 -0.4608  0.3196
13954WAT     H256523   0.637   0.504   1.936 -0.2893  1.3637  0.3840
13954WAT    EPW56524   0.674   0.536   1.997  0.3843  0.3321  0.2187
13955WAT      O56525   3.004   7.830   3.556  0.4548  0.0033  0.1020
13955WAT     H156526   2.986   7.823   3.471  0.1177 -0.1446  0.1857
13955WAT     H256527   2.976   7.754   3.589  3.4249 -1.3441 -0.1514
13955WAT    EPW56528   2.997   7.818   3.548 -0.2696 -0.2237 -0.3871
13956WAT      O56529   2.559   0.425   3.542  0.7487 -0.1143 -0.3543
13956WAT     H156530   2.625   0.473   3.573  0.5704 -0.4638  0.5978
13956WAT     H256531   2.599   0.356   3.506  0.9813  0.5156 -1.3370
13956WAT    EPW56532   2.575   0.422   3.542 -0.3498 -0.5522  0.4140
13957WAT      O56533   1.659   0.546   1.936  0.3610  0.4775 -0.5439
13957WAT     H156534   1.744   0.545   1.954  0.4791  1.5595 -0.9474
13957WAT     H256535   1.622   0.513   2.008  1.0541  1.0356  0.0786
13957WAT    EPW56536   1.666   0.541   1.950 -0.5403 -0.6347  0.4845
13958WAT      O56537   2.039   1.024   2.909 -0.2000  0.4702 -0.6021
13958WAT     H156538   1.964   1.055   2.941 -0.8972 -0.1346 -1.6094
13958WAT     H256539   2.090   1.094   2.905 -1.1739  1.1631 -1.1988
13958WAT    EPW56540   2.035   1.039   2.913  0.5374 -0.0880 -0.0486
13959WAT      O56541   1.805   7.529   4.894  0.1427 -0.0366  0.2321
13959WAT     H156542   1.721   7.514   4.908  0.1131  0.8259  1.0687
13959WAT     H256543   1.840   7.529   4.974  0.8687 -0.0174 -0.0782
13959WAT    EPW56544   1.798   7.527   4.908 -0.6267 -0.8579  0.6464
13960WAT      O56545   3.383   0.557   3.994  0.7303  0.2367  0.1121
13960WAT     H156546   3.440   0.594   3.940  1.6139  1.8731  2.0475
13960WAT     H256547   3.310   0.603   3.983  0.9333  0.6189  0.3594
13960WAT    EPW56548   3.381   0.569   3.985 -0.0979 -0.3970  0.2237
13961WAT      O56549   1.423   2.652   4.202 -0.1852  0.0526 -0.6450
13961WAT     H156550   1.407   2.605   4.274 -0.4510  0.6592 -0.2976
13961WAT     H256551   1.367   2.621   4.143 -0.9326  0.4956 -0.1703
13961WAT    EPW56552   1.413   2.640   4.204  0.6576 -0.1814 -0.4386
13962WAT      O56553   2.688   7.579   3.436 -0.1995  0.1983 -0.1337
13962WAT     H156554   2.622   7.615   3.480 -0.3393 -0.9615  0.6490
13962WAT     H256555   2.750   7.570   3.496 -0.6560 -2.1058  0.1164
13962WAT    EPW56556   2.687   7.583   3.452  0.0012  0.3369 -0.1830
13963WAT      O56557   0.836   1.200   3.549 -0.4803  0.1188  0.1220
13963WAT     H156558   0.803   1.200   3.630 -0.7392  0.9552  0.0213
13963WAT     H256559   0.766   1.204   3.498 -0.2600  1.0839 -0.1112
13963WAT    EPW56560   0.821   1.200   3.554  0.6804  0.1304 -0.5661
13964WAT      O56561   0.661   6.453   4.175  0.3071 -0.1731 -0.2781
13964WAT     H156562   0.589   6.422   4.138  1.0288 -1.0761 -0.9869
13964WAT     H256563   0.633   6.520   4.223 -1.1917 -1.3261  0.5362
13964WAT    EPW56564   0.646   6.458   4.177 -0.1288 -0.3446 -0.7668
13965WAT      O56565   1.846   1.341   3.908 -0.1535 -0.4729 -0.3128
13965WAT     H156566   1.905   1.291   3.869  0.4547 -0.8575  1.0237
13965WAT     H256567   1.797   1.284   3.952 -0.8403 -0.0595 -0.5277
13965WAT    EPW56568   1.847   1.325   3.909 -0.2806 -0.4204 -0.4984
13966WAT      O56569   1.748   8.005   4.685  0.0542  0.0218 -0.3917
13966WAT     H156570   1.816   7.951   4.670 -0.9681 -0.9816 -1.6527
13966WAT     H256571   1.787   8.079   4.710  1.5788 -0.7986 -0.1597
13966WAT    EPW56572   1.764   8.008   4.687 -1.0103 -0.0277 -0.1865
13967WAT      O56573   2.068   7.287   3.628  0.3408 -0.1382 -0.0976
13967WAT     H156574   1.999   7.328   3.661  0.3193 -0.2005 -0.0663
13967WAT     H256575   2.106   7.251   3.698  0.1216 -0.5333 -0.1806
13967WAT    EPW56576   2.064   7.288   3.643 -0.4319  0.1046  0.3023
13968WAT      O56577   2.769   0.881   3.930 -0.1480  0.0894  0.0286
13968WAT     H156578   2.784   0.958   3.892  0.0179 -0.4846 -1.1296
13968WAT     H256579   2.797   0.823   3.871 -3.1257 -0.9510 -0.5391
13968WAT    EPW56580   2.775   0.884   3.916  0.4680  0.0275 -0.7914
13969WAT      O56581   3.441   1.485   3.736 -0.2293  0.1203  0.2194
13969WAT     H156582   3.425   1.405   3.707  2.5766 -1.2116  1.8838
13969WAT     H256583   3.396   1.537   3.682 -1.4283 -2.5031 -1.4593
13969WAT    EPW56584   3.432   1.481   3.724 -0.7131  0.4395 -0.3738
13970WAT      O56585   2.132   0.766   3.098  0.0982  0.4148  0.2054
13970WAT     H156586   2.050   0.786   3.117 -0.4909 -1.4856 -0.2032
13970WAT     H256587   2.128   0.740   3.014  0.8095 -1.1523  0.6232
13970WAT    EPW56588   2.120   0.765   3.088 -0.6391 -0.1613 -0.3965
13971WAT      O56589   1.431   7.884   4.243  0.4724  0.2181  0.4385
13971WAT     H156590   1.481   7.905   4.311  0.4893 -1.8035  1.1200
13971WAT     H256591   1.445   7.798   4.233 -1.2585  0.0163 -0.6845
13971WAT    EPW56592   1.441   7.874   4.251  0.1121  0.6673 -0.9998
13972WAT      O56593   1.167   0.280   3.451  0.2417  0.0158 -0.8880
13972WAT     H156594   1.191   0.209   3.496 -0.9867  0.9807  1.4842
13972WAT     H256595   1.243   0.317   3.428  0.9553 -0.4228  0.6332
13972WAT    EPW56596   1.182   0.275   3.455 -0.2395  0.0398  0.4619
13973WAT      O56597   2.563   2.038   2.674  0.1631 -0.5910  0.0332
13973WAT     H156598   2.501   2.100   2.669  0.2383 -0.5659 -0.6835
13973WAT     H256599   2.541   1.983   2.611 -0.3405 -1.7218  1.1571
13973WAT    EPW56600   2.550   2.039   2.664  0.2145 -0.8409  0.0700
13974WAT      O56601   0.759   1.223   3.837  0.2595  0.4451 -0.2668
13974WAT     H156602   0.801   1.299   3.850  0.8829  0.3817 -1.7548
13974WAT     H256603   0.676   1.247   3.828  0.5270  1.0333 -1.2803
13974WAT    EPW56604   0.753   1.238   3.838 -0.6478  0.5619  0.3357
13975WAT      O56605   2.129   7.785   3.588  0.3333 -0.0310  0.5418
13975WAT     H156606   2.179   7.778   3.517  1.0046 -2.2734  1.1601
13975WAT     H256607   2.186   7.788   3.654 -0.2923 -0.6790  1.1410
13975WAT    EPW56608   2.144   7.785   3.587 -0.4907  0.0272  0.0648
13976WAT      O56609   1.320   1.069   3.360 -0.3265 -0.1808 -0.0432
13976WAT     H156610   1.247   1.045   3.318 -0.4554  0.3750 -0.1516
13976WAT     H256611   1.289   1.100   3.436 -0.0556 -1.7245  0.7323
13976WAT    EPW56612   1.304   1.070   3.365  0.2307 -0.7045  0.1976
13977WAT      O56613   1.391   0.401   3.309 -0.1267  0.1975 -0.2065
13977WAT     H156614   1.443   0.472   3.304 -0.1603  0.2287 -0.1118
13977WAT     H256615   1.422   0.349   3.246 -2.4838  1.8515 -2.9845
13977WAT    EPW56616   1.403   0.404   3.299 -0.9020 -0.5281 -0.6282
13978WAT      O56617   1.171   1.308   3.745  0.0466  0.3134 -0.2228
13978WAT     H156618   1.212   1.381   3.722 -0.8163  0.7586 -0.3865
13978WAT     H256619   1.092   1.336   3.769 -0.3720 -0.5858 -0.5121
13978WAT    EPW56620   1.165   1.323   3.745 -0.0548 -0.5737  0.7901
13979WAT      O56621   2.826   1.064   4.234 -0.5497 -0.5657  0.2412
13979WAT     H156622   2.777   1.003   4.274 -0.2547  0.1422  1.7727
13979WAT     H256623   2.885   1.085   4.295  0.7935 -0.4020 -1.0869
13979WAT    EPW56624   2.827   1.058   4.249  1.5179 -0.5354 -0.5764
13980WAT      O56625   1.178   1.080   3.594  0.5611 -0.6004  0.3762
13980WAT     H156626   1.109   1.030   3.613 -1.5129  0.8660 -2.5170
13980WAT     H256627   1.167   1.150   3.645 -1.7672  0.7976 -1.7796
13980WAT    EPW56628   1.166   1.083   3.604 -0.7342  0.3336  0.0212
13981WAT      O56629   1.802   1.121   4.101 -0.0494  0.3609 -0.2627
13981WAT     H156630   1.752   1.056   4.072  1.6791 -0.0487 -2.6711
13981WAT     H256631   1.883   1.086   4.100  0.6577  1.8847  0.4978
13981WAT    EPW56632   1.807   1.106   4.097 -0.4925 -0.3141 -0.3127
13982WAT      O56633   0.074   2.292   3.824 -0.2002  0.4177  0.6599
13982WAT     H156634  -0.002   2.321   3.855  0.1482  0.5958  1.3659
13982WAT     H256635   0.131   2.312   3.887  0.2699 -0.6268  0.5864
13982WAT    EPW56636   0.071   2.299   3.838  0.7894 -0.4790 -0.2595
13983WAT      O56637   2.169   6.647   3.253 -0.3527 -0.0307  0.7415
13983WAT     H156638   2.227   6.655   3.317  1.4356  0.7821 -0.8968
13983WAT     H256639   2.213   6.670   3.181 -2.0442 -1.5157 -0.9129
13983WAT    EPW56640   2.184   6.651   3.252 -0.6302 -0.1027 -0.0362
13984WAT      O56641   0.725   1.941   1.967 -0.8258 -0.1815  0.1082
13984WAT     H156642   0.690   1.868   1.999 -0.4272 -0.4529 -0.0561
13984WAT     H256643   0.805   1.942   2.003 -0.9612  0.3725  0.4031
13984WAT    EPW56644   0.732   1.930   1.977 -0.1785 -0.0531  0.1021
13985WAT      O56645   2.854   0.601   4.221 -0.0863  0.3511 -0.3584
13985WAT     H156646   2.868   0.551   4.150 -1.4811 -0.0943 -0.3493
13985WAT     H256647   2.882   0.680   4.196 -0.0534  0.0809 -1.2271
13985WAT    EPW56648   2.860   0.605   4.207 -0.0777  0.3709 -0.1151
13986WAT      O56649   1.942   2.317   3.147 -0.2823 -0.0404 -0.0033
13986WAT     H156650   1.936   2.246   3.198  0.2802 -0.7126 -0.8441
13986WAT     H256651   1.885   2.373   3.183  0.0398 -0.5141  1.3099
13986WAT    EPW56652   1.933   2.315   3.160  0.0601 -0.0043 -0.5197
13987WAT      O56653   1.078   1.370   4.146  0.1674 -0.2669  0.4558
13987WAT     H156654   1.058   1.419   4.215 -0.9423 -0.1199  0.0506
13987WAT     H256655   1.165   1.375   4.141  0.1659  0.5889  1.1984
13987WAT    EPW56656   1.088   1.378   4.155 -0.2103 -0.3468 -0.3448
13988WAT      O56657   1.551   8.002   3.238 -0.8102 -0.6700  0.0825
13988WAT     H156658   1.621   7.949   3.236 -0.4192 -0.2288  1.3301
13988WAT     H256659   1.495   7.963   3.183  0.5615 -0.8008 -1.2910
13988WAT    EPW56660   1.553   7.988   3.230 -0.0996 -0.1928 -0.7046
13989WAT      O56661   0.353   7.006   0.535 -0.1307 -0.0553 -0.3119
13989WAT     H156662   0.393   7.058   0.593  2.2331 -2.8798  0.8679
13989WAT     H256663   0.290   6.968   0.583 -0.6707  0.3606 -0.6796
13989WAT    EPW56664   0.350   7.008   0.551  0.1094  0.2581 -0.5938
13990WAT      O56665   7.956   0.646   1.712 -0.2951 -0.0037 -0.0261
13990WAT     H156666   7.888   0.696   1.735 -0.0486 -0.1389  1.0689
13990WAT     H256667   7.951   0.579   1.767 -1.4268 -1.9666 -2.3636
13990WAT    EPW56668   7.945   0.644   1.723 -0.1242  0.1870  0.7491
13991WAT      O56669   1.987   7.175   2.629  0.2828 -0.2524  0.4830
13991WAT     H156670   1.925   7.192   2.570  0.0235  1.3568  1.1577
13991WAT     H256671   1.942   7.149   2.699  0.4528 -0.3126  0.5696
13991WAT    EPW56672   1.971   7.174   2.631  0.9212 -0.0571 -0.6036
13992WAT      O56673   0.908   0.332   2.664  0.0535 -0.2461  0.4143
13992WAT     H156674   0.920   0.350   2.579  2.4081  0.2436  0.7650
13992WAT     H256675   0.883   0.249   2.664  0.0364 -0.2619 -0.7608
13992WAT    EPW56676   0.906   0.323   2.651 -1.1952 -0.2598 -0.4546
13993WAT      O56677   7.881   0.940   2.747 -0.1805  0.1141  0.3987
13993WAT     H156678   7.860   0.867   2.704 -0.2643  0.2382  0.2263
13993WAT     H256679   7.824   0.941   2.813 -0.2316  0.0653  0.3561
13993WAT    EPW56680   7.870   0.929   2.750  0.0966  0.5028 -1.1501
13994WAT      O56681   0.168   1.191   1.414  0.0371 -0.5230 -0.7682
13994WAT     H156682   0.181   1.209   1.498 -0.7374 -0.0317 -0.7460
13994WAT     H256683   0.249   1.182   1.383  0.3907  0.6030 -0.2447
13994WAT    EPW56684   0.182   1.192   1.422 -0.4056 -0.3868 -0.1854
13995WAT      O56685   1.158   7.949   2.137 -0.0563 -0.1523 -0.3313
13995WAT     H156686   1.202   7.956   2.212 -0.8960 -0.4587  0.2064
13995WAT     H256687   1.212   7.905   2.085  0.7966  0.6372 -0.1303
13995WAT    EPW56688   1.172   7.944   2.140  0.5881 -0.0654  1.1739
13996WAT      O56689   0.188   0.592   1.095 -0.2688  0.3888 -0.2471
13996WAT     H156690   0.246   0.595   1.159 -0.9952  1.4533  0.3932
13996WAT     H256691   0.236   0.582   1.023  0.7085  1.2734  0.2636
13996WAT    EPW56692   0.203   0.591   1.094  1.2833  1.2109  0.4697
13997WAT      O56693   0.599   0.665   1.675 -0.4002 -0.1918  0.1876
13997WAT     H156694   0.624   0.625   1.602  0.3622  0.1938  0.2271
13997WAT     H256695   0.551   0.732   1.646 -1.2239 -0.8033  0.1023
13997WAT    EPW56696   0.596   0.669   1.660 -0.2546  0.0167  0.9485
13998WAT      O56697   1.046   0.990   2.892 -0.2352  0.2680 -0.1010
13998WAT     H156698   1.070   0.959   2.970 -2.0196  0.5688  0.6222
13998WAT     H256699   1.073   1.073   2.894  2.6119 -0.5229 -1.1736
13998WAT    EPW56700   1.053   0.998   2.904  0.3635 -0.7036  0.1608
13999WAT      O56701   0.989   0.627   0.855  0.8135  0.2139  0.2501
13999WAT     H156702   1.020   0.546   0.853  3.0075  0.9888 -0.3376
13999WAT     H256703   1.060   0.676   0.843 -0.6439  2.1873 -0.8770
13999WAT    EPW56704   1.004   0.622   0.853  0.5022 -0.2518 -0.0002
14000WAT      O56705   1.461   0.849   0.919  1.3591  0.5296  0.2358
14000WAT     H156706   1.410   0.914   0.892 -0.0247  0.2470  1.9580
14000WAT     H256707   1.539   0.886   0.928  0.7172  1.8269  0.7117
14000WAT    EPW56708   1.465   0.864   0.916  0.0238 -0.4472  0.4567
14001WAT      O56709   7.678   0.100   2.069 -0.3710  0.0928 -0.0740
14001WAT     H156710   7.738   0.102   2.133  0.5657  0.1993 -0.9275
14001WAT     H256711   7.711   0.042   2.013 -1.2632 -0.1136 -0.3984
14001WAT    EPW56712   7.692   0.091   2.070  0.0225  0.1768 -0.6170
14002WAT      O56713   1.463   0.550   2.579 -0.4313 -0.1115 -0.2943
14002WAT     H156714   1.439   0.556   2.495 -0.8617  2.4715 -0.0922
14002WAT     H256715   1.465   0.634   2.605  2.5334 -0.5891  1.4894
14002WAT    EPW56716   1.460   0.563   2.570 -0.3285  0.5111  0.3254
14003WAT      O56717   1.290   0.116   3.665  0.0177  0.0664 -0.2402
14003WAT     H156718   1.299   0.202   3.679 -2.0003  0.7304 -2.4149
14003WAT     H256719   1.361   0.096   3.618 -0.5913  1.0781 -1.6458
14003WAT    EPW56720   1.302   0.126   3.660 -0.3441  0.1082 -0.3101
14004WAT      O56721   2.709   6.727   0.447 -0.3285  0.4998  0.3594
14004WAT     H156722   2.649   6.667   0.468 -0.2972 -0.7661 -2.6782
14004WAT     H256723   2.662   6.793   0.417 -0.2917  0.0389 -0.7638
14004WAT    EPW56724   2.693   6.728   0.445  0.4632  0.3587  0.0777
14005WAT      O56725   0.887   7.681   2.957  0.1363 -0.3181  0.2144
14005WAT     H156726   0.921   7.621   2.904  0.7108 -0.6674  0.9493
14005WAT     H256727   0.931   7.754   2.937 -0.4325 -0.1771 -0.5494
14005WAT    EPW56728   0.899   7.683   2.946  0.3181  0.1093 -0.0524
14006WAT      O56729   0.252   0.318   2.380 -0.2103 -0.3273 -0.5608
14006WAT     H156730   0.269   0.284   2.458 -0.3544  0.0133 -0.3797
14006WAT     H256731   0.212   0.253   2.337  1.0749 -0.9914 -0.8288
14006WAT    EPW56732   0.249   0.303   2.385 -0.5453  1.1239  0.1534
14007WAT      O56733   2.308   0.581   3.573  0.8164  0.1106  0.4869
14007WAT     H156734   2.296   0.610   3.492  0.4528 -0.1836  0.4378
14007WAT     H256735   2.382   0.535   3.567  1.4805  1.1166  0.5928
14007WAT    EPW56736   2.317   0.579   3.561  0.5470  0.0327 -0.3345
14008WAT      O56737   0.635   1.943   4.142  0.1327  0.0094 -0.0662
14008WAT     H156738   0.580   1.962   4.077 -0.7794 -0.1601  0.6375
14008WAT     H256739   0.582   1.920   4.207  1.0362  0.1717  0.7362
14008WAT    EPW56740   0.619   1.942   4.142  1.0132 -0.2962 -0.4393
14009WAT      O56741   1.462   1.645   4.013 -0.1964  0.1855  0.1072
14009WAT     H156742   1.540   1.661   4.049  0.2251 -0.6949 -0.4009
14009WAT     H256743   1.480   1.631   3.929 -1.0311  1.0002 -0.2288
14009WAT    EPW56744   1.476   1.645   4.006  0.0587  0.6114  0.3040
14010WAT      O56745   1.252   0.018   2.840  0.8230 -0.2207  0.3808
14010WAT     H156746   1.230   0.102   2.850  2.1100  0.1191  0.5092
14010WAT     H256747   1.288   0.015   2.761  2.1660 -0.3216  0.9759
14010WAT    EPW56748   1.254   0.030   2.830 -0.3112 -0.5268  0.4360
14011WAT      O56749   0.606   1.082   2.359 -0.3166  0.6285 -0.6797
14011WAT     H156750   0.667   1.021   2.355  0.5057  1.4601 -1.3264
14011WAT     H256751   0.554   1.064   2.291 -2.0236 -1.2597  0.9723
14011WAT    EPW56752   0.607   1.071   2.349  0.9965  0.2623  0.1360
14012WAT      O56753   8.030   0.599   1.235 -0.9249 -0.4365 -0.2170
14012WAT     H156754   8.102   0.611   1.187 -0.7703 -0.6774 -0.0401
14012WAT     H256755   7.993   0.678   1.235  0.7537  0.4603  2.0372
14012WAT    EPW56756   8.035   0.612   1.228  1.0223 -0.6952  0.1829
14013WAT      O56757   1.497   0.855   2.257  0.5324 -0.1895  0.6355
14013WAT     H156758   1.430   0.907   2.278  0.4543 -0.4650  1.0722
14013WAT     H256759   1.476   0.778   2.292  0.7541 -0.4620  0.1809
14013WAT    EPW56760   1.484   0.852   2.265  0.3769 -0.2614 -0.3332
14014WAT      O56761   7.440   1.409   1.199 -0.4103  0.1999  0.1172
14014WAT     H156762   7.497   1.466   1.232 -1.1245  0.8031  0.3183
14014WAT     H256763   7.442   1.343   1.256  1.9619 -0.9877 -1.1568
14014WAT    EPW56764   7.449   1.408   1.212  0.1108 -0.4418 -0.5307
14015WAT      O56765   0.776   8.009   2.047  0.0621 -0.1964 -0.6231
14015WAT     H156766   0.774   7.969   2.124 -2.4193  0.4088 -0.2755
14015WAT     H256767   0.825   8.080   2.062 -1.2932  0.5116  0.7918
14015WAT    EPW56768   0.783   8.014   2.061 -0.0842 -0.4279 -0.3357
14016WAT      O56769   1.696   7.754   3.247  0.2282 -0.2074  0.3113
14016WAT     H156770   1.655   7.707   3.186  0.7879  0.4061 -0.5610
14016WAT     H256771   1.670   7.718   3.322 -1.4498 -0.2020 -0.2366
14016WAT    EPW56772   1.686   7.742   3.249 -0.3810  0.1608 -0.2495
14017WAT      O56773   0.848   0.014   3.508  0.1999 -0.4589  0.5248
14017WAT     H156774   0.771   0.041   3.477  0.5333  1.5865  1.3037
14017WAT     H256775   0.870  -0.051   3.455 -0.4762  1.1284 -1.8756
14017WAT    EPW56776   0.839   0.009   3.496 -0.5401 -0.1949  0.0101
14018WAT      O56777   1.227   5.843   3.936  0.1452 -0.1550  0.4225
14018WAT     H156778   1.196   5.809   4.010  0.4588 -0.5202  0.3890
14018WAT     H256779   1.231   5.774   3.882 -0.6703  0.2181 -0.1340
14018WAT    EPW56780   1.223   5.828   3.939  0.0044 -0.2063 -0.9734
14019WAT      O56781   0.751   0.618   0.642  0.4837 -0.0095 -0.2037
14019WAT     H156782   0.779   0.543   0.677 -0.9248 -0.4362  0.0534
14019WAT     H256783   0.739   0.599   0.558  1.8204  0.4411 -0.5289
14019WAT    EPW56784   0.753   0.604   0.635  0.0088  0.7628  0.0773
14020WAT      O56785   1.167   0.484   3.861  0.1482  0.0868 -0.5733
14020WAT     H156786   1.104   0.425   3.854  1.0588 -0.7971 -1.6276
14020WAT     H256787   1.240   0.437   3.867  0.7339  1.0789  0.7890
14020WAT    EPW56788   1.168   0.468   3.861 -0.3316 -0.7175 -1.3096
14021WAT      O56789   0.260   7.750   0.283  0.0747 -0.3679 -0.0364
14021WAT     H156790   0.345   7.730   0.280  0.7415  1.5387  2.6261
14021WAT     H256791   0.259   7.836   0.266 -1.4586 -0.5046 -0.8282
14021WAT    EPW56792   0.272   7.760   0.280  0.1162  0.4363 -0.1599
14022WAT      O56793   2.427   1.272   3.450 -0.1622 -0.1587  0.1682
14022WAT     H156794   2.411   1.234   3.527  0.9164 -1.4222 -0.1910
14022WAT     H256795   2.474   1.213   3.407 -0.5922  0.5906 -1.4178
14022WAT    EPW56796   2.432   1.258   3.455 -0.2319  0.1755 -0.7620
14023WAT      O56797   7.463   0.769   0.861 -0.0183  0.5124  0.3169
14023WAT     H156798   7.440   0.704   0.808 -0.1734  0.5846  0.2936
14023WAT     H256799   7.546   0.753   0.880 -0.1587  0.1079  0.5987
14023WAT    EPW56800   7.472   0.757   0.856  0.0746 -0.4132  0.1588
14024WAT      O56801   0.465   7.766   2.211 -0.1493 -0.0120 -0.0364
14024WAT     H156802   0.439   7.721   2.141  0.4996 -0.6395  0.1132
14024WAT     H256803   0.551   7.772   2.202 -0.0079 -0.4168  0.8785
14024WAT    EPW56804   0.474   7.760   2.199  0.1805 -0.1269  0.0956
14025WAT      O56805   7.677   0.466   2.231  0.7206  0.1204 -0.4071
14025WAT     H156806   7.616   0.526   2.251  0.0137 -0.0294 -1.9714
14025WAT     H256807   7.660   0.447   2.148  0.3110 -2.9273  0.2479
14025WAT    EPW56808   7.665   0.472   2.222  0.2784  0.5588  0.2646
14026WAT      O56809   1.059   7.580   4.079 -0.6320  0.0041  0.2549
14026WAT     H156810   1.083   7.562   3.997 -2.4324  0.4375 -0.4190
14026WAT     H256811   1.100   7.519   4.126  0.1573 -0.4776 -0.9936
14026WAT    EPW56812   1.069   7.569   4.073  1.1544 -0.4903 -1.6050
14027WAT      O56813   0.787   7.985   2.326 -0.0557 -0.8623 -0.0393
14027WAT     H156814   0.710   7.972   2.365 -0.2424 -1.8244 -0.7050
14027WAT     H256815   0.843   7.937   2.373  0.2921  0.3704  0.8618
14027WAT    EPW56816   0.784   7.976   2.338 -0.3537  0.3348 -0.3553
14028WAT      O56817   0.885   0.446   2.408  0.2324 -0.0728  0.2451
14028WAT     H156818   0.844   0.382   2.365  0.0539  1.0418 -1.3754
14028WAT     H256819   0.820   0.499   2.432  0.5169  0.6033 -0.4237
14028WAT    EPW56820   0.869   0.444   2.405  0.0104  0.7758  0.4672
14029WAT      O56821   2.205   1.422   3.355 -0.1296  0.5571  0.0820
14029WAT     H156822   2.239   1.501   3.371  0.2488  0.2168  1.0286
14029WAT     H256823   2.274   1.369   3.363 -0.6433 -0.0155  0.8269
14029WAT    EPW56824   2.221   1.426   3.359 -0.5066 -0.7942 -0.0185
14030WAT      O56825   1.031   7.944   2.970  0.1935 -0.5538  0.2665
14030WAT     H156826   1.100   7.968   2.923  0.9888 -1.9363  0.6748
14030WAT     H256827   1.033   7.998   3.039 -0.1790  0.5597 -0.5604
14030WAT    EPW56828   1.041   7.956   2.974  0.3845 -1.1970  0.3190
14031WAT      O56829   0.935   1.166   4.262  0.1560  0.1600  0.1336
14031WAT     H156830   0.879   1.222   4.297  0.8707  0.2660  1.1345
14031WAT     H256831   0.989   1.217   4.216 -0.3668  0.0863 -0.5805
14031WAT    EPW56832   0.935   1.182   4.260  0.2243 -0.7759  0.3189
14032WAT      O56833   1.177   0.720   2.557 -0.2865  0.1212 -0.2332
14032WAT     H156834   1.094   0.747   2.556 -0.1049  0.6912 -0.2952
14032WAT     H256835   1.185   0.679   2.633  0.1097  2.4648  1.1114
14032WAT    EPW56836   1.166   0.718   2.568  0.1532  0.4743 -0.8588
14033WAT      O56837   0.988   1.616   3.190 -0.2486 -0.1159 -0.2847
14033WAT     H156838   1.030   1.688   3.214 -4.4624  2.0633  1.7311
14033WAT     H256839   0.994   1.564   3.260  0.4578 -0.5657 -0.6680
14033WAT    EPW56840   0.995   1.619   3.204 -0.3036 -0.1024  0.4074
14034WAT      O56841   0.879   0.071   2.788  0.1217 -0.2804 -0.2385
14034WAT     H156842   0.914   0.034   2.859 -0.9528  0.1130  0.5259
14034WAT     H256843   0.892   0.012   2.726  1.3153 -0.5251  0.2240
14034WAT    EPW56844   0.886   0.056   2.790 -1.0906 -1.0775 -0.0526
14035WAT      O56845   1.732   1.065   3.060  0.3973 -0.2487  0.2009
14035WAT     H156846   1.663   1.076   3.112  0.3523 -0.0255  0.0955
14035WAT     H256847   1.766   0.989   3.086 -0.1196 -0.5555 -0.0069
14035WAT    EPW56848   1.727   1.056   3.071  0.3194 -1.2584 -0.1889
14036WAT      O56849   8.075   1.474   1.158 -0.2930 -0.3879 -0.3511
14036WAT     H156850   8.051   1.421   1.223 -2.3314  1.1963  0.2781
14036WAT     H256851   8.159   1.492   1.176 -0.3261 -1.3234  0.8485
14036WAT    EPW56852   8.084   1.469   1.170  0.0765  0.3241  0.2472
14037WAT      O56853   0.820   0.493   2.865 -0.1239  0.0881 -0.5757
14037WAT     H156854   0.891   0.518   2.911  0.3588 -3.7107  1.1014
14037WAT     H256855   0.853   0.459   2.792 -0.4634  0.6519 -1.0028
14037WAT    EPW56856   0.835   0.492   2.861  0.6341  0.4364  0.4986
14038WAT      O56857   0.674   1.668   3.133  0.6586 -0.1683  0.1035
14038WAT     H156858   0.761   1.674   3.144  0.5506  0.2702  0.8135
14038WAT     H256859   0.658   1.719   3.065  0.7269  1.3705  1.2053
14038WAT    EPW56860   0.685   1.676   3.125 -0.4899 -0.6255 -0.1077
14039WAT      O56861   1.270   0.638   3.648 -0.2077  0.0680  0.2771
14039WAT     H156862   1.202   0.642   3.594  0.2088 -1.1603 -0.3575
14039WAT     H256863   1.236   0.605   3.721 -0.2554 -0.7902 -0.1256
14039WAT    EPW56864   1.255   0.634   3.651 -0.3031  0.2575  1.8243
14040WAT      O56865   0.538   2.308   1.359  0.1634  0.1138 -0.1144
14040WAT     H156866   0.604   2.277   1.311 -0.0679  0.6558 -0.8014
14040WAT     H256867   0.566   2.386   1.385  0.0955  0.0224  0.2403
14040WAT    EPW56868   0.552   2.315   1.356  0.2689 -0.0859  0.2937
14041WAT      O56869   0.334   1.613   3.115  0.2338  0.2878  0.5535
14041WAT     H156870   0.391   1.623   3.181  0.4090 -0.6807  0.5508
14041WAT     H256871   0.357   1.538   3.079 -0.0788  0.6516 -0.4235
14041WAT    EPW56872   0.346   1.604   3.120  0.0164 -0.2979 -0.0829
14042WAT      O56873   1.658   1.292   2.513  0.2945  0.3191  0.0350
14042WAT     H156874   1.743   1.305   2.500  0.0419  1.9164 -0.2079
14042WAT     H256875   1.644   1.213   2.479  2.0838 -0.9606  2.0473
14042WAT    EPW56876   1.669   1.282   2.506  0.3208 -0.5728 -1.3521
14043WAT      O56877   0.437   0.974   3.443  0.1094 -0.5211  0.2360
14043WAT     H156878   0.461   0.934   3.370  0.1260 -0.7240  0.3532
14043WAT     H256879   0.351   0.961   3.446 -0.1577  0.7994 -0.5510
14043WAT    EPW56880   0.428   0.966   3.433  0.0830 -0.4400 -0.6914
14044WAT      O56881   0.965   0.093   3.176 -0.6294  0.2674  0.3800
14044WAT     H156882   0.928   0.165   3.144  1.7991  0.9910 -1.0556
14044WAT     H256883   1.039   0.122   3.213  0.9429 -1.4991 -1.1412
14044WAT    EPW56884   0.971   0.108   3.177 -0.2285  0.5807  0.0586
14045WAT      O56885   0.613   7.649   2.544  0.3171  0.1655 -0.2444
14045WAT     H156886   0.590   7.722   2.502  1.3645  0.1965 -0.7875
14045WAT     H256887   0.699   7.660   2.559  0.1488 -0.2303  1.1273
14045WAT    EPW56888   0.623   7.661   2.540 -0.0386 -0.2018  0.6128
14046WAT      O56889   2.439   1.142   3.068  0.3096  0.2623  0.1468
14046WAT     H156890   2.378   1.100   3.113 -1.7873 -0.8445 -3.3808
14046WAT     H256891   2.452   1.092   2.998  0.7365  3.4441 -2.2917
14046WAT    EPW56892   2.432   1.129   3.065  0.2585 -0.1977 -0.4099
14047WAT      O56893   1.872   1.274   2.183 -0.2029  0.7216 -0.2326
14047WAT     H156894   1.865   1.314   2.260 -0.7417  1.8658 -0.8622
14047WAT     H256895   1.818   1.205   2.191  2.3871 -1.2945  1.6513
14047WAT    EPW56896   1.863   1.270   2.195  0.6370  0.0522 -0.3024
14048WAT      O56897   0.431   7.977   3.447  0.2262 -0.2747 -0.5787
14048WAT     H156898   0.427   7.897   3.414  0.5794 -0.2598 -0.6722
14048WAT     H256899   0.349   8.006   3.444 -0.0086 -0.8599  0.0335
14048WAT    EPW56900   0.419   7.969   3.441  0.8788  0.3468 -0.2312
14049WAT      O56901   1.990   2.092   3.310  0.3256  0.1586 -0.0283
14049WAT     H156902   1.937   2.040   3.263  0.8703 -2.4746  2.0692
14049WAT     H256903   2.070   2.063   3.291  0.7694  1.1876  0.1807
14049WAT    EPW56904   1.994   2.080   3.300  0.3668 -0.2432 -0.9930
14050WAT      O56905   8.043   8.033   0.856 -0.1185 -0.0315  0.3066
14050WAT     H156906   7.968   8.055   0.816  0.0782  0.5628  0.2400
14050WAT     H256907   8.100   8.028   0.789 -0.5116 -2.5543  0.0896
14050WAT    EPW56908   8.040   8.036   0.840 -0.6983 -0.3032 -0.3605
14051WAT      O56909   0.703   1.309   0.710  0.5332 -0.5595  0.2559
14051WAT     H156910   0.627   1.323   0.669  0.8692  0.0831 -0.1646
14051WAT     H256911   0.701   1.224   0.727 -0.2950 -0.5502  0.2812
14051WAT    EPW56912   0.691   1.299   0.706  0.2595 -0.3823  0.2810
14052WAT      O56913   2.046   7.635   2.196 -0.0717 -0.3242  0.3716
14052WAT     H156914   2.048   7.690   2.128  1.3214 -0.2546  0.4450
14052WAT     H256915   2.098   7.672   2.255 -2.7516  0.6401  2.3751
14052WAT    EPW56916   2.054   7.648   2.195  1.5493  0.3631 -0.2089
14053WAT      O56917   0.130   7.040   1.566 -0.5959  0.6296 -0.2554
14053WAT     H156918   0.192   7.006   1.616 -0.5767  0.0367 -0.6811
14053WAT     H256919   0.174   7.093   1.512 -0.3361 -0.4441 -1.1345
14053WAT    EPW56920   0.145   7.043   1.566  0.3364 -0.1255 -0.1090
14054WAT      O56921   1.192   0.162   4.184  0.7293  0.6925 -0.0046
14054WAT     H156922   1.176   0.092   4.234 -2.9056  1.4986  0.2487
14054WAT     H256923   1.203   0.129   4.104 -0.7300 -0.2541  0.1427
14054WAT    EPW56924   1.191   0.147   4.180 -0.7919 -0.3805  0.1420
14055WAT      O56925   1.137   0.366   3.081  0.1695 -0.4446 -0.0934
14055WAT     H156926   1.202   0.423   3.082  1.2719 -1.6266 -0.4931
14055WAT     H256927   1.072   0.406   3.123  0.2864  1.7635 -1.8099
14055WAT    EPW56928   1.137   0.380   3.087 -0.1750 -0.4222  0.3633
14056WAT      O56929   0.510   1.003   0.875  0.3768  0.0601  0.3476
14056WAT     H156930   0.515   1.074   0.925 -0.9802 -1.3209  2.6226
14056WAT     H256931   0.430   0.972   0.892  0.8953 -1.9663 -0.6226
14056WAT    EPW56932   0.499   1.009   0.885 -0.8532  0.2021  0.3745
14057WAT      O56933   0.536   0.087   3.658  0.0677 -0.0623  0.0174
14057WAT     H156934   0.544   0.168   3.627  3.0019  0.5811  2.0171
14057WAT     H256935   0.510   0.041   3.588  2.5238  1.8704 -2.4138
14057WAT    EPW56936   0.533   0.092   3.643 -0.1877  0.1125 -1.0904
14058WAT      O56937   1.235   0.908   2.343 -0.2355 -0.4279 -0.3518
14058WAT     H156938   1.185   0.972   2.373  0.8642  0.0151  0.6105
14058WAT     H256939   1.223   0.843   2.399 -1.1614 -1.0036 -1.1897
14058WAT    EPW56940   1.226   0.908   2.355 -0.0747  1.0426  0.5451
14059WAT      O56941   0.228   7.279   0.518  0.3651  0.2668 -0.0432
14059WAT     H156942   0.210   7.285   0.432  2.1397  1.2893 -0.3847
14059WAT     H256943   0.274   7.205   0.524 -0.3376 -0.1688  0.1711
14059WAT    EPW56944   0.232   7.269   0.506  0.8750 -0.4804  0.0171
14060WAT      O56945   0.882   0.768   0.029 -0.1350  0.2615  0.4944
14060WAT     H156946   0.934   0.725   0.084 -1.9503  0.2574  2.3158
14060WAT     H256947   0.937   0.821  -0.014  1.5174 -0.6144  1.4125
14060WAT    EPW56948   0.898   0.770   0.031 -0.7247  0.7429  0.0427
14061WAT      O56949   1.215   0.611   2.798  0.5718 -0.3758 -0.2256
14061WAT     H156950   1.271   0.568   2.848 -0.1514 -1.5509 -0.3712
14061WAT     H256951   1.141   0.610   2.844  0.6737  1.2752  0.0284
14061WAT    EPW56952   1.212   0.604   2.812  0.3746 -0.0709  0.2270
14062WAT      O56953   0.469   0.341   0.747 -0.0808  0.4509 -0.1642
14062WAT     H156954   0.407   0.394   0.777  1.8120  1.5934  1.9890
14062WAT     H256955   0.434   0.261   0.757 -1.3966  1.0724  0.4369
14062WAT    EPW56956   0.455   0.337   0.753 -0.1528  0.4222 -0.7839
14063WAT      O56957   0.883   1.240   0.064  0.3482  0.0040  0.4624
14063WAT     H156958   0.895   1.187   0.133 -0.8798 -1.3472 -0.3131
14063WAT     H256959   0.897   1.320   0.097  2.2221 -0.7529  1.6897
14063WAT    EPW56960   0.887   1.244   0.079 -0.7696  0.8736 -0.7482
14064WAT      O56961   0.464   7.165   0.726 -0.0149  0.3476 -0.2344
14064WAT     H156962   0.472   7.237   0.775 -3.0526  0.9104 -0.4048
14064WAT     H256963   0.431   7.107   0.781  1.3640 -0.6522 -0.4001
14064WAT    EPW56964   0.461   7.167   0.742 -0.0320  0.1468 -0.7575
14065WAT      O56965   0.466   7.324   0.964 -0.0914 -0.2307  0.3466
14065WAT     H156966   0.538   7.374   0.965 -0.5746  0.6105 -1.9949
14065WAT     H256967   0.402   7.380   0.983 -0.3994 -0.4504 -0.0520
14065WAT    EPW56968   0.467   7.340   0.967  0.6544  0.0553 -0.6604
14066WAT      O56969   0.018   1.371   0.898  0.6918  0.1741 -0.3098
14066WAT     H156970  -0.059   1.363   0.857  1.2589  0.4302 -1.4842
14066WAT     H256971   0.000   1.423   0.965  0.3063  2.4453 -2.0390
14066WAT    EPW56972   0.004   1.377   0.902  0.3829 -0.7016  0.8089
14067WAT      O56973   0.581   1.931   1.127 -0.4547 -0.1652 -0.5474
14067WAT     H156974   0.516   1.944   1.184  0.8714 -0.0010  1.0050
14067WAT     H256975   0.591   1.844   1.129 -0.4435 -0.1644 -0.5788
14067WAT    EPW56976   0.573   1.920   1.136 -0.3548  0.4718  0.8254
14068WAT      O56977   0.702   6.247   1.301 -0.3399  0.2383 -0.3090
14068WAT     H156978   0.739   6.263   1.379 -2.0124  0.0789  0.5650
14068WAT     H256979   0.686   6.161   1.304 -3.0244  0.6630  0.4638
14068WAT    EPW56980   0.705   6.237   1.313 -0.1739 -0.0487 -0.6915
14069WAT      O56981   1.193   0.554   0.598 -0.7828 -0.4328  0.1409
14069WAT     H156982   1.205   0.492   0.537  0.6436 -0.0900  0.0410
14069WAT     H256983   1.195   0.510   0.673  1.8767 -0.3893  0.1821
14069WAT    EPW56984   1.195   0.538   0.600  0.3522  0.5437 -0.1624
14070WAT      O56985   0.138   7.403   1.444  0.0077  0.4604  0.1446
14070WAT     H156986   0.127   7.478   1.401  0.5028  0.2479 -0.3603
14070WAT     H256987   0.057   7.370   1.450  0.0781 -0.3248 -2.1224
14070WAT    EPW56988   0.124   7.409   1.439  0.1920 -0.0947 -0.1068
14071WAT      O56989   0.313   6.943   0.853  0.1732 -0.6338  0.1976
14071WAT     H156990   0.303   6.980   0.932  0.4564  0.1886 -0.1402
14071WAT     H256991   0.233   6.948   0.818  0.3724  0.4123 -0.1527
14071WAT    EPW56992   0.300   6.950   0.860 -0.2551 -0.0158 -0.1229
14072WAT      O56993   0.832   1.068   0.795  0.2160  0.1988 -0.0407
14072WAT     H156994   0.900   1.120   0.776  0.6781 -0.5938 -0.6488
14072WAT     H256995   0.864   1.014   0.855  0.2179 -0.3324 -0.5028
14072WAT    EPW56996   0.847   1.068   0.801 -0.0493 -0.2087  0.8275
14073WAT      O56997   1.006   1.494   0.129  0.4064  0.1646 -0.0866
14073WAT     H156998   1.073   1.444   0.153 -0.6152 -0.5340  1.4959
14073WAT     H256999   1.014   1.565   0.180 -1.2040 -0.8770  1.7568
14073WAT    EPW57000   1.017   1.497   0.140 -0.1166 -0.4165 -1.0107
14074WAT      O57001   8.045   7.096   1.934  0.5475  0.0047 -0.2512
14074WAT     H157002   8.080   7.153   1.990 -2.6990  1.6087  0.3908
14074WAT     H257003   8.056   7.134   1.856  1.2879 -0.1321 -0.2206
14074WAT    EPW57004   8.052   7.110   1.931  0.9431 -0.0312 -0.5877
14075WAT      O57005   0.148   7.024   1.077  0.1630  0.3908  0.1317
14075WAT     H157006   0.182   7.086   1.128  0.9156 -0.8403  1.1873
14075WAT     H257007   0.099   7.069   1.021 -0.8612  1.7951  2.0333
14075WAT    EPW57008   0.146   7.040   1.076 -0.2506  0.2597  0.4942
14076WAT      O57009   1.332   0.313   0.161  0.2063  0.1844 -0.5755
14076WAT     H157010   1.412   0.347   0.170  0.1063  1.0578 -2.6121
14076WAT     H257011   1.292   0.369   0.108 -1.0549 -1.3982 -1.3581
14076WAT    EPW57012   1.338   0.326   0.155  0.1519 -0.3829  0.5750
14077WAT      O57013   7.927   7.664   0.476 -0.1863 -0.1400  0.3413
14077WAT     H157014   7.990   7.631   0.425 -1.0176  0.7653 -1.3512
14077WAT     H257015   7.965   7.735   0.512 -0.1034  0.1781 -0.3585
14077WAT    EPW57016   7.942   7.670   0.474 -0.3924  0.0557 -0.5654
14078WAT      O57017   7.901   7.052   0.364  0.0008  0.2682 -0.3836
14078WAT     H157018   7.907   7.101   0.436  2.0940  2.5113 -1.9425
14078WAT     H257019   7.892   6.971   0.396 -2.0155  1.3951  2.3235
14078WAT    EPW57020   7.900   7.047   0.379  0.9153  0.3825 -1.2092
14079WAT      O57021   8.042   7.539   1.792 -0.5204 -0.0493  0.2017
14079WAT     H157022   8.117   7.512   1.825 -0.8218  1.6698  2.5419
14079WAT     H257023   7.988   7.472   1.804 -0.0864 -0.2005  1.3651
14079WAT    EPW57024   8.045   7.525   1.798  0.3481 -0.1730  0.2049
14080WAT      O57025   7.848   7.109   0.814 -0.2578 -0.2036  0.2976
14080WAT     H157026   7.837   7.029   0.781 -0.1978  0.7447 -2.2771
14080WAT     H257027   7.859   7.159   0.743 -1.1191  2.2408  1.7627
14080WAT    EPW57028   7.848   7.104   0.798 -0.4723 -0.0190 -0.5110
14081WAT      O57029   1.958   0.667   0.188 -0.2540  0.0560  0.6987
14081WAT     H157030   2.044   0.660   0.200 -0.0971  1.4289  0.5003
14081WAT     H257031   1.944   0.753   0.188 -1.4687 -0.1109 -0.3534
14081WAT    EPW57032   1.968   0.679   0.190  0.8548 -0.4664 -0.0444
14082WAT      O57033   8.005   0.124   2.943 -0.1126  0.0408  0.3362
14082WAT     H157034   7.963   0.060   2.987  1.5338 -0.6601  0.9707
14082WAT     H257035   8.054   0.161   3.005  1.5105 -0.3112 -0.7065
14082WAT    EPW57036   8.006   0.120   2.959  0.1188  0.5169  0.3497
14083WAT      O57037   0.230   0.407   2.033 -0.3504  0.0063 -0.0127
14083WAT     H157038   0.279   0.344   2.069 -0.9981 -0.7325 -0.3974
14083WAT     H257039   0.288   0.455   1.990  0.7859  2.0501  3.4174
14083WAT    EPW57040   0.246   0.405   2.032 -0.1912  0.3473  0.0387
14084WAT      O57041   0.756   7.895   1.785  0.7647 -0.0104 -0.3240
14084WAT     H157042   0.772   7.936   1.860 -1.9321 -1.5419  1.2576
14084WAT     H257043   0.718   7.956   1.735  2.2155  0.9171 -0.3328
14084WAT    EPW57044   0.753   7.910   1.789  0.0553  0.0095  0.3425
14085WAT      O57045   0.814   0.802   1.010  0.2635 -0.3052 -0.4730
14085WAT     H157046   0.877   0.772   1.061  0.4689 -0.1172 -0.6147
14085WAT     H257047   0.823   0.757   0.936 -1.1950 -1.9436  0.2616
14085WAT    EPW57048   0.824   0.791   1.007 -0.0038 -0.5157  0.5589
14086WAT      O57049   0.647   6.521   1.986 -0.0822 -0.5003 -0.1363
14086WAT     H157050   0.664   6.468   2.052  1.5159 -0.5424 -0.5571
14086WAT     H257051   0.614   6.468   1.925  1.4724 -1.0393 -0.5448
14086WAT    EPW57052   0.644   6.506   1.987  0.5368  0.3763  1.2576
14087WAT      O57053   7.665   0.900   2.395 -0.2374  0.4938 -0.0577
14087WAT     H157054   7.726   0.916   2.335  1.1615 -0.4248  1.0493
14087WAT     H257055   7.711   0.874   2.464 -1.9646 -2.1761  0.2101
14087WAT    EPW57056   7.681   0.899   2.396 -0.4381 -0.1282 -0.3525
14088WAT      O57057   1.083   7.047   2.966  0.4968 -0.6296  0.4081
14088WAT     H157058   1.103   6.964   2.947  2.6726 -0.4110  1.3895
14088WAT     H257059   1.039   7.040   3.041 -1.2140 -0.9802 -0.5752
14088WAT    EPW57060   1.080   7.033   2.974  1.1355 -0.8908  0.2235
14089WAT      O57061   1.504   7.900   0.245  0.2966  0.2641  0.0911
14089WAT     H157062   1.477   7.970   0.200 -0.7375  1.1254  1.9225
14089WAT     H257063   1.430   7.867   0.277  1.0692  0.9517  2.8351
14089WAT    EPW57064   1.489   7.906   0.243  0.4756  0.1870 -0.0183
14090WAT      O57065   0.404   7.974   3.149 -0.0253  0.5287 -0.4068
14090WAT     H157066   0.402   8.044   3.097 -0.2444  0.7797 -0.0665
14090WAT     H257067   0.485   7.974   3.180  0.3639 -0.0952 -1.3762
14090WAT    EPW57068   0.415   7.985   3.146 -1.3293  0.4176  0.0816
14091WAT      O57069   0.295   0.098   2.072 -0.4161 -0.9094 -0.4496
14091WAT     H157070   0.371   0.101   2.115 -0.8384  2.9260  0.4271
14091WAT     H257071   0.237   0.080   2.135 -0.6098  0.5486 -0.1779
14091WAT    EPW57072   0.298   0.096   2.088  0.4330 -0.1565 -0.6142
   8.09217   8.04338   8.05573
