Generic title
 1062
    1C5    HO5'    1   3.415   5.421   3.587  0.0436  0.6012 -1.0354
    1C5     O5'    2   3.506   5.446   3.571  0.2321  0.5582 -0.0897
    1C5     C5'    3   3.593   5.389   3.659 -0.9659 -0.6733  0.8497
    1C5     H5'    4   3.685   5.396   3.602 -0.9440  2.1158  1.0806
    1C5    H5''    5   3.574   5.286   3.687  0.2490 -0.9282  0.7970
    1C5     C4'    6   3.605   5.480   3.783 -0.4192 -0.3391 -0.2050
    1C5     H4'    7   3.640   5.580   3.755 -0.1691 -0.5316 -0.5864
    1C5     O4'    8   3.485   5.497   3.858  0.4119 -0.0991  0.5478
    1C5     C1'    9   3.509   5.458   3.991 -0.0759 -0.6824 -0.6012
    1C5     H1'   10   3.480   5.540   4.057  0.5621 -0.9916  0.0812
    1C5      N1   11   3.443   5.332   4.033 -0.0550 -0.0708 -0.2985
    1C5      C6   12   3.375   5.250   3.945 -0.5665  0.4457 -0.3793
    1C5      H6   13   3.382   5.274   3.840  2.8279  1.6462  0.0205
    1C5      C5   14   3.328   5.132   3.985  0.0045  0.2402  0.0473
    1C5      H5   15   3.287   5.063   3.912 -1.6819  1.1609  0.0676
    1C5      C4   16   3.339   5.092   4.117  0.2219  0.9017 -0.2083
    1C5      N4   17   3.291   4.977   4.160  0.5581 -0.5415 -0.1969
    1C5     H41   18   3.227   4.923   4.104  2.3483 -1.0362 -1.8870
    1C5     H42   19   3.291   4.958   4.259 -0.6580 -2.7893 -0.5795
    1C5      N3   20   3.391   5.169   4.209  0.1422  0.3853  0.4612
    1C5      C2   21   3.443   5.289   4.169 -0.0369  0.1433  0.5451
    1C5      O2   22   3.494   5.353   4.255 -0.3081  0.4099 -0.1096
    1C5     C3'   23   3.714   5.415   3.869 -0.1497  1.0196 -0.3663
    1C5     H3'   24   3.702   5.307   3.875  1.6860  0.8653  2.1805
    1C5     C2'   25   3.662   5.465   4.001  0.1261 -0.6159 -0.2989
    1C5     H2'   26   3.704   5.398   4.076  1.5968  0.6188  0.0423
    1C5     O2'   27   3.706   5.596   4.030  0.2355 -0.2165 -0.1327
    1C5    HO2'   28   3.795   5.611   3.996 -0.2018  0.7248 -0.8837
    1C5     O3'   29   3.850   5.459   3.854  0.3538 -0.5192 -0.1788
    2U        P   30   3.973   5.359   3.880  0.2292  0.0444 -0.2828
    2U      OP1   31   4.089   5.437   3.846 -0.2125 -0.4284 -0.0626
    2U      OP2   32   3.952   5.236   3.801 -0.1741 -0.2642 -0.4435
    2U      O5'   33   3.961   5.338   4.034  0.4863  0.0865  0.1812
    2U      C5'   34   4.006   5.442   4.124 -0.1579 -0.1087  0.0195
    2U      H5'   35   3.956   5.537   4.103 -2.2702 -1.1273  0.1015
    2U     H5''   36   4.114   5.454   4.119 -0.2879  1.7266  0.6637
    2U      C4'   37   3.978   5.406   4.274 -0.0636 -0.4786  0.5739
    2U      H4'   38   4.013   5.493   4.329  0.0608  0.3611 -0.7782
    2U      O4'   39   3.838   5.385   4.298  0.2487 -0.2071  0.3235
    2U      C1'   40   3.830   5.285   4.391 -0.0259  0.3460 -0.0704
    2U      H1'   41   3.780   5.331   4.477  3.0510  1.2250  1.3957
    2U       N1   42   3.751   5.172   4.328 -0.3887 -0.3686  0.5418
    2U       C6   43   3.746   5.155   4.189  0.4276  0.7345 -0.0675
    2U       H6   44   3.779   5.233   4.122  0.1840  1.2642  0.4208
    2U       C5   45   3.690   5.041   4.135  0.1394 -0.7597  0.0542
    2U       H5   46   3.693   5.025   4.028 -0.3157  0.4875 -0.1577
    2U       C4   47   3.631   4.943   4.218  0.2213 -0.1978 -0.1024
    2U       O4   48   3.568   4.843   4.185 -0.0557  0.1943 -0.2731
    2U       N3   49   3.642   4.963   4.354  0.3733  0.1799  0.1090
    2U       H3   50   3.603   4.899   4.422  1.8698  0.5147  1.3286
    2U       C2   51   3.705   5.070   4.412  0.3343 -0.2470 -0.2382
    2U       O2   52   3.710   5.081   4.535 -0.3297 -0.1358  0.6819
    2U      C3'   53   4.052   5.280   4.307 -1.1990  0.1553 -0.0776
    2U      H3'   54   4.033   5.217   4.220  3.6596 -0.0716 -1.2630
    2U      C2'   55   3.967   5.246   4.432 -0.3031  1.0041  0.5288
    2U      H2'   56   3.974   5.138   4.449  2.4558  0.7367 -1.6132
    2U      O2'   57   4.002   5.326   4.542 -0.3636  1.2152  0.2526
    2U     HO2'   58   3.961   5.284   4.618 -0.4112  0.8259  0.0107
    2U      O3'   59   4.190   5.287   4.325 -0.2145  0.0282  0.0420
    3G        P   60   4.280   5.152   4.309  0.0310 -0.3120  0.0502
    3G      OP1   61   4.423   5.194   4.318  0.4695 -0.2042 -0.2147
    3G      OP2   62   4.243   5.082   4.189  0.1675 -0.1240  0.1817
    3G      O5'   63   4.244   5.065   4.435  0.1500  0.1304 -0.1348
    3G      C5'   64   4.267   5.114   4.564 -0.1046  0.1268 -0.0956
    3G      H5'   65   4.199   5.198   4.580 -1.6445 -1.2805  1.1518
    3G     H5''   66   4.370   5.137   4.589  0.3220 -0.8814 -0.8875
    3G      C4'   67   4.221   4.995   4.660 -0.7007 -0.0599  0.2296
    3G      H4'   68   4.260   5.026   4.757 -2.3198  2.3214  0.2097
    3G      O4'   69   4.082   4.990   4.663  0.6069 -0.2596 -0.0297
    3G      C1'   70   4.046   4.854   4.693 -0.0761  0.6403 -0.0605
    3G      H1'   71   3.983   4.842   4.781 -0.9580  1.1598 -0.6026
    3G       N9   72   3.981   4.791   4.574  0.5337 -0.4478 -0.4779
    3G       C8   73   3.976   4.845   4.444  0.2007  0.0977 -0.0282
    3G       H8   74   4.038   4.924   4.405  0.1675  0.3768  0.4730
    3G       N7   75   3.898   4.773   4.366  1.2850  0.3320  0.3282
    3G       C5   76   3.846   4.673   4.446  0.2555  0.0639 -0.2008
    3G       C6   77   3.743   4.578   4.417 -0.1268 -0.0380 -0.4622
    3G       O6   78   3.698   4.539   4.308  0.2781 -0.5080 -0.5154
    3G       N1   79   3.704   4.510   4.530 -0.1937  0.8894 -0.2027
    3G       H1   80   3.631   4.441   4.515  1.4714 -0.8725 -0.5946
    3G       C2   81   3.766   4.517   4.651  0.0251 -0.6593 -0.2306
    3G       N2   82   3.727   4.434   4.741 -0.3221 -0.0534 -0.6137
    3G      H21   83   3.652   4.367   4.733 -2.5955  1.7829  3.1020
    3G      H22   84   3.769   4.445   4.832 -0.9533  1.5104 -0.4810
    3G       N3   85   3.859   4.613   4.683 -0.3374  0.7199 -0.2842
    3G       C4   86   3.889   4.686   4.575 -0.0701  0.3117  0.6080
    3G      C3'   87   4.273   4.856   4.625  0.0140 -0.0678 -0.1659
    3G      H3'   88   4.250   4.817   4.526 -2.4756 -1.8634  0.9920
    3G      C2'   89   4.176   4.781   4.720  0.5907 -0.2960 -0.0376
    3G      H2'   90   4.161   4.678   4.688 -2.5806  0.4416 -1.3227
    3G      O2'   91   4.217   4.789   4.860  0.2521 -0.0309 -0.1327
    3G     HO2'   92   4.170   4.719   4.907 -3.9030  3.0889  1.0362
    3G      O3'   93   4.409   4.827   4.668 -0.1422 -0.1122  0.3111
    4G        P   94   4.494   4.713   4.595 -0.0668 -0.1183 -0.0775
    4G      OP1   95   4.630   4.715   4.645  0.0550 -0.2187  0.2663
    4G      OP2   96   4.479   4.726   4.450  0.4415  1.0625  0.4417
    4G      O5'   97   4.427   4.578   4.636 -0.6829  0.2388  0.4152
    4G      C5'   98   4.424   4.527   4.765  0.0061  0.4007  0.4163
    4G      H5'   99   4.410   4.599   4.845  0.6328 -0.7957  1.6341
    4G     H5''  100   4.517   4.476   4.792  1.1308  1.9618 -0.3631
    4G      C4'  101   4.316   4.417   4.778 -0.5270  0.6815 -0.4998
    4G      H4'  102   4.319   4.393   4.885  0.5078 -0.2210 -0.7113
    4G      O4'  103   4.192   4.454   4.728  0.0611 -0.7062 -0.5000
    4G      C1'  104   4.121   4.337   4.687  0.1424 -1.0581  0.6613
    4G      H1'  105   4.021   4.331   4.732 -0.6070  0.3426 -0.7078
    4G       N9  106   4.087   4.353   4.543  0.2239  0.2570  0.4093
    4G       C8  107   4.127   4.441   4.447  0.2015 -0.2261 -0.2134
    4G       H8  108   4.212   4.504   4.466 -0.4155  0.4643  0.3061
    4G       N7  109   4.069   4.427   4.333 -0.2705 -0.3605  0.7856
    4G       C5  110   3.971   4.332   4.354 -0.3791  0.3684 -0.5405
    4G       C6  111   3.874   4.275   4.268  0.1399 -0.3183 -0.5180
    4G       O6  112   3.851   4.298   4.148 -0.6625  0.0565 -0.7640
    4G       N1  113   3.796   4.184   4.331 -1.0471  0.5759  0.1651
    4G       H1  114   3.722   4.138   4.280  0.1465 -4.4184  2.3899
    4G       C2  115   3.827   4.134   4.456 -0.2908  0.1369 -0.2249
    4G       N2  116   3.765   4.023   4.494 -0.0993  0.2097  0.2848
    4G      H21  117   3.700   3.989   4.424  0.6584  1.8697 -1.3173
    4G      H22  118   3.772   4.002   4.592  2.8642 -1.6927 -0.1977
    4G       N3  119   3.906   4.187   4.541  0.0922  0.5163  0.1395
    4G       C4  120   3.980   4.290   4.489  0.4453  0.8621  0.1342
    4G      C3'  121   4.342   4.284   4.701 -0.5927  0.4479  0.6559
    4G      H3'  122   4.365   4.310   4.598 -0.2281  0.5762  0.7681
    4G      C2'  123   4.207   4.215   4.703 -1.1027 -0.0892 -0.8119
    4G      H2'  124   4.188   4.147   4.620  0.2395 -1.1528 -0.2812
    4G      O2'  125   4.154   4.161   4.825 -0.7787  0.5770 -0.3060
    4G     HO2'  126   4.218   4.188   4.892 -2.6112  1.9431  1.0165
    4G      O3'  127   4.453   4.210   4.754  0.0445 -0.4303  0.7435
    5G        P  128   4.518   4.090   4.672  0.0404  0.2170  0.2716
    5G      OP1  129   4.617   4.023   4.756  0.1017  0.2728  0.0228
    5G      OP2  130   4.558   4.145   4.540 -0.1608 -0.4112 -0.3030
    5G      O5'  131   4.398   3.992   4.638 -0.2983 -0.0519 -0.4216
    5G      C5'  132   4.345   3.904   4.738  0.3135 -0.1517 -0.1324
    5G      H5'  133   4.296   3.957   4.819  0.4879 -0.0320 -0.1056
    5G     H5''  134   4.423   3.836   4.773  1.5821  0.4466 -1.6436
    5G      C4'  135   4.236   3.813   4.685  0.2414  0.1932  0.3527
    5G      H4'  136   4.215   3.747   4.769  0.5801 -0.0383  0.2570
    5G      O4'  137   4.107   3.870   4.640 -0.3736 -0.1659  0.1886
    5G      C1'  138   4.071   3.793   4.521  0.4081 -0.3702 -0.4857
    5G      H1'  139   3.966   3.769   4.531  0.3807  0.1244  0.5353
    5G       N9  140   4.077   3.886   4.405 -0.6276 -0.1069 -0.2617
    5G       C8  141   4.159   3.992   4.383 -0.2854  0.2743  0.3463
    5G       H8  142   4.234   4.035   4.449 -1.4702 -0.6660  2.3992
    5G       N7  143   4.138   4.057   4.268  0.1340 -0.0595 -0.7981
    5G       C5  144   4.039   3.980   4.207  0.2899 -0.5743  0.5518
    5G       C6  145   3.981   3.982   4.075  0.1706 -0.5530  0.0036
    5G       O6  146   3.997   4.064   3.988 -0.7829  0.0383  0.4986
    5G       N1  147   3.883   3.890   4.057  0.1901 -0.2351  0.0883
    5G       H1  148   3.843   3.893   3.964  1.8043  1.0486 -0.6216
    5G       C2  149   3.849   3.802   4.145 -0.1869 -0.8410 -0.4182
    5G       N2  150   3.761   3.715   4.103  0.2766  0.2248  0.3084
    5G      H21  151   3.711   3.724   4.016  2.1525  1.1492 -0.7475
    5G      H22  152   3.727   3.642   4.164  0.3273 -1.4480 -1.5563
    5G       N3  153   3.890   3.791   4.270 -0.3469 -0.7594 -0.9759
    5G       C4  154   3.990   3.888   4.294 -0.0172  0.0914 -0.2127
    5G      C3'  155   4.294   3.726   4.572  0.1510 -0.6846 -0.3884
    5G      H3'  156   4.345   3.795   4.504 -1.5510  0.4353 -0.5972
    5G      C2'  157   4.162   3.674   4.505  0.1439 -0.4815  0.3747
    5G      H2'  158   4.176   3.651   4.399 -1.2082 -0.2505  0.1321
    5G      O2'  159   4.107   3.567   4.581  0.1923  0.3390  0.2480
    5G     HO2'  160   4.165   3.491   4.588 -0.4752 -0.1831  0.2980
    5G      O3'  161   4.382   3.616   4.608 -0.3725 -0.3938  0.2581
    6U        P  162   4.451   3.526   4.501 -0.2377 -0.0906  0.3903
    6U      OP1  163   4.585   3.511   4.557 -1.3297  0.1589  0.2140
    6U      OP2  164   4.434   3.587   4.368 -0.0042  0.9487  0.1397
    6U      O5'  165   4.369   3.389   4.523  0.1959  0.2471  0.1099
    6U      C5'  166   4.360   3.314   4.644 -0.1240 -0.0085  0.9712
    6U      H5'  167   4.331   3.385   4.722  1.4437  3.5599 -1.3856
    6U     H5''  168   4.453   3.268   4.678  0.1708 -0.5776 -0.5179
    6U      C4'  169   4.241   3.209   4.629 -0.3040 -0.4003  0.0336
    6U      H4'  170   4.232   3.156   4.724 -0.5123  1.3337  1.0293
    6U      O4'  171   4.110   3.262   4.610 -0.2901  0.0966 -0.0164
    6U      C1'  172   4.038   3.179   4.522  0.2748 -0.0686 -0.3608
    6U      H1'  173   3.950   3.142   4.575 -0.9249  3.2179  0.1924
    6U       N1  174   4.009   3.244   4.391  0.5886 -0.4456 -0.0694
    6U       C6  175   4.086   3.343   4.341  0.4871 -0.5493  0.5381
    6U       H6  176   4.166   3.383   4.401  0.3811 -1.0985  1.0556
    6U       C5  177   4.048   3.399   4.224 -0.1466 -0.5672  0.7345
    6U       H5  178   4.110   3.473   4.176  0.3520 -0.6963  1.1683
    6U       C4  179   3.934   3.352   4.144 -0.2540  0.7381 -0.1807
    6U       O4  180   3.900   3.396   4.039  0.0759  0.1507 -0.0802
    6U       N3  181   3.871   3.247   4.205 -0.1918  0.0999  0.8717
    6U       H3  182   3.786   3.208   4.166 -0.1381 -1.0895  1.8658
    6U       C2  183   3.908   3.183   4.315  0.4797  0.1509 -0.1487
    6U       O2  184   3.848   3.079   4.354 -0.2612  0.4310 -0.3149
    6U      C3'  185   4.268   3.104   4.522  0.6294 -0.4103  0.3929
    6U      H3'  186   4.306   3.157   4.434 -1.9716  0.8584 -0.0771
    6U      C2'  187   4.118   3.053   4.500  0.3243  0.6325 -0.3152
    6U      H2'  188   4.104   3.026   4.395  0.7739  1.7296 -0.6732
    6U      O2'  189   4.076   2.966   4.599 -0.3067 -0.2387 -0.2874
    6U     HO2'  190   4.120   2.881   4.597 -0.3088 -0.2312 -1.4899
    6U      O3'  191   4.357   3.008   4.567  0.0424 -1.0261 -0.0772
    7C        P  192   4.453   2.940   4.469 -0.2063 -0.0265  0.2815
    7C      OP1  193   4.496   2.812   4.524  0.2107 -0.3197 -0.0832
    7C      OP2  194   4.555   3.043   4.433  0.1410 -0.1878  0.1407
    7C      O5'  195   4.366   2.916   4.330 -0.2150  0.4449  0.0701
    7C      C5'  196   4.279   2.803   4.320 -0.4534 -0.4468  0.0049
    7C      H5'  197   4.220   2.810   4.411  0.6531  1.4511  0.6376
    7C     H5''  198   4.349   2.719   4.319 -0.1611 -0.2032 -0.5025
    7C      C4'  199   4.186   2.813   4.199  0.1942  0.2930 -0.1155
    7C      H4'  200   4.120   2.728   4.215  1.0542  0.1017  3.1700
    7C      O4'  201   4.110   2.926   4.188 -0.2221  0.3123  0.9158
    7C      C1'  202   4.103   2.976   4.056  0.2026  0.5503  0.0505
    7C      H1'  203   3.998   2.987   4.028 -0.3984 -0.7510  1.6141
    7C       N1  204   4.159   3.112   4.039  0.5803 -0.0682 -0.5199
    7C       C6  205   4.264   3.152   4.119  0.7797  0.7794  0.9879
    7C       H6  206   4.285   3.089   4.205 -1.3761 -0.1129  0.9211
    7C       C5  207   4.343   3.258   4.085 -0.2696  0.1373  0.1095
    7C       H5  208   4.424   3.287   4.150 -0.4492 -0.1490  0.4687
    7C       C4  209   4.305   3.336   3.969 -0.0303  0.2290  0.1663
    7C       N4  210   4.378   3.438   3.936 -0.0485 -0.7319 -0.3058
    7C      H41  211   4.463   3.462   3.984  0.8755  0.9402 -2.5656
    7C      H42  212   4.356   3.476   3.845  0.7616  2.2594  0.6081
    7C       N3  213   4.199   3.297   3.897 -0.8127  0.6806 -0.3232
    7C       C2  214   4.124   3.188   3.929 -0.3033  0.5166 -0.2576
    7C       O2  215   4.027   3.159   3.863  0.4752 -0.0430  1.1406
    7C      C3'  216   4.266   2.801   4.066  0.2480 -0.1600  0.7168
    7C      H3'  217   4.354   2.862   4.081  1.0327 -1.2478  0.6569
    7C      C2'  218   4.165   2.867   3.968  0.3870  0.4845  0.4600
    7C      H2'  219   4.217   2.913   3.884  1.7495  0.1380  1.0807
    7C      O2'  220   4.065   2.782   3.924 -0.5577 -0.1746 -0.7882
    7C     HO2'  221   4.097   2.692   3.916 -0.3642 -0.0846 -1.0692
    7C      O3'  222   4.295   2.663   4.037  0.3877 -0.8557 -0.3841
    8G        P  223   4.448   2.626   4.000  0.5606 -0.0762  0.0332
    8G      OP1  224   4.460   2.481   3.985 -0.2955  0.5137 -0.3046
    8G      OP2  225   4.534   2.689   4.102  0.2968  0.0783 -0.0867
    8G      O5'  226   4.471   2.709   3.862  0.3171 -0.8220 -0.4257
    8G      C5'  227   4.416   2.674   3.739 -0.2265 -0.2805 -0.4061
    8G      H5'  228   4.310   2.647   3.746 -0.3831  0.4459  0.1056
    8G     H5''  229   4.446   2.579   3.695  1.7763  0.6726 -1.2462
    8G      C4'  230   4.420   2.789   3.635 -0.8547 -0.6616  0.0284
    8G      H4'  231   4.374   2.763   3.540 -2.9128  0.9792  0.5060
    8G      O4'  232   4.388   2.925   3.681 -0.3747 -0.1407  0.3890
    8G      C1'  233   4.479   3.018   3.621 -0.2895 -0.0456  0.6471
    8G      H1'  234   4.430   3.072   3.540  1.0714  1.3119  0.6892
    8G       N9  235   4.538   3.112   3.708 -0.3832 -0.4633 -0.0523
    8G       C8  236   4.566   3.094   3.841 -1.1590  0.0864  0.2963
    8G       H8  237   4.543   3.002   3.891 -1.9130  1.2461  2.2148
    8G       N7  238   4.629   3.193   3.900 -1.1373 -0.2544 -0.1411
    8G       C5  239   4.639   3.287   3.791  0.0152 -0.0584 -0.0182
    8G       C6  240   4.704   3.416   3.790 -0.5703 -0.1556  1.3400
    8G       O6  241   4.774   3.472   3.866 -0.3748  0.1141 -0.3288
    8G       N1  242   4.689   3.475   3.666 -0.3490 -1.0833 -0.2137
    8G       H1  243   4.747   3.551   3.634 -0.5531 -2.3748 -4.2235
    8G       C2  244   4.608   3.428   3.575 -0.5751  0.0384  0.6567
    8G       N2  245   4.597   3.499   3.463 -0.2578  0.4093 -0.2588
    8G      H21  246   4.651   3.584   3.455  2.2269 -1.1032 -0.6653
    8G      H22  247   4.543   3.449   3.395 -0.3783 -1.8269  1.3563
    8G       N3  248   4.551   3.307   3.562 -0.1892 -0.4412 -0.2445
    8G       C4  249   4.573   3.242   3.677  0.0277  0.2636 -1.1414
    8G      C3'  250   4.571   2.800   3.613  0.1731 -0.2150 -0.1040
    8G      H3'  251   4.614   2.812   3.713 -1.8532  1.7599  0.6324
    8G      C2'  252   4.581   2.937   3.539 -0.2004  0.5992 -0.9160
    8G      H2'  253   4.675   2.991   3.549  0.6012 -0.9792  0.7514
    8G      O2'  254   4.535   2.937   3.406  0.4189  0.2137  0.1762
    8G     HO2'  255   4.600   2.994   3.362  1.2766  0.8414  2.1498
    8G      O3'  256   4.620   2.699   3.537 -0.1222  0.1715  0.1163
    9C        P  257   4.761   2.639   3.569 -0.1836 -0.0406 -0.0930
    9C      OP1  258   4.783   2.518   3.486 -0.3622 -0.1051 -0.1394
    9C      OP2  259   4.780   2.639   3.712  0.5895  0.3049  0.3998
    9C      O5'  260   4.869   2.740   3.515 -0.3510 -0.0335  0.1059
    9C      C5'  261   5.002   2.738   3.568  0.0346 -0.2675  0.0265
    9C      H5'  262   5.037   2.636   3.552  0.6433  0.1986 -1.8167
    9C     H5''  263   5.016   2.767   3.672  3.4832 -1.8447  0.1499
    9C      C4'  264   5.095   2.821   3.481 -0.3516 -0.4895 -0.4679
    9C      H4'  265   5.187   2.822   3.538 -2.1423  1.2322  2.6681
    9C      O4'  266   5.106   2.772   3.344  0.5933 -0.1920 -0.1846
    9C      C1'  267   5.085   2.883   3.258 -0.1902  0.0022  0.5332
    9C      H1'  268   5.167   2.884   3.187  0.5640  3.3005  1.2533
    9C       N1  269   4.961   2.879   3.184  0.0317  0.4318 -0.4598
    9C       C6  270   4.863   2.792   3.212  0.1167  0.1615 -0.3840
    9C       H6  271   4.872   2.735   3.303  3.7699 -0.8605 -1.2472
    9C       C5  272   4.755   2.787   3.139  0.0585  0.0809 -0.1541
    9C       H5  273   4.669   2.726   3.163 -0.0730  0.9385  1.7403
    9C       C4  274   4.758   2.852   3.019 -0.3680 -1.4880  0.1315
    9C       N4  275   4.663   2.855   2.929 -0.5358 -0.0209 -0.6761
    9C      H41  276   4.584   2.794   2.946  1.4305 -2.6495 -0.4368
    9C      H42  277   4.658   2.934   2.865  1.7924  3.4166  2.9752
    9C       N3  278   4.847   2.945   2.984 -0.0255  0.2915  0.3735
    9C       C2  279   4.948   2.959   3.068  0.3900  0.4224  0.1671
    9C       O2  280   5.029   3.052   3.049  0.6063 -0.2678  0.3524
    9C      C3'  281   5.042   2.967   3.464 -0.3969 -0.4656 -0.0419
    9C      H3'  282   4.934   2.975   3.462 -0.3658  0.0154 -2.1572
    9C      C2'  283   5.100   3.009   3.337 -0.4930  1.3568  0.4744
    9C      H2'  284   5.042   3.091   3.295 -0.4941  1.4485  0.6547
    9C      O2'  285   5.240   3.045   3.348  0.1748  0.0134 -0.4171
    9C     HO2'  286   5.264   3.073   3.437 -0.7965 -0.6827  0.0827
    9C      O3'  287   5.084   3.057   3.575 -0.6171 -0.0272  0.2232
   10A        P  288   4.997   3.184   3.634 -0.0822 -0.2253  0.0233
   10A      OP1  289   5.085   3.254   3.740  0.2791  0.9007  0.6357
   10A      OP2  290   4.873   3.120   3.679  0.7514 -0.5092  0.0367
   10A      O5'  291   4.977   3.284   3.513 -0.3508 -0.1318 -0.4340
   10A      C5'  292   5.087   3.361   3.456 -0.2960  0.0002  0.6210
   10A      H5'  293   5.174   3.296   3.449  0.2616  0.7592  0.3390
   10A     H5''  294   5.124   3.441   3.520  1.2318 -1.3609  1.5209
   10A      C4'  295   5.051   3.414   3.312  0.7404  0.0674 -0.2092
   10A      H4'  296   5.143   3.465   3.284  1.8887 -2.8091 -2.2478
   10A      O4'  297   5.016   3.313   3.215  0.4561  0.2348  0.1196
   10A      C1'  298   4.907   3.360   3.137  0.0548 -0.4948 -0.0410
   10A      H1'  299   4.937   3.353   3.032  0.4992 -0.3094  0.0713
   10A       N9  300   4.787   3.268   3.154  0.0711 -1.3742 -0.3373
   10A       C8  301   4.752   3.191   3.263  0.4393  0.4077 -0.1886
   10A       H8  302   4.797   3.200   3.361  0.4605 -1.7090  0.0323
   10A       N7  303   4.649   3.113   3.237 -0.3310  0.0015 -0.4200
   10A       C5  304   4.612   3.144   3.109  0.3973  0.0618 -0.0772
   10A       C6  305   4.501   3.109   3.031 -0.2989  0.2321  0.6503
   10A       N6  306   4.421   3.018   3.059  0.5931 -0.0583 -0.0905
   10A      H61  307   4.354   2.989   2.988  0.0549 -0.9479  0.7473
   10A      H62  308   4.420   2.980   3.152  1.3585 -2.6979 -1.0631
   10A       N1  309   4.484   3.161   2.909  0.1096 -0.4686  0.4973
   10A       C2  310   4.566   3.253   2.871 -0.3279  0.2205  0.2461
   10A       H2  311   4.567   3.294   2.772  0.1584 -1.0751 -0.3148
   10A       N3  312   4.677   3.300   2.936  0.7496  0.9339  0.3710
   10A       C4  313   4.687   3.249   3.061 -0.5445 -0.1285  0.0095
   10A      C3'  314   4.935   3.510   3.313  0.0462 -0.9615 -1.3706
   10A      H3'  315   4.856   3.479   3.381  1.4346 -0.3628  0.6263
   10A      C2'  316   4.887   3.504   3.172 -0.1632 -0.6640  0.4260
   10A      H2'  317   4.779   3.517   3.159  0.1197  0.9490 -0.6228
   10A      O2'  318   4.965   3.590   3.089 -0.0390 -0.2828  0.3683
   10A     HO2'  319   5.007   3.657   3.143 -0.3144 -0.0616  0.3075
   10A      O3'  320   4.985   3.640   3.345 -0.2214  0.2428 -0.0325
   11G        P  321   4.937   3.727   3.471  0.2786  0.2444 -0.3424
   11G      OP1  322   5.003   3.859   3.480 -0.4267  0.6555  0.7104
   11G      OP2  323   4.911   3.647   3.589 -0.0880 -0.0686 -0.4806
   11G      O5'  324   4.786   3.764   3.421 -0.3934  0.5449 -0.4814
   11G      C5'  325   4.767   3.836   3.301 -0.4991  0.2175 -0.0350
   11G      H5'  326   4.766   3.767   3.217  2.1764 -0.7335  0.6111
   11G     H5''  327   4.848   3.909   3.298 -0.4856  0.2884  1.2345
   11G      C4'  328   4.632   3.912   3.302 -0.4178 -0.0613 -0.0025
   11G      H4'  329   4.612   3.951   3.202  2.8842 -1.8049 -1.4961
   11G      O4'  330   4.536   3.817   3.336 -0.6039 -0.1296 -0.3266
   11G      C1'  331   4.447   3.874   3.423  0.3838  0.2246 -0.1655
   11G      H1'  332   4.368   3.935   3.378 -0.1133 -0.6374 -0.4927
   11G       N9  333   4.384   3.761   3.508  0.4182 -0.4566  0.0361
   11G       C8  334   4.420   3.714   3.634  0.3607  0.1040 -0.4091
   11G       H8  335   4.499   3.750   3.698  0.3779 -1.4662  0.5075
   11G       N7  336   4.361   3.600   3.668  0.3012 -0.0699  1.0846
   11G       C5  337   4.271   3.584   3.564 -0.8540 -0.6478 -0.1826
   11G       C6  338   4.167   3.485   3.547 -0.1340 -0.0256  0.2971
   11G       O6  339   4.134   3.385   3.618 -0.3193  0.1319 -0.1021
   11G       N1  340   4.092   3.499   3.432 -0.0563 -0.3646 -0.9193
   11G       H1  341   4.035   3.423   3.399  0.8487 -1.5984  0.2437
   11G       C2  342   4.109   3.597   3.343  0.6753 -0.4343  0.3405
   11G       N2  343   4.037   3.585   3.230  0.4509 -0.0962  0.1602
   11G      H21  344   3.957   3.524   3.222  0.7478 -0.5092  0.3046
   11G      H22  345   4.061   3.649   3.156  0.6657  0.7446  0.9304
   11G       N3  346   4.211   3.676   3.345  0.2226  0.1053  0.1674
   11G       C4  347   4.285   3.673   3.463  0.6823  0.8298 -0.3884
   11G      C3'  348   4.636   4.020   3.416 -0.5547  0.3615  0.2043
   11G      H3'  349   4.736   4.037   3.456 -0.7053  0.7282  0.4222
   11G      C2'  350   4.547   3.954   3.520  0.5809  0.2123 -0.0163
   11G      H2'  351   4.616   3.882   3.565  1.0267  0.7837  0.2325
   11G      O2'  352   4.496   4.026   3.635 -0.2834  0.2985  0.0083
   11G     HO2'  353   4.491   4.115   3.599  0.0507 -0.0283 -0.8759
   11G      O3'  354   4.572   4.138   3.386  0.2739 -0.7494 -0.1667
   12U        P  355   4.620   4.234   3.271 -0.4059  0.0350 -0.0593
   12U      OP1  356   4.536   4.217   3.151 -0.2233  0.0976 -0.2266
   12U      OP2  357   4.770   4.222   3.268  0.1527  0.0223 -0.0069
   12U      O5'  358   4.577   4.378   3.329  0.0922 -0.2550  0.2012
   12U      C5'  359   4.630   4.434   3.448 -0.1841  0.1826 -1.0227
   12U      H5'  360   4.701   4.364   3.493 -0.8253  1.7585  2.8807
   12U     H5''  361   4.546   4.446   3.516 -0.4830  1.5652 -1.6096
   12U      C4'  362   4.700   4.565   3.418 -0.5205  0.5125  0.1034
   12U      H4'  363   4.735   4.612   3.510  0.6032 -0.2568  0.0906
   12U      O4'  364   4.818   4.527   3.339  0.5796  0.6235 -0.0625
   12U      C1'  365   4.825   4.614   3.231 -0.5232  0.0469  0.1230
   12U      H1'  366   4.857   4.710   3.271  0.0372 -0.8060  1.8137
   12U       N1  367   4.905   4.580   3.110 -0.3568 -0.3052 -0.0331
   12U       C6  368   4.897   4.453   3.062 -0.1963 -0.8852 -0.7353
   12U       H6  369   4.822   4.388   3.104 -0.2251  0.0303  0.6866
   12U       C5  370   4.990   4.413   2.977  0.6715 -0.9135  0.2860
   12U       H5  371   4.978   4.315   2.934 -0.9467 -0.9373  0.7243
   12U       C4  372   5.080   4.499   2.905 -0.5198 -0.2231 -0.7414
   12U       O4  373   5.146   4.476   2.805  0.8241  0.0187  0.1595
   12U       N3  374   5.082   4.625   2.958 -0.4607 -0.0933 -0.1570
   12U       H3  375   5.133   4.688   2.897  2.3714 -0.8474  1.2338
   12U       C2  376   5.002   4.670   3.062 -0.5387 -0.7575 -0.3593
   12U       O2  377   5.026   4.783   3.113  0.4420  0.3408 -0.3186
   12U      C3'  378   4.626   4.663   3.325  0.4616  0.2715 -0.4456
   12U      H3'  379   4.519   4.643   3.337  0.8295 -0.7268  1.7179
   12U      C2'  380   4.683   4.641   3.187  0.3879 -0.3179 -0.7592
   12U      H2'  381   4.644   4.560   3.124 -0.0781  0.7964 -1.9598
   12U      O2'  382   4.678   4.755   3.094 -0.5042 -0.4166  0.5151
   12U     HO2'  383   4.727   4.828   3.134  0.4681 -0.7492 -0.0326
   12U      O3'  384   4.649   4.794   3.370  0.1082 -0.0221 -0.2046
   13A        P  385   4.583   4.855   3.502 -0.0683  0.2271 -0.2512
   13A      OP1  386   4.584   5.001   3.477 -0.5065  0.0755 -0.3496
   13A      OP2  387   4.647   4.807   3.629  1.0190 -0.1528  0.4995
   13A      O5'  388   4.438   4.806   3.502 -0.4346 -0.0183  0.0470
   13A      C5'  389   4.347   4.851   3.598  0.1742  0.7183  0.3555
   13A      H5'  390   4.353   4.959   3.612 -0.8292  0.7891  0.2871
   13A     H5''  391   4.371   4.799   3.690 -0.7170  0.6645  0.5616
   13A      C4'  392   4.198   4.810   3.566  0.5677  0.6060  0.0006
   13A      H4'  393   4.127   4.859   3.632  0.9695  1.4847 -0.2082
   13A      O4'  394   4.160   4.864   3.439 -0.4817  0.1095  0.7345
   13A      C1'  395   4.058   4.776   3.387 -0.5204  0.1698 -0.8153
   13A      H1'  396   3.962   4.828   3.396 -0.3691  0.2029  1.1740
   13A       N9  397   4.077   4.763   3.239  0.0128 -0.2159  1.0386
   13A       C8  398   4.013   4.830   3.133 -0.0368  0.0220 -0.1483
   13A       H8  399   3.917   4.879   3.140 -1.4347 -2.5712  0.4825
   13A       N7  400   4.073   4.815   3.014 -0.3020  0.3121  0.1193
   13A       C5  401   4.178   4.725   3.045  0.7268 -0.2116 -0.0090
   13A       C6  402   4.280   4.666   2.969  0.0006 -0.6999  0.5433
   13A       N6  403   4.281   4.667   2.841 -0.6945 -1.2355 -0.3726
   13A      H61  404   4.359   4.624   2.794 -0.2330  0.0728 -0.8616
   13A      H62  405   4.213   4.719   2.787  1.6067  0.4390 -1.9109
   13A       N1  406   4.363   4.580   3.022  0.0497 -0.5116 -0.2072
   13A       C2  407   4.349   4.558   3.147  0.2893 -0.4798  0.0525
   13A       H2  408   4.420   4.488   3.189  1.3443  1.1307  1.0289
   13A       N3  409   4.270   4.613   3.240  0.7018  0.3483 -0.0241
   13A       C4  410   4.185   4.699   3.180  0.3433  0.7390  0.8968
   13A      C3'  411   4.175   4.656   3.555 -0.5235 -0.3189  0.3218
   13A      H3'  412   4.258   4.618   3.495 -0.6026  0.9568 -0.6304
   13A      C2'  413   4.043   4.650   3.477  0.1951  0.5826 -0.0104
   13A      H2'  414   4.039   4.559   3.417 -2.7698 -0.7042  1.9446
   13A      O2'  415   3.926   4.667   3.560  0.4360 -0.5756  0.4064
   13A     HO2'  416   3.861   4.610   3.518  1.8942 -0.4513 -2.2216
   13A      O3'  417   4.157   4.591   3.680  0.3691 -0.2158 -0.4018
   14A        P  418   4.241   4.465   3.726 -0.0893 -0.1466  0.4464
   14A      OP1  419   4.194   4.438   3.859  0.1329 -0.0440  0.0293
   14A      OP2  420   4.385   4.496   3.704  0.4811 -0.1072 -0.6356
   14A      O5'  421   4.199   4.335   3.644 -0.1152 -0.0740 -0.1777
   14A      C5'  422   4.236   4.324   3.509  0.1689  0.4561  0.2296
   14A      H5'  423   4.341   4.298   3.496  0.0462 -1.0849  1.8846
   14A     H5''  424   4.223   4.421   3.461  1.3652  0.5098 -0.0216
   14A      C4'  425   4.137   4.229   3.434  0.2290  0.1398 -0.4887
   14A      H4'  426   4.140   4.261   3.330  3.1600  0.9037 -0.2504
   14A      O4'  427   4.181   4.097   3.441 -0.1666 -0.0973 -0.4222
   14A      C1'  428   4.074   4.003   3.442 -0.4968 -0.0631 -0.9907
   14A      H1'  429   4.078   3.933   3.359  0.6728 -0.7692 -0.3553
   14A       N9  430   4.083   3.940   3.578 -0.2230  0.4309  0.1632
   14A       C8  431   4.187   3.954   3.668 -0.5101 -0.1623  0.6437
   14A       H8  432   4.256   4.036   3.669 -0.8089  0.0941  0.4175
   14A       N7  433   4.171   3.881   3.770  0.8283  0.2236  0.0360
   14A       C5  434   4.068   3.790   3.740 -0.0928  0.0433  0.3274
   14A       C6  435   4.001   3.675   3.794 -0.3080  0.2582 -0.1982
   14A       N6  436   4.026   3.616   3.907 -0.5051  0.3240 -0.0340
   14A      H61  437   3.978   3.530   3.930 -1.4555 -0.1317 -3.2901
   14A      H62  438   4.096   3.658   3.966 -0.9481 -0.8932  1.4292
   14A       N1  439   3.908   3.617   3.724  0.5119  0.2222 -0.1981
   14A       C2  440   3.869   3.667   3.614  0.0667 -0.2351 -0.0057
   14A       H2  441   3.793   3.606   3.568 -0.1089  0.3963 -0.5574
   14A       N3  442   3.911   3.774   3.550  0.1423 -0.2582 -0.8184
   14A       C4  443   4.010   3.833   3.621 -0.1042 -0.5752 -0.9478
   14A      C3'  444   3.995   4.228   3.480  0.6198  0.4007 -0.1243
   14A      H3'  445   3.988   4.234   3.588 -0.1581  0.0342 -0.1533
   14A      C2'  446   3.945   4.088   3.425 -0.4174 -0.0437 -0.4283
   14A      H2'  447   3.868   4.046   3.488  0.8727 -3.3674 -0.8947
   14A      O2'  448   3.907   4.100   3.287  0.0179  0.1967 -0.2391
   14A     HO2'  449   3.841   4.168   3.278 -0.1107 -0.0685 -1.5879
   14A      O3'  450   3.919   4.337   3.421 -0.8621  0.3138 -0.0661
   15C        P  451   3.769   4.373   3.465  0.3675  0.2558 -0.3564
   15C      OP1  452   3.747   4.519   3.435  0.2204 -0.5460 -0.0806
   15C      OP2  453   3.739   4.318   3.603 -0.1682 -0.4837  0.3101
   15C      O5'  454   3.676   4.290   3.359  0.3035  0.3121 -0.2959
   15C      C5'  455   3.563   4.352   3.295 -0.8934  0.8706 -0.7140
   15C      H5'  456   3.607   4.441   3.250  0.8553  1.4302  1.9220
   15C     H5''  457   3.499   4.393   3.373  1.7961  3.5027  0.2937
   15C      C4'  458   3.479   4.273   3.200 -0.5441  0.0227  0.0725
   15C      H4'  459   3.382   4.323   3.196 -0.0007  1.0110 -2.1365
   15C      O4'  460   3.539   4.269   3.070  0.0917  0.1969 -0.5699
   15C      C1'  461   3.539   4.132   3.032  0.0617  0.9326  0.3740
   15C      H1'  462   3.440   4.107   2.993  1.0121 -1.3503 -0.8071
   15C       N1  463   3.641   4.108   2.927 -0.8801  0.5923  0.2010
   15C       C6  464   3.767   4.060   2.958 -0.7753  0.3459  1.0227
   15C       H6  465   3.791   4.007   3.049  2.4230 -0.3884 -0.1090
   15C       C5  466   3.857   4.052   2.856  0.1024  0.1266 -0.2680
   15C       H5  467   3.955   4.015   2.881 -0.8382 -1.0073  2.1505
   15C       C4  468   3.836   4.125   2.741  0.4024  0.2652  0.9157
   15C       N4  469   3.925   4.122   2.648 -1.0464 -0.5220  0.1909
   15C      H41  470   4.014   4.088   2.680 -1.5568 -0.7205  1.4484
   15C      H42  471   3.899   4.161   2.558 -3.6401 -0.9830  0.6516
   15C       N3  472   3.722   4.169   2.704 -0.0319 -0.3922  0.0615
   15C       C2  473   3.622   4.150   2.796  1.8332 -0.9195  0.2812
   15C       O2  474   3.506   4.184   2.762 -0.0980  0.5610 -0.1635
   15C      C3'  475   3.447   4.130   3.252  0.0293  0.2266  0.1069
   15C      H3'  476   3.478   4.125   3.356  0.8253  1.5067 -0.0430
   15C      C2'  477   3.550   4.060   3.162  0.2429 -0.0405  0.0946
   15C      H2'  478   3.649   4.081   3.204 -0.5435  2.0548  1.0466
   15C      O2'  479   3.513   3.916   3.145 -0.1572 -0.3185  0.1119
   15C     HO2'  480   3.540   3.865   3.222  0.0527  0.5106  0.5977
   15C      O3'  481   3.311   4.091   3.230  0.6912 -0.3635 -0.2327
   16C        P  482   3.214   4.084   3.353  0.0270 -0.2557  0.0232
   16C      OP1  483   3.078   4.063   3.301 -0.1300  0.1403 -0.2510
   16C      OP2  484   3.240   4.209   3.431  0.5305 -0.2142  0.5695
   16C      O5'  485   3.266   3.960   3.436 -0.2691  0.0186  0.0929
   16C      C5'  486   3.229   3.827   3.404  1.2950  0.3551  0.3000
   16C      H5'  487   3.270   3.804   3.306  2.2522 -1.6473  1.1214
   16C     H5''  488   3.120   3.829   3.396  1.2175  0.1266  1.2106
   16C      C4'  489   3.263   3.723   3.508 -0.1039  0.0716 -0.1133
   16C      H4'  490   3.206   3.631   3.500  2.9029 -2.0336  1.0508
   16C      O4'  491   3.401   3.689   3.506 -0.0649 -0.1929 -0.0963
   16C      C1'  492   3.450   3.681   3.641 -0.1890 -0.6969  0.1489
   16C      H1'  493   3.497   3.584   3.657 -1.2626 -1.4528 -1.1510
   16C       N1  494   3.537   3.802   3.680  0.2665 -0.2927  0.7341
   16C       C6  495   3.538   3.918   3.605  0.2820 -0.2290 -0.8729
   16C       H6  496   3.480   3.936   3.516  1.2806  3.3456 -0.9499
   16C       C5  497   3.614   4.021   3.637  0.0378  0.4247 -0.1595
   16C       H5  498   3.608   4.112   3.579  0.4120  0.3333 -0.3451
   16C       C4  499   3.706   4.002   3.743 -0.0914  0.3179 -0.5307
   16C       N4  500   3.785   4.103   3.777  0.4065  0.4000  0.1121
   16C      H41  501   3.766   4.186   3.722  1.6396  0.4282 -0.2877
   16C      H42  502   3.851   4.092   3.853 -0.1049  1.8886  0.8200
   16C       N3  503   3.697   3.899   3.828 -0.0613 -0.3070  0.3527
   16C       C2  504   3.609   3.797   3.800  0.0209  0.0240  0.1346
   16C       O2  505   3.582   3.710   3.883  0.2797  0.7093  0.3327
   16C      C3'  506   3.230   3.773   3.650  0.2882  0.0978  0.3271
   16C      H3'  507   3.271   3.873   3.664 -0.1487  0.0048  2.5643
   16C      C2'  508   3.323   3.678   3.727 -0.0408  0.3896 -0.5320
   16C      H2'  509   3.343   3.718   3.827 -0.2681 -1.4207  0.2831
   16C      O2'  510   3.261   3.553   3.733  0.5180  0.3738 -0.5733
   16C     HO2'  511   3.321   3.496   3.782  0.3989  0.9424  0.2752
   16C      O3'  512   3.092   3.775   3.670  0.3614 -0.5335 -0.3763
   17C        P  513   3.033   3.851   3.787  0.3125  0.2383 -0.2671
   17C      OP1  514   2.888   3.808   3.790  0.3389 -0.3167 -0.0259
   17C      OP2  515   3.053   3.991   3.750 -0.4353 -0.3104 -0.6070
   17C      O5'  516   3.106   3.815   3.927  0.2083 -0.5515 -0.1700
   17C      C5'  517   3.082   3.687   3.985 -0.0109  0.2743 -0.1995
   17C      H5'  518   3.094   3.611   3.909 -1.7122  0.3339 -0.5532
   17C     H5''  519   2.980   3.687   4.024  0.0490  0.2147 -0.0404
   17C      C4'  520   3.173   3.668   4.109  0.3087  0.0910  0.6680
   17C      H4'  521   3.150   3.570   4.151 -2.4614  0.5191  0.3166
   17C      O4'  522   3.314   3.668   4.084 -0.6320  0.0800  0.2638
   17C      C1'  523   3.383   3.736   4.188  0.0533  0.3918 -0.4302
   17C      H1'  524   3.465   3.683   4.236 -0.9556  0.3434  1.3256
   17C       N1  525   3.436   3.868   4.144  0.2902 -0.1042  0.3185
   17C       C6  526   3.394   3.920   4.023 -0.2763 -0.0372 -0.9829
   17C       H6  527   3.321   3.874   3.958 -2.0126 -0.1576  0.9659
   17C       C5  528   3.452   4.029   3.987 -0.1638 -0.6692  0.1643
   17C       H5  529   3.416   4.077   3.897 -1.1268 -1.5994  0.0270
   17C       C4  530   3.550   4.095   4.067 -0.0911  0.1930  0.4233
   17C       N4  531   3.615   4.194   4.021  0.7682 -0.1083  0.6455
   17C      H41  532   3.584   4.232   3.933 -2.1335  1.1867  2.0826
   17C      H42  533   3.685   4.240   4.078 -0.1645  2.8749 -0.3894
   17C       N3  534   3.591   4.049   4.183  0.6289  0.3041  0.5471
   17C       C2  535   3.531   3.935   4.223 -0.0600  0.3027  0.2734
   17C       O2  536   3.558   3.891   4.338 -0.3401  0.1535 -0.0020
   17C      C3'  537   3.152   3.770   4.214  0.1042 -0.0342 -0.7257
   17C      H3'  538   3.152   3.871   4.173  0.6231  0.4224  0.3463
   17C      C2'  539   3.275   3.750   4.298 -0.0086  0.4995 -0.4445
   17C      H2'  540   3.301   3.831   4.366  1.1103  1.9709 -2.5219
   17C      O2'  541   3.266   3.626   4.372  0.6557  0.1271 -0.2219
   17C     HO2'  542   3.329   3.618   4.444  0.2986  0.8698  0.1788
   17C      O3'  543   3.028   3.758   4.291 -0.0853 -0.1063  0.4817
   18C        P  544   2.964   3.878   4.372 -0.5641  0.0133 -0.1981
   18C      OP1  545   2.829   3.833   4.416 -0.0519  0.1873 -0.2640
   18C      OP2  546   2.969   3.990   4.277 -0.3162 -0.2283  0.2830
   18C      O5'  547   3.050   3.905   4.501  0.2576 -0.5443  0.2648
   18C      C5'  548   3.069   3.813   4.601 -0.3921  0.3852  0.1349
   18C      H5'  549   3.109   3.717   4.568 -2.5819 -0.9783  1.2502
   18C     H5''  550   2.974   3.794   4.650  0.1598  0.8916  1.4341
   18C      C4'  551   3.169   3.872   4.705  0.4694 -0.2078 -0.2098
   18C      H4'  552   3.166   3.822   4.802 -0.0605  1.5839  0.7285
   18C      O4'  553   3.299   3.890   4.647  0.3961  0.0354  0.2791
   18C      C1'  554   3.369   4.012   4.687  0.4058 -0.0225  0.7082
   18C      H1'  555   3.466   3.975   4.719  1.2644 -0.6893 -2.3495
   18C       N1  556   3.390   4.116   4.573  0.2116  0.5514 -0.5090
   18C       C6  557   3.325   4.100   4.451 -0.2943 -0.5647 -0.5084
   18C       H6  558   3.253   4.021   4.438  0.3199 -1.5513  1.6694
   18C       C5  559   3.361   4.182   4.350  0.3300 -0.1566  0.3698
   18C       H5  560   3.324   4.168   4.250  1.6854 -0.2014 -0.1579
   18C       C4  561   3.461   4.281   4.375  0.4329 -0.2193 -0.0678
   18C       N4  562   3.475   4.372   4.280 -0.7533 -0.3091 -0.7300
   18C      H41  563   3.433   4.354   4.190  2.3691 -0.2197 -2.3282
   18C      H42  564   3.547   4.441   4.295 -0.0194 -1.1678 -0.1256
   18C       N3  565   3.521   4.299   4.489 -0.5462  0.2236  0.0699
   18C       C2  566   3.482   4.219   4.598  0.1870 -0.0990  0.1241
   18C       O2  567   3.538   4.238   4.702 -0.7285 -0.2424  0.0493
   18C      C3'  568   3.146   4.015   4.752 -0.3046 -0.3124 -0.4157
   18C      H3'  569   3.119   4.080   4.669 -2.8565  0.2727  0.7675
   18C      C2'  570   3.285   4.065   4.806  0.3509  0.2150  0.3019
   18C      H2'  571   3.295   4.173   4.808  0.6534  0.1850  0.4387
   18C      O2'  572   3.336   3.996   4.919  0.4038 -0.2994  0.3084
   18C     HO2'  573   3.347   4.057   4.992  1.2400  0.9233 -0.8023
   18C      O3'  574   3.048   4.026   4.850 -0.1329  0.4755  0.5883
   19A        P  575   2.970   4.161   4.858 -0.5846 -0.5052  0.1668
   19A      OP1  576   2.866   4.145   4.965  0.1103  0.3554  0.0536
   19A      OP2  577   2.937   4.202   4.718 -0.1390 -0.0892  0.6152
   19A      O5'  578   3.070   4.273   4.902  0.0009  0.0858  0.0707
   19A      C5'  579   3.096   4.294   5.040 -0.1955 -0.6350 -0.0426
   19A      H5'  580   3.120   4.201   5.091  0.7713 -0.8127 -0.8009
   19A     H5''  581   3.012   4.336   5.095 -0.6215  0.7741 -1.6670
   19A      C4'  582   3.222   4.382   5.067 -0.0991 -0.0619 -0.2308
   19A      H4'  583   3.254   4.356   5.168  0.2347 -0.6743 -0.4878
   19A      O4'  584   3.325   4.350   4.964 -0.1842  0.6695 -0.1470
   19A      C1'  585   3.404   4.463   4.929 -0.7116  1.2958 -0.5006
   19A      H1'  586   3.512   4.451   4.928 -0.9718 -1.6536 -1.3957
   19A       N9  587   3.366   4.504   4.793 -0.1686 -0.1786  0.2955
   19A       C8  588   3.277   4.444   4.705 -0.2368 -0.9171 -0.0134
   19A       H8  589   3.202   4.370   4.730 -1.8809  0.9872  1.0202
   19A       N7  590   3.283   4.489   4.584  0.8884  0.0542  0.7616
   19A       C5  591   3.385   4.585   4.590 -0.1628 -0.1472 -0.1279
   19A       C6  592   3.436   4.682   4.494  0.1721 -0.4414 -0.4145
   19A       N6  593   3.391   4.696   4.374 -0.0982  0.4826  0.0055
   19A      H61  594   3.443   4.763   4.319  1.4016 -0.8065 -0.2057
   19A      H62  595   3.331   4.624   4.336  3.1715 -3.1158  1.0189
   19A       N1  596   3.522   4.779   4.535  0.6706 -0.3097 -0.2112
   19A       C2  597   3.562   4.780   4.664  0.1905  0.1818  0.5643
   19A       H2  598   3.629   4.856   4.703  0.1188 -0.5153  2.1132
   19A       N3  599   3.513   4.703   4.762 -0.2748 -0.1600  0.0394
   19A       C4  600   3.427   4.606   4.722  0.2727 -0.0195  0.4633
   19A      C3'  601   3.213   4.533   5.062  0.2411 -0.3001 -0.2581
   19A      H3'  602   3.153   4.561   4.975  1.4356 -2.3532 -1.8214
   19A      C2'  603   3.358   4.568   5.032  0.3457 -0.0494 -0.5460
   19A      H2'  604   3.381   4.669   4.998  1.3331  0.2150  0.8410
   19A      O2'  605   3.438   4.545   5.145 -0.2913  0.8503 -0.2328
   19A     HO2'  606   3.523   4.582   5.121  1.3363 -0.5222  2.8822
   19A      O3'  607   3.171   4.576   5.193  0.2704 -0.4794 -0.2041
   20G        P  608   3.104   4.719   5.210  0.2618  0.1770  0.4165
   20G      OP1  609   3.059   4.732   5.350  0.4167 -0.1770  0.2952
   20G      OP2  610   3.007   4.737   5.095 -0.4377 -0.3509 -0.0473
   20G      O5'  611   3.209   4.838   5.185 -1.0102 -0.8275  0.3819
   20G      C5'  612   3.320   4.864   5.271  0.6250  0.6519 -0.7144
   20G      H5'  613   3.372   4.771   5.298 -0.6136  0.3577  0.7782
   20G     H5''  614   3.275   4.899   5.364 -1.3401  0.3003 -1.4936
   20G      C4'  615   3.409   4.970   5.213  0.2566  0.7543  1.0278
   20G      H4'  616   3.503   4.976   5.269  0.8508 -1.8488  0.4312
   20G      O4'  617   3.445   4.931   5.079 -0.2508  0.5044 -0.2840
   20G      C1'  618   3.399   5.028   4.991  0.1259 -0.2163 -0.5382
   20G      H1'  619   3.480   5.099   4.976  2.1732 -2.0689  0.9746
   20G       N9  620   3.346   4.972   4.859 -0.0382  0.1301 -0.4393
   20G       C8  621   3.251   4.871   4.848 -0.1411 -0.0488  0.2096
   20G       H8  622   3.222   4.798   4.921 -0.8143  1.0501  1.0702
   20G       N7  623   3.213   4.863   4.721 -0.3759 -0.0848  0.0997
   20G       C5  624   3.270   4.971   4.650  1.3933 -0.0507  0.3770
   20G       C6  625   3.249   5.007   4.512 -0.0586  0.1176 -0.2755
   20G       O6  626   3.173   4.957   4.433  0.2550  0.3076  0.4330
   20G       N1  627   3.319   5.119   4.477 -0.0426 -0.3372 -0.5095
   20G       H1  628   3.326   5.158   4.384 -1.1444  0.2094 -0.3720
   20G       C2  629   3.393   5.188   4.567 -0.0094 -0.3284 -0.4351
   20G       N2  630   3.457   5.295   4.527  0.0454  0.4427  0.4297
   20G      H21  631   3.452   5.323   4.430  0.5290 -0.7376  0.0489
   20G      H22  632   3.502   5.366   4.584 -0.1134  0.1243  0.9515
   20G       N3  633   3.409   5.161   4.698  0.5382  0.2759  0.3503
   20G       C4  634   3.345   5.043   4.735 -0.6623  0.7533  0.2861
   20G      C3'  635   3.343   5.106   5.203  0.7496 -1.2022 -0.5112
   20G      H3'  636   3.264   5.123   5.276  0.2673  0.1347 -1.2915
   20G      C2'  637   3.287   5.104   5.065 -0.1941 -0.1531 -0.3905
   20G      H2'  638   3.194   5.046   5.070  0.0952 -0.5093  1.7759
   20G      O2'  639   3.264   5.234   5.011  0.2557 -0.4848  0.0863
   20G     HO2'  640   3.341   5.280   5.045  0.4921 -1.9006  1.5868
   20G      O3'  641   3.439   5.202   5.206 -0.5924  0.1727 -0.3266
   21U        P  642   3.476   5.271   5.343  0.1236 -0.0177  0.1202
   21U      OP1  643   3.448   5.184   5.460  0.1140  0.2066 -0.4290
   21U      OP2  644   3.414   5.408   5.337 -0.0178  0.1343 -0.2188
   21U      O5'  645   3.629   5.302   5.327  0.5716 -0.1356  0.4937
   21U      C5'  646   3.739   5.209   5.340 -0.3837  0.2995 -0.8058
   21U      H5'  647   3.725   5.117   5.283 -0.8967  0.0463 -0.2867
   21U     H5''  648   3.740   5.182   5.446  0.4550 -1.8404 -1.3062
   21U      C4'  649   3.872   5.275   5.307  0.4160  0.6862  0.5586
   21U      H4'  650   3.954   5.213   5.342  0.9161  1.0937  0.1295
   21U      O4'  651   3.881   5.298   5.168 -1.1030 -0.3293  0.4227
   21U      C1'  652   3.872   5.432   5.127 -1.0628 -0.3386 -0.8890
   21U      H1'  653   3.969   5.470   5.095 -0.6763  0.8493  1.5110
   21U       N1  654   3.784   5.459   5.014 -0.3940  0.0004  0.5731
   21U       C6  655   3.656   5.411   5.006  0.1791 -0.3982  0.0868
   21U       H6  656   3.618   5.356   5.091 -0.1506 -0.1636  0.0934
   21U       C5  657   3.575   5.431   4.892 -0.8547  0.1340 -0.0634
   21U       H5  658   3.474   5.394   4.881 -0.3986 -1.0588 -0.3861
   21U       C4  659   3.621   5.511   4.784 -0.0719  0.1530 -0.0647
   21U       O4  660   3.557   5.526   4.679  0.0407  0.3916 -0.2881
   21U       N3  661   3.747   5.562   4.807 -0.0070  0.4696  0.5430
   21U       H3  662   3.782   5.616   4.729 -0.0089 -0.8892 -0.4380
   21U       C2  663   3.830   5.542   4.917 -0.1107 -0.5631 -0.2931
   21U       O2  664   3.925   5.617   4.933 -0.0287 -0.0142  0.0041
   21U      C3'  665   3.892   5.409   5.371 -0.1866 -0.2827 -0.4472
   21U      H3'  666   3.830   5.411   5.461  0.0175  1.0982 -0.3210
   21U      C2'  667   3.840   5.503   5.259 -0.8469 -0.0641 -0.0528
   21U      H2'  668   3.731   5.499   5.269 -0.7810 -2.7908  0.3419
   21U      O2'  669   3.898   5.631   5.271  0.1140  0.0587  0.4115
   21U     HO2'  670   3.866   5.664   5.354  3.7601  3.3928  0.7764
   21U      O3'  671   4.030   5.441   5.400  0.8933  0.5758 -0.0403
   22U        P  672   4.072   5.463   5.542 -0.1576  0.2136 -0.1658
   22U      OP1  673   3.976   5.555   5.613  0.2011 -0.1319  0.2303
   22U      OP2  674   4.213   5.499   5.560 -0.2858 -0.3266 -0.0336
   22U      O5'  675   4.049   5.326   5.614  0.1884 -1.1774 -0.2465
   22U      C5'  676   4.143   5.221   5.603  0.4639  0.0948  0.2402
   22U      H5'  677   4.238   5.267   5.627  0.4793 -0.6503  1.7678
   22U     H5''  678   4.160   5.187   5.501 -1.3925 -2.3505  0.6394
   22U      C4'  679   4.116   5.092   5.683  0.2625 -0.5686 -0.2149
   22U      H4'  680   4.199   5.024   5.664  0.5765  0.5129 -3.3762
   22U      O4'  681   4.099   5.119   5.826  0.1466  0.3231 -0.0974
   22U      C1'  682   3.963   5.084   5.854 -0.0476 -0.7941 -0.8255
   22U      H1'  683   3.969   4.982   5.890 -0.3433 -0.3351  0.6041
   22U       N1  684   3.916   5.188   5.952  0.0164 -0.1818 -0.1067
   22U       C6  685   3.906   5.322   5.916 -0.1937  0.5851  0.1994
   22U       H6  686   3.940   5.346   5.816 -2.0922  1.7789 -0.2205
   22U       C5  687   3.867   5.423   5.997  0.7704  0.2767  0.7487
   22U       H5  688   3.872   5.525   5.965  0.8320  0.2625  0.7113
   22U       C4  689   3.835   5.390   6.135 -0.4210 -0.4506  0.2122
   22U       O4  690   3.814   5.470   6.219 -0.6668 -0.1331  0.5903
   22U       N3  691   3.843   5.255   6.162 -0.4074 -0.3978  0.8643
   22U       H3  692   3.840   5.229   6.260  0.5829 -1.1171  0.7190
   22U       C2  693   3.883   5.152   6.081 -0.2133  0.1294 -0.2235
   22U       O2  694   3.878   5.032   6.112 -0.0219 -0.5155 -0.6236
   22U      C3'  695   3.986   5.027   5.631  0.1579  0.4614 -0.2979
   22U      H3'  696   3.962   5.040   5.525  3.0455 -0.9026 -1.2098
   22U      C2'  697   3.883   5.086   5.723  0.4872  0.4031 -0.5910
   22U      H2'  698   3.866   5.189   5.693 -0.4801  0.7389  1.0171
   22U      O2'  699   3.762   5.008   5.737 -0.4170  0.0311  0.1261
   22U     HO2'  700   3.707   5.004   5.658 -0.5218 -0.0573  0.2045
   22U      O3'  701   3.990   4.882   5.648 -0.1661 -0.3923 -0.3440
   23A        P  702   4.054   4.785   5.542  0.5819 -0.4083 -0.2173
   23A      OP1  703   4.057   4.651   5.609  0.2487 -0.4338  0.5442
   23A      OP2  704   4.180   4.835   5.487 -0.9258 -0.1447  0.1508
   23A      O5'  705   3.951   4.782   5.413 -0.0441 -0.5581 -0.2348
   23A      C5'  706   3.813   4.734   5.419 -0.3166 -0.4404 -0.2031
   23A      H5'  707   3.760   4.795   5.492  1.2250 -0.5152  1.0362
   23A     H5''  708   3.804   4.633   5.460 -0.6397 -0.0344  0.7706
   23A      C4'  709   3.736   4.741   5.291 -0.3173  0.0677 -0.0522
   23A      H4'  710   3.633   4.709   5.301 -0.5794  0.0541 -2.3062
   23A      O4'  711   3.735   4.877   5.238  0.1787 -0.5114 -0.6746
   23A      C1'  712   3.759   4.859   5.100  0.2474 -0.4707  0.1578
   23A      H1'  713   3.680   4.904   5.041  0.5357 -1.4714 -1.0284
   23A       N9  714   3.880   4.930   5.061  0.4239 -0.1224 -0.1346
   23A       C8  715   3.998   4.927   5.122 -0.6847  0.3163  0.1603
   23A       H8  716   4.035   4.857   5.195 -0.6578  0.9146  0.7303
   23A       N7  717   4.082   5.020   5.078 -0.2464  0.6795  0.0443
   23A       C5  718   4.003   5.090   4.984 -0.1040  0.5457 -0.0189
   23A       C6  719   4.025   5.205   4.901  0.5864 -0.6980 -0.6675
   23A       N6  720   4.136   5.281   4.891 -0.3341 -0.3869 -0.2363
   23A      H61  721   4.143   5.373   4.849 -1.1432 -0.5022 -0.6405
   23A      H62  722   4.213   5.241   4.942 -0.9924 -0.5642  0.6435
   23A       N1  723   3.930   5.241   4.813 -0.4064 -0.0469 -0.5875
   23A       C2  724   3.810   5.182   4.816 -0.0654 -0.0925  0.1948
   23A       H2  725   3.736   5.218   4.746  0.4922  1.0247  0.1572
   23A       N3  726   3.777   5.078   4.891 -0.2063 -0.2561  0.1400
   23A       C4  727   3.881   5.037   4.975  0.3157  0.2328  0.0069
   23A      C3'  728   3.799   4.653   5.181  0.3385  0.2984 -1.0323
   23A      H3'  729   3.906   4.646   5.195  0.2197 -2.0462 -0.9102
   23A      C2'  730   3.763   4.709   5.051  0.4780 -0.0565 -0.5563
   23A      H2'  731   3.839   4.688   4.977  1.3706 -3.4762  1.1400
   23A      O2'  732   3.635   4.671   5.008  0.5811  0.2646  0.1510
   23A     HO2'  733   3.612   4.698   4.918 -0.0119 -2.2460 -0.5330
   23A      O3'  734   3.747   4.522   5.190 -0.6004  0.3456  1.4836
   24A        P  735   3.834   4.399   5.144  0.2313 -0.0556  0.2577
   24A      OP1  736   3.980   4.421   5.178  0.3104 -0.2593 -0.5450
   24A      OP2  737   3.813   4.351   5.007 -0.4193  0.4621  0.0000
   24A      O5'  738   3.785   4.286   5.243 -0.1464  0.2862 -0.6295
   24A      C5'  739   3.816   4.302   5.380 -0.4703 -0.0244 -0.1122
   24A      H5'  740   3.797   4.405   5.412  0.4824  0.4032 -0.8917
   24A     H5''  741   3.924   4.290   5.385 -0.2343  0.6804 -2.4283
   24A      C4'  742   3.746   4.208   5.476 -0.3598 -0.0098  0.5237
   24A      H4'  743   3.781   4.232   5.576  0.5591  0.3549  0.1204
   24A      O4'  744   3.602   4.230   5.465 -0.4739 -0.0711  0.1731
   24A      C1'  745   3.539   4.107   5.488  0.0067  0.0841 -0.0543
   24A      H1'  746   3.476   4.111   5.577  0.5900  0.7299  0.3454
   24A       N9  747   3.458   4.070   5.370 -0.0847  0.0896  0.3020
   24A       C8  748   3.450   4.134   5.252  0.2398 -0.5931  0.7138
   24A       H8  749   3.521   4.211   5.225  0.4680 -0.3129  2.0452
   24A       N7  750   3.360   4.084   5.173  0.1047  0.1318 -0.3469
   24A       C5  751   3.294   3.989   5.250  0.1443 -0.3175 -1.0536
   24A       C6  752   3.186   3.903   5.243  0.2455 -1.3492  0.1717
   24A       N6  753   3.105   3.899   5.142  0.5593  0.7395  0.6401
   24A      H61  754   3.023   3.841   5.149 -1.1245  2.9396  0.0754
   24A      H62  755   3.123   3.960   5.064  1.2321 -1.2964 -0.8933
   24A       N1  756   3.141   3.830   5.345  0.7969  0.3871 -0.3292
   24A       C2  757   3.204   3.839   5.461  0.0654 -0.0974 -0.3092
   24A       H2  758   3.164   3.778   5.541 -0.4037 -2.0050 -1.9099
   24A       N3  759   3.314   3.912   5.486 -0.1406 -0.4103 -0.6362
   24A       C4  760   3.352   3.982   5.376 -0.1342 -0.0388  0.0122
   24A      C3'  761   3.757   4.061   5.455 -0.4783  0.1113 -0.4644
   24A      H3'  762   3.754   4.041   5.347  1.3627 -2.7002 -0.1304
   24A      C2'  763   3.639   3.996   5.520 -0.3703 -0.8792 -0.0252
   24A      H2'  764   3.615   3.900   5.475 -1.1206 -0.5125 -0.4309
   24A      O2'  765   3.669   3.998   5.659  0.5017  0.0546  0.0245
   24A     HO2'  766   3.762   3.979   5.678  0.5102  1.3924  1.6357
   24A      O3'  767   3.889   4.020   5.500  0.8496  0.6457 -0.1972
   25C        P  768   3.966   3.907   5.426  0.0368 -0.1584 -0.4230
   25C      OP1  769   4.096   3.903   5.496  0.5590 -0.4341 -0.7003
   25C      OP2  770   3.966   3.938   5.284 -0.1035 -0.5402  0.2640
   25C      O5'  771   3.884   3.771   5.447 -0.4180  0.2647 -0.1525
   25C      C5'  772   3.871   3.710   5.570  0.2050  0.4556 -0.5326
   25C      H5'  773   3.830   3.782   5.641 -2.1315 -2.1635  1.0117
   25C     H5''  774   3.968   3.673   5.603  0.2240 -0.0504 -1.1442
   25C      C4'  775   3.758   3.594   5.570 -0.3743 -0.1189  0.7281
   25C      H4'  776   3.765   3.537   5.662  0.6900 -2.7965 -0.8988
   25C      O4'  777   3.627   3.644   5.551 -0.9328  0.0692  0.6396
   25C      C1'  778   3.548   3.555   5.478  0.6796  0.1970  0.6359
   25C      H1'  779   3.458   3.541   5.538  0.0161  1.9045  0.1003
   25C       N1  780   3.504   3.612   5.344  0.3698  0.1136 -0.0618
   25C       C6  781   3.581   3.701   5.272  0.3552 -0.4192 -0.1934
   25C       H6  782   3.670   3.747   5.312 -0.3352 -0.7087  1.7753
   25C       C5  783   3.530   3.743   5.152 -0.6521 -0.0638  0.0924
   25C       H5  784   3.582   3.810   5.084 -2.2358 -0.4588 -1.5842
   25C       C4  785   3.412   3.681   5.104 -0.6974 -0.2509  0.1406
   25C       N4  786   3.353   3.717   4.994  0.7453 -0.0289 -0.1293
   25C      H41  787   3.387   3.796   4.940 -1.8583  0.8556 -0.6185
   25C      H42  788   3.261   3.681   4.973  0.8301  0.2876 -1.0937
   25C       N3  789   3.342   3.594   5.172  0.0380 -0.3491  0.3768
   25C       C2  790   3.388   3.558   5.293  0.2052  0.3913  0.9164
   25C       O2  791   3.339   3.449   5.338  0.0531  0.4748 -0.1985
   25C      C3'  792   3.776   3.492   5.456  0.1472 -0.4299 -0.9361
   25C      H3'  793   3.794   3.538   5.359  1.1363 -4.1754 -2.7460
   25C      C2'  794   3.637   3.426   5.464 -0.4699  0.0553 -0.0264
   25C      H2'  795   3.617   3.366   5.376  4.9562 -1.8214 -0.3449
   25C      O2'  796   3.629   3.345   5.586  0.4897  0.0752  0.1772
   25C     HO2'  797   3.705   3.289   5.603 -0.7028 -1.2956  1.2160
   25C      O3'  798   3.877   3.398   5.482  0.8047 -0.9428 -0.0783
   26A        P  799   3.944   3.313   5.375 -0.5014 -0.5848  0.1510
   26A      OP1  800   4.019   3.214   5.447 -0.6450 -0.0924 -0.6673
   26A      OP2  801   4.007   3.402   5.278 -0.8271 -0.5853 -1.0173
   26A      O5'  802   3.817   3.248   5.306  0.0852 -0.4449 -0.5539
   26A      C5'  803   3.803   3.210   5.171  0.4035  0.0228 -0.5563
   26A      H5'  804   3.865   3.124   5.147 -1.0366 -1.0402 -0.5792
   26A     H5''  805   3.844   3.286   5.104  1.8763 -1.2711 -1.1842
   26A      C4'  806   3.655   3.205   5.156  0.1519  0.6563 -0.1706
   26A      H4'  807   3.613   3.146   5.238  1.4953 -1.5310 -0.9622
   26A      O4'  808   3.590   3.333   5.144 -0.2403 -0.5253 -0.1805
   26A      C1'  809   3.506   3.330   5.029 -0.5332 -0.8168  0.0517
   26A      H1'  810   3.411   3.378   5.050 -0.8994 -0.6471 -1.8455
   26A       N9  811   3.573   3.416   4.934 -0.4933  0.1095  0.1052
   26A       C8  812   3.673   3.509   4.966 -0.2224  0.0128  0.6291
   26A       H8  813   3.733   3.495   5.055  0.6104 -3.7401 -0.3198
   26A       N7  814   3.690   3.601   4.876  0.4884 -0.5204  0.9494
   26A       C5  815   3.583   3.577   4.787 -0.7659  0.5223  0.6125
   26A       C6  816   3.533   3.644   4.669  0.0820 -0.3843 -0.1468
   26A       N6  817   3.598   3.742   4.601 -0.0294  0.7258  0.8952
   26A      H61  818   3.555   3.777   4.516  0.4390 -0.6064  0.0793
   26A      H62  819   3.682   3.788   4.635  0.7492  2.4583 -2.7703
   26A       N1  820   3.429   3.599   4.605  0.1030 -0.3726 -0.2959
   26A       C2  821   3.367   3.498   4.663  0.1585  0.1567  0.1706
   26A       H2  822   3.270   3.474   4.622  0.9867 -0.1616 -1.6881
   26A       N3  823   3.395   3.425   4.772  0.3417 -0.7692  0.7710
   26A       C4  824   3.510   3.469   4.825  0.1262 -0.1462 -0.2051
   26A      C3'  825   3.626   3.135   5.020  0.1764 -0.8551  0.6888
   26A      H3'  826   3.694   3.157   4.938 -1.8361 -0.1942 -0.9076
   26A      C2'  827   3.483   3.181   4.990  0.8124 -0.8311 -0.8340
   26A      H2'  828   3.450   3.168   4.887 -0.9509 -1.8020 -0.1857
   26A      O2'  829   3.382   3.125   5.062 -0.4943  0.0034  0.1974
   26A     HO2'  830   3.421   3.083   5.139 -0.3284 -1.8002 -0.8166
   26A      O3'  831   3.622   2.999   5.053  0.1222 -0.0941 -0.0122
   27A        P  832   3.675   2.883   4.956  0.3315 -0.3295  0.3128
   27A      OP1  833   3.638   2.757   5.016 -0.3677 -0.7384 -0.1315
   27A      OP2  834   3.814   2.909   4.929 -0.2020  0.4528  0.1333
   27A      O5'  835   3.595   2.911   4.826  0.3242 -0.1568  0.5210
   27A      C5'  836   3.457   2.883   4.816 -0.1038  0.3197 -0.0017
   27A      H5'  837   3.401   2.918   4.902  2.3045 -0.7547  2.1425
   27A     H5''  838   3.445   2.775   4.820 -2.6730  0.5460  0.3210
   27A      C4'  839   3.400   2.933   4.681 -0.9893  0.2391 -0.2022
   27A      H4'  840   3.298   2.899   4.663 -0.5467 -1.2813  0.0012
   27A      O4'  841   3.406   3.072   4.668 -0.1486  0.0788  0.6128
   27A      C1'  842   3.421   3.106   4.527 -0.0998  0.1613 -0.4299
   27A      H1'  843   3.343   3.171   4.489  0.0331  0.3426 -0.3965
   27A       N9  844   3.550   3.178   4.513 -0.1189 -0.6185 -0.5680
   27A       C8  845   3.656   3.195   4.600 -0.3752  0.4655  0.4252
   27A       H8  846   3.662   3.125   4.683  0.2957  0.0618  0.0515
   27A       N7  847   3.745   3.281   4.572  0.0652 -0.1964 -0.2437
   27A       C5  848   3.694   3.345   4.462  0.6469  0.0977 -0.2637
   27A       C6  849   3.727   3.465   4.398  0.4182 -0.1800 -0.3001
   27A       N6  850   3.832   3.532   4.431 -0.2830  0.5131  0.8625
   27A      H61  851   3.837   3.623   4.388 -0.0458  0.1203  0.0232
   27A      H62  852   3.905   3.494   4.491 -1.7510 -0.0521  2.3750
   27A       N1  853   3.647   3.505   4.301 -0.0010 -0.1716  0.5595
   27A       C2  854   3.536   3.431   4.269  0.0387 -0.6201  0.5700
   27A       H2  855   3.474   3.477   4.194 -0.1357  0.3642  1.2998
   27A       N3  856   3.482   3.328   4.330  0.0040 -0.5967 -0.0752
   27A       C4  857   3.569   3.282   4.427 -0.2878 -0.8925 -0.4589
   27A      C3'  858   3.478   2.884   4.561  0.4052  0.2027 -0.0231
   27A      H3'  859   3.585   2.899   4.576  0.5320  1.3514 -1.7761
   27A      C2'  860   3.437   2.974   4.449  0.4700 -0.5478 -0.3088
   27A      H2'  861   3.518   2.989   4.377  0.8013  0.0686  0.1798
   27A      O2'  862   3.302   2.945   4.403 -0.1319 -0.2490  0.2935
   27A     HO2'  863   3.261   2.885   4.465 -1.1218 -0.8631 -0.9182
   27A      O3'  864   3.441   2.750   4.535  0.0365  0.4383  0.4882
   28A        P  865   3.526   2.665   4.435 -0.1218  0.4286  0.2683
   28A      OP1  866   3.490   2.523   4.460 -0.5245  0.4607 -0.4192
   28A      OP2  867   3.666   2.703   4.457 -0.2414  0.1904 -0.7348
   28A      O5'  868   3.486   2.693   4.285 -0.3046 -0.0233  0.1627
   28A      C5'  869   3.350   2.662   4.243  0.4046 -0.2400 -0.3920
   28A      H5'  870   3.278   2.720   4.300  0.6140 -1.0159  0.6919
   28A     H5''  871   3.336   2.557   4.267 -3.2082  0.1736 -0.1990
   28A      C4'  872   3.323   2.683   4.090 -0.5328 -0.6133  0.0958
   28A      H4'  873   3.227   2.632   4.079 -1.0332  0.0775  1.1192
   28A      O4'  874   3.325   2.820   4.059  0.1845 -0.1852  0.2597
   28A      C1'  875   3.443   2.849   3.975  0.9980 -0.0202 -0.2912
   28A      H1'  876   3.427   2.832   3.868 -0.2970 -0.7253 -0.0124
   28A       N9  877   3.505   2.987   3.991 -0.0207 -0.9103 -0.2424
   28A       C8  878   3.625   3.019   4.047  0.1311 -0.1345  0.4619
   28A       H8  879   3.700   2.948   4.077  2.3283  1.1501 -1.6062
   28A       N7  880   3.655   3.147   4.049  0.5475  0.3094 -0.0017
   28A       C5  881   3.553   3.205   3.975  0.6272  0.2029 -0.2610
   28A       C6  882   3.523   3.335   3.933 -0.6644 -0.3953 -0.0327
   28A       N6  883   3.602   3.437   3.951  0.2162 -0.4408 -0.3900
   28A      H61  884   3.584   3.531   3.917  1.5763 -0.1250 -0.2883
   28A      H62  885   3.698   3.419   3.976  0.3755  0.5153 -0.2499
   28A       N1  886   3.407   3.358   3.867  0.0518 -0.0063  0.1810
   28A       C2  887   3.330   3.252   3.846 -0.1241 -0.9028  0.7869
   28A       H2  888   3.244   3.272   3.784  0.6749 -3.4131 -1.3257
   28A       N3  889   3.347   3.126   3.872  0.4667  0.0373  0.3082
   28A       C4  890   3.462   3.105   3.937  0.4374 -0.1452 -0.2209
   28A      C3'  891   3.435   2.624   4.007  0.5059  0.4344  0.2261
   28A      H3'  892   3.474   2.531   4.049  0.5929 -0.1328 -1.0441
   28A      C2'  893   3.542   2.736   3.999  0.1041  0.0344 -0.1040
   28A      H2'  894   3.591   2.759   4.093  0.2014 -3.6896  0.8964
   28A      O2'  895   3.642   2.724   3.899  0.4587  0.1398 -0.1534
   28A     HO2'  896   3.733   2.705   3.924  1.0223  1.4012 -1.1873
   28A      O3'  897   3.386   2.602   3.874  0.0292  0.1776 -0.4983
   29A        P  898   3.418   2.467   3.799  0.2415 -0.2310  0.2922
   29A      OP1  899   3.302   2.380   3.839  0.2710  0.3748  0.0517
   29A      OP2  900   3.557   2.425   3.820  0.6502 -0.7008  0.1732
   29A      O5'  901   3.397   2.495   3.645  0.3020 -0.0111 -0.1248
   29A      C5'  902   3.483   2.586   3.577 -0.9967 -0.4927  1.3282
   29A      H5'  903   3.514   2.523   3.493 -2.4943 -0.9167  1.0637
   29A     H5''  904   3.564   2.623   3.640 -0.5359  1.9404 -0.5392
   29A      C4'  905   3.418   2.717   3.529  0.4791  0.3067  0.3945
   29A      H4'  906   3.321   2.687   3.490  0.6018 -0.1595  0.4370
   29A      O4'  907   3.395   2.810   3.632 -0.0613 -0.6391  0.5084
   29A      C1'  908   3.412   2.937   3.560 -0.1034  0.7058  0.1539
   29A      H1'  909   3.322   2.998   3.569 -0.2806  0.5733 -0.6790
   29A       N9  910   3.530   3.002   3.620  0.5104  0.8056  0.3318
   29A       C8  911   3.642   2.941   3.674  0.4223 -0.4796 -0.2335
   29A       H8  912   3.642   2.835   3.690 -0.3074 -0.5506 -0.6610
   29A       N7  913   3.738   3.023   3.711 -1.0148  0.1802 -0.2365
   29A       C5  914   3.686   3.149   3.668  0.5208  0.0963 -0.1796
   29A       C6  915   3.729   3.284   3.671 -0.6465 -0.7831  0.4130
   29A       N6  916   3.843   3.333   3.712  0.4129 -0.3600 -0.0256
   29A      H61  917   3.854   3.433   3.712 -1.7941  0.0031 -2.2599
   29A      H62  918   3.907   3.276   3.766  0.8711 -0.2408 -0.4417
   29A       N1  919   3.653   3.382   3.615 -0.0685  0.5278 -0.0721
   29A       C2  920   3.542   3.346   3.549 -0.0910 -0.7794 -0.7250
   29A       H2  921   3.491   3.435   3.516  1.1517  0.7608  1.2952
   29A       N3  922   3.484   3.230   3.552  0.4391 -0.1502 -0.0636
   29A       C4  923   3.561   3.136   3.614 -0.2578  0.2926 -0.6783
   29A      C3'  924   3.502   2.770   3.409 -0.9747 -0.0380  0.0390
   29A      H3'  925   3.604   2.779   3.447 -0.6283 -1.4968 -0.4829
   29A      C2'  926   3.435   2.906   3.409  0.1557  0.1135 -0.2103
   29A      H2'  927   3.502   2.985   3.375 -0.4700  1.0369  0.6279
   29A      O2'  928   3.315   2.919   3.339 -0.4339 -0.4557  0.4390
   29A     HO2'  929   3.330   2.861   3.264 -1.7640 -1.7325  1.1189
   29A      O3'  930   3.487   2.702   3.288 -0.5061 -0.7778  0.0397
   30C        P  931   3.611   2.683   3.187  0.5886 -0.2906  0.5649
   30C      OP1  932   3.578   2.592   3.077  0.0660  0.0087  0.0293
   30C      OP2  933   3.732   2.658   3.261 -0.2267 -0.0376 -0.0500
   30C      O5'  934   3.617   2.838   3.136 -0.4883  0.2652 -0.2457
   30C      C5'  935   3.514   2.889   3.049 -0.8128 -0.0676 -0.1210
   30C      H5'  936   3.412   2.870   3.083 -0.2426 -2.1194  0.5475
   30C     H5''  937   3.520   2.838   2.953 -0.3382 -0.4472  0.1118
   30C      C4'  938   3.536   3.037   3.023 -0.3628  0.1249  0.4111
   30C      H4'  939   3.458   3.081   2.961  1.3041  1.5263 -0.8239
   30C      O4'  940   3.545   3.120   3.142 -0.2060 -0.1033  0.0135
   30C      C1'  941   3.658   3.213   3.138  0.2709  0.0836 -0.5770
   30C      H1'  942   3.619   3.311   3.166  0.9286 -0.8018  4.2480
   30C       N1  943   3.762   3.186   3.242  0.5521  0.2867 -0.7451
   30C       C6  944   3.781   3.063   3.301  0.4779 -0.1258  0.6792
   30C       H6  945   3.712   2.983   3.279 -1.6001  1.1667  2.1515
   30C       C5  946   3.865   3.057   3.405  0.0074 -0.2142 -0.1542
   30C       H5  947   3.871   2.966   3.463  1.9430  0.2550  0.4360
   30C       C4  948   3.949   3.163   3.431 -0.0833  0.3565 -0.5690
   30C       N4  949   4.038   3.147   3.522  0.0082 -0.8568 -0.3483
   30C      H41  950   4.034   3.070   3.588 -0.2152  0.5223  1.3368
   30C      H42  951   4.067   3.234   3.565 -0.4194 -0.6586 -0.4622
   30C       N3  952   3.939   3.281   3.372 -0.7774  0.2587  0.1701
   30C       C2  953   3.845   3.298   3.279  0.3335  0.7218  0.2222
   30C       O2  954   3.823   3.414   3.240 -0.1498 -0.0448 -0.5436
   30C      C3'  955   3.667   3.059   2.952  0.0357 -0.2976 -0.4113
   30C      H3'  956   3.743   2.996   2.999  0.1145  0.0872 -0.0197
   30C      C2'  957   3.708   3.202   2.991 -0.0345  0.1086 -0.2460
   30C      H2'  958   3.815   3.216   2.976 -0.2804  0.6641 -1.5731
   30C      O2'  959   3.628   3.301   2.927  0.3157  0.9391  0.0334
   30C     HO2'  960   3.610   3.260   2.842 -1.7697 -2.5040  1.8992
   30C      O3'  961   3.651   3.039   2.813 -0.0199 -0.9173 -0.2858
   31A        P  962   3.766   2.989   2.719 -0.3518  0.5537  0.1462
   31A      OP1  963   3.708   2.968   2.585 -0.1888 -0.0293 -0.1936
   31A      OP2  964   3.825   2.873   2.788  0.2894  0.1562 -0.2998
   31A      O5'  965   3.884   3.102   2.706  0.4867 -0.6819 -1.0427
   31A      C5'  966   3.857   3.224   2.640 -0.6117  0.6671 -0.7223
   31A      H5'  967   3.781   3.274   2.698  0.7707  0.1099  1.7184
   31A     H5''  968   3.828   3.205   2.537  1.8343  1.6903 -1.6679
   31A      C4'  969   3.988   3.305   2.636  0.1185 -0.3230 -0.2297
   31A      H4'  970   3.967   3.391   2.572  2.0987 -1.1697 -2.1710
   31A      O4'  971   4.024   3.358   2.765  0.1437 -0.6573  0.0686
   31A      C1'  972   4.156   3.326   2.794 -0.1076 -0.7435  0.5113
   31A      H1'  973   4.220   3.408   2.762 -1.4205  0.5012  0.9638
   31A       N9  974   4.171   3.294   2.937  0.6465 -0.1711  0.6649
   31A       C8  975   4.101   3.199   3.000 -0.1358  0.8351  0.5407
   31A       H8  976   4.018   3.143   2.958  1.1460 -0.2828 -0.5897
   31A       N7  977   4.137   3.171   3.123  0.5794  0.2649 -0.1591
   31A       C5  978   4.244   3.264   3.134  0.4365 -0.2547 -0.7973
   31A       C6  979   4.321   3.307   3.246  0.1891  0.9525 -0.0130
   31A       N6  980   4.314   3.259   3.369  0.5166 -0.0777 -0.3130
   31A      H61  981   4.367   3.301   3.444 -0.2738  2.4286 -1.0619
   31A      H62  982   4.254   3.178   3.374 -0.4102  0.6445  0.5146
   31A       N1  983   4.418   3.404   3.236  0.4323  0.8259  0.2127
   31A       C2  984   4.419   3.474   3.124 -0.3564 -0.0482  0.0094
   31A       H2  985   4.489   3.556   3.135  0.8157 -1.1718  1.1423
   31A       N3  986   4.341   3.453   3.014  0.2171  0.2799  0.1252
   31A       C4  987   4.261   3.349   3.026  0.6294  1.2849  0.3876
   31A      C3'  988   4.107   3.228   2.580 -0.0895 -0.0876 -0.3617
   31A      H3'  989   4.077   3.135   2.532 -0.3938  0.5599 -1.4842
   31A      C2'  990   4.189   3.206   2.708  0.3072  0.0633  0.4267
   31A      H2'  991   4.167   3.114   2.763 -0.1471 -0.1384 -0.0858
   31A      O2'  992   4.325   3.191   2.685 -0.4387 -0.1266 -0.2045
   31A     HO2'  993   4.369   3.173   2.768 -0.0079 -1.3332 -0.6693
   31A      O3'  994   4.177   3.318   2.491  0.2511 -0.2600  0.6814
   32A        P  995   4.236   3.268   2.346  0.3722  0.5493 -0.0644
   32A      OP1  996   4.113   3.258   2.265 -0.0234 -0.6200  0.3003
   32A      OP2  997   4.327   3.161   2.357  0.1673 -0.3135  0.0844
   32A      O5'  998   4.319   3.394   2.301  0.0304 -0.5266  0.4369
   32A      C5'  999   4.269   3.488   2.207 -0.2882  0.3674  0.1848
   32A      H5' 1000   4.183   3.535   2.256 -1.2969 -0.9872 -0.2232
   32A     H5'' 1001   4.236   3.448   2.111  1.0501 -1.8655  0.5823
   32A      C4' 1002   4.375   3.592   2.182 -0.3972 -0.1098  0.1033
   32A      H4' 1003   4.345   3.656   2.099 -2.5782  0.3691  1.1861
   32A      O4' 1004   4.402   3.661   2.302  0.5526 -0.0927 -0.4175
   32A      C1' 1005   4.537   3.698   2.324  0.4112  0.1750 -0.1768
   32A      H1' 1006   4.545   3.805   2.345 -1.7557 -0.1377  3.0746
   32A       N9 1007   4.593   3.632   2.447  0.4003  0.1061  0.5604
   32A       C8 1008   4.550   3.519   2.511  0.4777  0.0256 -0.6144
   32A       H8 1009   4.455   3.473   2.489  0.8008 -1.5698  1.1052
   32A       N7 1010   4.622   3.490   2.612  0.0132 -0.0697  0.0897
   32A       C5 1011   4.728   3.572   2.604  0.3110  0.0518 -0.3777
   32A       C6 1012   4.839   3.598   2.687  0.2429  0.1494  0.1993
   32A       N6 1013   4.870   3.534   2.799  0.1803 -0.3592  0.2882
   32A      H61 1014   4.955   3.551   2.850 -0.0168  0.4951  0.3420
   32A      H62 1015   4.815   3.452   2.817  2.1905 -2.0485 -0.7438
   32A       N1 1016   4.926   3.698   2.656 -0.6129 -0.9167  0.0696
   32A       C2 1017   4.893   3.777   2.558  0.3533  0.1491  0.7428
   32A       H2 1018   4.959   3.861   2.542  1.7327 -1.2884 -1.7977
   32A       N3 1019   4.785   3.768   2.478  0.2872 -0.4795 -0.3771
   32A       C4 1020   4.710   3.657   2.503 -0.2325 -0.3959 -0.3619
   32A      C3' 1021   4.521   3.552   2.136 -0.7297 -0.5213 -0.1616
   32A      H3' 1022   4.550   3.459   2.183  2.0133  0.4470  0.2613
   32A      C2' 1023   4.605   3.664   2.195  0.4095 -0.1156 -0.1305
   32A      H2' 1024   4.711   3.646   2.214  0.8891  2.0118 -0.4823
   32A      O2' 1025   4.596   3.776   2.108  0.1574  0.2015 -0.6001
   32A     HO2' 1026   4.640   3.746   2.028  1.9972 -0.0940  0.4707
   32A      O3' 1027   4.528   3.536   1.995 -0.1618  0.4144 -0.5933
   33G3       P 1028   4.571   3.393   1.940  0.2570  0.0897 -0.1858
   33G3     OP1 1029   4.598   3.399   1.796  0.2816  0.4425  0.3046
   33G3     OP2 1030   4.473   3.298   1.998 -0.6097 -0.4180 -0.0756
   33G3     O5' 1031   4.704   3.359   2.020  0.5248  0.2671  0.1730
   33G3     C5' 1032   4.806   3.454   2.005 -0.4283  0.0392  0.1626
   33G3     H5' 1033   4.765   3.554   2.013 -1.2629 -0.1640 -1.1996
   33G3    H5'' 1034   4.846   3.443   1.905 -1.7828 -0.3280 -0.3700
   33G3     C4' 1035   4.914   3.436   2.118 -0.8019  0.3711 -0.2071
   33G3     H4' 1036   4.994   3.506   2.098  0.1789 -1.0773 -1.6409
   33G3     O4' 1037   4.856   3.468   2.246 -0.1863  0.3100 -0.4736
   33G3     C1' 1038   4.927   3.389   2.344 -0.4524 -0.4466 -0.0707
   33G3     H1' 1039   4.970   3.451   2.423  1.8248  0.5261 -1.9372
   33G3      N9 1040   4.825   3.299   2.403  0.1446  0.3275 -0.5582
   33G3      C8 1041   4.703   3.259   2.355  0.4504 -0.1214  0.0364
   33G3      H8 1042   4.660   3.295   2.263 -2.0363 -0.4109  1.0095
   33G3      N7 1043   4.654   3.163   2.425  0.2098 -0.9162 -0.6720
   33G3      C5 1044   4.745   3.152   2.532  0.2040  0.0112 -0.3708
   33G3      C6 1045   4.738   3.067   2.643  0.2459 -0.8709 -1.2537
   33G3      O6 1046   4.655   2.987   2.672  0.1618  0.0316  0.3187
   33G3      N1 1047   4.833   3.095   2.737  0.2778  0.0959  0.0156
   33G3      H1 1048   4.839   3.030   2.813 -0.7044  0.7690  0.6894
   33G3      C2 1049   4.935   3.179   2.714 -0.1759 -0.5810 -0.6316
   33G3      N2 1050   5.042   3.184   2.792  0.3276 -0.0643  0.4846
   33G3     H21 1051   5.049   3.141   2.883 -0.5304  0.9156  1.0345
   33G3     H22 1052   5.119   3.248   2.778  0.8502 -0.8736 -0.4482
   33G3      N3 1053   4.945   3.265   2.613 -0.4719  0.9991 -0.5592
   33G3      C4 1054   4.846   3.240   2.524 -0.2687 -0.3304  0.2077
   33G3     C3' 1055   4.973   3.296   2.135 -0.1508 -0.1321 -0.0249
   33G3     H3' 1056   4.901   3.215   2.126  0.8692 -1.0118 -0.3750
   33G3     C2' 1057   5.037   3.320   2.275 -0.0352  0.1680  0.3056
   33G3     H2' 1058   5.053   3.221   2.318 -0.7376  0.0028  0.1997
   33G3     O2' 1059   5.156   3.399   2.288 -0.5636  0.1155  0.3746
   33G3    HO2' 1060   5.227   3.347   2.249  0.0953  1.0588  0.2876
   33G3     O3' 1061   5.066   3.286   2.030 -0.2985  0.2818 -0.2528
   33G3    HO3' 1062   5.140   3.247   2.077 -1.0705 -1.2877 -0.2610
   8.09217   8.04338   8.05573
